<event>
 7    1  0.2682188E-015  0.9000832E+02  0.7816164E-02  0.1186338E+00
        -11   -1    0    0    0    0  0.00000000000E+00  0.00000000000E+00  0.45593999997E+02  0.45594000000E+02  0.51100000000E-03 0.  1.
         11   -1    0    0    0    0 -0.00000000000E+00 -0.00000000000E+00 -0.45593999997E+02  0.45594000000E+02  0.51100000000E-03 0. -1.
    9900012    2    1    2    0    0  0.97507521126E+00  0.73819462889E-01  0.65986792678E+00  0.90008319254E+02  0.90000588267E+02 0.  0.
         12    1    1    2    0    0 -0.97507521126E+00 -0.73819462889E-01 -0.65986792678E+00  0.11796807456E+01  0.00000000000E+00 0. -1.
         11    1    3    3    0    0 -0.85504130709E+01 -0.34777733405E+01  0.13544496937E+01  0.93294697237E+01  0.51100000000E-03 0. -1.
        -11    1    3    3    0    0 -0.32621499526E+02  0.89146322291E+01  0.12710565815E+02  0.36127432551E+02  0.51100000000E-03 0.  1.
         12    1    3    3    0    0  0.42146987809E+02 -0.53630394257E+01 -0.13405147582E+02  0.44551416980E+02  0.00000000000E+00 0. -1.
</event>
<event>
 7    1  0.2682188E-015  0.9000809E+02  0.7816164E-02  0.1186338E+00
        -11   -1    0    0    0    0  0.00000000000E+00  0.00000000000E+00  0.45593999997E+02  0.45594000000E+02  0.51100000000E-03 0.  1.
         11   -1    0    0    0    0 -0.00000000000E+00 -0.00000000000E+00 -0.45593999997E+02  0.45594000000E+02  0.51100000000E-03 0. -1.
    9900012    2    1    2    0    0 -0.98215084797E+00  0.60008006961E+00  0.25973035918E+00  0.90008094818E+02  0.90000360869E+02 0.  0.
         12    1    1    2    0    0  0.98215084797E+00 -0.60008006961E+00 -0.25973035918E+00  0.11799051816E+01  0.00000000000E+00 0. -1.
         11    1    3    3    0    0 -0.12169239491E+01 -0.11455035835E+02  0.13973186827E+02  0.18109353943E+02  0.51100000000E-03 0. -1.
        -11    1    3    3    0    0 -0.18406161566E+02 -0.23847550560E+02 -0.56945426692E+01  0.30658119117E+02  0.51100000000E-03 0.  1.
         12    1    3    3    0    0  0.18640934667E+02  0.35902666464E+02 -0.80189137988E+01  0.41240621758E+02  0.00000000000E+00 0. -1.
</event>
<event>
 7    1  0.2682188E-015  0.9000836E+02  0.7816164E-02  0.1186338E+00
        -11   -1    0    0    0    0  0.00000000000E+00  0.00000000000E+00  0.45593999997E+02  0.45594000000E+02  0.51100000000E-03 0. -1.
         11   -1    0    0    0    0 -0.00000000000E+00 -0.00000000000E+00 -0.45593999997E+02  0.45594000000E+02  0.51100000000E-03 0.  1.
    9900012    2    1    2    0    0 -0.41186646106E+00 -0.39653957976E+00 -0.10318265101E+01  0.90008362951E+02  0.90000632540E+02 0.  0.
         12    1    1    2    0    0  0.41186646106E+00  0.39653957976E+00  0.10318265101E+01  0.11796370489E+01  0.00000000000E+00 0. -1.
         11    1    3    3    0    0  0.26544743745E+02 -0.74441244878E+01  0.18161849936E+02  0.33013500317E+02  0.51100000000E-03 0. -1.
        -11    1    3    3    0    0  0.91058654839E+01  0.14048613092E+02 -0.38196008697E+01  0.17171769480E+02  0.51100000000E-03 0.  1.
        -12    1    3    3    0    0 -0.36062475690E+02 -0.70010281837E+01 -0.15374075576E+02  0.39823093154E+02  0.00000000000E+00 0.  1.
</event>
<event>
 7    1  0.3069744E-015  0.9000805E+02  0.7816164E-02  0.1186338E+00
        -11   -1    0    0    0    0  0.00000000000E+00  0.00000000000E+00  0.45593999997E+02  0.45594000000E+02  0.51100000000E-03 0. -1.
         11   -1    0    0    0    0 -0.00000000000E+00 -0.00000000000E+00 -0.45593999997E+02  0.45594000000E+02  0.51100000000E-03 0.  1.
    9900012    2    1    2    0    0  0.18705380773E+00 -0.72671443712E+00 -0.91059711263E+00  0.90008046568E+02  0.90000311982E+02 0.  0.
         12    1    1    2    0    0 -0.18705380773E+00  0.72671443712E+00  0.91059711263E+00  0.11799534320E+01  0.00000000000E+00 0. -1.
         11    1    3    3    0    0 -0.23050313821E+01 -0.96424724455E+01 -0.34227201568E+01  0.10488348682E+02  0.51100000000E-03 0. -1.
        -11    1    3    3    0    0 -0.31578615937E+01  0.19614674312E+02 -0.34922590547E+02  0.40178288527E+02  0.51100000000E-03 0.  1.
         12    1    3    3    0    0  0.56499467836E+01 -0.10698916304E+02  0.37434713591E+02  0.39341409359E+02  0.00000000000E+00 0. -1.
</event>
<event>
 7    1  0.2682188E-015  0.9000775E+02  0.7816164E-02  0.1186339E+00
        -11   -1    0    0    0    0  0.00000000000E+00  0.00000000000E+00  0.45593999997E+02  0.45594000000E+02  0.51100000000E-03 0.  1.
         11   -1    0    0    0    0 -0.00000000000E+00 -0.00000000000E+00 -0.45593999997E+02  0.45594000000E+02  0.51100000000E-03 0. -1.
    9900012    2    1    2    0    0  0.11756714745E+01 -0.10375422905E+00  0.41706441204E-02  0.90007751827E+02  0.90000013351E+02 0.  0.
         12    1    1    2    0    0 -0.11756714745E+01  0.10375422905E+00 -0.41706441204E-02  0.11802481732E+01  0.00000000000E+00 0. -1.
         11    1    3    3    0    0  0.21121989400E+02 -0.54242173421E+01 -0.32962557717E+02  0.39523294163E+02  0.51100000000E-03 0. -1.
        -11    1    3    3    0    0 -0.21458730069E+01 -0.26917514681E+01 -0.59910874568E+01  0.69096617938E+01  0.51100000000E-03 0.  1.
        -12    1    3    3    0    0 -0.17800444918E+02  0.80122145811E+01  0.38957815818E+02  0.43574795870E+02  0.00000000000E+00 0.  1.
</event>
<event>
 7    1  0.2682188E-015  0.9000779E+02  0.7816164E-02  0.1186339E+00
        -11   -1    0    0    0    0  0.00000000000E+00  0.00000000000E+00  0.45593999997E+02  0.45594000000E+02  0.51100000000E-03 0.  1.
         11   -1    0    0    0    0 -0.00000000000E+00 -0.00000000000E+00 -0.45593999997E+02  0.45594000000E+02  0.51100000000E-03 0. -1.
    9900012    2    1    2    0    0 -0.72231039903E+00 -0.92991372613E+00 -0.80202457950E-01  0.90007786339E+02  0.90000048319E+02 0.  0.
         12    1    1    2    0    0  0.72231039903E+00  0.92991372613E+00  0.80202457950E-01  0.11802136607E+01  0.00000000000E+00 0. -1.
         11    1    3    3    0    0  0.59707987334E+01 -0.30986477577E+01 -0.76108832271E+01  0.10157637481E+02  0.51100000000E-03 0. -1.
        -11    1    3    3    0    0 -0.27301676462E+02 -0.21238543945E+02 -0.18500909522E+02  0.39226788550E+02  0.51100000000E-03 0.  1.
         12    1    3    3    0    0  0.20608567329E+02  0.23407277977E+02  0.26031590291E+02  0.40623360308E+02  0.00000000000E+00 0. -1.
</event>
<event>
 7    1  0.2682188E-015  0.9000776E+02  0.7816164E-02  0.1186339E+00
        -11   -1    0    0    0    0  0.00000000000E+00  0.00000000000E+00  0.45593999997E+02  0.45594000000E+02  0.51100000000E-03 0.  1.
         11   -1    0    0    0    0 -0.00000000000E+00 -0.00000000000E+00 -0.45593999997E+02  0.45594000000E+02  0.51100000000E-03 0. -1.
    9900012    2    1    2    0    0  0.91267736309E+00 -0.46355823559E+00  0.58745230767E+00  0.90007760016E+02  0.90000021648E+02 0.  0.
         12    1    1    2    0    0 -0.91267736309E+00  0.46355823559E+00 -0.58745230767E+00  0.11802399844E+01  0.00000000000E+00 0. -1.
         11    1    3    3    0    0 -0.70098466092E+01 -0.58581216508E+01 -0.46050242952E+00  0.91469995905E+01  0.51100000000E-03 0. -1.
        -11    1    3    3    0    0 -0.15796713199E+02  0.31447466354E+02  0.20385520172E+02  0.40669997799E+02  0.51100000000E-03 0.  1.
         12    1    3    3    0    0  0.23719237171E+02 -0.26052902939E+02 -0.19337565435E+02  0.40190762626E+02  0.00000000000E+00 0. -1.
</event>
<event>
 7    1  0.3606644E-015  0.9000771E+02  0.7816164E-02  0.1186339E+00
        -11   -1    0    0    0    0  0.00000000000E+00  0.00000000000E+00  0.45593999997E+02  0.45594000000E+02  0.51100000000E-03 0.  1.
         11   -1    0    0    0    0 -0.00000000000E+00 -0.00000000000E+00 -0.45593999997E+02  0.45594000000E+02  0.51100000000E-03 0. -1.
    9900012    2    1    2    0    0 -0.89837623669E+00  0.61515808454E+00  0.45560779900E+00  0.90007712832E+02  0.89999973842E+02 0.  0.
         12    1    1    2    0    0  0.89837623669E+00 -0.61515808454E+00 -0.45560779900E+00  0.11802871677E+01  0.00000000000E+00 0. -1.
         11    1    3    3    0    0  0.19333626157E+01 -0.59244076519E+01  0.72595889312E+01  0.95675560484E+01  0.51100000000E-03 0. -1.
        -11    1    3    3    0    0  0.94286376490E+01  0.18527018395E+02  0.31918411841E+02  0.38091135888E+02  0.51100000000E-03 0.  1.
         12    1    3    3    0    0 -0.12260376501E+02 -0.11987452659E+02 -0.38722392974E+02  0.42349020895E+02  0.00000000000E+00 0. -1.
</event>
<event>
 7    1  0.2755681E-015  0.9000801E+02  0.7816164E-02  0.1186338E+00
        -11   -1    0    0    0    0  0.00000000000E+00  0.00000000000E+00  0.45593999997E+02  0.45594000000E+02  0.51100000000E-03 0.  1.
         11   -1    0    0    0    0 -0.00000000000E+00 -0.00000000000E+00 -0.45593999997E+02  0.45594000000E+02  0.51100000000E-03 0. -1.
    9900012    2    1    2    0    0 -0.10721415224E+01  0.43581208590E+00  0.23010500492E+00  0.90008013588E+02  0.90000278567E+02 0.  0.
         12    1    1    2    0    0  0.10721415224E+01 -0.43581208590E+00 -0.23010500492E+00  0.11799864116E+01  0.00000000000E+00 0. -1.
         11    1    3    3    0    0 -0.48239243602E+01  0.77735063744E+01  0.43948047386E+01  0.10149480604E+02  0.51100000000E-03 0. -1.
        -11    1    3    3    0    0  0.23321047717E+01 -0.10861044170E+02  0.36942324797E+02  0.38576370420E+02  0.51100000000E-03 0.  1.
         12    1    3    3    0    0  0.14196780661E+01  0.35233498816E+01 -0.41107024531E+02  0.41282162564E+02  0.00000000000E+00 0. -1.
</event>
<event>
 7    1  0.2682188E-015  0.9000774E+02  0.7816164E-02  0.1186339E+00
        -11   -1    0    0    0    0  0.00000000000E+00  0.00000000000E+00  0.45593999997E+02  0.45594000000E+02  0.51100000000E-03 0.  1.
         11   -1    0    0    0    0 -0.00000000000E+00 -0.00000000000E+00 -0.45593999997E+02  0.45594000000E+02  0.51100000000E-03 0. -1.
    9900012    2    1    2    0    0 -0.47088045471E+00  0.89494613648E+00 -0.60855970595E+00  0.90007744983E+02  0.90000006417E+02 0.  0.
         12    1    1    2    0    0  0.47088045471E+00 -0.89494613648E+00  0.60855970595E+00  0.11802550172E+01  0.00000000000E+00 0. -1.
         11    1    3    3    0    0 -0.28578704000E+02  0.70659477321E+01 -0.31074323959E+02  0.42805181339E+02  0.51100000000E-03 0. -1.
        -11    1    3    3    0    0  0.79950942609E+01  0.32569607134E+00 -0.21968967002E+01  0.82978289657E+01  0.51100000000E-03 0.  1.
        -12    1    3    3    0    0  0.20112729284E+02 -0.64966976670E+01  0.32662660954E+02  0.38904734678E+02  0.00000000000E+00 0.  1.
</event>
<event>
 7    1  0.2682188E-015  0.9000776E+02  0.7816164E-02  0.1186339E+00
        -11   -1    0    0    0    0  0.00000000000E+00  0.00000000000E+00  0.45593999997E+02  0.45594000000E+02  0.51100000000E-03 0. -1.
         11   -1    0    0    0    0 -0.00000000000E+00 -0.00000000000E+00 -0.45593999997E+02  0.45594000000E+02  0.51100000000E-03 0.  1.
    9900012    2    1    2    0    0  0.11425351994E+01 -0.94648494452E-01 -0.28040920182E+00  0.90007756661E+02  0.90000018249E+02 0.  0.
         12    1    1    2    0    0 -0.11425351994E+01  0.94648494452E-01  0.28040920182E+00  0.11802433392E+01  0.00000000000E+00 0. -1.
         11    1    3    3    0    0  0.10830188389E+02  0.10231258684E+02  0.34601362212E+01  0.15295233824E+02  0.51100000000E-03 0. -1.
        -11    1    3    3    0    0 -0.17119053355E+02  0.28729938112E+02  0.55087566756E+01  0.33894213843E+02  0.51100000000E-03 0.  1.
         12    1    3    3    0    0  0.74314001649E+01 -0.39055845290E+02 -0.92493020986E+01  0.40818308993E+02  0.00000000000E+00 0. -1.
</event>
<event>
 7    1  0.2682188E-015  0.9000771E+02  0.7816164E-02  0.1186339E+00
        -11   -1    0    0    0    0  0.00000000000E+00  0.00000000000E+00  0.45593999997E+02  0.45594000000E+02  0.51100000000E-03 0.  1.
         11   -1    0    0    0    0 -0.00000000000E+00 -0.00000000000E+00 -0.45593999997E+02  0.45594000000E+02  0.51100000000E-03 0. -1.
    9900012    2    1    2    0    0  0.40526058565E+00  0.10442272141E+01  0.37206115427E+00  0.90007713544E+02  0.89999974562E+02 0.  0.
         12    1    1    2    0    0 -0.40526058565E+00 -0.10442272141E+01 -0.37206115427E+00  0.11802864565E+01  0.00000000000E+00 0. -1.
         11    1    3    3    0    0  0.90254726857E+01  0.21504458144E+01 -0.27840107408E+01  0.96868101285E+01  0.51100000000E-03 0. -1.
        -11    1    3    3    0    0  0.29080098113E+02  0.19888377349E+02  0.10016868363E+02  0.36627002497E+02  0.51100000000E-03 0.  1.
         12    1    3    3    0    0 -0.37700310213E+02 -0.20994595950E+02 -0.68607964681E+01  0.43693900918E+02  0.00000000000E+00 0. -1.
</event>
<event>
 7    1  0.2682188E-015  0.9000777E+02  0.7816164E-02  0.1186339E+00
        -11   -1    0    0    0    0  0.00000000000E+00  0.00000000000E+00  0.45593999997E+02  0.45594000000E+02  0.51100000000E-03 0.  1.
         11   -1    0    0    0    0 -0.00000000000E+00 -0.00000000000E+00 -0.45593999997E+02  0.45594000000E+02  0.51100000000E-03 0. -1.
    9900012    2    1    2    0    0 -0.25266271624E+00 -0.10686841741E+01  0.43245391749E+00  0.90007770911E+02  0.90000032687E+02 0.  0.
         12    1    1    2    0    0  0.25266271624E+00  0.10686841741E+01 -0.43245391749E+00  0.11802290892E+01  0.00000000000E+00 0. -1.
         11    1    3    3    0    0  0.39844199129E+01 -0.14021600574E+02  0.59895383933E+01  0.15759297418E+02  0.51100000000E-03 0. -1.
        -11    1    3    3    0    0 -0.92194307490E+01  0.13309408456E+02  0.32264227955E+02  0.36098734917E+02  0.51100000000E-03 0.  1.
         12    1    3    3    0    0  0.49823481198E+01 -0.35649205645E+00 -0.37821312431E+02  0.38149738576E+02  0.00000000000E+00 0. -1.
</event>
<event>
 7    1  0.2682188E-015  0.9000777E+02  0.7816164E-02  0.1186339E+00
        -11   -1    0    0    0    0  0.00000000000E+00  0.00000000000E+00  0.45593999997E+02  0.45594000000E+02  0.51100000000E-03 0.  1.
         11   -1    0    0    0    0 -0.00000000000E+00 -0.00000000000E+00 -0.45593999997E+02  0.45594000000E+02  0.51100000000E-03 0. -1.
    9900012    2    1    2    0    0 -0.87464163868E-01  0.99895758961E+00  0.62239826156E+00  0.90007768734E+02  0.90000030481E+02 0.  0.
         12    1    1    2    0    0  0.87464163868E-01 -0.99895758961E+00 -0.62239826156E+00  0.11802312662E+01  0.00000000000E+00 0. -1.
         11    1    3    3    0    0  0.48349004001E+01  0.36909088953E+02  0.60356247519E+01  0.37710553902E+02  0.51100000000E-03 0. -1.
        -11    1    3    3    0    0 -0.51062819580E-01  0.43212889408E+01  0.84296795278E+01  0.94728898824E+01  0.51100000000E-03 0.  1.
        -12    1    3    3    0    0 -0.48713017443E+01 -0.40231420304E+02 -0.13842906018E+02  0.42824324949E+02  0.00000000000E+00 0.  1.
</event>
<event>
 7    1  0.2682188E-015  0.9000775E+02  0.7816164E-02  0.1186339E+00
        -11   -1    0    0    0    0  0.00000000000E+00  0.00000000000E+00  0.45593999997E+02  0.45594000000E+02  0.51100000000E-03 0. -1.
         11   -1    0    0    0    0 -0.00000000000E+00 -0.00000000000E+00 -0.45593999997E+02  0.45594000000E+02  0.51100000000E-03 0.  1.
    9900012    2    1    2    0    0 -0.65132478754E+00 -0.57925064311E+00 -0.79576030674E+00  0.90007750131E+02  0.90000011633E+02 0.  0.
         12    1    1    2    0    0  0.65132478754E+00  0.57925064311E+00  0.79576030674E+00  0.11802498685E+01  0.00000000000E+00 0. -1.
         11    1    3    3    0    0 -0.18667469776E+02  0.30692401873E+01 -0.13593497602E+02  0.23295446776E+02  0.51100000000E-03 0. -1.
        -11    1    3    3    0    0 -0.79682732589E+01 -0.99645933571E+01 -0.20413945076E+02  0.24073131357E+02  0.51100000000E-03 0.  1.
         12    1    3    3    0    0  0.25984418248E+02  0.63161025267E+01  0.33211682371E+02  0.42639171999E+02  0.00000000000E+00 0. -1.
</event>
<event>
 7    1  0.2682188E-015  0.9000777E+02  0.7816164E-02  0.1186339E+00
        -11   -1    0    0    0    0  0.00000000000E+00  0.00000000000E+00  0.45593999997E+02  0.45594000000E+02  0.51100000000E-03 0.  1.
         11   -1    0    0    0    0 -0.00000000000E+00 -0.00000000000E+00 -0.45593999997E+02  0.45594000000E+02  0.51100000000E-03 0. -1.
    9900012    2    1    2    0    0  0.54362915854E+00 -0.10462238666E+01  0.53127531929E-01  0.90007771388E+02  0.90000033171E+02 0.  0.
         12    1    1    2    0    0 -0.54362915854E+00  0.10462238666E+01 -0.53127531929E-01  0.11802286116E+01  0.00000000000E+00 0. -1.
         11    1    3    3    0    0 -0.16552479805E+02 -0.17478964760E+01 -0.33585282818E+02  0.37483475720E+02  0.51100000000E-03 0. -1.
        -11    1    3    3    0    0  0.94852991194E+00 -0.90649682487E+01 -0.43555919717E+01  0.10101709758E+02  0.51100000000E-03 0.  1.
        -12    1    3    3    0    0  0.16147579052E+02  0.97666408581E+01  0.37994002322E+02  0.42422585911E+02  0.00000000000E+00 0.  1.
</event>
<event>
 7    1  0.2682188E-015  0.9000774E+02  0.7816164E-02  0.1186339E+00
        -11   -1    0    0    0    0  0.00000000000E+00  0.00000000000E+00  0.45593999997E+02  0.45594000000E+02  0.51100000000E-03 0.  1.
         11   -1    0    0    0    0 -0.00000000000E+00 -0.00000000000E+00 -0.45593999997E+02  0.45594000000E+02  0.51100000000E-03 0. -1.
    9900012    2    1    2    0    0  0.46484026006E+00  0.10337565165E+01  0.32907826906E+00  0.90007736678E+02  0.89999998002E+02 0.  0.
         12    1    1    2    0    0 -0.46484026006E+00 -0.10337565165E+01 -0.32907826906E+00  0.11802633223E+01  0.00000000000E+00 0. -1.
         11    1    3    3    0    0 -0.17329702535E+01 -0.36107806492E+02 -0.17485824876E+02  0.40156331349E+02  0.51100000000E-03 0. -1.
        -11    1    3    3    0    0  0.90056393617E+01  0.18528911621E+01 -0.10632867343E+01  0.92555564345E+01  0.51100000000E-03 0.  1.
        -12    1    3    3    0    0 -0.68078288481E+01  0.35288671846E+02  0.18878189880E+02  0.40595848894E+02  0.00000000000E+00 0.  1.
</event>
<event>
 7    1  0.2682188E-015  0.9000772E+02  0.7816164E-02  0.1186339E+00
        -11   -1    0    0    0    0  0.00000000000E+00  0.00000000000E+00  0.45593999997E+02  0.45594000000E+02  0.51100000000E-03 0.  1.
         11   -1    0    0    0    0 -0.00000000000E+00 -0.00000000000E+00 -0.45593999997E+02  0.45594000000E+02  0.51100000000E-03 0. -1.
    9900012    2    1    2    0    0 -0.38383513579E+00 -0.73296307601E+00  0.84171745191E+00  0.90007723528E+02  0.89999984678E+02 0.  0.
         12    1    1    2    0    0  0.38383513579E+00  0.73296307601E+00 -0.84171745191E+00  0.11802764723E+01  0.00000000000E+00 0. -1.
         11    1    3    3    0    0  0.32880570277E+01 -0.42968133432E+01  0.69486264793E+01  0.88066641888E+01  0.51100000000E-03 0. -1.
        -11    1    3    3    0    0  0.14983321302E+01  0.25345439188E+02  0.29636879456E+02  0.39025388031E+02  0.51100000000E-03 0.  1.
         12    1    3    3    0    0 -0.51702242937E+01 -0.21781588921E+02 -0.35743788483E+02  0.42175671308E+02  0.00000000000E+00 0. -1.
</event>
<event>
 7    1  0.2682188E-015  0.9000778E+02  0.7816164E-02  0.1186339E+00
        -11   -1    0    0    0    0  0.00000000000E+00  0.00000000000E+00  0.45593999997E+02  0.45594000000E+02  0.51100000000E-03 0.  1.
         11   -1    0    0    0    0 -0.00000000000E+00 -0.00000000000E+00 -0.45593999997E+02  0.45594000000E+02  0.51100000000E-03 0. -1.
    9900012    2    1    2    0    0 -0.65804407316E+00  0.80535742963E+00 -0.55794346345E+00  0.90007778199E+02  0.90000040071E+02 0.  0.
         12    1    1    2    0    0  0.65804407316E+00 -0.80535742963E+00  0.55794346345E+00  0.11802218012E+01  0.00000000000E+00 0. -1.
         11    1    3    3    0    0 -0.97241074335E+01 -0.47185604824E+01  0.33526880063E+01  0.11316518702E+02  0.51100000000E-03 0. -1.
        -11    1    3    3    0    0  0.36442122542E+02  0.28677414511E+01  0.20505078658E+02  0.41913130251E+02  0.51100000000E-03 0.  1.
         12    1    3    3    0    0 -0.27376059182E+02  0.26561764609E+01 -0.24415710128E+02  0.36778129245E+02  0.00000000000E+00 0. -1.
</event>
<event>
 7    1  0.2682188E-015  0.9000770E+02  0.7816164E-02  0.1186339E+00
        -11   -1    0    0    0    0  0.00000000000E+00  0.00000000000E+00  0.45593999997E+02  0.45594000000E+02  0.51100000000E-03 0.  1.
         11   -1    0    0    0    0 -0.00000000000E+00 -0.00000000000E+00 -0.45593999997E+02  0.45594000000E+02  0.51100000000E-03 0. -1.
    9900012    2    1    2    0    0  0.46089213506E+00 -0.18228952201E+00  0.10711937369E+01  0.90007700440E+02  0.89999961285E+02 0.  0.
         12    1    1    2    0    0 -0.46089213506E+00  0.18228952201E+00 -0.10711937369E+01  0.11802995603E+01  0.00000000000E+00 0. -1.
         11    1    3    3    0    0  0.27193308142E+02  0.20396614969E+02  0.14210188264E+02  0.36843281079E+02  0.51100000000E-03 0. -1.
        -11    1    3    3    0    0  0.13763865782E+01  0.70799644582E+01  0.59520674950E+01  0.93513338336E+01  0.51100000000E-03 0.  1.
        -12    1    3    3    0    0 -0.28108802585E+02 -0.27658868949E+02 -0.19091062022E+02  0.43813085527E+02  0.00000000000E+00 0.  1.
</event>
<event>
 7    1  0.2682188E-015  0.9000774E+02  0.7816164E-02  0.1186339E+00
        -11   -1    0    0    0    0  0.00000000000E+00  0.00000000000E+00  0.45593999997E+02  0.45594000000E+02  0.51100000000E-03 0.  1.
         11   -1    0    0    0    0 -0.00000000000E+00 -0.00000000000E+00 -0.45593999997E+02  0.45594000000E+02  0.51100000000E-03 0. -1.
    9900012    2    1    2    0    0 -0.41996002259E-01  0.11419665605E+01  0.29524079539E+00  0.90007737988E+02  0.89999999330E+02 0.  0.
         12    1    1    2    0    0  0.41996002259E-01 -0.11419665605E+01 -0.29524079539E+00  0.11802620119E+01  0.00000000000E+00 0. -1.
         11    1    3    3    0    0  0.15006757973E+02  0.30331633036E+02 -0.15268883239E+02  0.37126130193E+02  0.51100000000E-03 0. -1.
        -11    1    3    3    0    0 -0.20151040558E+01  0.84064971926E+01 -0.27590097334E+01  0.90742478683E+01  0.51100000000E-03 0.  1.
        -12    1    3    3    0    0 -0.13033649919E+02 -0.37596163668E+02  0.18323133767E+02  0.43807359927E+02  0.00000000000E+00 0.  1.
</event>
<event>
 7    1  0.2682188E-015  0.9000773E+02  0.7816164E-02  0.1186339E+00
        -11   -1    0    0    0    0  0.00000000000E+00  0.00000000000E+00  0.45593999997E+02  0.45594000000E+02  0.51100000000E-03 0.  1.
         11   -1    0    0    0    0 -0.00000000000E+00 -0.00000000000E+00 -0.45593999997E+02  0.45594000000E+02  0.51100000000E-03 0. -1.
    9900012    2    1    2    0    0 -0.22842830726E-01 -0.85492130076E+00  0.81340611790E+00  0.90007728108E+02  0.89999989319E+02 0.  0.
         12    1    1    2    0    0  0.22842830726E-01  0.85492130076E+00 -0.81340611790E+00  0.11802718916E+01  0.00000000000E+00 0. -1.
         11    1    3    3    0    0 -0.76545559999E+01 -0.30542273890E+01  0.45748517242E+01  0.94260172426E+01  0.51100000000E-03 0. -1.
        -11    1    3    3    0    0  0.12335539629E+01 -0.37635361098E+02  0.81245212228E+01  0.38522070371E+02  0.51100000000E-03 0.  1.
         12    1    3    3    0    0  0.63981592062E+01  0.39834667186E+02 -0.11885966829E+02  0.42059640494E+02  0.00000000000E+00 0. -1.
</event>
<event>
 7    1  0.2682188E-015  0.9000772E+02  0.7816164E-02  0.1186339E+00
        -11   -1    0    0    0    0  0.00000000000E+00  0.00000000000E+00  0.45593999997E+02  0.45594000000E+02  0.51100000000E-03 0. -1.
         11   -1    0    0    0    0 -0.00000000000E+00 -0.00000000000E+00 -0.45593999997E+02  0.45594000000E+02  0.51100000000E-03 0.  1.
    9900012    2    1    2    0    0 -0.54625158332E+00  0.88880138651E+00  0.55199325622E+00  0.90007722384E+02  0.89999983519E+02 0.  0.
         12    1    1    2    0    0  0.54625158332E+00 -0.88880138651E+00 -0.55199325622E+00  0.11802776164E+01  0.00000000000E+00 0. -1.
         11    1    3    3    0    0 -0.37732817302E+01 -0.50615167926E+01  0.64480262588E+01  0.90240595162E+01  0.51100000000E-03 0. -1.
        -11    1    3    3    0    0 -0.35419852237E+02 -0.10409707023E+02  0.59093328981E+01  0.37387807483E+02  0.51100000000E-03 0.  1.
         12    1    3    3    0    0  0.38646882384E+02  0.16360025202E+02 -0.11805365901E+02  0.43595855384E+02  0.00000000000E+00 0. -1.
</event>
<event>
 7    1  0.2682188E-015  0.9000762E+02  0.7816164E-02  0.1186339E+00
        -11   -1    0    0    0    0  0.00000000000E+00  0.00000000000E+00  0.45593999997E+02  0.45594000000E+02  0.51100000000E-03 0.  1.
         11   -1    0    0    0    0 -0.00000000000E+00 -0.00000000000E+00 -0.45593999997E+02  0.45594000000E+02  0.51100000000E-03 0. -1.
    9900012    2    1    2    0    0 -0.80195273413E+00  0.22270948094E+00  0.83700561853E+00  0.90007616119E+02  0.89999875852E+02 0.  0.
         12    1    1    2    0    0  0.80195273413E+00 -0.22270948094E+00 -0.83700561853E+00  0.11803838808E+01  0.00000000000E+00 0. -1.
         11    1    3    3    0    0  0.30448114858E+02  0.21300124498E+00 -0.23663182156E+02  0.38562666635E+02  0.51100000000E-03 0. -1.
        -11    1    3    3    0    0  0.67749407623E+01 -0.66318638881E+00  0.63326699297E+01  0.92974376695E+01  0.51100000000E-03 0.  1.
        -12    1    3    3    0    0 -0.38025008355E+02  0.67289462476E+00  0.18167517845E+02  0.42147511815E+02  0.00000000000E+00 0.  1.
</event>
<event>
 7    1  0.2682188E-015  0.9000758E+02  0.7816164E-02  0.1186339E+00
        -11   -1    0    0    0    0  0.00000000000E+00  0.00000000000E+00  0.45593999997E+02  0.45594000000E+02  0.51100000000E-03 0.  1.
         11   -1    0    0    0    0 -0.00000000000E+00 -0.00000000000E+00 -0.45593999997E+02  0.45594000000E+02  0.51100000000E-03 0. -1.
    9900012    2    1    2    0    0  0.11044578238E+01 -0.39378024361E+00  0.13605014039E+00  0.90007576514E+02  0.89999835724E+02 0.  0.
         12    1    1    2    0    0 -0.11044578238E+01  0.39378024361E+00 -0.13605014039E+00  0.11804234856E+01  0.00000000000E+00 0. -1.
         11    1    3    3    0    0 -0.24846258567E+02  0.24878801614E+02 -0.48188234799E+01  0.35489609670E+02  0.51100000000E-03 0. -1.
        -11    1    3    3    0    0 -0.96149534498E+01  0.10155881998E+01 -0.16269635907E+01  0.98043745348E+01  0.51100000000E-03 0.  1.
        -12    1    3    3    0    0  0.35565669841E+02 -0.26288170057E+02  0.65818372110E+01  0.44713592310E+02  0.00000000000E+00 0.  1.
</event>
<event>
 7    1  0.2682188E-015  0.9000772E+02  0.7816164E-02  0.1186339E+00
        -11   -1    0    0    0    0  0.00000000000E+00  0.00000000000E+00  0.45593999997E+02  0.45594000000E+02  0.51100000000E-03 0.  1.
         11   -1    0    0    0    0 -0.00000000000E+00 -0.00000000000E+00 -0.45593999997E+02  0.45594000000E+02  0.51100000000E-03 0. -1.
    9900012    2    1    2    0    0  0.11131320944E+01 -0.55083316581E-01  0.38854433966E+00  0.90007718705E+02  0.89999979792E+02 0.  0.
         12    1    1    2    0    0 -0.11131320944E+01  0.55083316581E-01 -0.38854433966E+00  0.11802812949E+01  0.00000000000E+00 0. -1.
         11    1    3    3    0    0 -0.29368591874E+02  0.10753544891E+02  0.12315040598E+02  0.33612693161E+02  0.51100000000E-03 0. -1.
        -11    1    3    3    0    0 -0.37518959923E+01  0.10097026263E+02  0.61437200592E+01  0.12400482221E+02  0.51100000000E-03 0.  1.
        -12    1    3    3    0    0  0.34233619960E+02 -0.20905654470E+02 -0.18070216317E+02  0.43994543323E+02  0.00000000000E+00 0.  1.
</event>
<event>
 7    1  0.2682188E-015  0.9000888E+02  0.7816164E-02  0.1186337E+00
        -11   -1    0    0    0    0  0.00000000000E+00  0.00000000000E+00  0.45593999997E+02  0.45594000000E+02  0.51100000000E-03 0.  1.
         11   -1    0    0    0    0 -0.00000000000E+00 -0.00000000000E+00 -0.45593999997E+02  0.45594000000E+02  0.51100000000E-03 0. -1.
    9900012    2    1    2    0    0 -0.10673934335E+01 -0.38693998802E+00  0.31825045264E+00  0.90008875474E+02  0.90001151823E+02 0.  0.
         12    1    1    2    0    0  0.10673934335E+01  0.38693998802E+00 -0.31825045264E+00  0.11791245255E+01  0.00000000000E+00 0. -1.
         11    1    3    3    0    0 -0.20739510427E+02  0.58714797374E+01 -0.29535545814E+02  0.36564327340E+02  0.51100000000E-03 0. -1.
        -11    1    3    3    0    0  0.87187165870E+00  0.26396131922E+01 -0.89750327776E+01  0.93956868623E+01  0.51100000000E-03 0.  1.
        -12    1    3    3    0    0  0.18800245335E+02 -0.88980329176E+01  0.38828829044E+02  0.44048861272E+02  0.00000000000E+00 0.  1.
</event>
<event>
 7    1  0.2682188E-015  0.9000776E+02  0.7816164E-02  0.1186339E+00
        -11   -1    0    0    0    0  0.00000000000E+00  0.00000000000E+00  0.45593999997E+02  0.45594000000E+02  0.51100000000E-03 0.  1.
         11   -1    0    0    0    0 -0.00000000000E+00 -0.00000000000E+00 -0.45593999997E+02  0.45594000000E+02  0.51100000000E-03 0. -1.
    9900012    2    1    2    0    0  0.93432934688E-01  0.98463339172E+00  0.64400717864E+00  0.90007755163E+02  0.90000016731E+02 0.  0.
         12    1    1    2    0    0 -0.93432934688E-01 -0.98463339172E+00 -0.64400717864E+00  0.11802448371E+01  0.00000000000E+00 0. -1.
         11    1    3    3    0    0 -0.14246548571E+02 -0.86583557241E+01 -0.31591164716E+02  0.35720203784E+02  0.51100000000E-03 0. -1.
        -11    1    3    3    0    0 -0.83841320172E+01 -0.12894296214E+01 -0.45983365757E+01  0.96488858400E+01  0.51100000000E-03 0.  1.
        -12    1    3    3    0    0  0.22724113522E+02  0.10932418737E+02  0.36833508470E+02  0.44638665539E+02  0.00000000000E+00 0.  1.
</event>
<event>
 7    1  0.2682188E-015  0.9000772E+02  0.7816164E-02  0.1186339E+00
        -11   -1    0    0    0    0  0.00000000000E+00  0.00000000000E+00  0.45593999997E+02  0.45594000000E+02  0.51100000000E-03 0.  1.
         11   -1    0    0    0    0 -0.00000000000E+00 -0.00000000000E+00 -0.45593999997E+02  0.45594000000E+02  0.51100000000E-03 0. -1.
    9900012    2    1    2    0    0  0.57040605649E+00  0.82236054964E+00  0.62562851538E+00  0.90007724192E+02  0.89999985352E+02 0.  0.
         12    1    1    2    0    0 -0.57040605649E+00 -0.82236054964E+00 -0.62562851538E+00  0.11802758077E+01  0.00000000000E+00 0. -1.
         11    1    3    3    0    0  0.13190528797E+02 -0.61805976597E+01 -0.38018164174E+02  0.40713273570E+02  0.51100000000E-03 0. -1.
        -11    1    3    3    0    0 -0.17402250729E+01  0.98351761496E+01  0.10352267574E+01  0.10041452480E+02  0.51100000000E-03 0.  1.
        -12    1    3    3    0    0 -0.10879897668E+02 -0.28322179403E+01  0.37608565932E+02  0.39252998143E+02  0.00000000000E+00 0.  1.
</event>
<event>
 7    1  0.2682188E-015  0.9000779E+02  0.7816164E-02  0.1186339E+00
        -11   -1    0    0    0    0  0.00000000000E+00  0.00000000000E+00  0.45593999997E+02  0.45594000000E+02  0.51100000000E-03 0. -1.
         11   -1    0    0    0    0 -0.00000000000E+00 -0.00000000000E+00 -0.45593999997E+02  0.45594000000E+02  0.51100000000E-03 0.  1.
    9900012    2    1    2    0    0  0.15160071237E+00 -0.49020963219E+00 -0.10628248203E+01  0.90007794570E+02  0.90000056658E+02 0.  0.
         12    1    1    2    0    0 -0.15160071237E+00  0.49020963219E+00  0.10628248203E+01  0.11802054305E+01  0.00000000000E+00 0. -1.
         11    1    3    3    0    0 -0.15841688256E+01  0.31273443595E+02  0.23550871612E+02  0.39181391235E+02  0.51100000000E-03 0. -1.
        -11    1    3    3    0    0 -0.10029017793E+02 -0.29779668601E+00 -0.17351707209E+01  0.10182371946E+02  0.51100000000E-03 0.  1.
        -12    1    3    3    0    0  0.11764787330E+02 -0.31465856541E+02 -0.22878525711E+02  0.40644031389E+02  0.00000000000E+00 0.  1.
</event>
<event>
 7    1  0.2682188E-015  0.9000774E+02  0.7816164E-02  0.1186339E+00
        -11   -1    0    0    0    0  0.00000000000E+00  0.00000000000E+00  0.45593999997E+02  0.45594000000E+02  0.51100000000E-03 0. -1.
         11   -1    0    0    0    0 -0.00000000000E+00 -0.00000000000E+00 -0.45593999997E+02  0.45594000000E+02  0.51100000000E-03 0.  1.
    9900012    2    1    2    0    0  0.91902972683E+00 -0.31228540206E+00 -0.67147846052E+00  0.90007736837E+02  0.89999998163E+02 0.  0.
         12    1    1    2    0    0 -0.91902972683E+00  0.31228540206E+00  0.67147846052E+00  0.11802631631E+01  0.00000000000E+00 0. -1.
         11    1    3    3    0    0 -0.11755198022E+02  0.93262053066E+01 -0.54818310203E+01  0.15975395381E+02  0.51100000000E-03 0. -1.
        -11    1    3    3    0    0  0.12822307926E+02  0.29036324013E+02 -0.89551526067E+01  0.32980516236E+02  0.51100000000E-03 0.  1.
         12    1    3    3    0    0 -0.14808017639E+00 -0.38674814721E+02  0.13765505167E+02  0.41051825221E+02  0.00000000000E+00 0. -1.
</event>
<event>
 7    1  0.2682188E-015  0.9000769E+02  0.7816164E-02  0.1186339E+00
        -11   -1    0    0    0    0  0.00000000000E+00  0.00000000000E+00  0.45593999997E+02  0.45594000000E+02  0.51100000000E-03 0. -1.
         11   -1    0    0    0    0 -0.00000000000E+00 -0.00000000000E+00 -0.45593999997E+02  0.45594000000E+02  0.51100000000E-03 0.  1.
    9900012    2    1    2    0    0  0.67612277237E+00 -0.91883022852E+00  0.30287978902E+00  0.90007691922E+02  0.89999952655E+02 0.  0.
         12    1    1    2    0    0 -0.67612277237E+00  0.91883022852E+00 -0.30287978902E+00  0.11803080779E+01  0.00000000000E+00 0. -1.
         11    1    3    3    0    0 -0.31548688778E+02 -0.91249034868E+01  0.10334818230E+02  0.34429523600E+02  0.51100000000E-03 0. -1.
        -11    1    3    3    0    0 -0.65613454584E+01  0.12524137720E+02  0.29625717392E+01  0.14445833705E+02  0.51100000000E-03 0.  1.
        -12    1    3    3    0    0  0.38786157009E+02 -0.43180644622E+01 -0.12994510180E+02  0.41132334617E+02  0.00000000000E+00 0.  1.
</event>
<event>
 7    1  0.2682188E-015  0.9000783E+02  0.7816164E-02  0.1186339E+00
        -11   -1    0    0    0    0  0.00000000000E+00  0.00000000000E+00  0.45593999997E+02  0.45594000000E+02  0.51100000000E-03 0. -1.
         11   -1    0    0    0    0 -0.00000000000E+00 -0.00000000000E+00 -0.45593999997E+02  0.45594000000E+02  0.51100000000E-03 0.  1.
    9900012    2    1    2    0    0 -0.97739485509E-01  0.79589682599E-01 -0.11734147152E+01  0.90007834919E+02  0.90000097540E+02 0.  0.
         12    1    1    2    0    0  0.97739485509E-01 -0.79589682599E-01  0.11734147152E+01  0.11801650810E+01  0.00000000000E+00 0. -1.
         11    1    3    3    0    0  0.92520558692E+01 -0.59407226332E+01  0.41392283291E+02  0.42827722791E+02  0.51100000000E-03 0. -1.
        -11    1    3    3    0    0 -0.76636452695E+01 -0.10556505822E+01 -0.57142620918E+01  0.96176217686E+01  0.51100000000E-03 0.  1.
        -12    1    3    3    0    0 -0.16861500852E+01  0.70759628980E+01 -0.36851435914E+02  0.37562490359E+02  0.00000000000E+00 0.  1.
</event>
<event>
 7    1  0.2682188E-015  0.9000771E+02  0.7816164E-02  0.1186339E+00
        -11   -1    0    0    0    0  0.00000000000E+00  0.00000000000E+00  0.45593999997E+02  0.45594000000E+02  0.51100000000E-03 0.  1.
         11   -1    0    0    0    0 -0.00000000000E+00 -0.00000000000E+00 -0.45593999997E+02  0.45594000000E+02  0.51100000000E-03 0. -1.
    9900012    2    1    2    0    0 -0.95643331567E-01 -0.95689016967E+00  0.68431906588E+00  0.90007712312E+02  0.89999973314E+02 0.  0.
         12    1    1    2    0    0  0.95643331567E-01  0.95689016967E+00 -0.68431906588E+00  0.11802876885E+01  0.00000000000E+00 0. -1.
         11    1    3    3    0    0  0.33127003646E+02  0.14218423577E+02 -0.59672178762E+00  0.36054375833E+02  0.51100000000E-03 0. -1.
        -11    1    3    3    0    0 -0.22719398075E+01  0.11644706461E+02 -0.43020628265E+01  0.12620168140E+02  0.51100000000E-03 0.  1.
        -12    1    3    3    0    0 -0.30950707170E+02 -0.26820020207E+02  0.55831036800E+01  0.41333168339E+02  0.00000000000E+00 0.  1.
</event>
<event>
 7    1  0.2682188E-015  0.9000812E+02  0.7816164E-02  0.1186338E+00
        -11   -1    0    0    0    0  0.00000000000E+00  0.00000000000E+00  0.45593999997E+02  0.45594000000E+02  0.51100000000E-03 0. -1.
         11   -1    0    0    0    0 -0.00000000000E+00 -0.00000000000E+00 -0.45593999997E+02  0.45594000000E+02  0.51100000000E-03 0.  1.
    9900012    2    1    2    0    0 -0.96626632444E+00  0.42407814314E+00 -0.52783180058E+00  0.90008118951E+02  0.90000385320E+02 0.  0.
         12    1    1    2    0    0  0.96626632444E+00 -0.42407814314E+00  0.52783180058E+00  0.11798810495E+01  0.00000000000E+00 0. -1.
         11    1    3    3    0    0  0.70954903350E+01 -0.44873835400E+01  0.70333033219E+00  0.84248007660E+01  0.51100000000E-03 0. -1.
        -11    1    3    3    0    0  0.18275890907E+02 -0.25466669609E+02 -0.20030879666E+02  0.37199403086E+02  0.51100000000E-03 0.  1.
         12    1    3    3    0    0 -0.26337647567E+02  0.30378131292E+02  0.18799717534E+02  0.44383915099E+02  0.00000000000E+00 0. -1.
</event>
<event>
 7    1  0.2682188E-015  0.9000784E+02  0.7816164E-02  0.1186339E+00
        -11   -1    0    0    0    0  0.00000000000E+00  0.00000000000E+00  0.45593999997E+02  0.45594000000E+02  0.51100000000E-03 0.  1.
         11   -1    0    0    0    0 -0.00000000000E+00 -0.00000000000E+00 -0.45593999997E+02  0.45594000000E+02  0.51100000000E-03 0. -1.
    9900012    2    1    2    0    0 -0.50058970786E+00 -0.75015513626E+00 -0.76121499365E+00  0.90007842786E+02  0.90000105510E+02 0.  0.
         12    1    1    2    0    0  0.50058970786E+00  0.75015513626E+00  0.76121499365E+00  0.11801572144E+01  0.00000000000E+00 0. -1.
         11    1    3    3    0    0  0.35924853264E+02  0.35198937289E+01  0.89561465012E+01  0.37191360480E+02  0.51100000000E-03 0. -1.
        -11    1    3    3    0    0  0.71255829132E+01 -0.15721102939E+01 -0.51759386298E+01  0.89462731676E+01  0.51100000000E-03 0.  1.
        -12    1    3    3    0    0 -0.43551025885E+02 -0.26979385712E+01 -0.45414228650E+01  0.43870209138E+02  0.00000000000E+00 0.  1.
</event>
<event>
 7    1  0.2682188E-015  0.9000775E+02  0.7816164E-02  0.1186339E+00
        -11   -1    0    0    0    0  0.00000000000E+00  0.00000000000E+00  0.45593999997E+02  0.45594000000E+02  0.51100000000E-03 0. -1.
         11   -1    0    0    0    0 -0.00000000000E+00 -0.00000000000E+00 -0.45593999997E+02  0.45594000000E+02  0.51100000000E-03 0.  1.
    9900012    2    1    2    0    0 -0.79073947859E-01  0.72690886898E+00 -0.92646250118E+00  0.90007753433E+02  0.90000014978E+02 0.  0.
         12    1    1    2    0    0  0.79073947859E-01 -0.72690886898E+00  0.92646250118E+00  0.11802465671E+01  0.00000000000E+00 0. -1.
         11    1    3    3    0    0 -0.91011985149E+00  0.19688746786E+01 -0.99556079913E+01  0.10189156804E+02  0.51100000000E-03 0. -1.
        -11    1    3    3    0    0  0.34049243392E+02 -0.12657495516E+02 -0.12739644724E+02  0.38494957023E+02  0.51100000000E-03 0.  1.
         12    1    3    3    0    0 -0.33218197488E+02  0.11415529706E+02  0.21768790214E+02  0.41323639605E+02  0.00000000000E+00 0. -1.
</event>
<event>
 7    1  0.2682188E-015  0.9000762E+02  0.7816164E-02  0.1186339E+00
        -11   -1    0    0    0    0  0.00000000000E+00  0.00000000000E+00  0.45593999997E+02  0.45594000000E+02  0.51100000000E-03 0. -1.
         11   -1    0    0    0    0 -0.00000000000E+00 -0.00000000000E+00 -0.45593999997E+02  0.45594000000E+02  0.51100000000E-03 0.  1.
    9900012    2    1    2    0    0  0.18638028885E+00 -0.11654929224E+01 -0.13223863249E-01  0.90007624537E+02  0.89999884380E+02 0.  0.
         12    1    1    2    0    0 -0.18638028885E+00  0.11654929224E+01  0.13223863249E-01  0.11803754635E+01  0.00000000000E+00 0. -1.
         11    1    3    3    0    0  0.43095909204E+01  0.28222674640E+02 -0.62445998792E+01  0.29224766306E+02  0.51100000000E-03 0. -1.
        -11    1    3    3    0    0  0.96795422561E+01  0.65533278601E+01 -0.13220580395E+02  0.17647192144E+02  0.51100000000E-03 0.  1.
        -12    1    3    3    0    0 -0.13802752888E+02 -0.35941495423E+02  0.19451956411E+02  0.43135666086E+02  0.00000000000E+00 0.  1.
</event>
<event>
 7    1  0.2682188E-015  0.9000770E+02  0.7816164E-02  0.1186339E+00
        -11   -1    0    0    0    0  0.00000000000E+00  0.00000000000E+00  0.45593999997E+02  0.45594000000E+02  0.51100000000E-03 0.  1.
         11   -1    0    0    0    0 -0.00000000000E+00 -0.00000000000E+00 -0.45593999997E+02  0.45594000000E+02  0.51100000000E-03 0. -1.
    9900012    2    1    2    0    0  0.11599946124E+01  0.60826221761E-01  0.20932679062E+00  0.90007701294E+02  0.89999962151E+02 0.  0.
         12    1    1    2    0    0 -0.11599946124E+01 -0.60826221761E-01 -0.20932679062E+00  0.11802987059E+01  0.00000000000E+00 0. -1.
         11    1    3    3    0    0 -0.10220180136E+02 -0.32986667335E+02 -0.22805564771E+02  0.41384370101E+02  0.51100000000E-03 0. -1.
        -11    1    3    3    0    0 -0.87009674340E+00  0.77503862152E+01 -0.47363968552E+01  0.91246375412E+01  0.51100000000E-03 0.  1.
        -12    1    3    3    0    0  0.12250271492E+02  0.25297107341E+02  0.27751288417E+02  0.39498693652E+02  0.00000000000E+00 0.  1.
</event>
<event>
 7    1  0.2682188E-015  0.9000768E+02  0.7816164E-02  0.1186339E+00
        -11   -1    0    0    0    0  0.00000000000E+00  0.00000000000E+00  0.45593999997E+02  0.45594000000E+02  0.51100000000E-03 0.  1.
         11   -1    0    0    0    0 -0.00000000000E+00 -0.00000000000E+00 -0.45593999997E+02  0.45594000000E+02  0.51100000000E-03 0. -1.
    9900012    2    1    2    0    0  0.76210306954E-01 -0.13219359207E+00  0.11704186825E+01  0.90007676718E+02  0.89999937251E+02 0.  0.
         12    1    1    2    0    0 -0.76210306954E-01  0.13219359207E+00 -0.11704186825E+01  0.11803232815E+01  0.00000000000E+00 0. -1.
         11    1    3    3    0    0 -0.36038016195E+02 -0.86479980086E+01  0.19048018285E+02  0.41669575012E+02  0.51100000000E-03 0. -1.
        -11    1    3    3    0    0  0.25735073323E+01  0.95437562979E+01  0.82962131534E+00  0.99193999845E+01  0.51100000000E-03 0.  1.
        -12    1    3    3    0    0  0.33540719170E+02 -0.10279518814E+01 -0.18707220918E+02  0.38418701722E+02  0.00000000000E+00 0.  1.
</event>
<event>
 7    1  0.2682188E-015  0.9000772E+02  0.7816164E-02  0.1186339E+00
        -11   -1    0    0    0    0  0.00000000000E+00  0.00000000000E+00  0.45593999997E+02  0.45594000000E+02  0.51100000000E-03 0. -1.
         11   -1    0    0    0    0 -0.00000000000E+00 -0.00000000000E+00 -0.45593999997E+02  0.45594000000E+02  0.51100000000E-03 0.  1.
    9900012    2    1    2    0    0 -0.53684150617E+00 -0.10300165391E+01  0.20961775400E+00  0.90007715087E+02  0.89999976126E+02 0.  0.
         12    1    1    2    0    0  0.53684150617E+00  0.10300165391E+01 -0.20961775400E+00  0.11802849132E+01  0.00000000000E+00 0. -1.
         11    1    3    3    0    0  0.16644934294E+02 -0.18308101573E+02 -0.19154478696E+02  0.31291124544E+02  0.51100000000E-03 0. -1.
        -11    1    3    3    0    0 -0.82121570742E+01 -0.17092826708E+02  0.16839212982E+01  0.19037852817E+02  0.51100000000E-03 0.  1.
         12    1    3    3    0    0 -0.89696187263E+01  0.34370911742E+02  0.17680175152E+02  0.39678737725E+02  0.00000000000E+00 0. -1.
</event>
<event>
 7    1  0.2682188E-015  0.9000761E+02  0.7816164E-02  0.1186339E+00
        -11   -1    0    0    0    0  0.00000000000E+00  0.00000000000E+00  0.45593999997E+02  0.45594000000E+02  0.51100000000E-03 0. -1.
         11   -1    0    0    0    0 -0.00000000000E+00 -0.00000000000E+00 -0.45593999997E+02  0.45594000000E+02  0.51100000000E-03 0.  1.
    9900012    2    1    2    0    0  0.78257387218E+00 -0.79020071810E+00 -0.39558823226E+00  0.90007606384E+02  0.89999865988E+02 0.  0.
         12    1    1    2    0    0 -0.78257387218E+00  0.79020071810E+00  0.39558823226E+00  0.11803936165E+01  0.00000000000E+00 0. -1.
         11    1    3    3    0    0 -0.87743877550E+01  0.85472453785E+00  0.35746989109E+01  0.95130913522E+01  0.51100000000E-03 0. -1.
        -11    1    3    3    0    0  0.20895361164E+02 -0.37258974655E+02  0.13662002358E+01  0.42740072694E+02  0.51100000000E-03 0.  1.
         12    1    3    3    0    0 -0.11338399537E+02  0.35614049399E+02 -0.53364873789E+01  0.37754442337E+02  0.00000000000E+00 0. -1.
</event>
<event>
 7    1  0.2682188E-015  0.9000827E+02  0.7816164E-02  0.1186338E+00
        -11   -1    0    0    0    0  0.00000000000E+00  0.00000000000E+00  0.45593999997E+02  0.45594000000E+02  0.51100000000E-03 0. -1.
         11   -1    0    0    0    0 -0.00000000000E+00 -0.00000000000E+00 -0.45593999997E+02  0.45594000000E+02  0.51100000000E-03 0.  1.
    9900012    2    1    2    0    0  0.10289691309E+01  0.37319058880E+00  0.44014225814E+00  0.90008265328E+02  0.90000533629E+02 0.  0.
         12    1    1    2    0    0 -0.10289691309E+01 -0.37319058880E+00 -0.44014225814E+00  0.11797346716E+01  0.00000000000E+00 0. -1.
         11    1    3    3    0    0  0.74873040120E+01  0.63987118268E+01  0.40722548702E+01  0.10657696487E+02  0.51100000000E-03 0. -1.
        -11    1    3    3    0    0 -0.22521691005E+02  0.22280847499E+02  0.21451117375E+02  0.38259811394E+02  0.51100000000E-03 0.  1.
         12    1    3    3    0    0  0.16063356124E+02 -0.28306368737E+02 -0.25083229987E+02  0.41090757448E+02  0.00000000000E+00 0. -1.
</event>
<event>
 7    1  0.2682188E-015  0.9000777E+02  0.7816164E-02  0.1186339E+00
        -11   -1    0    0    0    0  0.00000000000E+00  0.00000000000E+00  0.45593999997E+02  0.45594000000E+02  0.51100000000E-03 0. -1.
         11   -1    0    0    0    0 -0.00000000000E+00 -0.00000000000E+00 -0.45593999997E+02  0.45594000000E+02  0.51100000000E-03 0.  1.
    9900012    2    1    2    0    0 -0.31074134101E+00  0.96940543259E+00  0.59718828681E+00  0.90007770817E+02  0.90000032592E+02 0.  0.
         12    1    1    2    0    0  0.31074134101E+00 -0.96940543259E+00 -0.59718828681E+00  0.11802291827E+01  0.00000000000E+00 0. -1.
         11    1    3    3    0    0 -0.14352725005E+01  0.96600183334E+01 -0.41449704404E+01  0.10609276204E+02  0.51100000000E-03 0. -1.
        -11    1    3    3    0    0 -0.26876327359E+02 -0.12939794244E+02  0.29373958207E+02  0.41864121494E+02  0.51100000000E-03 0.  1.
         12    1    3    3    0    0  0.28000858519E+02  0.42491813430E+01 -0.24631799480E+02  0.37534373120E+02  0.00000000000E+00 0. -1.
</event>
<event>
 7    1  0.2682188E-015  0.9000773E+02  0.7816164E-02  0.1186339E+00
        -11   -1    0    0    0    0  0.00000000000E+00  0.00000000000E+00  0.45593999997E+02  0.45594000000E+02  0.51100000000E-03 0.  1.
         11   -1    0    0    0    0 -0.00000000000E+00 -0.00000000000E+00 -0.45593999997E+02  0.45594000000E+02  0.51100000000E-03 0. -1.
    9900012    2    1    2    0    0 -0.11569455943E+01  0.10108544733E-01  0.23327050971E+00  0.90007728666E+02  0.89999989885E+02 0.  0.
         12    1    1    2    0    0  0.11569455943E+01 -0.10108544733E-01 -0.23327050971E+00  0.11802713338E+01  0.00000000000E+00 0. -1.
         11    1    3    3    0    0 -0.66941929514E+01  0.26378753118E+01 -0.69581354120E+01  0.10009308373E+02  0.51100000000E-03 0. -1.
        -11    1    3    3    0    0 -0.22803838398E+02  0.76828868289E+01  0.32630508763E+02  0.40543703557E+02  0.51100000000E-03 0.  1.
         12    1    3    3    0    0  0.28341085756E+02 -0.10310653596E+02 -0.25439102841E+02  0.39454716736E+02  0.00000000000E+00 0. -1.
</event>
<event>
 7    1  0.2682188E-015  0.9000787E+02  0.7816164E-02  0.1186339E+00
        -11   -1    0    0    0    0  0.00000000000E+00  0.00000000000E+00  0.45593999997E+02  0.45594000000E+02  0.51100000000E-03 0. -1.
         11   -1    0    0    0    0 -0.00000000000E+00 -0.00000000000E+00 -0.45593999997E+02  0.45594000000E+02  0.51100000000E-03 0.  1.
    9900012    2    1    2    0    0 -0.59587090619E+00  0.19814294035E+00 -0.99919411725E+00  0.90007867954E+02  0.90000131011E+02 0.  0.
         12    1    1    2    0    0  0.59587090619E+00 -0.19814294035E+00  0.99919411725E+00  0.11801320458E+01  0.00000000000E+00 0. -1.
         11    1    3    3    0    0 -0.35162670903E+01 -0.13046092072E+02  0.36196840460E+02  0.38636458329E+02  0.51100000000E-03 0. -1.
        -11    1    3    3    0    0  0.88169253776E+01  0.68231178093E+01  0.19050486058E+01  0.11310274984E+02  0.51100000000E-03 0.  1.
        -12    1    3    3    0    0 -0.58965291935E+01  0.64211172033E+01 -0.39101083184E+02  0.40061134642E+02  0.00000000000E+00 0.  1.
</event>
<event>
 7    1  0.2682188E-015  0.9000772E+02  0.7816164E-02  0.1186339E+00
        -11   -1    0    0    0    0  0.00000000000E+00  0.00000000000E+00  0.45593999997E+02  0.45594000000E+02  0.51100000000E-03 0. -1.
         11   -1    0    0    0    0 -0.00000000000E+00 -0.00000000000E+00 -0.45593999997E+02  0.45594000000E+02  0.51100000000E-03 0.  1.
    9900012    2    1    2    0    0 -0.46470791278E+00  0.10840055202E+01  0.45049518791E-01  0.90007724239E+02  0.89999985399E+02 0.  0.
         12    1    1    2    0    0  0.46470791278E+00 -0.10840055202E+01 -0.45049518791E-01  0.11802757606E+01  0.00000000000E+00 0. -1.
         11    1    3    3    0    0  0.16384427241E+02 -0.72860488406E+01  0.33855812524E+02  0.38311251685E+02  0.51100000000E-03 0. -1.
        -11    1    3    3    0    0  0.63536515831E+01  0.55880101914E+01  0.22228518702E+01  0.87484751263E+01  0.51100000000E-03 0.  1.
        -12    1    3    3    0    0 -0.23202786737E+02  0.27820441694E+01 -0.36033614875E+02  0.42947997428E+02  0.00000000000E+00 0.  1.
</event>
<event>
 7    1  0.2682188E-015  0.9000769E+02  0.7816164E-02  0.1186339E+00
        -11   -1    0    0    0    0  0.00000000000E+00  0.00000000000E+00  0.45593999997E+02  0.45594000000E+02  0.51100000000E-03 0. -1.
         11   -1    0    0    0    0 -0.00000000000E+00 -0.00000000000E+00 -0.45593999997E+02  0.45594000000E+02  0.51100000000E-03 0.  1.
    9900012    2    1    2    0    0  0.12568015165E+00  0.47725568124E+00 -0.10721733607E+01  0.90007693175E+02  0.89999953925E+02 0.  0.
         12    1    1    2    0    0 -0.12568015165E+00 -0.47725568124E+00  0.10721733607E+01  0.11803068250E+01  0.00000000000E+00 0. -1.
         11    1    3    3    0    0 -0.28893283859E+01  0.10704936184E+02  0.11994250527E+01  0.11152690166E+02  0.51100000000E-03 0. -1.
        -11    1    3    3    0    0  0.35442735852E+02  0.55470720332E+01  0.14984405158E+02  0.38877884858E+02  0.51100000000E-03 0.  1.
         12    1    3    3    0    0 -0.32427727315E+02 -0.15774752536E+02 -0.17256003572E+02  0.39977118151E+02  0.00000000000E+00 0. -1.
</event>
<event>
 7    1  0.2682188E-015  0.9000767E+02  0.7816164E-02  0.1186339E+00
        -11   -1    0    0    0    0  0.00000000000E+00  0.00000000000E+00  0.45593999997E+02  0.45594000000E+02  0.51100000000E-03 0.  1.
         11   -1    0    0    0    0 -0.00000000000E+00 -0.00000000000E+00 -0.45593999997E+02  0.45594000000E+02  0.51100000000E-03 0. -1.
    9900012    2    1    2    0    0 -0.77275657822E+00 -0.57294880734E+00 -0.68392332247E+00  0.90007672005E+02  0.89999932475E+02 0.  0.
         12    1    1    2    0    0  0.77275657822E+00  0.57294880734E+00  0.68392332247E+00  0.11803279951E+01  0.00000000000E+00 0. -1.
         11    1    3    3    0    0 -0.36828115356E+01 -0.18618124286E+01 -0.91751752771E+01  0.10060481497E+02  0.51100000000E-03 0. -1.
        -11    1    3    3    0    0 -0.18040775157E+02  0.34993768124E+02  0.84229674758E+01  0.40261392887E+02  0.51100000000E-03 0.  1.
         12    1    3    3    0    0  0.20950830114E+02 -0.33704904503E+02  0.68284478884E-01  0.39685797621E+02  0.00000000000E+00 0. -1.
</event>
<event>
 7    1  0.2682188E-015  0.9000774E+02  0.7816164E-02  0.1186339E+00
        -11   -1    0    0    0    0  0.00000000000E+00  0.00000000000E+00  0.45593999997E+02  0.45594000000E+02  0.51100000000E-03 0. -1.
         11   -1    0    0    0    0 -0.00000000000E+00 -0.00000000000E+00 -0.45593999997E+02  0.45594000000E+02  0.51100000000E-03 0.  1.
    9900012    2    1    2    0    0 -0.49504856697E+00  0.96467052632E+00 -0.46621633961E+00  0.90007737324E+02  0.89999998657E+02 0.  0.
         12    1    1    2    0    0  0.49504856697E+00 -0.96467052632E+00  0.46621633961E+00  0.11802626756E+01  0.00000000000E+00 0. -1.
         11    1    3    3    0    0  0.29904847398E+01 -0.59891381385E+01 -0.71644429145E+01  0.98052035755E+01  0.51100000000E-03 0. -1.
        -11    1    3    3    0    0  0.11598946264E+02  0.12117295783E+02  0.39948542741E+02  0.43327248689E+02  0.51100000000E-03 0.  1.
         12    1    3    3    0    0 -0.15084479571E+02 -0.51634871186E+01 -0.33250316166E+02  0.36875285060E+02  0.00000000000E+00 0. -1.
</event>
<event>
 7    1  0.2682188E-015  0.9000723E+02  0.7816164E-02  0.1186340E+00
        -11   -1    0    0    0    0  0.00000000000E+00  0.00000000000E+00  0.45593999997E+02  0.45594000000E+02  0.51100000000E-03 0. -1.
         11   -1    0    0    0    0 -0.00000000000E+00 -0.00000000000E+00 -0.45593999997E+02  0.45594000000E+02  0.51100000000E-03 0.  1.
    9900012    2    1    2    0    0  0.94977927560E+00 -0.40528361072E+00 -0.57261956528E+00  0.90007225405E+02  0.89999479979E+02 0.  0.
         12    1    1    2    0    0 -0.94977927560E+00  0.40528361072E+00  0.57261956528E+00  0.11807745949E+01  0.00000000000E+00 0. -1.
         11    1    3    3    0    0 -0.10465801001E+02  0.28020978792E+02 -0.11154677677E+02  0.31923895085E+02  0.51100000000E-03 0. -1.
        -11    1    3    3    0    0  0.43355209274E+01  0.96753208807E+01 -0.96761909007E+01  0.14353997578E+02  0.51100000000E-03 0.  1.
        -12    1    3    3    0    0  0.70800593494E+01 -0.38101583283E+02  0.20258249012E+02  0.43729332743E+02  0.00000000000E+00 0.  1.
</event>
<event>
 7    1  0.2682188E-015  0.9000775E+02  0.7816164E-02  0.1186339E+00
        -11   -1    0    0    0    0  0.00000000000E+00  0.00000000000E+00  0.45593999997E+02  0.45594000000E+02  0.51100000000E-03 0.  1.
         11   -1    0    0    0    0 -0.00000000000E+00 -0.00000000000E+00 -0.45593999997E+02  0.45594000000E+02  0.51100000000E-03 0. -1.
    9900012    2    1    2    0    0 -0.40285666315E+00  0.34522056665E+00  0.10542907999E+01  0.90007745866E+02  0.90000007311E+02 0.  0.
         12    1    1    2    0    0  0.40285666315E+00 -0.34522056665E+00 -0.10542907999E+01  0.11802541342E+01  0.00000000000E+00 0. -1.
         11    1    3    3    0    0 -0.22231637359E+01 -0.36534938425E+02  0.15055490471E+01  0.36633466405E+02  0.51100000000E-03 0. -1.
        -11    1    3    3    0    0 -0.64263618003E+01 -0.64343229221E+01  0.16022422372E+01  0.92339492039E+01  0.51100000000E-03 0.  1.
        -12    1    3    3    0    0  0.82466688730E+01  0.43314481913E+02 -0.20535004845E+01  0.44140330256E+02  0.00000000000E+00 0.  1.
</event>
<event>
 7    1  0.2682188E-015  0.9000773E+02  0.7816164E-02  0.1186339E+00
        -11   -1    0    0    0    0  0.00000000000E+00  0.00000000000E+00  0.45593999997E+02  0.45594000000E+02  0.51100000000E-03 0.  1.
         11   -1    0    0    0    0 -0.00000000000E+00 -0.00000000000E+00 -0.45593999997E+02  0.45594000000E+02  0.51100000000E-03 0. -1.
    9900012    2    1    2    0    0  0.14886745482E+00  0.11707619713E+01  0.13571928171E-01  0.90007733373E+02  0.89999994654E+02 0.  0.
         12    1    1    2    0    0 -0.14886745482E+00 -0.11707619713E+01 -0.13571928171E-01  0.11802666266E+01  0.00000000000E+00 0. -1.
         11    1    3    3    0    0 -0.95344278356E+01  0.27665881932E+02 -0.30091345540E+02  0.41973746722E+02  0.51100000000E-03 0. -1.
        -11    1    3    3    0    0 -0.37011478409E+01 -0.82422209766E+01 -0.15013373783E+01  0.91589691643E+01  0.51100000000E-03 0.  1.
        -12    1    3    3    0    0  0.13384443131E+02 -0.18252898984E+02  0.31606254846E+02  0.38875017487E+02  0.00000000000E+00 0.  1.
</event>
<event>
 7    1  0.2682188E-015  0.9000777E+02  0.7816164E-02  0.1186339E+00
        -11   -1    0    0    0    0  0.00000000000E+00  0.00000000000E+00  0.45593999997E+02  0.45594000000E+02  0.51100000000E-03 0.  1.
         11   -1    0    0    0    0 -0.00000000000E+00 -0.00000000000E+00 -0.45593999997E+02  0.45594000000E+02  0.51100000000E-03 0. -1.
    9900012    2    1    2    0    0 -0.81166680712E+00 -0.85388739046E+00  0.70756742697E-01  0.90007774090E+02  0.90000035908E+02 0.  0.
         12    1    1    2    0    0  0.81166680712E+00  0.85388739046E+00 -0.70756742697E-01  0.11802259097E+01  0.00000000000E+00 0. -1.
         11    1    3    3    0    0 -0.30610534576E+02 -0.23713431906E+02  0.16627928372E+01  0.38756890485E+02  0.51100000000E-03 0. -1.
        -11    1    3    3    0    0  0.20036304707E+01 -0.87332125566E+01 -0.19504431658E+01  0.91699381364E+01  0.51100000000E-03 0.  1.
        -12    1    3    3    0    0  0.27795237298E+02  0.31592757072E+02  0.35840707135E+00  0.42080945469E+02  0.00000000000E+00 0.  1.
</event>
<event>
 7    1  0.2682188E-015  0.9000772E+02  0.7816164E-02  0.1186339E+00
        -11   -1    0    0    0    0  0.00000000000E+00  0.00000000000E+00  0.45593999997E+02  0.45594000000E+02  0.51100000000E-03 0.  1.
         11   -1    0    0    0    0 -0.00000000000E+00 -0.00000000000E+00 -0.45593999997E+02  0.45594000000E+02  0.51100000000E-03 0. -1.
    9900012    2    1    2    0    0 -0.26289599844E+00 -0.77485006542E+00  0.85061298415E+00  0.90007724872E+02  0.89999986040E+02 0.  0.
         12    1    1    2    0    0  0.26289599844E+00  0.77485006542E+00 -0.85061298415E+00  0.11802751284E+01  0.00000000000E+00 0. -1.
         11    1    3    3    0    0  0.88308106034E+01 -0.12933905534E+02 -0.34021891851E+02  0.37453414446E+02  0.51100000000E-03 0. -1.
        -11    1    3    3    0    0 -0.32336870966E+01  0.43198995940E+01 -0.74028370472E+01  0.91608002570E+01  0.51100000000E-03 0.  1.
        -12    1    3    3    0    0 -0.58600195052E+01  0.78391558744E+01  0.42275341883E+02  0.43393510168E+02  0.00000000000E+00 0.  1.
</event>
<event>
 7    1  0.4199818E-015  0.9000773E+02  0.7816164E-02  0.1186339E+00
        -11   -1    0    0    0    0  0.00000000000E+00  0.00000000000E+00  0.45593999997E+02  0.45594000000E+02  0.51100000000E-03 0.  1.
         11   -1    0    0    0    0 -0.00000000000E+00 -0.00000000000E+00 -0.45593999997E+02  0.45594000000E+02  0.51100000000E-03 0. -1.
    9900012    2    1    2    0    0 -0.96314388012E+00  0.25646305295E+00  0.63214410915E+00  0.90007734942E+02  0.89999996244E+02 0.  0.
         12    1    1    2    0    0  0.96314388012E+00 -0.25646305295E+00 -0.63214410915E+00  0.11802650575E+01  0.00000000000E+00 0. -1.
         11    1    3    3    0    0  0.50883229122E+01 -0.12565947542E+00 -0.77088791680E+01  0.92376208328E+01  0.51100000000E-03 0. -1.
        -11    1    3    3    0    0 -0.81461299671E+01 -0.37658975942E+02  0.16321816288E+02  0.41844469045E+02  0.51100000000E-03 0.  1.
         12    1    3    3    0    0  0.20946631747E+01  0.38041098470E+02 -0.79807930105E+01  0.38925645065E+02  0.00000000000E+00 0. -1.
</event>
<event>
 7    1  0.2682188E-015  0.9000776E+02  0.7816164E-02  0.1186339E+00
        -11   -1    0    0    0    0  0.00000000000E+00  0.00000000000E+00  0.45593999997E+02  0.45594000000E+02  0.51100000000E-03 0. -1.
         11   -1    0    0    0    0 -0.00000000000E+00 -0.00000000000E+00 -0.45593999997E+02  0.45594000000E+02  0.51100000000E-03 0.  1.
    9900012    2    1    2    0    0 -0.16157908677E+00  0.98809644362E+00 -0.62491505498E+00  0.90007762223E+02  0.90000023885E+02 0.  0.
         12    1    1    2    0    0  0.16157908677E+00 -0.98809644362E+00  0.62491505498E+00  0.11802377765E+01  0.00000000000E+00 0. -1.
         11    1    3    3    0    0  0.40521543212E+00  0.71013365366E+01  0.31314155006E+01  0.77716757170E+01  0.51100000000E-03 0. -1.
        -11    1    3    3    0    0 -0.10299564446E+02  0.12275285459E+02 -0.38521247595E+02  0.41721099907E+02  0.51100000000E-03 0.  1.
         12    1    3    3    0    0  0.97327699268E+01 -0.18388525552E+02  0.34764917040E+02  0.40514986600E+02  0.00000000000E+00 0. -1.
</event>
<event>
 7    1  0.3051030E-015  0.9000774E+02  0.7816164E-02  0.1186339E+00
        -11   -1    0    0    0    0  0.00000000000E+00  0.00000000000E+00  0.45593999997E+02  0.45594000000E+02  0.51100000000E-03 0. -1.
         11   -1    0    0    0    0 -0.00000000000E+00 -0.00000000000E+00 -0.45593999997E+02  0.45594000000E+02  0.51100000000E-03 0.  1.
    9900012    2    1    2    0    0  0.34246621202E+00 -0.90954728261E+00 -0.66966883985E+00  0.90007739130E+02  0.90000000487E+02 0.  0.
         12    1    1    2    0    0 -0.34246621202E+00  0.90954728261E+00  0.66966883985E+00  0.11802608698E+01  0.00000000000E+00 0. -1.
         11    1    3    3    0    0 -0.78181482732E+01 -0.49851352484E+01  0.50114043049E+00  0.92858041040E+01  0.51100000000E-03 0. -1.
        -11    1    3    3    0    0  0.42421384726E+01 -0.10377181383E+02 -0.38712940438E+02  0.40303515850E+02  0.51100000000E-03 0.  1.
         12    1    3    3    0    0  0.39184760126E+01  0.14452769349E+02  0.37542131167E+02  0.40418419176E+02  0.00000000000E+00 0. -1.
</event>
<event>
 7    1  0.2682188E-015  0.9000767E+02  0.7816164E-02  0.1186339E+00
        -11   -1    0    0    0    0  0.00000000000E+00  0.00000000000E+00  0.45593999997E+02  0.45594000000E+02  0.51100000000E-03 0. -1.
         11   -1    0    0    0    0 -0.00000000000E+00 -0.00000000000E+00 -0.45593999997E+02  0.45594000000E+02  0.51100000000E-03 0.  1.
    9900012    2    1    2    0    0 -0.11650972757E+01  0.18899810129E+00 -0.21966937492E-02  0.90007670906E+02  0.89999931362E+02 0.  0.
         12    1    1    2    0    0  0.11650972757E+01 -0.18899810129E+00  0.21966937492E-02  0.11803290938E+01  0.00000000000E+00 0. -1.
         11    1    3    3    0    0  0.51939005938E+01 -0.40659476813E+02  0.43738620878E+01  0.41222570612E+02  0.51100000000E-03 0. -1.
        -11    1    3    3    0    0  0.39759179364E+01  0.35793778660E+01  0.66820423569E+01  0.85597639959E+01  0.51100000000E-03 0.  1.
        -12    1    3    3    0    0 -0.10334915806E+02  0.37269097048E+02 -0.11058101138E+02  0.40225336298E+02  0.00000000000E+00 0.  1.
</event>
<event>
 7    1  0.2682188E-015  0.9000767E+02  0.7816164E-02  0.1186339E+00
        -11   -1    0    0    0    0  0.00000000000E+00  0.00000000000E+00  0.45593999997E+02  0.45594000000E+02  0.51100000000E-03 0. -1.
         11   -1    0    0    0    0 -0.00000000000E+00 -0.00000000000E+00 -0.45593999997E+02  0.45594000000E+02  0.51100000000E-03 0.  1.
    9900012    2    1    2    0    0 -0.57654542545E+00  0.19447229696E+00 -0.10114112532E+01  0.90007670883E+02  0.89999931338E+02 0.  0.
         12    1    1    2    0    0  0.57654542545E+00 -0.19447229696E+00  0.10114112532E+01  0.11803291172E+01  0.00000000000E+00 0. -1.
         11    1    3    3    0    0  0.88053687519E+01 -0.85186602301E+01 -0.23058653169E+01  0.12466719941E+02  0.51100000000E-03 0. -1.
        -11    1    3    3    0    0 -0.91421654353E+01 -0.18468963472E+02 -0.29805237236E+02  0.36235810568E+02  0.51100000000E-03 0.  1.
         12    1    3    3    0    0 -0.23974874206E+00  0.27182095999E+02  0.31099691300E+02  0.41305140374E+02  0.00000000000E+00 0. -1.
</event>
<event>
 7    1  0.2682188E-015  0.9000773E+02  0.7816164E-02  0.1186339E+00
        -11   -1    0    0    0    0  0.00000000000E+00  0.00000000000E+00  0.45593999997E+02  0.45594000000E+02  0.51100000000E-03 0. -1.
         11   -1    0    0    0    0 -0.00000000000E+00 -0.00000000000E+00 -0.45593999997E+02  0.45594000000E+02  0.51100000000E-03 0.  1.
    9900012    2    1    2    0    0  0.55645766473E+00  0.21315419691E+00 -0.10187981193E+01  0.90007733313E+02  0.89999994593E+02 0.  0.
         12    1    1    2    0    0 -0.55645766473E+00 -0.21315419691E+00  0.10187981193E+01  0.11802666869E+01  0.00000000000E+00 0. -1.
         11    1    3    3    0    0 -0.10864576691E+02 -0.11400003042E+01  0.74509385888E+01  0.13223279226E+02  0.51100000000E-03 0. -1.
        -11    1    3    3    0    0 -0.23281926016E+02 -0.22597225546E+02 -0.11712923393E+02  0.34494568501E+02  0.51100000000E-03 0.  1.
         12    1    3    3    0    0  0.34702960372E+02  0.23950380048E+02  0.32431866845E+01  0.42289885586E+02  0.00000000000E+00 0. -1.
</event>
<event>
 7    1  0.2682188E-015  0.9000800E+02  0.7816164E-02  0.1186339E+00
        -11   -1    0    0    0    0  0.00000000000E+00  0.00000000000E+00  0.45593999997E+02  0.45594000000E+02  0.51100000000E-03 0.  1.
         11   -1    0    0    0    0 -0.00000000000E+00 -0.00000000000E+00 -0.45593999997E+02  0.45594000000E+02  0.51100000000E-03 0. -1.
    9900012    2    1    2    0    0 -0.24089468242E+00  0.11144980096E+01 -0.30376405452E+00  0.90007996330E+02  0.90000261081E+02 0.  0.
         12    1    1    2    0    0  0.24089468242E+00 -0.11144980096E+01  0.30376405452E+00  0.11800036704E+01  0.00000000000E+00 0. -1.
         11    1    3    3    0    0  0.27581889752E+01  0.34523932269E+02 -0.16392512777E+02  0.38317410940E+02  0.51100000000E-03 0. -1.
        -11    1    3    3    0    0 -0.74473765773E+01  0.20124608374E+01 -0.59441144987E+01  0.97388866890E+01  0.51100000000E-03 0.  1.
        -12    1    3    3    0    0  0.44482929196E+01 -0.35421895097E+02  0.22032863221E+02  0.41951698701E+02  0.00000000000E+00 0.  1.
</event>
<event>
 7    1  0.2682188E-015  0.9000777E+02  0.7816164E-02  0.1186339E+00
        -11   -1    0    0    0    0  0.00000000000E+00  0.00000000000E+00  0.45593999997E+02  0.45594000000E+02  0.51100000000E-03 0. -1.
         11   -1    0    0    0    0 -0.00000000000E+00 -0.00000000000E+00 -0.45593999997E+02  0.45594000000E+02  0.51100000000E-03 0.  1.
    9900012    2    1    2    0    0 -0.11143428678E+01 -0.27042639052E+00 -0.27936780967E+00  0.90007772550E+02  0.90000034348E+02 0.  0.
         12    1    1    2    0    0  0.11143428678E+01  0.27042639052E+00  0.27936780967E+00  0.11802274496E+01  0.00000000000E+00 0. -1.
         11    1    3    3    0    0 -0.21776524210E+02 -0.55406087442E+01  0.33442244364E+02  0.40290185657E+02  0.51100000000E-03 0. -1.
        -11    1    3    3    0    0  0.35468713349E+01  0.91159324073E+01  0.19425825801E+01  0.99726700167E+01  0.51100000000E-03 0.  1.
        -12    1    3    3    0    0  0.17115310007E+02 -0.38457500536E+01 -0.35664194754E+02  0.39744916877E+02  0.00000000000E+00 0.  1.
</event>
<event>
 7    1  0.2682188E-015  0.9000839E+02  0.7816164E-02  0.1186338E+00
        -11   -1    0    0    0    0  0.00000000000E+00  0.00000000000E+00  0.45593999997E+02  0.45594000000E+02  0.51100000000E-03 0.  1.
         11   -1    0    0    0    0 -0.00000000000E+00 -0.00000000000E+00 -0.45593999997E+02  0.45594000000E+02  0.51100000000E-03 0. -1.
    9900012    2    1    2    0    0 -0.93675618348E+00 -0.66416625367E+00 -0.26993004327E+00  0.90008385153E+02  0.90000655034E+02 0.  0.
         12    1    1    2    0    0  0.93675618348E+00  0.66416625367E+00  0.26993004327E+00  0.11796148473E+01  0.00000000000E+00 0. -1.
         11    1    3    3    0    0  0.25201089845E+01  0.23132806650E+02 -0.34711483639E+02  0.41789529664E+02  0.51100000000E-03 0. -1.
        -11    1    3    3    0    0 -0.77887067814E+01 -0.49224563038E+01  0.60627000085E+00  0.92337475038E+01  0.51100000000E-03 0.  1.
        -12    1    3    3    0    0  0.43318416134E+01 -0.18874516600E+02  0.33835283595E+02  0.38985107985E+02  0.00000000000E+00 0.  1.
</event>
<event>
 7    1  0.2682188E-015  0.9000787E+02  0.7816164E-02  0.1186339E+00
        -11   -1    0    0    0    0  0.00000000000E+00  0.00000000000E+00  0.45593999997E+02  0.45594000000E+02  0.51100000000E-03 0.  1.
         11   -1    0    0    0    0 -0.00000000000E+00 -0.00000000000E+00 -0.45593999997E+02  0.45594000000E+02  0.51100000000E-03 0. -1.
    9900012    2    1    2    0    0  0.17981041761E+00 -0.10661487348E+01 -0.47295923220E+00  0.90007874860E+02  0.90000138008E+02 0.  0.
         12    1    1    2    0    0 -0.17981041761E+00  0.10661487348E+01  0.47295923220E+00  0.11801251401E+01  0.00000000000E+00 0. -1.
         11    1    3    3    0    0 -0.19208598500E+02  0.31246758339E+02  0.17238026441E+01  0.36719227373E+02  0.51100000000E-03 0. -1.
        -11    1    3    3    0    0 -0.74645126329E+01  0.21876828299E+01 -0.53736524891E+01  0.94541549779E+01  0.51100000000E-03 0.  1.
        -12    1    3    3    0    0  0.26852921551E+02 -0.34500589904E+02  0.31768906128E+01  0.43834492509E+02  0.00000000000E+00 0.  1.
</event>
<event>
 7    1  0.2682188E-015  0.9000766E+02  0.7816164E-02  0.1186339E+00
        -11   -1    0    0    0    0  0.00000000000E+00  0.00000000000E+00  0.45593999997E+02  0.45594000000E+02  0.51100000000E-03 0.  1.
         11   -1    0    0    0    0 -0.00000000000E+00 -0.00000000000E+00 -0.45593999997E+02  0.45594000000E+02  0.51100000000E-03 0. -1.
    9900012    2    1    2    0    0 -0.66605255423E+00 -0.41043357416E+00  0.88381197796E+00  0.90007658805E+02  0.89999919101E+02 0.  0.
         12    1    1    2    0    0  0.66605255423E+00  0.41043357416E+00 -0.88381197796E+00  0.11803411948E+01  0.00000000000E+00 0. -1.
         11    1    3    3    0    0 -0.26869518331E+02 -0.22439133647E+02 -0.32923241225E+01  0.35161415395E+02  0.51100000000E-03 0. -1.
        -11    1    3    3    0    0 -0.32788045558E+01 -0.98829170977E+01  0.46354520507E+01  0.11397807932E+02  0.51100000000E-03 0.  1.
        -12    1    3    3    0    0  0.29482270333E+02  0.31911617171E+02 -0.45931595022E+00  0.43448435479E+02  0.00000000000E+00 0.  1.
</event>
<event>
 7    1  0.2682188E-015  0.9000775E+02  0.7816164E-02  0.1186339E+00
        -11   -1    0    0    0    0  0.00000000000E+00  0.00000000000E+00  0.45593999997E+02  0.45594000000E+02  0.51100000000E-03 0.  1.
         11   -1    0    0    0    0 -0.00000000000E+00 -0.00000000000E+00 -0.45593999997E+02  0.45594000000E+02  0.51100000000E-03 0. -1.
    9900012    2    1    2    0    0  0.56479278399E+00 -0.80372023040E+00  0.65425066988E+00  0.90007745351E+02  0.90000006790E+02 0.  0.
         12    1    1    2    0    0 -0.56479278399E+00  0.80372023040E+00 -0.65425066988E+00  0.11802546491E+01  0.00000000000E+00 0. -1.
         11    1    3    3    0    0 -0.35771847384E+02  0.21506526246E+01 -0.28044888493E+01  0.35946008540E+02  0.51100000000E-03 0. -1.
        -11    1    3    3    0    0 -0.74961413488E+01 -0.36985852359E+01 -0.45196113107E+01  0.95025551579E+01  0.51100000000E-03 0.  1.
        -12    1    3    3    0    0  0.43832781517E+02  0.74421238088E+00  0.79783508298E+01  0.44559181653E+02  0.00000000000E+00 0.  1.
</event>
<event>
 7    1  0.2682188E-015  0.9000775E+02  0.7816164E-02  0.1186339E+00
        -11   -1    0    0    0    0  0.00000000000E+00  0.00000000000E+00  0.45593999997E+02  0.45594000000E+02  0.51100000000E-03 0. -1.
         11   -1    0    0    0    0 -0.00000000000E+00 -0.00000000000E+00 -0.45593999997E+02  0.45594000000E+02  0.51100000000E-03 0.  1.
    9900012    2    1    2    0    0 -0.24506694755E-01 -0.11626610550E+01  0.20148906915E+00  0.90007754622E+02  0.90000016183E+02 0.  0.
         12    1    1    2    0    0  0.24506694755E-01  0.11626610550E+01 -0.20148906915E+00  0.11802453778E+01  0.00000000000E+00 0. -1.
         11    1    3    3    0    0 -0.22822729265E+02  0.75354052395E+01  0.30751834394E+02  0.39029919575E+02  0.51100000000E-03 0. -1.
        -11    1    3    3    0    0 -0.54493677187E+00  0.65629914119E+01  0.30948672503E+01  0.72765387318E+01  0.51100000000E-03 0.  1.
        -12    1    3    3    0    0  0.23343159342E+02 -0.15261057706E+02 -0.33645212575E+02  0.43701296315E+02  0.00000000000E+00 0.  1.
</event>
<event>
 7    1  0.2682188E-015  0.9000771E+02  0.7816164E-02  0.1186339E+00
        -11   -1    0    0    0    0  0.00000000000E+00  0.00000000000E+00  0.45593999997E+02  0.45594000000E+02  0.51100000000E-03 0.  1.
         11   -1    0    0    0    0 -0.00000000000E+00 -0.00000000000E+00 -0.45593999997E+02  0.45594000000E+02  0.51100000000E-03 0. -1.
    9900012    2    1    2    0    0  0.10463980218E+00 -0.11756408730E+01 -0.13878219004E-02  0.90007710681E+02  0.89999971662E+02 0.  0.
         12    1    1    2    0    0 -0.10463980218E+00  0.11756408730E+01  0.13878219004E-02  0.11802893190E+01  0.00000000000E+00 0. -1.
         11    1    3    3    0    0 -0.24991941539E+02  0.11988835223E+02 -0.27233214160E+02  0.38858425929E+02  0.51100000000E-03 0. -1.
        -11    1    3    3    0    0  0.20795568535E+01  0.45847627541E+01 -0.54452501384E+01  0.74158853517E+01  0.51100000000E-03 0.  1.
        -12    1    3    3    0    0  0.23017024488E+02 -0.17749238850E+02  0.32677076477E+02  0.43733399400E+02  0.00000000000E+00 0.  1.
</event>
<event>
 7    1  0.2682188E-015  0.9000772E+02  0.7816164E-02  0.1186339E+00
        -11   -1    0    0    0    0  0.00000000000E+00  0.00000000000E+00  0.45593999997E+02  0.45594000000E+02  0.51100000000E-03 0. -1.
         11   -1    0    0    0    0 -0.00000000000E+00 -0.00000000000E+00 -0.45593999997E+02  0.45594000000E+02  0.51100000000E-03 0.  1.
    9900012    2    1    2    0    0 -0.98378291654E+00  0.55456778349E+00 -0.34304559098E+00  0.90007722689E+02  0.89999983828E+02 0.  0.
         12    1    1    2    0    0  0.98378291654E+00 -0.55456778349E+00  0.34304559098E+00  0.11802773110E+01  0.00000000000E+00 0. -1.
         11    1    3    3    0    0  0.15901499172E+01 -0.89064125140E+01  0.80588459471E+00  0.90830727659E+01  0.51100000000E-03 0. -1.
        -11    1    3    3    0    0  0.32915636203E+02 -0.13604869812E+02 -0.11359117854E+02  0.37383969130E+02  0.51100000000E-03 0.  1.
         12    1    3    3    0    0 -0.35489569037E+02  0.23065850109E+02  0.10210187668E+02  0.43540680793E+02  0.00000000000E+00 0. -1.
</event>
<event>
 7    1  0.2682188E-015  0.9000779E+02  0.7816164E-02  0.1186339E+00
        -11   -1    0    0    0    0  0.00000000000E+00  0.00000000000E+00  0.45593999997E+02  0.45594000000E+02  0.51100000000E-03 0.  1.
         11   -1    0    0    0    0 -0.00000000000E+00 -0.00000000000E+00 -0.45593999997E+02  0.45594000000E+02  0.51100000000E-03 0. -1.
    9900012    2    1    2    0    0 -0.18314446134E+00  0.73155765088E+00  0.90783608040E+00  0.90007794578E+02  0.90000056666E+02 0.  0.
         12    1    1    2    0    0  0.18314446134E+00 -0.73155765088E+00 -0.90783608040E+00  0.11802054224E+01  0.00000000000E+00 0. -1.
         11    1    3    3    0    0 -0.20768800542E+01 -0.57062499787E+01  0.50605362041E+01  0.79046661228E+01  0.51100000000E-03 0. -1.
        -11    1    3    3    0    0  0.20066427210E+02  0.21400150645E+02  0.29126689485E+02  0.41339956328E+02  0.51100000000E-03 0.  1.
         12    1    3    3    0    0 -0.18172691617E+02 -0.14962343015E+02 -0.33279389609E+02  0.40763172127E+02  0.00000000000E+00 0. -1.
</event>
<event>
 7    1  0.2682188E-015  0.9000771E+02  0.7816164E-02  0.1186339E+00
        -11   -1    0    0    0    0  0.00000000000E+00  0.00000000000E+00  0.45593999997E+02  0.45594000000E+02  0.51100000000E-03 0. -1.
         11   -1    0    0    0    0 -0.00000000000E+00 -0.00000000000E+00 -0.45593999997E+02  0.45594000000E+02  0.51100000000E-03 0.  1.
    9900012    2    1    2    0    0 -0.78042180299E+00 -0.80572686853E+00  0.36717669441E+00  0.90007714991E+02  0.89999976029E+02 0.  0.
         12    1    1    2    0    0  0.78042180299E+00  0.80572686853E+00 -0.36717669441E+00  0.11802850089E+01  0.00000000000E+00 0. -1.
         11    1    3    3    0    0  0.10412915456E+02 -0.85408838637E+01 -0.26572410007E+01  0.13727215139E+02  0.51100000000E-03 0. -1.
        -11    1    3    3    0    0  0.31614406554E+02 -0.32744142254E+01 -0.16933693870E+01  0.31828603337E+02  0.51100000000E-03 0.  1.
         12    1    3    3    0    0 -0.42807743813E+02  0.11009571221E+02  0.47177870821E+01  0.44451896515E+02  0.00000000000E+00 0. -1.
</event>
<event>
 7    1  0.2682188E-015  0.9000838E+02  0.7816164E-02  0.1186338E+00
        -11   -1    0    0    0    0  0.00000000000E+00  0.00000000000E+00  0.45593999997E+02  0.45594000000E+02  0.51100000000E-03 0.  1.
         11   -1    0    0    0    0 -0.00000000000E+00 -0.00000000000E+00 -0.45593999997E+02  0.45594000000E+02  0.51100000000E-03 0. -1.
    9900012    2    1    2    0    0  0.31675239275E+00 -0.81385427171E+00  0.79298352827E+00  0.90008375598E+02  0.90000645353E+02 0.  0.
         12    1    1    2    0    0 -0.31675239275E+00  0.81385427171E+00 -0.79298352827E+00  0.11796244021E+01  0.00000000000E+00 0. -1.
         11    1    3    3    0    0 -0.11471071987E+01  0.49259807304E+00  0.11096876338E+02  0.11166878369E+02  0.51100000000E-03 0. -1.
        -11    1    3    3    0    0  0.24969171249E+02  0.27622908308E+02  0.67640130009E+01  0.37844899899E+02  0.51100000000E-03 0.  1.
         12    1    3    3    0    0 -0.23505311657E+02 -0.28929360653E+02 -0.17067905810E+02  0.40996597330E+02  0.00000000000E+00 0. -1.
</event>
<event>
 7    1  0.2682188E-015  0.9000781E+02  0.7816164E-02  0.1186339E+00
        -11   -1    0    0    0    0  0.00000000000E+00  0.00000000000E+00  0.45593999997E+02  0.45594000000E+02  0.51100000000E-03 0.  1.
         11   -1    0    0    0    0 -0.00000000000E+00 -0.00000000000E+00 -0.45593999997E+02  0.45594000000E+02  0.51100000000E-03 0. -1.
    9900012    2    1    2    0    0 -0.16598456034E+00  0.19061308740E+00  0.11528121693E+01  0.90007805050E+02  0.90000067276E+02 0.  0.
         12    1    1    2    0    0  0.16598456034E+00 -0.19061308740E+00 -0.11528121693E+01  0.11801949504E+01  0.00000000000E+00 0. -1.
         11    1    3    3    0    0 -0.12401152336E+02 -0.16953090987E+01 -0.55706718057E+01  0.13700183825E+02  0.51100000000E-03 0. -1.
        -11    1    3    3    0    0 -0.12123551364E+02 -0.19912181973E+02  0.28657776565E+02  0.36942436932E+02  0.51100000000E-03 0.  1.
         12    1    3    3    0    0  0.24358719139E+02  0.21798104159E+02 -0.21934292590E+02  0.39365184293E+02  0.00000000000E+00 0. -1.
</event>
<event>
 7    1  0.2682188E-015  0.9000784E+02  0.7816164E-02  0.1186339E+00
        -11   -1    0    0    0    0  0.00000000000E+00  0.00000000000E+00  0.45593999997E+02  0.45594000000E+02  0.51100000000E-03 0. -1.
         11   -1    0    0    0    0 -0.00000000000E+00 -0.00000000000E+00 -0.45593999997E+02  0.45594000000E+02  0.51100000000E-03 0.  1.
    9900012    2    1    2    0    0 -0.73435330803E+00  0.92384376570E+00 -0.35710348062E-02  0.90007841182E+02  0.90000103885E+02 0.  0.
         12    1    1    2    0    0  0.73435330803E+00 -0.92384376570E+00  0.35710348062E-02  0.11801588184E+01  0.00000000000E+00 0. -1.
         11    1    3    3    0    0  0.23430589401E+02 -0.43740501574E+00  0.30363909390E+02  0.38355584164E+02  0.51100000000E-03 0. -1.
        -11    1    3    3    0    0 -0.35461788542E+01  0.70917178938E+01  0.56644051089E+01  0.97444000662E+01  0.51100000000E-03 0.  1.
        -12    1    3    3    0    0 -0.20618763855E+02 -0.57304691124E+01 -0.36031885534E+02  0.41907856952E+02  0.00000000000E+00 0.  1.
</event>
<event>
 7    1  0.2682188E-015  0.9000782E+02  0.7816164E-02  0.1186339E+00
        -11   -1    0    0    0    0  0.00000000000E+00  0.00000000000E+00  0.45593999997E+02  0.45594000000E+02  0.51100000000E-03 0. -1.
         11   -1    0    0    0    0 -0.00000000000E+00 -0.00000000000E+00 -0.45593999997E+02  0.45594000000E+02  0.51100000000E-03 0.  1.
    9900012    2    1    2    0    0 -0.10342020891E+00 -0.64186890464E+00 -0.98495899195E+00  0.90007815419E+02  0.90000077782E+02 0.  0.
         12    1    1    2    0    0  0.10342020891E+00  0.64186890464E+00  0.98495899195E+00  0.11801845814E+01  0.00000000000E+00 0. -1.
         11    1    3    3    0    0 -0.15503194850E+01 -0.10409214541E+02 -0.14156127995E+01  0.10618813386E+02  0.51100000000E-03 0. -1.
        -11    1    3    3    0    0  0.24555822331E+02  0.31627070041E+02 -0.16555052451E+02  0.43328163261E+02  0.51100000000E-03 0.  1.
         12    1    3    3    0    0 -0.23108923055E+02 -0.21859724404E+02  0.16985706259E+02  0.36060838771E+02  0.00000000000E+00 0. -1.
</event>
<event>
 7    1  0.2682188E-015  0.9000788E+02  0.7816164E-02  0.1186339E+00
        -11   -1    0    0    0    0  0.00000000000E+00  0.00000000000E+00  0.45593999997E+02  0.45594000000E+02  0.51100000000E-03 0. -1.
         11   -1    0    0    0    0 -0.00000000000E+00 -0.00000000000E+00 -0.45593999997E+02  0.45594000000E+02  0.51100000000E-03 0.  1.
    9900012    2    1    2    0    0  0.27431034144E+00 -0.27588994086E+00 -0.11141508703E+01  0.90007875606E+02  0.90000138764E+02 0.  0.
         12    1    1    2    0    0 -0.27431034144E+00  0.27588994086E+00  0.11141508703E+01  0.11801243937E+01  0.00000000000E+00 0. -1.
         11    1    3    3    0    0 -0.18960685478E+02 -0.36784074848E+02  0.29181705421E+01  0.41486039529E+02  0.51100000000E-03 0. -1.
        -11    1    3    3    0    0  0.62473859210E+01  0.21636619492E+01 -0.93179137326E+01  0.11425181857E+02  0.51100000000E-03 0.  1.
        -12    1    3    3    0    0  0.12987609899E+02  0.34344522958E+02  0.52855923203E+01  0.37096654220E+02  0.00000000000E+00 0.  1.
</event>
<event>
 7    1  0.2682188E-015  0.9000782E+02  0.7816164E-02  0.1186339E+00
        -11   -1    0    0    0    0  0.00000000000E+00  0.00000000000E+00  0.45593999997E+02  0.45594000000E+02  0.51100000000E-03 0. -1.
         11   -1    0    0    0    0 -0.00000000000E+00 -0.00000000000E+00 -0.45593999997E+02  0.45594000000E+02  0.51100000000E-03 0.  1.
    9900012    2    1    2    0    0  0.10723131531E+01 -0.16844806296E+00 -0.46325206268E+00  0.90007816658E+02  0.90000079037E+02 0.  0.
         12    1    1    2    0    0 -0.10723131531E+01  0.16844806296E+00  0.46325206268E+00  0.11801833425E+01  0.00000000000E+00 0. -1.
         11    1    3    3    0    0 -0.66866414704E+01 -0.22586088880E+01 -0.36658104169E+00  0.70673099680E+01  0.51100000000E-03 0. -1.
        -11    1    3    3    0    0  0.33828181528E+02 -0.27429203533E+02 -0.57106421959E+00  0.43554944456E+02  0.51100000000E-03 0.  1.
         12    1    3    3    0    0 -0.26069226905E+02  0.29519364358E+02  0.47439319860E+00  0.39385562233E+02  0.00000000000E+00 0. -1.
</event>
<event>
 7    1  0.2682188E-015  0.9000748E+02  0.7816164E-02  0.1186340E+00
        -11   -1    0    0    0    0  0.00000000000E+00  0.00000000000E+00  0.45593999997E+02  0.45594000000E+02  0.51100000000E-03 0.  1.
         11   -1    0    0    0    0 -0.00000000000E+00 -0.00000000000E+00 -0.45593999997E+02  0.45594000000E+02  0.51100000000E-03 0. -1.
    9900012    2    1    2    0    0  0.70824700229E+00 -0.83273292629E+00 -0.44561159102E+00  0.90007479931E+02  0.89999737866E+02 0.  0.
         12    1    1    2    0    0 -0.70824700229E+00  0.83273292629E+00  0.44561159102E+00  0.11805200688E+01  0.00000000000E+00 0. -1.
         11    1    3    3    0    0  0.59756969533E+01 -0.22900838249E+01  0.83965909238E+01  0.10557280777E+02  0.51100000000E-03 0. -1.
        -11    1    3    3    0    0 -0.60049434150E+00  0.36992074660E+02  0.10852054710E+02  0.38555690537E+02  0.51100000000E-03 0.  1.
         12    1    3    3    0    0 -0.46669556096E+01 -0.35534723761E+02 -0.19694257225E+02  0.40894508617E+02  0.00000000000E+00 0. -1.
</event>
<event>
 7    1  0.2682188E-015  0.9000772E+02  0.7816164E-02  0.1186339E+00
        -11   -1    0    0    0    0  0.00000000000E+00  0.00000000000E+00  0.45593999997E+02  0.45594000000E+02  0.51100000000E-03 0.  1.
         11   -1    0    0    0    0 -0.00000000000E+00 -0.00000000000E+00 -0.45593999997E+02  0.45594000000E+02  0.51100000000E-03 0. -1.
    9900012    2    1    2    0    0 -0.76701555031E+00 -0.79875130373E+00  0.40832902044E+00  0.90007724995E+02  0.89999986164E+02 0.  0.
         12    1    1    2    0    0  0.76701555031E+00  0.79875130373E+00 -0.40832902044E+00  0.11802750055E+01  0.00000000000E+00 0. -1.
         11    1    3    3    0    0 -0.13563200482E+01 -0.77737676587E+00  0.91341239535E+01  0.92669379716E+01  0.51100000000E-03 0. -1.
        -11    1    3    3    0    0  0.19147720198E+01 -0.30436188595E+01  0.35856583058E+02  0.36036433183E+02  0.51100000000E-03 0.  1.
         12    1    3    3    0    0 -0.13254675219E+01  0.30222443216E+01 -0.44582377992E+02  0.44704353840E+02  0.00000000000E+00 0. -1.
</event>
<event>
 7    1  0.2682188E-015  0.9000765E+02  0.7816164E-02  0.1186339E+00
        -11   -1    0    0    0    0  0.00000000000E+00  0.00000000000E+00  0.45593999997E+02  0.45594000000E+02  0.51100000000E-03 0.  1.
         11   -1    0    0    0    0 -0.00000000000E+00 -0.00000000000E+00 -0.45593999997E+02  0.45594000000E+02  0.51100000000E-03 0. -1.
    9900012    2    1    2    0    0  0.46208862895E+00 -0.74202105503E+00  0.79316029455E+00  0.90007650730E+02  0.89999910919E+02 0.  0.
         12    1    1    2    0    0 -0.46208862895E+00  0.74202105503E+00 -0.79316029455E+00  0.11803492703E+01  0.00000000000E+00 0. -1.
         11    1    3    3    0    0 -0.20816406066E+02  0.35665968061E+01 -0.53925754228E+01  0.21797321951E+02  0.51100000000E-03 0. -1.
        -11    1    3    3    0    0 -0.45623093156E+01  0.69902736356E+01  0.30098285217E+02  0.31234361928E+02  0.51100000000E-03 0.  1.
         12    1    3    3    0    0  0.25840804011E+02 -0.11298891497E+02 -0.23912549499E+02  0.36975966851E+02  0.00000000000E+00 0. -1.
</event>
<event>
 7    1  0.2682188E-015  0.9000775E+02  0.7816164E-02  0.1186339E+00
        -11   -1    0    0    0    0  0.00000000000E+00  0.00000000000E+00  0.45593999997E+02  0.45594000000E+02  0.51100000000E-03 0. -1.
         11   -1    0    0    0    0 -0.00000000000E+00 -0.00000000000E+00 -0.45593999997E+02  0.45594000000E+02  0.51100000000E-03 0.  1.
    9900012    2    1    2    0    0  0.56018281661E+00  0.30870311812E+00 -0.99191113568E+00  0.90007749982E+02  0.90000011482E+02 0.  0.
         12    1    1    2    0    0 -0.56018281661E+00 -0.30870311812E+00  0.99191113568E+00  0.11802500177E+01  0.00000000000E+00 0. -1.
         11    1    3    3    0    0  0.43033257944E+01  0.49249379478E+01  0.60276786281E+01  0.88941855494E+01  0.51100000000E-03 0. -1.
        -11    1    3    3    0    0 -0.17182617562E+02 -0.39527598381E+02 -0.27529130396E+00  0.43101614420E+02  0.51100000000E-03 0.  1.
         12    1    3    3    0    0  0.13439474585E+02  0.34911363551E+02 -0.67442984598E+01  0.38011950013E+02  0.00000000000E+00 0. -1.
</event>
<event>
 7    1  0.2682188E-015  0.9000766E+02  0.7816164E-02  0.1186339E+00
        -11   -1    0    0    0    0  0.00000000000E+00  0.00000000000E+00  0.45593999997E+02  0.45594000000E+02  0.51100000000E-03 0.  1.
         11   -1    0    0    0    0 -0.00000000000E+00 -0.00000000000E+00 -0.45593999997E+02  0.45594000000E+02  0.51100000000E-03 0. -1.
    9900012    2    1    2    0    0 -0.41435684881E+00  0.10487361350E+01  0.34880082527E+00  0.90007660602E+02  0.89999920922E+02 0.  0.
         12    1    1    2    0    0  0.41435684881E+00 -0.10487361350E+01 -0.34880082527E+00  0.11803393981E+01  0.00000000000E+00 0. -1.
         11    1    3    3    0    0  0.17337744586E+02  0.34171418265E+02  0.41968638965E+01  0.38547332986E+02  0.51100000000E-03 0. -1.
        -11    1    3    3    0    0  0.49164011599E+01 -0.91802765837E+00  0.87782556612E+01  0.10103046464E+02  0.51100000000E-03 0.  1.
        -12    1    3    3    0    0 -0.22668502594E+02 -0.32204654471E+02 -0.12626318732E+02  0.41357281151E+02  0.00000000000E+00 0.  1.
</event>
<event>
 7    1  0.2682188E-015  0.9000819E+02  0.7816164E-02  0.1186338E+00
        -11   -1    0    0    0    0  0.00000000000E+00  0.00000000000E+00  0.45593999997E+02  0.45594000000E+02  0.51100000000E-03 0. -1.
         11   -1    0    0    0    0 -0.00000000000E+00 -0.00000000000E+00 -0.45593999997E+02  0.45594000000E+02  0.51100000000E-03 0.  1.
    9900012    2    1    2    0    0 -0.11027264145E+00  0.89639093417E+00 -0.75913473648E+00  0.90008185476E+02  0.90000452723E+02 0.  0.
         12    1    1    2    0    0  0.11027264145E+00 -0.89639093417E+00  0.75913473648E+00  0.11798145238E+01  0.00000000000E+00 0. -1.
         11    1    3    3    0    0 -0.99101207093E+01 -0.14503499001E+02  0.36233049155E+02  0.40266559663E+02  0.51100000000E-03 0. -1.
        -11    1    3    3    0    0  0.57144992900E+01  0.90085364332E+01  0.12620897590E+01  0.10742537020E+02  0.51100000000E-03 0.  1.
        -12    1    3    3    0    0  0.40853487778E+01  0.63913535024E+01 -0.38254273650E+02  0.38999088794E+02  0.00000000000E+00 0.  1.
</event>
<event>
 7    1  0.2682188E-015  0.9000782E+02  0.7816164E-02  0.1186339E+00
        -11   -1    0    0    0    0  0.00000000000E+00  0.00000000000E+00  0.45593999997E+02  0.45594000000E+02  0.51100000000E-03 0.  1.
         11   -1    0    0    0    0 -0.00000000000E+00 -0.00000000000E+00 -0.45593999997E+02  0.45594000000E+02  0.51100000000E-03 0. -1.
    9900012    2    1    2    0    0  0.12140998871E+00  0.10045769229E+01  0.60737079072E+00  0.90007824396E+02  0.90000086878E+02 0.  0.
         12    1    1    2    0    0 -0.12140998871E+00 -0.10045769229E+01 -0.60737079072E+00  0.11801756043E+01  0.00000000000E+00 0. -1.
         11    1    3    3    0    0  0.20404656859E+01 -0.32362139262E+02 -0.10562015198E+02  0.34103192272E+02  0.51100000000E-03 0. -1.
        -11    1    3    3    0    0  0.84768623928E+01 -0.80526742083E+01  0.51591361820E+01  0.12779649617E+02  0.51100000000E-03 0.  1.
        -12    1    3    3    0    0 -0.10395918090E+02  0.41419390393E+02  0.60102498065E+01  0.43124982507E+02  0.00000000000E+00 0.  1.
</event>
<event>
 7    1  0.2682188E-015  0.9000774E+02  0.7816164E-02  0.1186339E+00
        -11   -1    0    0    0    0  0.00000000000E+00  0.00000000000E+00  0.45593999997E+02  0.45594000000E+02  0.51100000000E-03 0.  1.
         11   -1    0    0    0    0 -0.00000000000E+00 -0.00000000000E+00 -0.45593999997E+02  0.45594000000E+02  0.51100000000E-03 0. -1.
    9900012    2    1    2    0    0 -0.86852830425E-01  0.12662554323E-01  0.11769902448E+01  0.90007741642E+02  0.90000003032E+02 0.  0.
         12    1    1    2    0    0  0.86852830425E-01 -0.12662554323E-01 -0.11769902448E+01  0.11802583576E+01  0.00000000000E+00 0. -1.
         11    1    3    3    0    0  0.10020163966E+01  0.37620463084E+02 -0.12624995722E+02  0.39695009721E+02  0.51100000000E-03 0. -1.
        -11    1    3    3    0    0  0.21524241345E+01 -0.81679904091E+00 -0.73837593879E+01  0.77343385812E+01  0.51100000000E-03 0.  1.
        -12    1    3    3    0    0 -0.32412933615E+01 -0.36791001489E+02  0.21185745355E+02  0.42578393340E+02  0.00000000000E+00 0.  1.
</event>
<event>
 7    1  0.2682188E-015  0.9000777E+02  0.7816164E-02  0.1186339E+00
        -11   -1    0    0    0    0  0.00000000000E+00  0.00000000000E+00  0.45593999997E+02  0.45594000000E+02  0.51100000000E-03 0. -1.
         11   -1    0    0    0    0 -0.00000000000E+00 -0.00000000000E+00 -0.45593999997E+02  0.45594000000E+02  0.51100000000E-03 0.  1.
    9900012    2    1    2    0    0 -0.11571298460E+01  0.18519525653E+00  0.14036145566E+00  0.90007767776E+02  0.90000029511E+02 0.  0.
         12    1    1    2    0    0  0.11571298460E+01 -0.18519525653E+00 -0.14036145566E+00  0.11802322237E+01  0.00000000000E+00 0. -1.
         11    1    3    3    0    0  0.26306487120E+02 -0.34746505159E+01  0.23862871178E+02  0.35686707357E+02  0.51100000000E-03 0. -1.
        -11    1    3    3    0    0  0.21442434712E+01 -0.33680503282E+01  0.88722104602E+01  0.97292169155E+01  0.51100000000E-03 0.  1.
        -12    1    3    3    0    0 -0.29607860438E+02  0.70278961007E+01 -0.32594720183E+02  0.44591843504E+02  0.00000000000E+00 0.  1.
</event>
<event>
 7    1  0.2682188E-015  0.9000775E+02  0.7816164E-02  0.1186339E+00
        -11   -1    0    0    0    0  0.00000000000E+00  0.00000000000E+00  0.45593999997E+02  0.45594000000E+02  0.51100000000E-03 0. -1.
         11   -1    0    0    0    0 -0.00000000000E+00 -0.00000000000E+00 -0.45593999997E+02  0.45594000000E+02  0.51100000000E-03 0.  1.
    9900012    2    1    2    0    0 -0.65384651072E+00  0.68202905862E+00 -0.70733147075E+00  0.90007747186E+02  0.90000008648E+02 0.  0.
         12    1    1    2    0    0  0.65384651072E+00 -0.68202905862E+00  0.70733147075E+00  0.11802528144E+01  0.00000000000E+00 0. -1.
         11    1    3    3    0    0 -0.35310674296E+02 -0.23515840961E+02 -0.82924157870E+00  0.42432607005E+02  0.51100000000E-03 0. -1.
        -11    1    3    3    0    0  0.97678778919E+01 -0.34138317472E+01  0.96471993541E+00  0.10392130221E+02  0.51100000000E-03 0.  1.
        -12    1    3    3    0    0  0.24888949894E+02  0.27611701767E+02 -0.84280982746E+00  0.37183009960E+02  0.00000000000E+00 0.  1.
</event>
<event>
 7    1  0.2682188E-015  0.9000773E+02  0.7816164E-02  0.1186339E+00
        -11   -1    0    0    0    0  0.00000000000E+00  0.00000000000E+00  0.45593999997E+02  0.45594000000E+02  0.51100000000E-03 0. -1.
         11   -1    0    0    0    0 -0.00000000000E+00 -0.00000000000E+00 -0.45593999997E+02  0.45594000000E+02  0.51100000000E-03 0.  1.
    9900012    2    1    2    0    0 -0.58090423774E+00  0.69390790152E+00 -0.75767310200E+00  0.90007734590E+02  0.89999995886E+02 0.  0.
         12    1    1    2    0    0  0.58090423774E+00 -0.69390790152E+00  0.75767310200E+00  0.11802654103E+01  0.00000000000E+00 0. -1.
         11    1    3    3    0    0  0.23550839773E+02 -0.15172379183E+02 -0.17519779435E+02  0.33042182371E+02  0.51100000000E-03 0. -1.
        -11    1    3    3    0    0  0.13282438176E+02 -0.26650251394E+00  0.72146248034E+01  0.15117704813E+02  0.51100000000E-03 0.  1.
        -12    1    3    3    0    0 -0.37414182187E+02  0.16132789598E+02  0.95474815297E+01  0.41847847406E+02  0.00000000000E+00 0.  1.
</event>
<event>
 7    1  0.2682188E-015  0.9000773E+02  0.7816164E-02  0.1186339E+00
        -11   -1    0    0    0    0  0.00000000000E+00  0.00000000000E+00  0.45593999997E+02  0.45594000000E+02  0.51100000000E-03 0.  1.
         11   -1    0    0    0    0 -0.00000000000E+00 -0.00000000000E+00 -0.45593999997E+02  0.45594000000E+02  0.51100000000E-03 0. -1.
    9900012    2    1    2    0    0 -0.10582068944E+01 -0.39913770930E+00 -0.33751305068E+00  0.90007734012E+02  0.89999995301E+02 0.  0.
         12    1    1    2    0    0  0.10582068944E+01  0.39913770930E+00  0.33751305068E+00  0.11802659877E+01  0.00000000000E+00 0. -1.
         11    1    3    3    0    0  0.13685813559E+02  0.51637641778E+01  0.16619492883E+02  0.22139862177E+02  0.51100000000E-03 0. -1.
        -11    1    3    3    0    0  0.52185653020E+01  0.26938544197E+02 -0.49672689579E+01  0.27885342896E+02  0.51100000000E-03 0.  1.
         12    1    3    3    0    0 -0.19962585756E+02 -0.32501446084E+02 -0.11989736976E+02  0.39982528939E+02  0.00000000000E+00 0. -1.
</event>
<event>
 7    1  0.2682188E-015  0.9000774E+02  0.7816164E-02  0.1186339E+00
        -11   -1    0    0    0    0  0.00000000000E+00  0.00000000000E+00  0.45593999997E+02  0.45594000000E+02  0.51100000000E-03 0.  1.
         11   -1    0    0    0    0 -0.00000000000E+00 -0.00000000000E+00 -0.45593999997E+02  0.45594000000E+02  0.51100000000E-03 0. -1.
    9900012    2    1    2    0    0  0.51861171500E+00 -0.87780267758E+00  0.59456954603E+00  0.90007742148E+02  0.90000003545E+02 0.  0.
         12    1    1    2    0    0 -0.51861171500E+00  0.87780267758E+00 -0.59456954603E+00  0.11802578518E+01  0.00000000000E+00 0. -1.
         11    1    3    3    0    0 -0.26173167351E+02 -0.32771882998E+02 -0.96565550472E+01  0.43038123333E+02  0.51100000000E-03 0. -1.
        -11    1    3    3    0    0  0.29087469644E+01 -0.23965909393E+01 -0.68208253996E+00  0.38301036391E+01  0.51100000000E-03 0.  1.
        -12    1    3    3    0    0  0.23783032101E+02  0.34290671260E+02  0.10933207133E+02  0.43139515176E+02  0.00000000000E+00 0.  1.
</event>
<event>
 7    1  0.2682188E-015  0.9000771E+02  0.7816164E-02  0.1186339E+00
        -11   -1    0    0    0    0  0.00000000000E+00  0.00000000000E+00  0.45593999997E+02  0.45594000000E+02  0.51100000000E-03 0.  1.
         11   -1    0    0    0    0 -0.00000000000E+00 -0.00000000000E+00 -0.45593999997E+02  0.45594000000E+02  0.51100000000E-03 0. -1.
    9900012    2    1    2    0    0 -0.99608082592E+00  0.10459388330E-01  0.63309347266E+00  0.90007706072E+02  0.89999966992E+02 0.  0.
         12    1    1    2    0    0  0.99608082592E+00 -0.10459388330E-01 -0.63309347266E+00  0.11802939277E+01  0.00000000000E+00 0. -1.
         11    1    3    3    0    0  0.12085631447E+02 -0.53379119727E+00 -0.12554255462E+01  0.12162381102E+02  0.51100000000E-03 0. -1.
        -11    1    3    3    0    0  0.12523778032E+02 -0.11282995273E+02  0.32259096100E+02  0.36397805978E+02  0.51100000000E-03 0.  1.
         12    1    3    3    0    0 -0.25605490305E+02  0.11827245859E+02 -0.30370577081E+02  0.41447518992E+02  0.00000000000E+00 0. -1.
</event>
<event>
 7    1  0.2682188E-015  0.9000768E+02  0.7816164E-02  0.1186339E+00
        -11   -1    0    0    0    0  0.00000000000E+00  0.00000000000E+00  0.45593999997E+02  0.45594000000E+02  0.51100000000E-03 0. -1.
         11   -1    0    0    0    0 -0.00000000000E+00 -0.00000000000E+00 -0.45593999997E+02  0.45594000000E+02  0.51100000000E-03 0.  1.
    9900012    2    1    2    0    0  0.35698634495E-01 -0.83899237649E+00  0.82943431422E+00  0.90007684838E+02  0.89999945478E+02 0.  0.
         12    1    1    2    0    0 -0.35698634495E-01  0.83899237649E+00 -0.82943431422E+00  0.11803151621E+01  0.00000000000E+00 0. -1.
         11    1    3    3    0    0 -0.97578300179E+01 -0.70769620944E+01  0.77408508643E+00  0.12078818118E+02  0.51100000000E-03 0. -1.
        -11    1    3    3    0    0 -0.13772217249E+02 -0.62307325699E+01 -0.32503724303E+02  0.35846730536E+02  0.51100000000E-03 0.  1.
         12    1    3    3    0    0  0.23565745901E+02  0.12468702288E+02  0.32559073531E+02  0.42082136184E+02  0.00000000000E+00 0. -1.
</event>
<event>
 7    1  0.2738563E-015  0.9000772E+02  0.7816164E-02  0.1186339E+00
        -11   -1    0    0    0    0  0.00000000000E+00  0.00000000000E+00  0.45593999997E+02  0.45594000000E+02  0.51100000000E-03 0. -1.
         11   -1    0    0    0    0 -0.00000000000E+00 -0.00000000000E+00 -0.45593999997E+02  0.45594000000E+02  0.51100000000E-03 0.  1.
    9900012    2    1    2    0    0 -0.68479875163E+00 -0.51145843102E+00 -0.81395383140E+00  0.90007720416E+02  0.89999981525E+02 0.  0.
         12    1    1    2    0    0  0.68479875163E+00  0.51145843102E+00  0.81395383140E+00  0.11802795841E+01  0.00000000000E+00 0. -1.
         11    1    3    3    0    0  0.27412371608E+01 -0.59094004858E+01 -0.61205060752E+01  0.89384556916E+01  0.51100000000E-03 0. -1.
        -11    1    3    3    0    0 -0.45136289135E+01 -0.81536802520E+01 -0.36206517093E+02  0.37386725290E+02  0.51100000000E-03 0.  1.
         12    1    3    3    0    0  0.10875930011E+01  0.13551622307E+02  0.41513069337E+02  0.43682539435E+02  0.00000000000E+00 0. -1.
</event>
<event>
 7    1  0.2682188E-015  0.9000770E+02  0.7816164E-02  0.1186339E+00
        -11   -1    0    0    0    0  0.00000000000E+00  0.00000000000E+00  0.45593999997E+02  0.45594000000E+02  0.51100000000E-03 0. -1.
         11   -1    0    0    0    0 -0.00000000000E+00 -0.00000000000E+00 -0.45593999997E+02  0.45594000000E+02  0.51100000000E-03 0.  1.
    9900012    2    1    2    0    0 -0.19833276145E+00 -0.18590659321E+00 -0.11485713087E+01  0.90007697837E+02  0.89999958648E+02 0.  0.
         12    1    1    2    0    0  0.19833276145E+00  0.18590659321E+00  0.11485713087E+01  0.11803021633E+01  0.00000000000E+00 0. -1.
         11    1    3    3    0    0 -0.58694766263E+01 -0.22874738943E+02  0.25910781638E+02  0.35058138041E+02  0.51100000000E-03 0. -1.
        -11    1    3    3    0    0 -0.20493232225E+01 -0.11803057978E+02 -0.35308477859E+01  0.12489146874E+02  0.51100000000E-03 0.  1.
        -12    1    3    3    0    0  0.77204670873E+01  0.34491890327E+02 -0.23528505160E+02  0.42460412922E+02  0.00000000000E+00 0.  1.
</event>
<event>
 7    1  0.2682188E-015  0.9000769E+02  0.7816164E-02  0.1186339E+00
        -11   -1    0    0    0    0  0.00000000000E+00  0.00000000000E+00  0.45593999997E+02  0.45594000000E+02  0.51100000000E-03 0. -1.
         11   -1    0    0    0    0 -0.00000000000E+00 -0.00000000000E+00 -0.45593999997E+02  0.45594000000E+02  0.51100000000E-03 0.  1.
    9900012    2    1    2    0    0  0.43425508021E+00 -0.59236195667E+00 -0.92393329662E+00  0.90007693727E+02  0.89999954484E+02 0.  0.
         12    1    1    2    0    0 -0.43425508021E+00  0.59236195667E+00  0.92393329662E+00  0.11803062734E+01  0.00000000000E+00 0. -1.
         11    1    3    3    0    0  0.13123939271E+01 -0.10803168541E+02  0.21074337035E+01  0.11084769074E+02  0.51100000000E-03 0. -1.
        -11    1    3    3    0    0 -0.23351225833E+02 -0.91887406075E+01 -0.29793248384E+02  0.38953181531E+02  0.51100000000E-03 0.  1.
         12    1    3    3    0    0  0.22473086987E+02  0.19399547192E+02  0.26761881384E+02  0.39969743121E+02  0.00000000000E+00 0. -1.
</event>
<event>
 7    1  0.2682188E-015  0.9000772E+02  0.7816164E-02  0.1186339E+00
        -11   -1    0    0    0    0  0.00000000000E+00  0.00000000000E+00  0.45593999997E+02  0.45594000000E+02  0.51100000000E-03 0.  1.
         11   -1    0    0    0    0 -0.00000000000E+00 -0.00000000000E+00 -0.45593999997E+02  0.45594000000E+02  0.51100000000E-03 0. -1.
    9900012    2    1    2    0    0 -0.41012760533E-01  0.49950326471E+00  0.10685857251E+01  0.90007719944E+02  0.89999981048E+02 0.  0.
         12    1    1    2    0    0  0.41012760533E-01 -0.49950326471E+00 -0.10685857251E+01  0.11802800557E+01  0.00000000000E+00 0. -1.
         11    1    3    3    0    0  0.22152182498E+01  0.16375319018E+02  0.49710906202E+01  0.17256013649E+02  0.51100000000E-03 0. -1.
        -11    1    3    3    0    0 -0.10712373669E+02  0.25774233608E+02  0.72004117390E+01  0.28825544178E+02  0.51100000000E-03 0.  1.
         12    1    3    3    0    0  0.84561426588E+01 -0.41650049362E+02 -0.11102916634E+02  0.43926162117E+02  0.00000000000E+00 0. -1.
</event>
<event>
 7    1  0.2682188E-015  0.9000773E+02  0.7816164E-02  0.1186339E+00
        -11   -1    0    0    0    0  0.00000000000E+00  0.00000000000E+00  0.45593999997E+02  0.45594000000E+02  0.51100000000E-03 0.  1.
         11   -1    0    0    0    0 -0.00000000000E+00 -0.00000000000E+00 -0.45593999997E+02  0.45594000000E+02  0.51100000000E-03 0. -1.
    9900012    2    1    2    0    0 -0.10909058241E+00 -0.13942241891E+00  0.11669191028E+01  0.90007729032E+02  0.89999990255E+02 0.  0.
         12    1    1    2    0    0  0.10909058241E+00  0.13942241891E+00 -0.11669191028E+01  0.11802709682E+01  0.00000000000E+00 0. -1.
         11    1    3    3    0    0 -0.39815880321E+02 -0.81516108119E+01 -0.13571273365E+02  0.42847783438E+02  0.51100000000E-03 0. -1.
        -11    1    3    3    0    0  0.12991555807E+01 -0.16568161291E+01  0.63304000809E+01  0.66713424701E+01  0.51100000000E-03 0.  1.
        -12    1    3    3    0    0  0.38407634158E+02  0.96690045221E+01  0.84077923870E+01  0.40488603123E+02  0.00000000000E+00 0.  1.
</event>
<event>
 7    1  0.2682188E-015  0.9000770E+02  0.7816164E-02  0.1186339E+00
        -11   -1    0    0    0    0  0.00000000000E+00  0.00000000000E+00  0.45593999997E+02  0.45594000000E+02  0.51100000000E-03 0.  1.
         11   -1    0    0    0    0 -0.00000000000E+00 -0.00000000000E+00 -0.45593999997E+02  0.45594000000E+02  0.51100000000E-03 0. -1.
    9900012    2    1    2    0    0 -0.22306244276E+00  0.88482234956E+00  0.74862509003E+00  0.90007700475E+02  0.89999961321E+02 0.  0.
         12    1    1    2    0    0  0.22306244276E+00 -0.88482234956E+00 -0.74862509003E+00  0.11802995251E+01  0.00000000000E+00 0. -1.
         11    1    3    3    0    0 -0.86674900350E+01 -0.44226689793E+00 -0.35302225955E+02  0.36353378676E+02  0.51100000000E-03 0. -1.
        -11    1    3    3    0    0  0.40440257542E+01  0.80545169544E+01 -0.60095896758E+01  0.10832569224E+02  0.51100000000E-03 0.  1.
        -12    1    3    3    0    0  0.44004018380E+01 -0.67274277069E+01  0.42060440721E+02  0.42821752574E+02  0.00000000000E+00 0.  1.
</event>
<event>
 7    1  0.2682188E-015  0.9000781E+02  0.7816164E-02  0.1186339E+00
        -11   -1    0    0    0    0  0.00000000000E+00  0.00000000000E+00  0.45593999997E+02  0.45594000000E+02  0.51100000000E-03 0. -1.
         11   -1    0    0    0    0 -0.00000000000E+00 -0.00000000000E+00 -0.45593999997E+02  0.45594000000E+02  0.51100000000E-03 0.  1.
    9900012    2    1    2    0    0  0.86074310666E+00 -0.59055780510E+00 -0.55065351318E+00  0.90007806580E+02  0.90000068827E+02 0.  0.
         12    1    1    2    0    0 -0.86074310666E+00  0.59055780510E+00  0.55065351318E+00  0.11801934199E+01  0.00000000000E+00 0. -1.
         11    1    3    3    0    0 -0.80296462207E+01 -0.39820491736E-01  0.50328813949E+01  0.94766396733E+01  0.51100000000E-03 0. -1.
        -11    1    3    3    0    0  0.13536705583E+02 -0.27991741543E+02  0.24472140912E+02  0.39568493448E+02  0.51100000000E-03 0.  1.
         12    1    3    3    0    0 -0.46463162554E+01  0.27441004230E+02 -0.30055675820E+02  0.40962673459E+02  0.00000000000E+00 0. -1.
</event>
<event>
 7    1  0.2682188E-015  0.9000775E+02  0.7816164E-02  0.1186339E+00
        -11   -1    0    0    0    0  0.00000000000E+00  0.00000000000E+00  0.45593999997E+02  0.45594000000E+02  0.51100000000E-03 0. -1.
         11   -1    0    0    0    0 -0.00000000000E+00 -0.00000000000E+00 -0.45593999997E+02  0.45594000000E+02  0.51100000000E-03 0.  1.
    9900012    2    1    2    0    0 -0.85403389065E+00 -0.69939930757E+00 -0.41767255473E+00  0.90007752720E+02  0.90000014256E+02 0.  0.
         12    1    1    2    0    0  0.85403389065E+00  0.69939930757E+00  0.41767255473E+00  0.11802472795E+01  0.00000000000E+00 0. -1.
         11    1    3    3    0    0  0.28418171716E+02  0.33258698478E+01  0.26352152205E+02  0.38898455240E+02  0.51100000000E-03 0. -1.
        -11    1    3    3    0    0  0.45139272304E+01  0.64876427328E+01 -0.28626648693E+01  0.84059441875E+01  0.51100000000E-03 0.  1.
        -12    1    3    3    0    0 -0.33786132837E+02 -0.10512911888E+02 -0.23907159890E+02  0.42703353293E+02  0.00000000000E+00 0.  1.
</event>
<event>
 7    1  0.2682188E-015  0.9000776E+02  0.7816164E-02  0.1186339E+00
        -11   -1    0    0    0    0  0.00000000000E+00  0.00000000000E+00  0.45593999997E+02  0.45594000000E+02  0.51100000000E-03 0.  1.
         11   -1    0    0    0    0 -0.00000000000E+00 -0.00000000000E+00 -0.45593999997E+02  0.45594000000E+02  0.51100000000E-03 0. -1.
    9900012    2    1    2    0    0  0.82204578841E+00 -0.77777722469E+00  0.33505510083E+00  0.90007763325E+02  0.90000025000E+02 0.  0.
         12    1    1    2    0    0 -0.82204578841E+00  0.77777722469E+00 -0.33505510083E+00  0.11802366754E+01  0.00000000000E+00 0. -1.
         11    1    3    3    0    0 -0.88295439851E+01 -0.20462975438E+01 -0.40025750118E+01  0.99080163306E+01  0.51100000000E-03 0. -1.
        -11    1    3    3    0    0  0.88566450021E+01 -0.34192576087E+02  0.20805653159E+02  0.40993263151E+02  0.51100000000E-03 0.  1.
         12    1    3    3    0    0  0.79494477136E+00  0.35461096406E+02 -0.16468023047E+02  0.39106483843E+02  0.00000000000E+00 0. -1.
</event>
<event>
 7    1  0.3179897E-015  0.9000727E+02  0.7816164E-02  0.1186340E+00
        -11   -1    0    0    0    0  0.00000000000E+00  0.00000000000E+00  0.45593999997E+02  0.45594000000E+02  0.51100000000E-03 0. -1.
         11   -1    0    0    0    0 -0.00000000000E+00 -0.00000000000E+00 -0.45593999997E+02  0.45594000000E+02  0.51100000000E-03 0.  1.
    9900012    2    1    2    0    0 -0.79679804721E+00  0.83489648421E+00 -0.24934647967E+00  0.90007274403E+02  0.89999529624E+02 0.  0.
         12    1    1    2    0    0  0.79679804721E+00 -0.83489648421E+00  0.24934647967E+00  0.11807255965E+01  0.00000000000E+00 0. -1.
         11    1    3    3    0    0 -0.19717781858E+01  0.17840647569E+01 -0.84920757323E+01  0.88986598303E+01  0.51100000000E-03 0. -1.
        -11    1    3    3    0    0  0.13713812635E+01 -0.17241399966E+02 -0.32727888803E+02  0.37017040199E+02  0.51100000000E-03 0.  1.
         12    1    3    3    0    0 -0.19640112486E+00  0.16292231694E+02  0.40970618055E+02  0.44091574374E+02  0.00000000000E+00 0. -1.
</event>
<event>
 7    1  0.2682188E-015  0.9000779E+02  0.7816164E-02  0.1186339E+00
        -11   -1    0    0    0    0  0.00000000000E+00  0.00000000000E+00  0.45593999997E+02  0.45594000000E+02  0.51100000000E-03 0.  1.
         11   -1    0    0    0    0 -0.00000000000E+00 -0.00000000000E+00 -0.45593999997E+02  0.45594000000E+02  0.51100000000E-03 0. -1.
    9900012    2    1    2    0    0 -0.64728392494E+00 -0.92659429729E+00  0.33960348501E+00  0.90007794934E+02  0.90000057027E+02 0.  0.
         12    1    1    2    0    0  0.64728392494E+00  0.92659429729E+00 -0.33960348501E+00  0.11802050662E+01  0.00000000000E+00 0. -1.
         11    1    3    3    0    0  0.13769327141E+02 -0.27564601018E+02 -0.26494550740E+02  0.40636963695E+02  0.51100000000E-03 0. -1.
        -11    1    3    3    0    0  0.66222059975E+01  0.58761705854E+01 -0.82244841736E+00  0.88915361261E+01  0.51100000000E-03 0.  1.
        -12    1    3    3    0    0 -0.21038817063E+02  0.20761836135E+02  0.27656602642E+02  0.40479295113E+02  0.00000000000E+00 0.  1.
</event>
<event>
 7    1  0.2682188E-015  0.9000768E+02  0.7816164E-02  0.1186339E+00
        -11   -1    0    0    0    0  0.00000000000E+00  0.00000000000E+00  0.45593999997E+02  0.45594000000E+02  0.51100000000E-03 0.  1.
         11   -1    0    0    0    0 -0.00000000000E+00 -0.00000000000E+00 -0.45593999997E+02  0.45594000000E+02  0.51100000000E-03 0. -1.
    9900012    2    1    2    0    0 -0.25644015464E+00 -0.11518856696E+01  0.23384847099E-01  0.90007682670E+02  0.89999943281E+02 0.  0.
         12    1    1    2    0    0  0.25644015464E+00  0.11518856696E+01 -0.23384847099E-01  0.11803173301E+01  0.00000000000E+00 0. -1.
         11    1    3    3    0    0 -0.89609701072E+01 -0.35937029243E+01 -0.22478097797E+01  0.99129377602E+01  0.51100000000E-03 0. -1.
        -11    1    3    3    0    0 -0.27865816990E+02  0.96409536958E+01 -0.20958607927E+02  0.36176166065E+02  0.51100000000E-03 0.  1.
         12    1    3    3    0    0  0.36570346943E+02 -0.71991364411E+01  0.23229802553E+02  0.43918578844E+02  0.00000000000E+00 0. -1.
</event>
<event>
 7    1  0.2682188E-015  0.9000774E+02  0.7816164E-02  0.1186339E+00
        -11   -1    0    0    0    0  0.00000000000E+00  0.00000000000E+00  0.45593999997E+02  0.45594000000E+02  0.51100000000E-03 0. -1.
         11   -1    0    0    0    0 -0.00000000000E+00 -0.00000000000E+00 -0.45593999997E+02  0.45594000000E+02  0.51100000000E-03 0.  1.
    9900012    2    1    2    0    0 -0.83133949867E+00 -0.17131159295E+00 -0.82008273900E+00  0.90007742095E+02  0.90000003490E+02 0.  0.
         12    1    1    2    0    0  0.83133949867E+00  0.17131159295E+00  0.82008273900E+00  0.11802579052E+01  0.00000000000E+00 0. -1.
         11    1    3    3    0    0  0.18567237653E+01  0.84386327111E+01 -0.60419914992E+01  0.10543415325E+02  0.51100000000E-03 0. -1.
        -11    1    3    3    0    0 -0.24797029157E+02  0.19284274835E+02 -0.18719902838E+02  0.36567891291E+02  0.51100000000E-03 0.  1.
         12    1    3    3    0    0  0.22108965893E+02 -0.27894219139E+02  0.23941811598E+02  0.42896435479E+02  0.00000000000E+00 0. -1.
</event>
<event>
 7    1  0.2682188E-015  0.9000765E+02  0.7816164E-02  0.1186339E+00
        -11   -1    0    0    0    0  0.00000000000E+00  0.00000000000E+00  0.45593999997E+02  0.45594000000E+02  0.51100000000E-03 0. -1.
         11   -1    0    0    0    0 -0.00000000000E+00 -0.00000000000E+00 -0.45593999997E+02  0.45594000000E+02  0.51100000000E-03 0.  1.
    9900012    2    1    2    0    0  0.25020299719E-01 -0.37300094581E+00 -0.11195868633E+01  0.90007648160E+02  0.89999908316E+02 0.  0.
         12    1    1    2    0    0 -0.25020299719E-01  0.37300094581E+00  0.11195868633E+01  0.11803518397E+01  0.00000000000E+00 0. -1.
         11    1    3    3    0    0 -0.12779639160E+01  0.65160280128E+01 -0.65269868369E+01  0.93109274653E+01  0.51100000000E-03 0. -1.
        -11    1    3    3    0    0 -0.35991418304E+02  0.35738486066E+01  0.17416713000E+02  0.40143448748E+02  0.51100000000E-03 0.  1.
         12    1    3    3    0    0  0.37294402520E+02 -0.10462877565E+02 -0.12009313026E+02  0.40553271947E+02  0.00000000000E+00 0. -1.
</event>
<event>
 7    1  0.2682188E-015  0.9000786E+02  0.7816164E-02  0.1186339E+00
        -11   -1    0    0    0    0  0.00000000000E+00  0.00000000000E+00  0.45593999997E+02  0.45594000000E+02  0.51100000000E-03 0.  1.
         11   -1    0    0    0    0 -0.00000000000E+00 -0.00000000000E+00 -0.45593999997E+02  0.45594000000E+02  0.51100000000E-03 0. -1.
    9900012    2    1    2    0    0 -0.90747289677E-01 -0.53793174911E+00  0.10464805790E+01  0.90007861347E+02  0.90000124317E+02 0.  0.
         12    1    1    2    0    0  0.90747289677E-01  0.53793174911E+00 -0.10464805790E+01  0.11801386527E+01  0.00000000000E+00 0. -1.
         11    1    3    3    0    0  0.19373138086E+02  0.40364696618E+01 -0.34634452420E+02  0.39889307606E+02  0.51100000000E-03 0. -1.
        -11    1    3    3    0    0  0.71048340826E+01  0.26791091297E+01  0.65266743851E+01  0.10012680553E+02  0.51100000000E-03 0.  1.
        -12    1    3    3    0    0 -0.26568719459E+02 -0.72535105406E+01  0.29154258614E+02  0.40105873188E+02  0.00000000000E+00 0.  1.
</event>
<event>
 7    1  0.2682188E-015  0.9000769E+02  0.7816164E-02  0.1186339E+00
        -11   -1    0    0    0    0  0.00000000000E+00  0.00000000000E+00  0.45593999997E+02  0.45594000000E+02  0.51100000000E-03 0.  1.
         11   -1    0    0    0    0 -0.00000000000E+00 -0.00000000000E+00 -0.45593999997E+02  0.45594000000E+02  0.51100000000E-03 0. -1.
    9900012    2    1    2    0    0 -0.44733380329E+00  0.64956398957E+00  0.87812213267E+00  0.90007686742E+02  0.89999947407E+02 0.  0.
         12    1    1    2    0    0  0.44733380329E+00 -0.64956398957E+00 -0.87812213267E+00  0.11803132584E+01  0.00000000000E+00 0. -1.
         11    1    3    3    0    0  0.20938451960E+02 -0.17401606741E+02 -0.25743984422E+02  0.37469820147E+02  0.51100000000E-03 0. -1.
        -11    1    3    3    0    0  0.15329319609E+01  0.37469327577E+01 -0.77951424123E+01  0.87837139626E+01  0.51100000000E-03 0.  1.
        -12    1    3    3    0    0 -0.22918717725E+02  0.14304237973E+02  0.34417248967E+02  0.43754152632E+02  0.00000000000E+00 0.  1.
</event>
<event>
 7    1  0.2682188E-015  0.9000745E+02  0.7816164E-02  0.1186340E+00
        -11   -1    0    0    0    0  0.00000000000E+00  0.00000000000E+00  0.45593999997E+02  0.45594000000E+02  0.51100000000E-03 0.  1.
         11   -1    0    0    0    0 -0.00000000000E+00 -0.00000000000E+00 -0.45593999997E+02  0.45594000000E+02  0.51100000000E-03 0. -1.
    9900012    2    1    2    0    0 -0.28988259562E+00  0.82466888222E+00 -0.79346384846E+00  0.90007451160E+02  0.89999708715E+02 0.  0.
         12    1    1    2    0    0  0.28988259562E+00 -0.82466888222E+00  0.79346384846E+00  0.11805488399E+01  0.00000000000E+00 0. -1.
         11    1    3    3    0    0  0.25419665569E+02  0.24982997810E+01 -0.27089276553E+02  0.37232107164E+02  0.51100000000E-03 0. -1.
        -11    1    3    3    0    0 -0.45763650607E+01 -0.72148099670E+00 -0.98550763940E+01  0.10889728325E+02  0.51100000000E-03 0.  1.
        -12    1    3    3    0    0 -0.21133183104E+02 -0.95214990212E+00  0.36150889099E+02  0.41885615671E+02  0.00000000000E+00 0.  1.
</event>
<event>
 7    1  0.2682188E-015  0.9000785E+02  0.7816164E-02  0.1186339E+00
        -11   -1    0    0    0    0  0.00000000000E+00  0.00000000000E+00  0.45593999997E+02  0.45594000000E+02  0.51100000000E-03 0. -1.
         11   -1    0    0    0    0 -0.00000000000E+00 -0.00000000000E+00 -0.45593999997E+02  0.45594000000E+02  0.51100000000E-03 0.  1.
    9900012    2    1    2    0    0 -0.11394077821E+00  0.88090366507E+00  0.77703217398E+00  0.90007850532E+02  0.90000113359E+02 0.  0.
         12    1    1    2    0    0  0.11394077821E+00 -0.88090366507E+00 -0.77703217398E+00  0.11801494683E+01  0.00000000000E+00 0. -1.
         11    1    3    3    0    0  0.51433233495E+01 -0.50282033014E+01 -0.10355858515E+02  0.12608743370E+02  0.51100000000E-03 0. -1.
        -11    1    3    3    0    0  0.89961554821E+01  0.32755268224E+01 -0.31209269716E+02  0.32644730139E+02  0.51100000000E-03 0.  1.
         12    1    3    3    0    0 -0.14253419610E+02  0.26335801441E+01  0.42342160405E+02  0.44754377023E+02  0.00000000000E+00 0. -1.
</event>
<event>
 7    1  0.2682188E-015  0.9000774E+02  0.7816164E-02  0.1186339E+00
        -11   -1    0    0    0    0  0.00000000000E+00  0.00000000000E+00  0.45593999997E+02  0.45594000000E+02  0.51100000000E-03 0.  1.
         11   -1    0    0    0    0 -0.00000000000E+00 -0.00000000000E+00 -0.45593999997E+02  0.45594000000E+02  0.51100000000E-03 0. -1.
    9900012    2    1    2    0    0 -0.59255726888E+00 -0.92505303973E+00  0.43148100709E+00  0.90007736003E+02  0.89999997318E+02 0.  0.
         12    1    1    2    0    0  0.59255726888E+00  0.92505303973E+00 -0.43148100709E+00  0.11802639970E+01  0.00000000000E+00 0. -1.
         11    1    3    3    0    0 -0.14286639351E+02  0.19915590766E+01 -0.37455492276E+02  0.40137118399E+02  0.51100000000E-03 0. -1.
        -11    1    3    3    0    0  0.19177041724E+01  0.85322163970E+01  0.18565259674E+00  0.87470436769E+01  0.51100000000E-03 0.  1.
        -12    1    3    3    0    0  0.11776377910E+02 -0.11448828513E+02  0.37701320686E+02  0.41123573927E+02  0.00000000000E+00 0.  1.
</event>
<event>
 7    1  0.2682188E-015  0.9000772E+02  0.7816164E-02  0.1186339E+00
        -11   -1    0    0    0    0  0.00000000000E+00  0.00000000000E+00  0.45593999997E+02  0.45594000000E+02  0.51100000000E-03 0. -1.
         11   -1    0    0    0    0 -0.00000000000E+00 -0.00000000000E+00 -0.45593999997E+02  0.45594000000E+02  0.51100000000E-03 0.  1.
    9900012    2    1    2    0    0  0.21263407586E+00  0.11253353417E+01 -0.28542754956E+00  0.90007719623E+02  0.89999980722E+02 0.  0.
         12    1    1    2    0    0 -0.21263407586E+00 -0.11253353417E+01  0.28542754956E+00  0.11802803767E+01  0.00000000000E+00 0. -1.
         11    1    3    3    0    0  0.72898214034E+01 -0.19311839120E+02  0.17566287054E+02  0.27104668738E+02  0.51100000000E-03 0. -1.
        -11    1    3    3    0    0  0.50204329609E+01  0.12308706533E+01  0.18962011197E+02  0.19653947659E+02  0.51100000000E-03 0.  1.
        -12    1    3    3    0    0 -0.12097620288E+02  0.19206303809E+02 -0.36813725800E+02  0.43249103227E+02  0.00000000000E+00 0.  1.
</event>
<event>
 7    1  0.2682188E-015  0.9000772E+02  0.7816164E-02  0.1186339E+00
        -11   -1    0    0    0    0  0.00000000000E+00  0.00000000000E+00  0.45593999997E+02  0.45594000000E+02  0.51100000000E-03 0.  1.
         11   -1    0    0    0    0 -0.00000000000E+00 -0.00000000000E+00 -0.45593999997E+02  0.45594000000E+02  0.51100000000E-03 0. -1.
    9900012    2    1    2    0    0  0.18069644382E+00  0.23387215159E+00  0.11426752045E+01  0.90007722909E+02  0.89999984052E+02 0.  0.
         12    1    1    2    0    0 -0.18069644382E+00 -0.23387215159E+00 -0.11426752045E+01  0.11802770908E+01  0.00000000000E+00 0. -1.
         11    1    3    3    0    0 -0.37679984253E+01  0.22517482578E+01  0.91020367143E+01  0.10105209298E+02  0.51100000000E-03 0. -1.
        -11    1    3    3    0    0 -0.48415035458E+01 -0.23550917379E+02  0.28106709351E+02  0.36987470538E+02  0.51100000000E-03 0.  1.
         12    1    3    3    0    0  0.87901984149E+01  0.21533041273E+02 -0.36066070861E+02  0.42915043073E+02  0.00000000000E+00 0. -1.
</event>
<event>
 7    1  0.2682188E-015  0.9000672E+02  0.7816164E-02  0.1186341E+00
        -11   -1    0    0    0    0  0.00000000000E+00  0.00000000000E+00  0.45593999997E+02  0.45594000000E+02  0.51100000000E-03 0.  1.
         11   -1    0    0    0    0 -0.00000000000E+00 -0.00000000000E+00 -0.45593999997E+02  0.45594000000E+02  0.51100000000E-03 0. -1.
    9900012    2    1    2    0    0 -0.89494472304E+00 -0.68280117496E+00  0.35816682501E+00  0.90006718079E+02  0.89998965952E+02 0.  0.
         12    1    1    2    0    0  0.89494472304E+00  0.68280117496E+00 -0.35816682501E+00  0.11812819208E+01  0.00000000000E+00 0. -1.
         11    1    3    3    0    0  0.26825052993E+02 -0.13351172015E+02 -0.25729437042E+02  0.39494824890E+02  0.51100000000E-03 0. -1.
        -11    1    3    3    0    0 -0.11519080701E+00  0.64474113603E+01 -0.52308259978E+01  0.83032477412E+01  0.51100000000E-03 0.  1.
        -12    1    3    3    0    0 -0.27604806909E+02  0.62209594802E+01  0.31318429865E+02  0.42208645448E+02  0.00000000000E+00 0.  1.
</event>
<event>
 7    1  0.2682188E-015  0.9000759E+02  0.7816164E-02  0.1186339E+00
        -11   -1    0    0    0    0  0.00000000000E+00  0.00000000000E+00  0.45593999997E+02  0.45594000000E+02  0.51100000000E-03 0.  1.
         11   -1    0    0    0    0 -0.00000000000E+00 -0.00000000000E+00 -0.45593999997E+02  0.45594000000E+02  0.51100000000E-03 0. -1.
    9900012    2    1    2    0    0  0.83756733487E-01 -0.11133855343E+01  0.38306068755E+00  0.90007585654E+02  0.89999844984E+02 0.  0.
         12    1    1    2    0    0 -0.83756733487E-01  0.11133855343E+01 -0.38306068755E+00  0.11804143462E+01  0.00000000000E+00 0. -1.
         11    1    3    3    0    0  0.85635849776E+01 -0.66994759367E+01  0.45629701772E+01  0.11791465668E+02  0.51100000000E-03 0. -1.
        -11    1    3    3    0    0  0.13371658761E+02 -0.31840749773E+02 -0.48412295033E+01  0.34872225445E+02  0.51100000000E-03 0.  1.
         12    1    3    3    0    0 -0.21851487005E+02  0.37426840175E+02  0.66132001363E+00  0.43343894541E+02  0.00000000000E+00 0. -1.
</event>
<event>
 7    1  0.2682188E-015  0.9000787E+02  0.7816164E-02  0.1186339E+00
        -11   -1    0    0    0    0  0.00000000000E+00  0.00000000000E+00  0.45593999997E+02  0.45594000000E+02  0.51100000000E-03 0. -1.
         11   -1    0    0    0    0 -0.00000000000E+00 -0.00000000000E+00 -0.45593999997E+02  0.45594000000E+02  0.51100000000E-03 0.  1.
    9900012    2    1    2    0    0 -0.29238610887E+00  0.10902191736E+01 -0.34444714129E+00  0.90007868094E+02  0.90000131152E+02 0.  0.
         12    1    1    2    0    0  0.29238610887E+00 -0.10902191736E+01  0.34444714129E+00  0.11801319063E+01  0.00000000000E+00 0. -1.
         11    1    3    3    0    0 -0.30870313284E+02  0.26349903662E+02 -0.97756013515E+01  0.41747527439E+02  0.51100000000E-03 0. -1.
        -11    1    3    3    0    0  0.60738323915E+01  0.10158214454E+01 -0.65037924914E+01  0.89567097844E+01  0.51100000000E-03 0.  1.
        -12    1    3    3    0    0  0.24504094783E+02 -0.26275505933E+02  0.15934946702E+02  0.39303630870E+02  0.00000000000E+00 0.  1.
</event>
<event>
 7    1  0.2682188E-015  0.9000782E+02  0.7816164E-02  0.1186339E+00
        -11   -1    0    0    0    0  0.00000000000E+00  0.00000000000E+00  0.45593999997E+02  0.45594000000E+02  0.51100000000E-03 0.  1.
         11   -1    0    0    0    0 -0.00000000000E+00 -0.00000000000E+00 -0.45593999997E+02  0.45594000000E+02  0.51100000000E-03 0. -1.
    9900012    2    1    2    0    0  0.10650500046E+01 -0.46427368131E+00  0.20720782164E+00  0.90007823469E+02  0.90000085939E+02 0.  0.
         12    1    1    2    0    0 -0.10650500046E+01  0.46427368131E+00 -0.20720782164E+00  0.11801765312E+01  0.00000000000E+00 0. -1.
         11    1    3    3    0    0  0.34727627887E+02  0.64988453317E+01 -0.15715705560E+02  0.38668159134E+02  0.51100000000E-03 0. -1.
        -11    1    3    3    0    0  0.52521039744E+01 -0.83540404441E+01  0.33236138307E+01  0.10412540375E+02  0.51100000000E-03 0.  1.
        -12    1    3    3    0    0 -0.38914681857E+02  0.13909214311E+01  0.12599299551E+02  0.40927123960E+02  0.00000000000E+00 0.  1.
</event>
<event>
 7    1  0.2682188E-015  0.9000764E+02  0.7816164E-02  0.1186339E+00
        -11   -1    0    0    0    0  0.00000000000E+00  0.00000000000E+00  0.45593999997E+02  0.45594000000E+02  0.51100000000E-03 0.  1.
         11   -1    0    0    0    0 -0.00000000000E+00 -0.00000000000E+00 -0.45593999997E+02  0.45594000000E+02  0.51100000000E-03 0. -1.
    9900012    2    1    2    0    0  0.44903207817E+00  0.97843021269E+00  0.48405083731E+00  0.90007635352E+02  0.89999895339E+02 0.  0.
         12    1    1    2    0    0 -0.44903207817E+00 -0.97843021269E+00 -0.48405083731E+00  0.11803646477E+01  0.00000000000E+00 0. -1.
         11    1    3    3    0    0  0.14066883328E+01  0.70219937476E+01  0.36941565479E+01  0.80581611500E+01  0.51100000000E-03 0. -1.
        -11    1    3    3    0    0 -0.17105501955E+02  0.14164696687E+02  0.31573273912E+02  0.38601922946E+02  0.51100000000E-03 0.  1.
         12    1    3    3    0    0  0.16147845700E+02 -0.20208260222E+02 -0.34783379622E+02  0.43347551256E+02  0.00000000000E+00 0. -1.
</event>
<event>
 7    1  0.2682188E-015  0.9000770E+02  0.7816164E-02  0.1186339E+00
        -11   -1    0    0    0    0  0.00000000000E+00  0.00000000000E+00  0.45593999997E+02  0.45594000000E+02  0.51100000000E-03 0. -1.
         11   -1    0    0    0    0 -0.00000000000E+00 -0.00000000000E+00 -0.45593999997E+02  0.45594000000E+02  0.51100000000E-03 0.  1.
    9900012    2    1    2    0    0  0.54887229566E+00 -0.77116629354E+00 -0.70508606813E+00  0.90007701473E+02  0.89999962332E+02 0.  0.
         12    1    1    2    0    0 -0.54887229566E+00  0.77116629354E+00  0.70508606813E+00  0.11802985269E+01  0.00000000000E+00 0. -1.
         11    1    3    3    0    0  0.13213012999E+02  0.86722017905E+01 -0.20850771182E+02  0.26163819590E+02  0.51100000000E-03 0. -1.
        -11    1    3    3    0    0 -0.15983848230E+02 -0.17853037388E+00 -0.18218807203E+02  0.24237165954E+02  0.51100000000E-03 0.  1.
         12    1    3    3    0    0  0.33197075262E+01 -0.92648377101E+01  0.38364492317E+02  0.39606715928E+02  0.00000000000E+00 0. -1.
</event>
<event>
 7    1  0.2682188E-015  0.9000761E+02  0.7816164E-02  0.1186339E+00
        -11   -1    0    0    0    0  0.00000000000E+00  0.00000000000E+00  0.45593999997E+02  0.45594000000E+02  0.51100000000E-03 0.  1.
         11   -1    0    0    0    0 -0.00000000000E+00 -0.00000000000E+00 -0.45593999997E+02  0.45594000000E+02  0.51100000000E-03 0. -1.
    9900012    2    1    2    0    0 -0.21485687227E+00 -0.11141125466E+01  0.32542543173E+00  0.90007613642E+02  0.89999873342E+02 0.  0.
         12    1    1    2    0    0  0.21485687227E+00  0.11141125466E+01 -0.32542543173E+00  0.11803863578E+01  0.00000000000E+00 0. -1.
         11    1    3    3    0    0 -0.13163632035E+02 -0.19493034299E+02 -0.26261524695E+02  0.35255173721E+02  0.51100000000E-03 0. -1.
        -11    1    3    3    0    0 -0.68603406699E+01 -0.79538324416E+00 -0.79697997040E+01  0.10545834068E+02  0.51100000000E-03 0.  1.
        -12    1    3    3    0    0  0.19809115833E+02  0.19174304996E+02  0.34556749831E+02  0.44206605853E+02  0.00000000000E+00 0.  1.
</event>
<event>
 7    1  0.2682188E-015  0.9000773E+02  0.7816164E-02  0.1186339E+00
        -11   -1    0    0    0    0  0.00000000000E+00  0.00000000000E+00  0.45593999997E+02  0.45594000000E+02  0.51100000000E-03 0.  1.
         11   -1    0    0    0    0 -0.00000000000E+00 -0.00000000000E+00 -0.45593999997E+02  0.45594000000E+02  0.51100000000E-03 0. -1.
    9900012    2    1    2    0    0 -0.88308537688E+00  0.59466862406E+00  0.50948676893E+00  0.90007725742E+02  0.89999986922E+02 0.  0.
         12    1    1    2    0    0  0.88308537688E+00 -0.59466862406E+00 -0.50948676893E+00  0.11802742575E+01  0.00000000000E+00 0. -1.
         11    1    3    3    0    0  0.21091307836E+02 -0.16482268637E+02 -0.31365834266E+02  0.41234985208E+02  0.51100000000E-03 0. -1.
        -11    1    3    3    0    0 -0.93000476270E+01 -0.13402654520E+01 -0.52139407933E+00  0.94105817776E+01  0.51100000000E-03 0.  1.
        -12    1    3    3    0    0 -0.12674345586E+02  0.18417202713E+02  0.32396715114E+02  0.39362158757E+02  0.00000000000E+00 0.  1.
</event>
<event>
 7    1  0.2682188E-015  0.9000764E+02  0.7816164E-02  0.1186339E+00
        -11   -1    0    0    0    0  0.00000000000E+00  0.00000000000E+00  0.45593999997E+02  0.45594000000E+02  0.51100000000E-03 0.  1.
         11   -1    0    0    0    0 -0.00000000000E+00 -0.00000000000E+00 -0.45593999997E+02  0.45594000000E+02  0.51100000000E-03 0. -1.
    9900012    2    1    2    0    0  0.26390815870E+00 -0.28549842694E+00  0.11144919123E+01  0.90007640271E+02  0.89999900322E+02 0.  0.
         12    1    1    2    0    0 -0.26390815870E+00  0.28549842694E+00 -0.11144919123E+01  0.11803597293E+01  0.00000000000E+00 0. -1.
         11    1    3    3    0    0  0.94188454337E+01 -0.17894749943E+01  0.13460382023E+01  0.96813578160E+01  0.51100000000E-03 0. -1.
        -11    1    3    3    0    0  0.11083808057E+02 -0.23798155427E+02  0.27251347322E+02  0.37839647645E+02  0.51100000000E-03 0.  1.
         12    1    3    3    0    0 -0.20238745332E+02  0.25302131995E+02 -0.27482893612E+02  0.42486634809E+02  0.00000000000E+00 0. -1.
</event>
<event>
 7    1  0.2682188E-015  0.9000776E+02  0.7816164E-02  0.1186339E+00
        -11   -1    0    0    0    0  0.00000000000E+00  0.00000000000E+00  0.45593999997E+02  0.45594000000E+02  0.51100000000E-03 0. -1.
         11   -1    0    0    0    0 -0.00000000000E+00 -0.00000000000E+00 -0.45593999997E+02  0.45594000000E+02  0.51100000000E-03 0.  1.
    9900012    2    1    2    0    0 -0.66220120704E+00  0.29382893291E+00 -0.93172421949E+00  0.90007764472E+02  0.90000026163E+02 0.  0.
         12    1    1    2    0    0  0.66220120704E+00 -0.29382893291E+00  0.93172421949E+00  0.11802355280E+01  0.00000000000E+00 0. -1.
         11    1    3    3    0    0  0.15733567657E+01 -0.17457193628E+02  0.32226579172E+02  0.36684894251E+02  0.51100000000E-03 0. -1.
        -11    1    3    3    0    0 -0.53339225075E+01  0.31682419480E+01  0.76658617220E+01  0.98617403413E+01  0.51100000000E-03 0.  1.
        -12    1    3    3    0    0  0.30983645348E+01  0.14582780613E+02 -0.40824165113E+02  0.43461129879E+02  0.00000000000E+00 0.  1.
</event>
<event>
 7    1  0.2682188E-015  0.9000778E+02  0.7816164E-02  0.1186339E+00
        -11   -1    0    0    0    0  0.00000000000E+00  0.00000000000E+00  0.45593999997E+02  0.45594000000E+02  0.51100000000E-03 0.  1.
         11   -1    0    0    0    0 -0.00000000000E+00 -0.00000000000E+00 -0.45593999997E+02  0.45594000000E+02  0.51100000000E-03 0. -1.
    9900012    2    1    2    0    0  0.50993142701E+00 -0.76100429023E+00  0.74414723327E+00  0.90007782776E+02  0.90000044709E+02 0.  0.
         12    1    1    2    0    0 -0.50993142701E+00  0.76100429023E+00 -0.74414723327E+00  0.11802172236E+01  0.00000000000E+00 0. -1.
         11    1    3    3    0    0  0.47584626404E+01 -0.22831367753E+02 -0.29083553259E+02  0.37279584099E+02  0.51100000000E-03 0. -1.
        -11    1    3    3    0    0  0.77112925738E+01 -0.68384927623E+01  0.12985184311E+01  0.10388222504E+02  0.51100000000E-03 0.  1.
        -12    1    3    3    0    0 -0.11959823787E+02  0.28908856226E+02  0.28529182061E+02  0.42339976173E+02  0.00000000000E+00 0.  1.
</event>
<event>
 7    1  0.2682188E-015  0.9000808E+02  0.7816164E-02  0.1186338E+00
        -11   -1    0    0    0    0  0.00000000000E+00  0.00000000000E+00  0.45593999997E+02  0.45594000000E+02  0.51100000000E-03 0. -1.
         11   -1    0    0    0    0 -0.00000000000E+00 -0.00000000000E+00 -0.45593999997E+02  0.45594000000E+02  0.51100000000E-03 0.  1.
    9900012    2    1    2    0    0 -0.35867035691E+00  0.27096090831E+00 -0.10909411269E+01  0.90008077638E+02  0.90000343462E+02 0.  0.
         12    1    1    2    0    0  0.35867035691E+00 -0.27096090831E+00  0.10909411269E+01  0.11799223623E+01  0.00000000000E+00 0. -1.
         11    1    3    3    0    0  0.12066063040E+02 -0.30864953029E+02 -0.15985841477E+02  0.36793781142E+02  0.51100000000E-03 0. -1.
        -11    1    3    3    0    0 -0.39090412118E+01 -0.69902667696E-01 -0.11067013728E+02  0.11737303042E+02  0.51100000000E-03 0.  1.
        -12    1    3    3    0    0 -0.85156921847E+01  0.31205816605E+02  0.25961914078E+02  0.41476993454E+02  0.00000000000E+00 0.  1.
</event>
<event>
 7    1  0.3387587E-015  0.9000803E+02  0.7816164E-02  0.1186338E+00
        -11   -1    0    0    0    0  0.00000000000E+00  0.00000000000E+00  0.45593999997E+02  0.45594000000E+02  0.51100000000E-03 0.  1.
         11   -1    0    0    0    0 -0.00000000000E+00 -0.00000000000E+00 -0.45593999997E+02  0.45594000000E+02  0.51100000000E-03 0. -1.
    9900012    2    1    2    0    0  0.11468846370E+01  0.27653844255E+00  0.22636678117E-01  0.90008029534E+02  0.90000294724E+02 0.  0.
         12    1    1    2    0    0 -0.11468846370E+01 -0.27653844255E+00 -0.22636678117E-01  0.11799704657E+01  0.00000000000E+00 0. -1.
         11    1    3    3    0    0 -0.36556246857E+01  0.84720046629E+01  0.16980956545E+01  0.93820031957E+01  0.51100000000E-03 0. -1.
        -11    1    3    3    0    0  0.27937720590E+02  0.15544420198E+02  0.22929774785E+02  0.39343611972E+02  0.51100000000E-03 0.  1.
         12    1    3    3    0    0 -0.23135211267E+02 -0.23739886418E+02 -0.24605233761E+02  0.41282414367E+02  0.00000000000E+00 0. -1.
</event>
<event>
 7    1  0.2682188E-015  0.9000772E+02  0.7816164E-02  0.1186339E+00
        -11   -1    0    0    0    0  0.00000000000E+00  0.00000000000E+00  0.45593999997E+02  0.45594000000E+02  0.51100000000E-03 0.  1.
         11   -1    0    0    0    0 -0.00000000000E+00 -0.00000000000E+00 -0.45593999997E+02  0.45594000000E+02  0.51100000000E-03 0. -1.
    9900012    2    1    2    0    0 -0.68951092166E+00 -0.91282423320E+00 -0.29050343967E+00  0.90007717983E+02  0.89999979060E+02 0.  0.
         12    1    1    2    0    0  0.68951092166E+00  0.91282423320E+00  0.29050343967E+00  0.11802820173E+01  0.00000000000E+00 0. -1.
         11    1    3    3    0    0 -0.10699960821E+02  0.59345849067E+01 -0.31905903092E+01  0.12644695583E+02  0.51100000000E-03 0. -1.
        -11    1    3    3    0    0 -0.72635689598E+01 -0.79720407602E+01  0.37313637953E+02  0.38840963498E+02  0.51100000000E-03 0.  1.
         12    1    3    3    0    0  0.17274018860E+02  0.11246316203E+01 -0.34413551084E+02  0.38522058902E+02  0.00000000000E+00 0. -1.
</event>
<event>
 7    1  0.2682188E-015  0.9000773E+02  0.7816164E-02  0.1186339E+00
        -11   -1    0    0    0    0  0.00000000000E+00  0.00000000000E+00  0.45593999997E+02  0.45594000000E+02  0.51100000000E-03 0. -1.
         11   -1    0    0    0    0 -0.00000000000E+00 -0.00000000000E+00 -0.45593999997E+02  0.45594000000E+02  0.51100000000E-03 0.  1.
    9900012    2    1    2    0    0  0.75695641848E+00  0.67568024075E+00 -0.60291853561E+00  0.90007729875E+02  0.89999991109E+02 0.  0.
         12    1    1    2    0    0 -0.75695641848E+00 -0.67568024075E+00  0.60291853561E+00  0.11802701249E+01  0.00000000000E+00 0. -1.
         11    1    3    3    0    0  0.11524447969E+01 -0.74624175022E+01 -0.66020681626E+00  0.75796884691E+01  0.51100000000E-03 0. -1.
        -11    1    3    3    0    0  0.34869145451E+02  0.17962201458E+02 -0.16117975036E+02  0.42406215407E+02  0.51100000000E-03 0.  1.
         12    1    3    3    0    0 -0.35264633829E+02 -0.98241037148E+01  0.16175263317E+02  0.40021825999E+02  0.00000000000E+00 0. -1.
</event>
<event>
 7    1  0.2682188E-015  0.9000773E+02  0.7816164E-02  0.1186339E+00
        -11   -1    0    0    0    0  0.00000000000E+00  0.00000000000E+00  0.45593999997E+02  0.45594000000E+02  0.51100000000E-03 0.  1.
         11   -1    0    0    0    0 -0.00000000000E+00 -0.00000000000E+00 -0.45593999997E+02  0.45594000000E+02  0.51100000000E-03 0. -1.
    9900012    2    1    2    0    0 -0.46775997897E+00  0.90573603089E+00  0.59488288499E+00  0.90007727658E+02  0.89999988863E+02 0.  0.
         12    1    1    2    0    0  0.46775997897E+00 -0.90573603089E+00 -0.59488288499E+00  0.11802723425E+01  0.00000000000E+00 0. -1.
         11    1    3    3    0    0  0.11121909250E+02  0.37210646443E+00  0.21817993903E+01  0.11339999005E+02  0.51100000000E-03 0. -1.
        -11    1    3    3    0    0 -0.14473792342E+02  0.57321267091E+00  0.37123818671E+02  0.39849681937E+02  0.51100000000E-03 0.  1.
         12    1    3    3    0    0  0.28841231135E+01 -0.39583104441E-01 -0.38710735176E+02  0.38818046716E+02  0.00000000000E+00 0. -1.
</event>
<event>
 7    1  0.2682188E-015  0.9000776E+02  0.7816164E-02  0.1186339E+00
        -11   -1    0    0    0    0  0.00000000000E+00  0.00000000000E+00  0.45593999997E+02  0.45594000000E+02  0.51100000000E-03 0.  1.
         11   -1    0    0    0    0 -0.00000000000E+00 -0.00000000000E+00 -0.45593999997E+02  0.45594000000E+02  0.51100000000E-03 0. -1.
    9900012    2    1    2    0    0  0.11031510712E+01 -0.28035146476E+00 -0.31214148791E+00  0.90007757848E+02  0.90000019451E+02 0.  0.
         12    1    1    2    0    0 -0.11031510712E+01  0.28035146476E+00  0.31214148791E+00  0.11802421523E+01  0.00000000000E+00 0. -1.
         11    1    3    3    0    0 -0.89362030818E+01 -0.78624871686E+01  0.13275600704E+02  0.17830199223E+02  0.51100000000E-03 0. -1.
        -11    1    3    3    0    0 -0.11645510357E+02 -0.25386012806E+02  0.53024974928E+01  0.28428577833E+02  0.51100000000E-03 0.  1.
        -12    1    3    3    0    0  0.21684864510E+02  0.32968148510E+02 -0.18890239685E+02  0.43748980792E+02  0.00000000000E+00 0.  1.
</event>
<event>
 7    1  0.2682188E-015  0.9000770E+02  0.7816164E-02  0.1186339E+00
        -11   -1    0    0    0    0  0.00000000000E+00  0.00000000000E+00  0.45593999997E+02  0.45594000000E+02  0.51100000000E-03 0. -1.
         11   -1    0    0    0    0 -0.00000000000E+00 -0.00000000000E+00 -0.45593999997E+02  0.45594000000E+02  0.51100000000E-03 0.  1.
    9900012    2    1    2    0    0 -0.80499310921E+00 -0.61395463081E+00 -0.60674784047E+00  0.90007704640E+02  0.89999965541E+02 0.  0.
         12    1    1    2    0    0  0.80499310921E+00  0.61395463081E+00  0.60674784047E+00  0.11802953599E+01  0.00000000000E+00 0. -1.
         11    1    3    3    0    0 -0.14032077120E+02 -0.44591721935E+01  0.37488753105E+02  0.40276420082E+02  0.51100000000E-03 0. -1.
        -11    1    3    3    0    0  0.63300514614E+01 -0.69625869792E+01  0.13220357137E+00  0.94108791827E+01  0.51100000000E-03 0.  1.
        -12    1    3    3    0    0  0.68970325498E+01  0.10807804542E+02 -0.38227704517E+02  0.40320405376E+02  0.00000000000E+00 0.  1.
</event>
<event>
 7    1  0.2682188E-015  0.9000773E+02  0.7816164E-02  0.1186339E+00
        -11   -1    0    0    0    0  0.00000000000E+00  0.00000000000E+00  0.45593999997E+02  0.45594000000E+02  0.51100000000E-03 0.  1.
         11   -1    0    0    0    0 -0.00000000000E+00 -0.00000000000E+00 -0.45593999997E+02  0.45594000000E+02  0.51100000000E-03 0. -1.
    9900012    2    1    2    0    0 -0.86243559413E+00  0.76452721303E+00  0.25442283889E+00  0.90007733931E+02  0.89999995219E+02 0.  0.
         12    1    1    2    0    0  0.86243559413E+00 -0.76452721303E+00 -0.25442283889E+00  0.11802660693E+01  0.00000000000E+00 0. -1.
         11    1    3    3    0    0  0.29308758259E+01 -0.43701143960E+01 -0.77756876187E+01  0.93887832622E+01  0.51100000000E-03 0. -1.
        -11    1    3    3    0    0  0.12191821962E+02 -0.28411950524E+02  0.25006514852E+02  0.39764371498E+02  0.51100000000E-03 0.  1.
         12    1    3    3    0    0 -0.15985133382E+02  0.33546592133E+02 -0.16976404394E+02  0.40854579170E+02  0.00000000000E+00 0. -1.
</event>
<event>
 7    1  0.2682188E-015  0.9000804E+02  0.7816164E-02  0.1186338E+00
        -11   -1    0    0    0    0  0.00000000000E+00  0.00000000000E+00  0.45593999997E+02  0.45594000000E+02  0.51100000000E-03 0.  1.
         11   -1    0    0    0    0 -0.00000000000E+00 -0.00000000000E+00 -0.45593999997E+02  0.45594000000E+02  0.51100000000E-03 0. -1.
    9900012    2    1    2    0    0  0.64673042161E+00 -0.17662164318E+00 -0.97100318993E+00  0.90008041256E+02  0.90000306600E+02 0.  0.
         12    1    1    2    0    0 -0.64673042161E+00  0.17662164318E+00  0.97100318993E+00  0.11799587442E+01  0.00000000000E+00 0. -1.
         11    1    3    3    0    0  0.31284673798E+01 -0.24636170918E+02 -0.27074860633E+02  0.36739301902E+02  0.51100000000E-03 0. -1.
        -11    1    3    3    0    0  0.80993421131E+01 -0.42642819801E+01 -0.43102786727E+01  0.10117408066E+02  0.51100000000E-03 0.  1.
        -12    1    3    3    0    0 -0.10581079071E+02  0.28723831255E+02  0.30414136116E+02  0.43151331288E+02  0.00000000000E+00 0.  1.
</event>
<event>
 7    1  0.2682188E-015  0.9000785E+02  0.7816164E-02  0.1186339E+00
        -11   -1    0    0    0    0  0.00000000000E+00  0.00000000000E+00  0.45593999997E+02  0.45594000000E+02  0.51100000000E-03 0. -1.
         11   -1    0    0    0    0 -0.00000000000E+00 -0.00000000000E+00 -0.45593999997E+02  0.45594000000E+02  0.51100000000E-03 0.  1.
    9900012    2    1    2    0    0 -0.48850219396E+00 -0.10648938212E+01  0.14186650956E+00  0.90007847743E+02  0.90000110533E+02 0.  0.
         12    1    1    2    0    0  0.48850219396E+00  0.10648938212E+01 -0.14186650956E+00  0.11801522573E+01  0.00000000000E+00 0. -1.
         11    1    3    3    0    0  0.70888184569E+01 -0.46303061035E+01 -0.52894205136E+01  0.99834388543E+01  0.51100000000E-03 0. -1.
        -11    1    3    3    0    0 -0.10211431992E+02 -0.30731130567E+02 -0.19264064293E+02  0.37679966861E+02  0.51100000000E-03 0.  1.
         12    1    3    3    0    0  0.26341113410E+01  0.34296542850E+02  0.24695351316E+02  0.42344442028E+02  0.00000000000E+00 0. -1.
</event>
<event>
 7    1  0.2682188E-015  0.9000777E+02  0.7816164E-02  0.1186339E+00
        -11   -1    0    0    0    0  0.00000000000E+00  0.00000000000E+00  0.45593999997E+02  0.45594000000E+02  0.51100000000E-03 0. -1.
         11   -1    0    0    0    0 -0.00000000000E+00 -0.00000000000E+00 -0.45593999997E+02  0.45594000000E+02  0.51100000000E-03 0.  1.
    9900012    2    1    2    0    0  0.39181644640E-01 -0.70665078803E+00  0.94448426430E+00  0.90007770758E+02  0.90000032532E+02 0.  0.
         12    1    1    2    0    0 -0.39181644640E-01  0.70665078803E+00 -0.94448426430E+00  0.11802292417E+01  0.00000000000E+00 0. -1.
         11    1    3    3    0    0 -0.24645924381E+02 -0.10973932354E+02  0.31576526701E+02  0.41532226267E+02  0.51100000000E-03 0. -1.
        -11    1    3    3    0    0  0.70306048795E+01 -0.77899307921E+01 -0.27311241812E+01  0.10843037687E+02  0.51100000000E-03 0.  1.
        -12    1    3    3    0    0  0.17654501146E+02  0.18057212359E+02 -0.27900918256E+02  0.37632506805E+02  0.00000000000E+00 0.  1.
</event>
<event>
 7    1  0.2682188E-015  0.9000783E+02  0.7816164E-02  0.1186339E+00
        -11   -1    0    0    0    0  0.00000000000E+00  0.00000000000E+00  0.45593999997E+02  0.45594000000E+02  0.51100000000E-03 0.  1.
         11   -1    0    0    0    0 -0.00000000000E+00 -0.00000000000E+00 -0.45593999997E+02  0.45594000000E+02  0.51100000000E-03 0. -1.
    9900012    2    1    2    0    0 -0.15653898635E+00  0.33107687553E+00  0.11219130378E+01  0.90007828311E+02  0.90000090844E+02 0.  0.
         12    1    1    2    0    0  0.15653898635E+00 -0.33107687553E+00 -0.11219130378E+01  0.11801716893E+01  0.00000000000E+00 0. -1.
         11    1    3    3    0    0  0.31832279933E+02 -0.15513198122E+02 -0.14741456272E+02  0.38357057955E+02  0.51100000000E-03 0. -1.
        -11    1    3    3    0    0  0.72644837093E+01  0.28240342650E+01  0.27557149244E+01  0.82669134565E+01  0.51100000000E-03 0.  1.
        -12    1    3    3    0    0 -0.39253302628E+02  0.13020240732E+02  0.13107654385E+02  0.43383856899E+02  0.00000000000E+00 0.  1.
</event>
<event>
 7    1  0.2682188E-015  0.9000772E+02  0.7816164E-02  0.1186339E+00
        -11   -1    0    0    0    0  0.00000000000E+00  0.00000000000E+00  0.45593999997E+02  0.45594000000E+02  0.51100000000E-03 0.  1.
         11   -1    0    0    0    0 -0.00000000000E+00 -0.00000000000E+00 -0.45593999997E+02  0.45594000000E+02  0.51100000000E-03 0. -1.
    9900012    2    1    2    0    0 -0.10626037463E+01 -0.11634585666E+00  0.50040009211E+00  0.90007718961E+02  0.89999980051E+02 0.  0.
         12    1    1    2    0    0  0.10626037463E+01  0.11634585666E+00 -0.50040009211E+00  0.11802810395E+01  0.00000000000E+00 0. -1.
         11    1    3    3    0    0  0.36491889329E+01 -0.52120647963E+00 -0.12122797457E+02  0.12670850584E+02  0.51100000000E-03 0. -1.
        -11    1    3    3    0    0 -0.20047751823E+01  0.31765464571E+02 -0.15249130652E+02  0.35293056667E+02  0.51100000000E-03 0.  1.
         12    1    3    3    0    0 -0.27070174969E+01 -0.31360603948E+02  0.27872328202E+02  0.42043811710E+02  0.00000000000E+00 0. -1.
</event>
<event>
 7    1  0.2682188E-015  0.9000771E+02  0.7816164E-02  0.1186339E+00
        -11   -1    0    0    0    0  0.00000000000E+00  0.00000000000E+00  0.45593999997E+02  0.45594000000E+02  0.51100000000E-03 0. -1.
         11   -1    0    0    0    0 -0.00000000000E+00 -0.00000000000E+00 -0.45593999997E+02  0.45594000000E+02  0.51100000000E-03 0.  1.
    9900012    2    1    2    0    0 -0.48327847166E+00 -0.10540688773E+01  0.22016364747E+00  0.90007707108E+02  0.89999968042E+02 0.  0.
         12    1    1    2    0    0  0.48327847166E+00  0.10540688773E+01 -0.22016364747E+00  0.11802928920E+01  0.00000000000E+00 0. -1.
         11    1    3    3    0    0  0.13033883547E+01 -0.39636597829E+01 -0.91752246476E+01  0.10079393219E+02  0.51100000000E-03 0. -1.
        -11    1    3    3    0    0  0.16493893687E+01  0.32144567043E+02 -0.20349714216E+02  0.38080238242E+02  0.51100000000E-03 0.  1.
         12    1    3    3    0    0 -0.34360561951E+01 -0.29234976137E+02  0.29745102511E+02  0.41848075646E+02  0.00000000000E+00 0. -1.
</event>
<event>
 7    1  0.2682188E-015  0.9000774E+02  0.7816164E-02  0.1186339E+00
        -11   -1    0    0    0    0  0.00000000000E+00  0.00000000000E+00  0.45593999997E+02  0.45594000000E+02  0.51100000000E-03 0. -1.
         11   -1    0    0    0    0 -0.00000000000E+00 -0.00000000000E+00 -0.45593999997E+02  0.45594000000E+02  0.51100000000E-03 0.  1.
    9900012    2    1    2    0    0  0.78060024828E+00 -0.59284821887E+00 -0.65743371582E+00  0.90007735263E+02  0.89999996569E+02 0.  0.
         12    1    1    2    0    0 -0.78060024828E+00  0.59284821887E+00  0.65743371582E+00  0.11802647368E+01  0.00000000000E+00 0. -1.
         11    1    3    3    0    0  0.23509830662E+01 -0.45148714006E+01 -0.13730056008E+02  0.14643279120E+02  0.51100000000E-03 0. -1.
        -11    1    3    3    0    0 -0.57150774870E+01 -0.33915617146E+02 -0.19364273034E+01  0.34448235775E+02  0.51100000000E-03 0.  1.
         12    1    3    3    0    0  0.41446946690E+01  0.37837640327E+02  0.15009049596E+02  0.40916220368E+02  0.00000000000E+00 0. -1.
</event>
<event>
 7    1  0.2682188E-015  0.9000772E+02  0.7816164E-02  0.1186339E+00
        -11   -1    0    0    0    0  0.00000000000E+00  0.00000000000E+00  0.45593999997E+02  0.45594000000E+02  0.51100000000E-03 0. -1.
         11   -1    0    0    0    0 -0.00000000000E+00 -0.00000000000E+00 -0.45593999997E+02  0.45594000000E+02  0.51100000000E-03 0.  1.
    9900012    2    1    2    0    0  0.74970382054E+00  0.59415049851E+00 -0.69136832117E+00  0.90007720038E+02  0.89999981142E+02 0.  0.
         12    1    1    2    0    0 -0.74970382054E+00 -0.59415049851E+00  0.69136832117E+00  0.11802799621E+01  0.00000000000E+00 0. -1.
         11    1    3    3    0    0 -0.53520765093E+01 -0.34910851960E+02  0.59957780033E+00  0.35323813516E+02  0.51100000000E-03 0. -1.
        -11    1    3    3    0    0 -0.35092915541E-01 -0.93725839001E+01 -0.33105610043E+00  0.93784944890E+01  0.51100000000E-03 0.  1.
        -12    1    3    3    0    0  0.61368732453E+01  0.44877586359E+02 -0.95989002108E+00  0.45305412033E+02  0.00000000000E+00 0.  1.
</event>
<event>
 7    1  0.2682188E-015  0.9000770E+02  0.7816164E-02  0.1186339E+00
        -11   -1    0    0    0    0  0.00000000000E+00  0.00000000000E+00  0.45593999997E+02  0.45594000000E+02  0.51100000000E-03 0.  1.
         11   -1    0    0    0    0 -0.00000000000E+00 -0.00000000000E+00 -0.45593999997E+02  0.45594000000E+02  0.51100000000E-03 0. -1.
    9900012    2    1    2    0    0 -0.98014550197E+00 -0.37519991613E+00  0.54004271263E+00  0.90007700753E+02  0.89999961602E+02 0.  0.
         12    1    1    2    0    0  0.98014550197E+00  0.37519991613E+00 -0.54004271263E+00  0.11802992475E+01  0.00000000000E+00 0. -1.
         11    1    3    3    0    0 -0.19997315221E+02 -0.12110971331E+02 -0.30405512117E+02  0.38354444462E+02  0.51100000000E-03 0. -1.
        -11    1    3    3    0    0  0.30762051731E+01 -0.81456435467E+01 -0.29977842487E+01  0.92087598361E+01  0.51100000000E-03 0.  1.
        -12    1    3    3    0    0  0.15940964546E+02  0.19881414962E+02  0.33943339078E+02  0.42444496455E+02  0.00000000000E+00 0.  1.
</event>
<event>
 7    1  0.2682188E-015  0.9000777E+02  0.7816164E-02  0.1186339E+00
        -11   -1    0    0    0    0  0.00000000000E+00  0.00000000000E+00  0.45593999997E+02  0.45594000000E+02  0.51100000000E-03 0. -1.
         11   -1    0    0    0    0 -0.00000000000E+00 -0.00000000000E+00 -0.45593999997E+02  0.45594000000E+02  0.51100000000E-03 0.  1.
    9900012    2    1    2    0    0  0.30557703154E+00 -0.11398357977E+01 -0.18114226456E-01  0.90007774982E+02  0.90000036812E+02 0.  0.
         12    1    1    2    0    0 -0.30557703154E+00  0.11398357977E+01  0.18114226456E-01  0.11802250180E+01  0.00000000000E+00 0. -1.
         11    1    3    3    0    0  0.31805166733E+02 -0.11896244590E+02  0.14837056873E+02  0.37057084655E+02  0.51100000000E-03 0. -1.
        -11    1    3    3    0    0 -0.72861315629E+01 -0.89713660473E+01  0.81654371431E+01  0.14150882867E+02  0.51100000000E-03 0.  1.
        -12    1    3    3    0    0 -0.24213458138E+02  0.19727774839E+02 -0.23020608242E+02  0.38799807460E+02  0.00000000000E+00 0.  1.
</event>
<event>
 7    1  0.2682188E-015  0.9000775E+02  0.7816164E-02  0.1186339E+00
        -11   -1    0    0    0    0  0.00000000000E+00  0.00000000000E+00  0.45593999997E+02  0.45594000000E+02  0.51100000000E-03 0.  1.
         11   -1    0    0    0    0 -0.00000000000E+00 -0.00000000000E+00 -0.45593999997E+02  0.45594000000E+02  0.51100000000E-03 0. -1.
    9900012    2    1    2    0    0  0.32035635111E+00  0.13832636862E-01  0.11358553103E+01  0.90007751374E+02  0.90000012892E+02 0.  0.
         12    1    1    2    0    0 -0.32035635111E+00 -0.13832636862E-01 -0.11358553103E+01  0.11802486261E+01  0.00000000000E+00 0. -1.
         11    1    3    3    0    0 -0.37412245370E+02  0.18215412106E+02 -0.48076303852E+01  0.41887834177E+02  0.51100000000E-03 0. -1.
        -11    1    3    3    0    0  0.30494758833E+01 -0.54830644425E+01 -0.66006057182E+01  0.91066621191E+01  0.51100000000E-03 0.  1.
        -12    1    3    3    0    0  0.34683125838E+02 -0.12718515026E+02  0.12544091414E+02  0.39013255078E+02  0.00000000000E+00 0.  1.
</event>
<event>
 7    1  0.2682188E-015  0.9000779E+02  0.7816164E-02  0.1186339E+00
        -11   -1    0    0    0    0  0.00000000000E+00  0.00000000000E+00  0.45593999997E+02  0.45594000000E+02  0.51100000000E-03 0.  1.
         11   -1    0    0    0    0 -0.00000000000E+00 -0.00000000000E+00 -0.45593999997E+02  0.45594000000E+02  0.51100000000E-03 0. -1.
    9900012    2    1    2    0    0  0.10219287986E+01  0.38624647005E+00  0.44651391880E+00  0.90007788373E+02  0.90000050379E+02 0.  0.
         12    1    1    2    0    0 -0.10219287986E+01 -0.38624647005E+00 -0.44651391880E+00  0.11802116271E+01  0.00000000000E+00 0. -1.
         11    1    3    3    0    0  0.37105371399E+02 -0.15273531282E+02  0.82951574837E+01  0.40974369824E+02  0.51100000000E-03 0. -1.
        -11    1    3    3    0    0  0.23176718039E+01  0.90831723159E+01 -0.25477719108E+01  0.97142557039E+01  0.51100000000E-03 0.  1.
        -12    1    3    3    0    0 -0.38401114405E+02  0.65766054360E+01 -0.53008716541E+01  0.39319162845E+02  0.00000000000E+00 0.  1.
</event>
<event>
 7    1  0.2682188E-015  0.9000786E+02  0.7816164E-02  0.1186339E+00
        -11   -1    0    0    0    0  0.00000000000E+00  0.00000000000E+00  0.45593999997E+02  0.45594000000E+02  0.51100000000E-03 0. -1.
         11   -1    0    0    0    0 -0.00000000000E+00 -0.00000000000E+00 -0.45593999997E+02  0.45594000000E+02  0.51100000000E-03 0.  1.
    9900012    2    1    2    0    0  0.32463218174E+00 -0.34158550241E-01 -0.11340946402E+01  0.90007862926E+02  0.90000125917E+02 0.  0.
         12    1    1    2    0    0 -0.32463218174E+00  0.34158550241E-01  0.11340946402E+01  0.11801370738E+01  0.00000000000E+00 0. -1.
         11    1    3    3    0    0 -0.27346461766E+02 -0.24429868496E+02  0.11259714004E+02  0.38359204965E+02  0.51100000000E-03 0. -1.
        -11    1    3    3    0    0 -0.78408936577E+01  0.72098505161E+01 -0.18411305048E+01  0.10809778888E+02  0.51100000000E-03 0.  1.
        -12    1    3    3    0    0  0.35511987605E+02  0.17185859430E+02 -0.10552678140E+02  0.40838879073E+02  0.00000000000E+00 0.  1.
</event>
<event>
 7    1  0.2682188E-015  0.9000692E+02  0.7816164E-02  0.1186341E+00
        -11   -1    0    0    0    0  0.00000000000E+00  0.00000000000E+00  0.45593999997E+02  0.45594000000E+02  0.51100000000E-03 0. -1.
         11   -1    0    0    0    0 -0.00000000000E+00 -0.00000000000E+00 -0.45593999997E+02  0.45594000000E+02  0.51100000000E-03 0.  1.
    9900012    2    1    2    0    0  0.47400910270E+00 -0.24939472117E+00 -0.10526426922E+01  0.90006924645E+02  0.89999175247E+02 0.  0.
         12    1    1    2    0    0 -0.47400910270E+00  0.24939472117E+00  0.10526426922E+01  0.11810753548E+01  0.00000000000E+00 0. -1.
         11    1    3    3    0    0  0.22438390957E+02  0.17839115243E+02  0.22835928958E+02  0.36649625824E+02  0.51100000000E-03 0. -1.
        -11    1    3    3    0    0 -0.22556034501E+00  0.16788964225E+01  0.90562697976E+01  0.92133378086E+01  0.51100000000E-03 0.  1.
        -12    1    3    3    0    0 -0.21738821509E+02 -0.19767406387E+02 -0.32944841448E+02  0.44143961013E+02  0.00000000000E+00 0.  1.
</event>
<event>
 7    1  0.3129397E-015  0.9000766E+02  0.7816164E-02  0.1186339E+00
        -11   -1    0    0    0    0  0.00000000000E+00  0.00000000000E+00  0.45593999997E+02  0.45594000000E+02  0.51100000000E-03 0. -1.
         11   -1    0    0    0    0 -0.00000000000E+00 -0.00000000000E+00 -0.45593999997E+02  0.45594000000E+02  0.51100000000E-03 0.  1.
    9900012    2    1    2    0    0 -0.52744455540E+00 -0.33088787650E+00 -0.10027512022E+01  0.90007663387E+02  0.89999923744E+02 0.  0.
         12    1    1    2    0    0  0.52744455540E+00  0.33088787650E+00  0.10027512022E+01  0.11803366127E+01  0.00000000000E+00 0. -1.
         11    1    3    3    0    0 -0.43783540455E+01 -0.46867175268E+01 -0.65555805840E+01  0.91712017958E+01  0.51100000000E-03 0. -1.
        -11    1    3    3    0    0  0.37184544676E+01  0.83536331805E+01 -0.36991315112E+02  0.38104691114E+02  0.51100000000E-03 0.  1.
         12    1    3    3    0    0  0.13245502245E+00 -0.39978035301E+01  0.42544144494E+02  0.42731770477E+02  0.00000000000E+00 0. -1.
</event>
<event>
 7    1  0.2682188E-015  0.9000773E+02  0.7816164E-02  0.1186339E+00
        -11   -1    0    0    0    0  0.00000000000E+00  0.00000000000E+00  0.45593999997E+02  0.45594000000E+02  0.51100000000E-03 0. -1.
         11   -1    0    0    0    0 -0.00000000000E+00 -0.00000000000E+00 -0.45593999997E+02  0.45594000000E+02  0.51100000000E-03 0.  1.
    9900012    2    1    2    0    0  0.81134109494E+00  0.32624695639E+00 -0.79266470811E+00  0.90007733594E+02  0.89999994878E+02 0.  0.
         12    1    1    2    0    0 -0.81134109494E+00 -0.32624695639E+00  0.79266470811E+00  0.11802664057E+01  0.00000000000E+00 0. -1.
         11    1    3    3    0    0 -0.46844072595E+01 -0.92772399795E+01 -0.22408969313E+01  0.10631673073E+02  0.51100000000E-03 0. -1.
        -11    1    3    3    0    0 -0.21476398975E+02  0.24450917588E+02 -0.23175091256E+02  0.39952070520E+02  0.51100000000E-03 0.  1.
         12    1    3    3    0    0  0.26972147329E+02 -0.14847430652E+02  0.24623323479E+02  0.39423990002E+02  0.00000000000E+00 0. -1.
</event>
<event>
 7    1  0.2682188E-015  0.9000750E+02  0.7816164E-02  0.1186340E+00
        -11   -1    0    0    0    0  0.00000000000E+00  0.00000000000E+00  0.45593999997E+02  0.45594000000E+02  0.51100000000E-03 0. -1.
         11   -1    0    0    0    0 -0.00000000000E+00 -0.00000000000E+00 -0.45593999997E+02  0.45594000000E+02  0.51100000000E-03 0.  1.
    9900012    2    1    2    0    0  0.14465655528E-01  0.32848082975E+00 -0.11337814886E+01  0.90007504606E+02  0.89999762867E+02 0.  0.
         12    1    1    2    0    0 -0.14465655528E-01 -0.32848082975E+00  0.11337814886E+01  0.11804953937E+01  0.00000000000E+00 0. -1.
         11    1    3    3    0    0  0.33396183504E+02  0.61378204002E+01  0.20852398518E+02  0.39847213656E+02  0.51100000000E-03 0. -1.
        -11    1    3    3    0    0  0.25531784117E+01  0.46826670264E+01 -0.91398065829E+01  0.10582162119E+02  0.51100000000E-03 0.  1.
        -12    1    3    3    0    0 -0.35934896260E+02 -0.10492006597E+02 -0.12846373423E+02  0.39578128832E+02  0.00000000000E+00 0.  1.
</event>
<event>
 7    1  0.2682188E-015  0.9000770E+02  0.7816164E-02  0.1186339E+00
        -11   -1    0    0    0    0  0.00000000000E+00  0.00000000000E+00  0.45593999997E+02  0.45594000000E+02  0.51100000000E-03 0.  1.
         11   -1    0    0    0    0 -0.00000000000E+00 -0.00000000000E+00 -0.45593999997E+02  0.45594000000E+02  0.51100000000E-03 0. -1.
    9900012    2    1    2    0    0 -0.27449178993E+00 -0.86666632229E+00  0.75276566601E+00  0.90007698172E+02  0.89999958988E+02 0.  0.
         12    1    1    2    0    0  0.27449178993E+00  0.86666632229E+00 -0.75276566601E+00  0.11803018279E+01  0.00000000000E+00 0. -1.
         11    1    3    3    0    0  0.87699008703E+01  0.17532560449E+02 -0.47226366841E+01  0.20164452254E+02  0.51100000000E-03 0. -1.
        -11    1    3    3    0    0 -0.11148073757E+02  0.24079372805E+02  0.64265759685E+01  0.27301952716E+02  0.51100000000E-03 0.  1.
         12    1    3    3    0    0  0.21036810967E+01 -0.42478599576E+02 -0.95117361848E+00  0.42541293203E+02  0.00000000000E+00 0. -1.
</event>
<event>
 7    1  0.2682188E-015  0.9000774E+02  0.7816164E-02  0.1186339E+00
        -11   -1    0    0    0    0  0.00000000000E+00  0.00000000000E+00  0.45593999997E+02  0.45594000000E+02  0.51100000000E-03 0.  1.
         11   -1    0    0    0    0 -0.00000000000E+00 -0.00000000000E+00 -0.45593999997E+02  0.45594000000E+02  0.51100000000E-03 0. -1.
    9900012    2    1    2    0    0  0.69142601727E-01 -0.10479020623E+01 -0.53864179320E+00  0.90007739684E+02  0.90000001048E+02 0.  0.
         12    1    1    2    0    0 -0.69142601727E-01  0.10479020623E+01  0.53864179320E+00  0.11802603158E+01  0.00000000000E+00 0. -1.
         11    1    3    3    0    0  0.98136991628E+00 -0.94765458499E+01  0.14576473353E+01  0.96380882011E+01  0.51100000000E-03 0. -1.
        -11    1    3    3    0    0 -0.37542027764E+02 -0.66260539035E+01  0.91957665889E+01  0.39215692807E+02  0.51100000000E-03 0.  1.
         12    1    3    3    0    0  0.36629800449E+02  0.15054697691E+02 -0.11192055717E+02  0.41153958676E+02  0.00000000000E+00 0. -1.
</event>
<event>
 7    1  0.2682188E-015  0.9000728E+02  0.7816164E-02  0.1186340E+00
        -11   -1    0    0    0    0  0.00000000000E+00  0.00000000000E+00  0.45593999997E+02  0.45594000000E+02  0.51100000000E-03 0. -1.
         11   -1    0    0    0    0 -0.00000000000E+00 -0.00000000000E+00 -0.45593999997E+02  0.45594000000E+02  0.51100000000E-03 0.  1.
    9900012    2    1    2    0    0 -0.33165864330E+00  0.95806699456E+00 -0.60515030474E+00  0.90007281273E+02  0.89999536584E+02 0.  0.
         12    1    1    2    0    0  0.33165864330E+00 -0.95806699456E+00  0.60515030474E+00  0.11807187273E+01  0.00000000000E+00 0. -1.
         11    1    3    3    0    0 -0.95858528115E+01  0.20281831312E+01  0.98929019117E+01  0.13923778562E+02  0.51100000000E-03 0. -1.
        -11    1    3    3    0    0 -0.31039985056E+02  0.32279251397E+01 -0.16199867217E+02  0.35161568098E+02  0.51100000000E-03 0.  1.
         12    1    3    3    0    0  0.40294179224E+02 -0.42980412764E+01  0.57018150011E+01  0.40921934613E+02  0.00000000000E+00 0. -1.
</event>
<event>
 7    1  0.2682188E-015  0.9000801E+02  0.7816164E-02  0.1186339E+00
        -11   -1    0    0    0    0  0.00000000000E+00  0.00000000000E+00  0.45593999997E+02  0.45594000000E+02  0.51100000000E-03 0.  1.
         11   -1    0    0    0    0 -0.00000000000E+00 -0.00000000000E+00 -0.45593999997E+02  0.45594000000E+02  0.51100000000E-03 0. -1.
    9900012    2    1    2    0    0 -0.11689034402E+01  0.71488138774E-01  0.14468396756E+00  0.90008008789E+02  0.90000273705E+02 0.  0.
         12    1    1    2    0    0  0.11689034402E+01 -0.71488138774E-01 -0.14468396756E+00  0.11799912106E+01  0.00000000000E+00 0. -1.
         11    1    3    3    0    0  0.96937887185E+00 -0.12656631628E+01  0.91315437980E+01  0.92696650983E+01  0.51100000000E-03 0. -1.
        -11    1    3    3    0    0 -0.97286268715E+01  0.39058141324E+02  0.31970644990E+01  0.40378283844E+02  0.51100000000E-03 0.  1.
         12    1    3    3    0    0  0.75903445594E+01 -0.37720990023E+02 -0.12183924329E+02  0.40360059847E+02  0.00000000000E+00 0. -1.
</event>
<event>
 7    1  0.2682188E-015  0.9000773E+02  0.7816164E-02  0.1186339E+00
        -11   -1    0    0    0    0  0.00000000000E+00  0.00000000000E+00  0.45593999997E+02  0.45594000000E+02  0.51100000000E-03 0. -1.
         11   -1    0    0    0    0 -0.00000000000E+00 -0.00000000000E+00 -0.45593999997E+02  0.45594000000E+02  0.51100000000E-03 0.  1.
    9900012    2    1    2    0    0  0.31736049499E+00  0.95306787217E+00 -0.61966398475E+00  0.90007729054E+02  0.89999990277E+02 0.  0.
         12    1    1    2    0    0 -0.31736049499E+00 -0.95306787217E+00  0.61966398475E+00  0.11802709463E+01  0.00000000000E+00 0. -1.
         11    1    3    3    0    0  0.83979995580E+01  0.14995203422E+01 -0.23328152358E+01  0.88440366925E+01  0.51100000000E-03 0. -1.
        -11    1    3    3    0    0  0.18679999500E+02 -0.66870937788E+00 -0.32642441723E+02  0.37615403168E+02  0.51100000000E-03 0.  1.
         12    1    3    3    0    0 -0.26760638563E+02  0.12225690782E+00  0.34355592974E+02  0.43548289193E+02  0.00000000000E+00 0. -1.
</event>
<event>
 7    1  0.2682188E-015  0.9000771E+02  0.7816164E-02  0.1186339E+00
        -11   -1    0    0    0    0  0.00000000000E+00  0.00000000000E+00  0.45593999997E+02  0.45594000000E+02  0.51100000000E-03 0.  1.
         11   -1    0    0    0    0 -0.00000000000E+00 -0.00000000000E+00 -0.45593999997E+02  0.45594000000E+02  0.51100000000E-03 0. -1.
    9900012    2    1    2    0    0 -0.10506991108E+01 -0.44666989930E+00  0.29931861362E+00  0.90007714334E+02  0.89999975363E+02 0.  0.
         12    1    1    2    0    0  0.10506991108E+01  0.44666989930E+00 -0.29931861362E+00  0.11802856657E+01  0.00000000000E+00 0. -1.
         11    1    3    3    0    0 -0.19852753405E+00  0.10887332479E+02 -0.76930133730E+01  0.13332512018E+02  0.51100000000E-03 0. -1.
        -11    1    3    3    0    0  0.23944373221E+02 -0.34300226528E+02 -0.47013033926E+00  0.41833713338E+02  0.51100000000E-03 0.  1.
         12    1    3    3    0    0 -0.24796544798E+02  0.22966224150E+02  0.84624623258E+01  0.34841488979E+02  0.00000000000E+00 0. -1.
</event>
<event>
 7    1  0.3280945E-015  0.9000778E+02  0.7816164E-02  0.1186339E+00
        -11   -1    0    0    0    0  0.00000000000E+00  0.00000000000E+00  0.45593999997E+02  0.45594000000E+02  0.51100000000E-03 0. -1.
         11   -1    0    0    0    0 -0.00000000000E+00 -0.00000000000E+00 -0.45593999997E+02  0.45594000000E+02  0.51100000000E-03 0.  1.
    9900012    2    1    2    0    0 -0.91303905490E+00 -0.69576263770E+00 -0.27421604997E+00  0.90007779510E+02  0.90000041399E+02 0.  0.
         12    1    1    2    0    0  0.91303905490E+00  0.69576263770E+00  0.27421604997E+00  0.11802204903E+01  0.00000000000E+00 0. -1.
         11    1    3    3    0    0  0.72562066125E+01 -0.55216616597E+01 -0.11605045088E+01  0.91917382939E+01  0.51100000000E-03 0. -1.
        -11    1    3    3    0    0 -0.13232274774E+02 -0.34459900219E+02 -0.12550474807E+02  0.38988360276E+02  0.51100000000E-03 0.  1.
         12    1    3    3    0    0  0.50630291067E+01  0.39285799241E+02  0.13436763266E+02  0.41827680940E+02  0.00000000000E+00 0. -1.
</event>
<event>
 7    1  0.2682188E-015  0.9000772E+02  0.7816164E-02  0.1186339E+00
        -11   -1    0    0    0    0  0.00000000000E+00  0.00000000000E+00  0.45593999997E+02  0.45594000000E+02  0.51100000000E-03 0.  1.
         11   -1    0    0    0    0 -0.00000000000E+00 -0.00000000000E+00 -0.45593999997E+02  0.45594000000E+02  0.51100000000E-03 0. -1.
    9900012    2    1    2    0    0 -0.48860244441E+00 -0.22896174722E-01  0.10741561427E+01  0.90007716982E+02  0.89999978046E+02 0.  0.
         12    1    1    2    0    0  0.48860244441E+00  0.22896174722E-01 -0.10741561427E+01  0.11802830179E+01  0.00000000000E+00 0. -1.
         11    1    3    3    0    0 -0.68886554989E+01 -0.14426090599E+01 -0.56360310508E+01  0.90166258517E+01  0.51100000000E-03 0. -1.
        -11    1    3    3    0    0 -0.18724298158E+02  0.34168269571E+02 -0.11224334443E+01  0.38978581863E+02  0.51100000000E-03 0.  1.
         12    1    3    3    0    0  0.25124351213E+02 -0.32748556686E+02  0.78326206378E+01  0.42012509267E+02  0.00000000000E+00 0. -1.
</event>
<event>
 7    1  0.2682188E-015  0.9000771E+02  0.7816164E-02  0.1186339E+00
        -11   -1    0    0    0    0  0.00000000000E+00  0.00000000000E+00  0.45593999997E+02  0.45594000000E+02  0.51100000000E-03 0.  1.
         11   -1    0    0    0    0 -0.00000000000E+00 -0.00000000000E+00 -0.45593999997E+02  0.45594000000E+02  0.51100000000E-03 0. -1.
    9900012    2    1    2    0    0 -0.11660770636E+01 -0.86767913934E-01 -0.16071466755E+00  0.90007706141E+02  0.89999967062E+02 0.  0.
         12    1    1    2    0    0  0.11660770636E+01  0.86767913934E-01  0.16071466755E+00  0.11802938589E+01  0.00000000000E+00 0. -1.
         11    1    3    3    0    0  0.31771561840E+01  0.64430821908E+01 -0.60384770050E+01  0.93846062430E+01  0.51100000000E-03 0. -1.
        -11    1    3    3    0    0  0.99567580873E+01  0.27486537130E+02  0.25533102642E+02  0.38814766337E+02  0.51100000000E-03 0.  1.
         12    1    3    3    0    0 -0.14299991335E+02 -0.34016387234E+02 -0.19655340305E+02  0.41808333561E+02  0.00000000000E+00 0. -1.
</event>
<event>
 7    1  0.2682188E-015  0.9000766E+02  0.7816164E-02  0.1186339E+00
        -11   -1    0    0    0    0  0.00000000000E+00  0.00000000000E+00  0.45593999997E+02  0.45594000000E+02  0.51100000000E-03 0.  1.
         11   -1    0    0    0    0 -0.00000000000E+00 -0.00000000000E+00 -0.45593999997E+02  0.45594000000E+02  0.51100000000E-03 0. -1.
    9900012    2    1    2    0    0 -0.61264898308E+00 -0.26701111158E+00 -0.97292254175E+00  0.90007655990E+02  0.89999916249E+02 0.  0.
         12    1    1    2    0    0  0.61264898308E+00  0.26701111158E+00  0.97292254175E+00  0.11803440102E+01  0.00000000000E+00 0. -1.
         11    1    3    3    0    0 -0.22663723879E+02 -0.65577714358E+01 -0.25572570744E+02  0.34793751178E+02  0.51100000000E-03 0. -1.
        -11    1    3    3    0    0 -0.67309125030E+01 -0.13822659713E+01 -0.83381850533E+01  0.10804682901E+02  0.51100000000E-03 0.  1.
        -12    1    3    3    0    0  0.28781987399E+02  0.76730262955E+01  0.32937833256E+02  0.44409221911E+02  0.00000000000E+00 0.  1.
</event>
<event>
 7    1  0.2682188E-015  0.9000716E+02  0.7816164E-02  0.1186340E+00
        -11   -1    0    0    0    0  0.00000000000E+00  0.00000000000E+00  0.45593999997E+02  0.45594000000E+02  0.51100000000E-03 0.  1.
         11   -1    0    0    0    0 -0.00000000000E+00 -0.00000000000E+00 -0.45593999997E+02  0.45594000000E+02  0.51100000000E-03 0. -1.
    9900012    2    1    2    0    0 -0.17613344591E+00 -0.66102705010E+00  0.96249273525E+00  0.90007164695E+02  0.89999418467E+02 0.  0.
         12    1    1    2    0    0  0.17613344591E+00  0.66102705010E+00 -0.96249273525E+00  0.11808353048E+01  0.00000000000E+00 0. -1.
         11    1    3    3    0    0 -0.32699031124E+02 -0.18692548774E+02 -0.13674130760E+02  0.40070186778E+02  0.51100000000E-03 0. -1.
        -11    1    3    3    0    0  0.19684113831E+02  0.43381599214E+01 -0.69588513270E+01  0.21323920392E+02  0.51100000000E-03 0.  1.
        -12    1    3    3    0    0  0.12838783847E+02  0.13693361802E+02  0.21595474823E+02  0.28613057525E+02  0.00000000000E+00 0.  1.
</event>
<event>
 7    1  0.2682188E-015  0.9000764E+02  0.7816164E-02  0.1186339E+00
        -11   -1    0    0    0    0  0.00000000000E+00  0.00000000000E+00  0.45593999997E+02  0.45594000000E+02  0.51100000000E-03 0.  1.
         11   -1    0    0    0    0 -0.00000000000E+00 -0.00000000000E+00 -0.45593999997E+02  0.45594000000E+02  0.51100000000E-03 0. -1.
    9900012    2    1    2    0    0 -0.15899068102E-01  0.63418578343E+00  0.99538920659E+00  0.90007642401E+02  0.89999902481E+02 0.  0.
         12    1    1    2    0    0  0.15899068102E-01 -0.63418578343E+00 -0.99538920659E+00  0.11803575987E+01  0.00000000000E+00 0. -1.
         11    1    3    3    0    0 -0.18085840549E+01  0.71790054531E+01  0.64082806993E+01  0.97915860494E+01  0.51100000000E-03 0. -1.
        -11    1    3    3    0    0 -0.30422360531E+02  0.12172433856E+02  0.16816729818E+02  0.36830565680E+02  0.51100000000E-03 0.  1.
         12    1    3    3    0    0  0.32215045518E+02 -0.18717253526E+02 -0.22229621310E+02  0.43385490672E+02  0.00000000000E+00 0. -1.
</event>
<event>
 7    1  0.2682188E-015  0.9000771E+02  0.7816164E-02  0.1186339E+00
        -11   -1    0    0    0    0  0.00000000000E+00  0.00000000000E+00  0.45593999997E+02  0.45594000000E+02  0.51100000000E-03 0.  1.
         11   -1    0    0    0    0 -0.00000000000E+00 -0.00000000000E+00 -0.45593999997E+02  0.45594000000E+02  0.51100000000E-03 0. -1.
    9900012    2    1    2    0    0  0.10683242389E+01  0.50171579895E+00 -0.62729853023E-02  0.90007714114E+02  0.89999975140E+02 0.  0.
         12    1    1    2    0    0 -0.10683242389E+01 -0.50171579895E+00  0.62729853023E-02  0.11802858860E+01  0.00000000000E+00 0. -1.
         11    1    3    3    0    0 -0.42907664303E+01  0.75427850879E+01  0.39759857601E+01  0.95452997055E+01  0.51100000000E-03 0. -1.
        -11    1    3    3    0    0 -0.35784725364E+02  0.46407190423E+01  0.59051232395E+01  0.36564372323E+02  0.51100000000E-03 0.  1.
         12    1    3    3    0    0  0.41143816034E+02 -0.11681788331E+02 -0.98873819849E+01  0.43898042086E+02  0.00000000000E+00 0. -1.
</event>
<event>
 7    1  0.2682188E-015  0.9000733E+02  0.7816164E-02  0.1186340E+00
        -11   -1    0    0    0    0  0.00000000000E+00  0.00000000000E+00  0.45593999997E+02  0.45594000000E+02  0.51100000000E-03 0. -1.
         11   -1    0    0    0    0 -0.00000000000E+00 -0.00000000000E+00 -0.45593999997E+02  0.45594000000E+02  0.51100000000E-03 0.  1.
    9900012    2    1    2    0    0 -0.11706403482E+01 -0.13717100665E+00  0.69029936063E-01  0.90007330765E+02  0.89999586730E+02 0.  0.
         12    1    1    2    0    0  0.11706403482E+01  0.13717100665E+00 -0.69029936063E-01  0.11806692348E+01  0.00000000000E+00 0. -1.
         11    1    3    3    0    0 -0.11390745894E+01 -0.19438701230E+01  0.35601275382E+02  0.35672495442E+02  0.51100000000E-03 0. -1.
        -11    1    3    3    0    0 -0.23351454101E+01  0.14060443508E+02  0.23571710365E+01  0.14446633908E+02  0.51100000000E-03 0.  1.
        -12    1    3    3    0    0  0.23035796513E+01 -0.12253744391E+02 -0.37889416482E+02  0.39888201416E+02  0.00000000000E+00 0.  1.
</event>
<event>
 7    1  0.2682188E-015  0.9000773E+02  0.7816164E-02  0.1186339E+00
        -11   -1    0    0    0    0  0.00000000000E+00  0.00000000000E+00  0.45593999997E+02  0.45594000000E+02  0.51100000000E-03 0. -1.
         11   -1    0    0    0    0 -0.00000000000E+00 -0.00000000000E+00 -0.45593999997E+02  0.45594000000E+02  0.51100000000E-03 0.  1.
    9900012    2    1    2    0    0  0.50436136577E-01  0.15500699189E+00 -0.11689637038E+01  0.90007725832E+02  0.89999987013E+02 0.  0.
         12    1    1    2    0    0 -0.50436136577E-01 -0.15500699189E+00  0.11689637038E+01  0.11802741683E+01  0.00000000000E+00 0. -1.
         11    1    3    3    0    0  0.83526109930E+01  0.83903805779E+01  0.37750970965E+02  0.39563877537E+02  0.51100000000E-03 0. -1.
        -11    1    3    3    0    0 -0.33508902513E+01 -0.57963628154E+01  0.35764003063E+01  0.75905814518E+01  0.51100000000E-03 0.  1.
        -12    1    3    3    0    0 -0.49512846052E+01 -0.24390107705E+01 -0.42496334976E+02  0.42853266843E+02  0.00000000000E+00 0.  1.
</event>
<event>
 7    1  0.2682188E-015  0.9000773E+02  0.7816164E-02  0.1186339E+00
        -11   -1    0    0    0    0  0.00000000000E+00  0.00000000000E+00  0.45593999997E+02  0.45594000000E+02  0.51100000000E-03 0.  1.
         11   -1    0    0    0    0 -0.00000000000E+00 -0.00000000000E+00 -0.45593999997E+02  0.45594000000E+02  0.51100000000E-03 0. -1.
    9900012    2    1    2    0    0 -0.10290713663E+01 -0.15830265248E+00 -0.55587214322E+00  0.90007728232E+02  0.89999989445E+02 0.  0.
         12    1    1    2    0    0  0.10290713663E+01  0.15830265248E+00  0.55587214322E+00  0.11802717680E+01  0.00000000000E+00 0. -1.
         11    1    3    3    0    0  0.54477473860E+01  0.98232238020E+01 -0.34685666435E+02  0.36459143349E+02  0.51100000000E-03 0. -1.
        -11    1    3    3    0    0 -0.32011797740E+01  0.47113115378E+01 -0.74209921841E+01  0.93549523574E+01  0.51100000000E-03 0.  1.
        -12    1    3    3    0    0 -0.32756389783E+01 -0.14692837992E+02  0.41550786476E+02  0.44193632525E+02  0.00000000000E+00 0.  1.
</event>
<event>
 7    1  0.2682188E-015  0.9000757E+02  0.7816164E-02  0.1186339E+00
        -11   -1    0    0    0    0  0.00000000000E+00  0.00000000000E+00  0.45593999997E+02  0.45594000000E+02  0.51100000000E-03 0.  1.
         11   -1    0    0    0    0 -0.00000000000E+00 -0.00000000000E+00 -0.45593999997E+02  0.45594000000E+02  0.51100000000E-03 0. -1.
    9900012    2    1    2    0    0  0.57921343077E+00  0.90597275739E-01  0.10245608050E+01  0.90007567491E+02  0.89999826582E+02 0.  0.
         12    1    1    2    0    0 -0.57921343077E+00 -0.90597275739E-01 -0.10245608050E+01  0.11804325089E+01  0.00000000000E+00 0. -1.
         11    1    3    3    0    0 -0.42704742310E+01  0.64336273387E+01  0.59026873246E+01  0.97195796619E+01  0.51100000000E-03 0. -1.
        -11    1    3    3    0    0 -0.15994099473E+02 -0.37711837301E+02  0.52216038991E+01  0.41294782214E+02  0.51100000000E-03 0.  1.
         12    1    3    3    0    0  0.20843787135E+02  0.31368807238E+02 -0.10099730419E+02  0.38993205615E+02  0.00000000000E+00 0. -1.
</event>
<event>
 7    1  0.2682188E-015  0.9000766E+02  0.7816164E-02  0.1186339E+00
        -11   -1    0    0    0    0  0.00000000000E+00  0.00000000000E+00  0.45593999997E+02  0.45594000000E+02  0.51100000000E-03 0.  1.
         11   -1    0    0    0    0 -0.00000000000E+00 -0.00000000000E+00 -0.45593999997E+02  0.45594000000E+02  0.51100000000E-03 0. -1.
    9900012    2    1    2    0    0 -0.11545536894E+01 -0.86579016328E-01  0.22960072482E+00  0.90007658253E+02  0.89999918542E+02 0.  0.
         12    1    1    2    0    0  0.11545536894E+01  0.86579016328E-01 -0.22960072482E+00  0.11803417474E+01  0.00000000000E+00 0. -1.
         11    1    3    3    0    0  0.87912479076E+01 -0.36506702907E+02  0.17317293670E+02  0.41351107086E+02  0.51100000000E-03 0. -1.
        -11    1    3    3    0    0 -0.94485179615E+01  0.12172161672E+01 -0.96164430597E-02  0.95266048309E+01  0.51100000000E-03 0.  1.
        -12    1    3    3    0    0 -0.49728363543E+00  0.35202907724E+02 -0.17078076502E+02  0.39129946336E+02  0.00000000000E+00 0.  1.
</event>
<event>
 7    1  0.2682188E-015  0.9000781E+02  0.7816164E-02  0.1186339E+00
        -11   -1    0    0    0    0  0.00000000000E+00  0.00000000000E+00  0.45593999997E+02  0.45594000000E+02  0.51100000000E-03 0. -1.
         11   -1    0    0    0    0 -0.00000000000E+00 -0.00000000000E+00 -0.45593999997E+02  0.45594000000E+02  0.51100000000E-03 0.  1.
    9900012    2    1    2    0    0 -0.88076739379E-01 -0.11677966317E+01 -0.14609857716E+00  0.90007808795E+02  0.90000071072E+02 0.  0.
         12    1    1    2    0    0  0.88076739379E-01  0.11677966317E+01  0.14609857716E+00  0.11801912045E+01  0.00000000000E+00 0. -1.
         11    1    3    3    0    0 -0.18449348652E+01 -0.92457991277E+01 -0.39297520505E+01  0.10214281062E+02  0.51100000000E-03 0. -1.
        -11    1    3    3    0    0  0.29573462347E+02  0.84097006459E+00 -0.25281995521E+02  0.38916271707E+02  0.51100000000E-03 0.  1.
         12    1    3    3    0    0 -0.27816604221E+02  0.72370324315E+01  0.29065648994E+02  0.40877256026E+02  0.00000000000E+00 0. -1.
</event>
<event>
 7    1  0.2682188E-015  0.9000771E+02  0.7816164E-02  0.1186339E+00
        -11   -1    0    0    0    0  0.00000000000E+00  0.00000000000E+00  0.45593999997E+02  0.45594000000E+02  0.51100000000E-03 0. -1.
         11   -1    0    0    0    0 -0.00000000000E+00 -0.00000000000E+00 -0.45593999997E+02  0.45594000000E+02  0.51100000000E-03 0.  1.
    9900012    2    1    2    0    0  0.89142919570E+00 -0.76417880450E+00 -0.12024491029E+00  0.90007714401E+02  0.89999975431E+02 0.  0.
         12    1    1    2    0    0 -0.89142919570E+00  0.76417880450E+00  0.12024491029E+00  0.11802855988E+01  0.00000000000E+00 0. -1.
         11    1    3    3    0    0 -0.24125590102E+02 -0.26354472953E+02  0.12040338302E+01  0.35749853708E+02  0.51100000000E-03 0. -1.
        -11    1    3    3    0    0 -0.56777409426E+01 -0.49387082110E+01  0.68791258519E+01  0.10195585013E+02  0.51100000000E-03 0.  1.
        -12    1    3    3    0    0  0.30694760240E+02  0.30529002359E+02 -0.82034045924E+01  0.44062275681E+02  0.00000000000E+00 0.  1.
</event>
<event>
 7    1  0.2682188E-015  0.9000768E+02  0.7816164E-02  0.1186339E+00
        -11   -1    0    0    0    0  0.00000000000E+00  0.00000000000E+00  0.45593999997E+02  0.45594000000E+02  0.51100000000E-03 0.  1.
         11   -1    0    0    0    0 -0.00000000000E+00 -0.00000000000E+00 -0.45593999997E+02  0.45594000000E+02  0.51100000000E-03 0. -1.
    9900012    2    1    2    0    0  0.10645561433E+01  0.42012171596E+00 -0.28872865424E+00  0.90007683824E+02  0.89999944451E+02 0.  0.
         12    1    1    2    0    0 -0.10645561433E+01 -0.42012171596E+00  0.28872865424E+00  0.11803161755E+01  0.00000000000E+00 0. -1.
         11    1    3    3    0    0  0.17580630228E+02 -0.12230219925E+02 -0.31830025820E+02  0.38364141885E+02  0.51100000000E-03 0. -1.
        -11    1    3    3    0    0 -0.88490780879E+01  0.69944706235E+01 -0.60943567626E+01  0.12820685899E+02  0.51100000000E-03 0.  1.
        -12    1    3    3    0    0 -0.76669959968E+01  0.56558710171E+01  0.37635653928E+02  0.38822856041E+02  0.00000000000E+00 0.  1.
</event>
<event>
 7    1  0.2682188E-015  0.9000744E+02  0.7816164E-02  0.1186340E+00
        -11   -1    0    0    0    0  0.00000000000E+00  0.00000000000E+00  0.45593999997E+02  0.45594000000E+02  0.51100000000E-03 0.  1.
         11   -1    0    0    0    0 -0.00000000000E+00 -0.00000000000E+00 -0.45593999997E+02  0.45594000000E+02  0.51100000000E-03 0. -1.
    9900012    2    1    2    0    0 -0.74232960987E+00 -0.91763610046E+00  0.24717626556E-01  0.90007440716E+02  0.89999698133E+02 0.  0.
         12    1    1    2    0    0  0.74232960987E+00  0.91763610046E+00 -0.24717626556E-01  0.11805592842E+01  0.00000000000E+00 0. -1.
         11    1    3    3    0    0 -0.39844397935E+02 -0.11789528250E+02 -0.10542411578E+02  0.42868537009E+02  0.51100000000E-03 0. -1.
        -11    1    3    3    0    0  0.40018808131E+01 -0.49912583062E+01  0.52084739872E+01  0.82496006605E+01  0.51100000000E-03 0.  1.
        -12    1    3    3    0    0  0.35100187512E+02  0.15863150456E+02  0.53586552170E+01  0.38889303047E+02  0.00000000000E+00 0.  1.
</event>
<event>
 7    1  0.2682188E-015  0.9000773E+02  0.7816164E-02  0.1186339E+00
        -11   -1    0    0    0    0  0.00000000000E+00  0.00000000000E+00  0.45593999997E+02  0.45594000000E+02  0.51100000000E-03 0.  1.
         11   -1    0    0    0    0 -0.00000000000E+00 -0.00000000000E+00 -0.45593999997E+02  0.45594000000E+02  0.51100000000E-03 0. -1.
    9900012    2    1    2    0    0  0.78488283867E+00  0.74467573506E+00 -0.47164771888E+00  0.90007731136E+02  0.89999992387E+02 0.  0.
         12    1    1    2    0    0 -0.78488283867E+00 -0.74467573506E+00  0.47164771888E+00  0.11802688641E+01  0.00000000000E+00 0. -1.
         11    1    3    3    0    0 -0.25772542947E+01 -0.75313076918E+01 -0.34211547057E+01  0.86641292136E+01  0.51100000000E-03 0. -1.
        -11    1    3    3    0    0  0.23081449491E+01 -0.10557821593E+02  0.39100840000E+02  0.40566868487E+02  0.51100000000E-03 0.  1.
         12    1    3    3    0    0  0.10539921843E+01  0.18833805020E+02 -0.36151333013E+02  0.40776733435E+02  0.00000000000E+00 0. -1.
</event>
<event>
 7    1  0.2682188E-015  0.9000777E+02  0.7816164E-02  0.1186339E+00
        -11   -1    0    0    0    0  0.00000000000E+00  0.00000000000E+00  0.45593999997E+02  0.45594000000E+02  0.51100000000E-03 0. -1.
         11   -1    0    0    0    0 -0.00000000000E+00 -0.00000000000E+00 -0.45593999997E+02  0.45594000000E+02  0.51100000000E-03 0.  1.
    9900012    2    1    2    0    0 -0.90119038417E+00 -0.12926792663E+00 -0.75105227557E+00  0.90007773824E+02  0.90000035639E+02 0.  0.
         12    1    1    2    0    0  0.90119038417E+00  0.12926792663E+00  0.75105227557E+00  0.11802261758E+01  0.00000000000E+00 0. -1.
         11    1    3    3    0    0  0.35936179254E+02 -0.70258184513E+01 -0.81187744117E+01  0.37505807583E+02  0.51100000000E-03 0. -1.
        -11    1    3    3    0    0  0.49944294741E+01  0.81395861165E+01 -0.16498889416E+01  0.96911981561E+01  0.51100000000E-03 0.  1.
        -12    1    3    3    0    0 -0.41831799112E+02 -0.12430355918E+01  0.90176110777E+01  0.42810768085E+02  0.00000000000E+00 0.  1.
</event>
<event>
 7    1  0.2682188E-015  0.9000766E+02  0.7816164E-02  0.1186339E+00
        -11   -1    0    0    0    0  0.00000000000E+00  0.00000000000E+00  0.45593999997E+02  0.45594000000E+02  0.51100000000E-03 0. -1.
         11   -1    0    0    0    0 -0.00000000000E+00 -0.00000000000E+00 -0.45593999997E+02  0.45594000000E+02  0.51100000000E-03 0.  1.
    9900012    2    1    2    0    0 -0.27302712244E+00 -0.11107715450E+01 -0.29126707423E+00  0.90007663716E+02  0.89999924077E+02 0.  0.
         12    1    1    2    0    0  0.27302712244E+00  0.11107715450E+01  0.29126707423E+00  0.11803362840E+01  0.00000000000E+00 0. -1.
         11    1    3    3    0    0  0.23600318393E+02 -0.23418775225E+02  0.22094415138E+02  0.39919634791E+02  0.51100000000E-03 0. -1.
        -11    1    3    3    0    0 -0.14745491228E+01 -0.68641482064E+01 -0.78736833779E+01  0.10549204516E+02  0.51100000000E-03 0.  1.
        -12    1    3    3    0    0 -0.22398796392E+02  0.29172151886E+02 -0.14511998835E+02  0.39538824409E+02  0.00000000000E+00 0.  1.
</event>
<event>
 7    1  0.2682188E-015  0.9000778E+02  0.7816164E-02  0.1186339E+00
        -11   -1    0    0    0    0  0.00000000000E+00  0.00000000000E+00  0.45593999997E+02  0.45594000000E+02  0.51100000000E-03 0.  1.
         11   -1    0    0    0    0 -0.00000000000E+00 -0.00000000000E+00 -0.45593999997E+02  0.45594000000E+02  0.51100000000E-03 0. -1.
    9900012    2    1    2    0    0 -0.90270464241E+00 -0.11311468787E+00  0.75182268054E+00  0.90007784788E+02  0.90000046747E+02 0.  0.
         12    1    1    2    0    0  0.90270464241E+00  0.11311468787E+00 -0.75182268054E+00  0.11802152122E+01  0.00000000000E+00 0. -1.
         11    1    3    3    0    0 -0.27777919308E+02  0.16707310995E+02  0.26895735490E+02  0.42120394461E+02  0.51100000000E-03 0. -1.
        -11    1    3    3    0    0 -0.98784567416E+00  0.34184417345E+01 -0.84529088658E+01  0.91713276859E+01  0.51100000000E-03 0.  1.
        -12    1    3    3    0    0  0.27863060340E+02 -0.20238867417E+02 -0.17691003944E+02  0.38716062640E+02  0.00000000000E+00 0.  1.
</event>
<event>
 7    1  0.2682188E-015  0.9000767E+02  0.7816164E-02  0.1186339E+00
        -11   -1    0    0    0    0  0.00000000000E+00  0.00000000000E+00  0.45593999997E+02  0.45594000000E+02  0.51100000000E-03 0.  1.
         11   -1    0    0    0    0 -0.00000000000E+00 -0.00000000000E+00 -0.45593999997E+02  0.45594000000E+02  0.51100000000E-03 0. -1.
    9900012    2    1    2    0    0 -0.78114721863E+00 -0.88319586757E+00 -0.54443449832E-01  0.90007665299E+02  0.89999925681E+02 0.  0.
         12    1    1    2    0    0  0.78114721863E+00  0.88319586757E+00  0.54443449832E-01  0.11803347012E+01  0.00000000000E+00 0. -1.
         11    1    3    3    0    0  0.15686699972E+02  0.10069212381E+02 -0.28525892193E+02  0.34076210465E+02  0.51100000000E-03 0. -1.
        -11    1    3    3    0    0  0.99309748224E+01 -0.11818813570E+01 -0.58161530286E+01  0.11569301655E+02  0.51100000000E-03 0.  1.
        -12    1    3    3    0    0 -0.26398822013E+02 -0.97705268913E+01  0.34287601772E+02  0.44362153179E+02  0.00000000000E+00 0.  1.
</event>
<event>
 7    1  0.2682188E-015  0.9000773E+02  0.7816164E-02  0.1186339E+00
        -11   -1    0    0    0    0  0.00000000000E+00  0.00000000000E+00  0.45593999997E+02  0.45594000000E+02  0.51100000000E-03 0. -1.
         11   -1    0    0    0    0 -0.00000000000E+00 -0.00000000000E+00 -0.45593999997E+02  0.45594000000E+02  0.51100000000E-03 0.  1.
    9900012    2    1    2    0    0 -0.11314543074E+01 -0.11830641624E+00 -0.31441007762E+00  0.90007729287E+02  0.89999990514E+02 0.  0.
         12    1    1    2    0    0  0.11314543074E+01  0.11830641624E+00  0.31441007762E+00  0.11802707125E+01  0.00000000000E+00 0. -1.
         11    1    3    3    0    0 -0.21971157197E+01  0.25992736944E+02  0.32937119797E+02  0.42015515612E+02  0.51100000000E-03 0. -1.
        -11    1    3    3    0    0  0.48766639088E+01  0.25137336975E+01 -0.75564110840E+01  0.93380970606E+01  0.51100000000E-03 0.  1.
        -12    1    3    3    0    0 -0.38110024965E+01 -0.28624777058E+02 -0.25695118791E+02  0.38654116615E+02  0.00000000000E+00 0.  1.
</event>
<event>
 7    1  0.2682188E-015  0.9000779E+02  0.7816164E-02  0.1186339E+00
        -11   -1    0    0    0    0  0.00000000000E+00  0.00000000000E+00  0.45593999997E+02  0.45594000000E+02  0.51100000000E-03 0. -1.
         11   -1    0    0    0    0 -0.00000000000E+00 -0.00000000000E+00 -0.45593999997E+02  0.45594000000E+02  0.51100000000E-03 0.  1.
    9900012    2    1    2    0    0  0.27171547772E+00 -0.40148984293E+00 -0.10760426516E+01  0.90007791890E+02  0.90000053943E+02 0.  0.
         12    1    1    2    0    0 -0.27171547772E+00  0.40148984293E+00  0.10760426516E+01  0.11802081100E+01  0.00000000000E+00 0. -1.
         11    1    3    3    0    0  0.60304199090E+01  0.62057733276E+01  0.17005170030E+02  0.19080183303E+02  0.51100000000E-03 0. -1.
        -11    1    3    3    0    0 -0.22434760053E+02  0.70058314178E+01 -0.35949765320E+02  0.42950969247E+02  0.51100000000E-03 0.  1.
         12    1    3    3    0    0  0.16676055621E+02 -0.13613094588E+02  0.17868552638E+02  0.27976639340E+02  0.00000000000E+00 0. -1.
</event>
<event>
 7    1  0.2682188E-015  0.9000774E+02  0.7816164E-02  0.1186339E+00
        -11   -1    0    0    0    0  0.00000000000E+00  0.00000000000E+00  0.45593999997E+02  0.45594000000E+02  0.51100000000E-03 0.  1.
         11   -1    0    0    0    0 -0.00000000000E+00 -0.00000000000E+00 -0.45593999997E+02  0.45594000000E+02  0.51100000000E-03 0. -1.
    9900012    2    1    2    0    0  0.87096121112E+00  0.33528815725E+00  0.72250460087E+00  0.90007743893E+02  0.90000005312E+02 0.  0.
         12    1    1    2    0    0 -0.87096121112E+00 -0.33528815725E+00 -0.72250460087E+00  0.11802561069E+01  0.00000000000E+00 0. -1.
         11    1    3    3    0    0 -0.29321727438E+00 -0.22659736140E+02 -0.29922930627E+02  0.37535734918E+02  0.51100000000E-03 0. -1.
        -11    1    3    3    0    0  0.16049800620E+01 -0.90210360172E+01  0.17210418925E+01  0.93229307237E+01  0.51100000000E-03 0.  1.
        -12    1    3    3    0    0 -0.44080157649E+00  0.32016060315E+02  0.28924393335E+02  0.43149078251E+02  0.00000000000E+00 0.  1.
</event>
<event>
 7    1  0.2682188E-015  0.9000780E+02  0.7816164E-02  0.1186339E+00
        -11   -1    0    0    0    0  0.00000000000E+00  0.00000000000E+00  0.45593999997E+02  0.45594000000E+02  0.51100000000E-03 0. -1.
         11   -1    0    0    0    0 -0.00000000000E+00 -0.00000000000E+00 -0.45593999997E+02  0.45594000000E+02  0.51100000000E-03 0.  1.
    9900012    2    1    2    0    0 -0.97671469212E-01 -0.11392407472E+01  0.29235522335E+00  0.90007796300E+02  0.90000058412E+02 0.  0.
         12    1    1    2    0    0  0.97671469212E-01  0.11392407472E+01 -0.29235522335E+00  0.11802036996E+01  0.00000000000E+00 0. -1.
         11    1    3    3    0    0 -0.87073702087E+01 -0.42826935330E+01 -0.30867867944E+00  0.97085036251E+01  0.51100000000E-03 0. -1.
        -11    1    3    3    0    0  0.96163379674E+01 -0.36626127643E+02 -0.99278035371E+01  0.39147266384E+02  0.51100000000E-03 0.  1.
         12    1    3    3    0    0 -0.10066392279E+01  0.39769580429E+02  0.10528837440E+02  0.41152026291E+02  0.00000000000E+00 0. -1.
</event>
<event>
 7    1  0.2682188E-015  0.9000765E+02  0.7816164E-02  0.1186339E+00
        -11   -1    0    0    0    0  0.00000000000E+00  0.00000000000E+00  0.45593999997E+02  0.45594000000E+02  0.51100000000E-03 0.  1.
         11   -1    0    0    0    0 -0.00000000000E+00 -0.00000000000E+00 -0.45593999997E+02  0.45594000000E+02  0.51100000000E-03 0. -1.
    9900012    2    1    2    0    0 -0.89487246483E+00 -0.17710834948E+00 -0.74903651331E+00  0.90007652681E+02  0.89999912896E+02 0.  0.
         12    1    1    2    0    0  0.89487246483E+00  0.17710834948E+00  0.74903651331E+00  0.11803473192E+01  0.00000000000E+00 0. -1.
         11    1    3    3    0    0  0.10348044050E+01 -0.87888554550E+01 -0.13039219761E+02  0.15758681817E+02  0.51100000000E-03 0. -1.
        -11    1    3    3    0    0  0.25983604608E+02  0.88134364453E+01 -0.18188901398E+02  0.32918999145E+02  0.51100000000E-03 0.  1.
        -12    1    3    3    0    0 -0.27913281478E+02 -0.20168933985E+00  0.30479084646E+02  0.41329971719E+02  0.00000000000E+00 0.  1.
</event>
<event>
 7    1  0.2682188E-015  0.9000778E+02  0.7816164E-02  0.1186339E+00
        -11   -1    0    0    0    0  0.00000000000E+00  0.00000000000E+00  0.45593999997E+02  0.45594000000E+02  0.51100000000E-03 0.  1.
         11   -1    0    0    0    0 -0.00000000000E+00 -0.00000000000E+00 -0.45593999997E+02  0.45594000000E+02  0.51100000000E-03 0. -1.
    9900012    2    1    2    0    0  0.39369916270E+00  0.60148951898E+00  0.93601353165E+00  0.90007783917E+02  0.90000045864E+02 0.  0.
         12    1    1    2    0    0 -0.39369916270E+00 -0.60148951898E+00 -0.93601353165E+00  0.11802160834E+01  0.00000000000E+00 0. -1.
         11    1    3    3    0    0  0.18599676182E+02 -0.31057709184E+02 -0.12337447017E+02  0.38245808306E+02  0.51100000000E-03 0. -1.
        -11    1    3    3    0    0 -0.22367975616E+01 -0.56632261289E+00 -0.91117075495E+01  0.93993190904E+01  0.51100000000E-03 0.  1.
        -12    1    3    3    0    0 -0.15969179458E+02  0.32225521316E+02  0.22385168098E+02  0.42362656520E+02  0.00000000000E+00 0.  1.
</event>
<event>
 7    1  0.2682188E-015  0.9000771E+02  0.7816164E-02  0.1186339E+00
        -11   -1    0    0    0    0  0.00000000000E+00  0.00000000000E+00  0.45593999997E+02  0.45594000000E+02  0.51100000000E-03 0.  1.
         11   -1    0    0    0    0 -0.00000000000E+00 -0.00000000000E+00 -0.45593999997E+02  0.45594000000E+02  0.51100000000E-03 0. -1.
    9900012    2    1    2    0    0  0.49073975552E+00  0.10725191291E+01  0.44167805810E-01  0.90007714617E+02  0.89999975650E+02 0.  0.
         12    1    1    2    0    0 -0.49073975552E+00 -0.10725191291E+01 -0.44167805810E-01  0.11802853828E+01  0.00000000000E+00 0. -1.
         11    1    3    3    0    0  0.10298722031E+02  0.86313775719E+00 -0.49152467993E+01  0.11444139706E+02  0.51100000000E-03 0. -1.
        -11    1    3    3    0    0 -0.61773527171E+01 -0.31511270699E+02  0.25149658335E+02  0.40787561613E+02  0.51100000000E-03 0.  1.
         12    1    3    3    0    0 -0.36306295579E+01  0.31720652071E+02 -0.20190243730E+02  0.37776013298E+02  0.00000000000E+00 0. -1.
</event>
<event>
 7    1  0.2682188E-015  0.9000785E+02  0.7816164E-02  0.1186339E+00
        -11   -1    0    0    0    0  0.00000000000E+00  0.00000000000E+00  0.45593999997E+02  0.45594000000E+02  0.51100000000E-03 0. -1.
         11   -1    0    0    0    0 -0.00000000000E+00 -0.00000000000E+00 -0.45593999997E+02  0.45594000000E+02  0.51100000000E-03 0.  1.
    9900012    2    1    2    0    0 -0.11013462149E+01  0.21363538499E+00 -0.36626428184E+00  0.90007850396E+02  0.90000113222E+02 0.  0.
         12    1    1    2    0    0  0.11013462149E+01 -0.21363538499E+00  0.36626428184E+00  0.11801496036E+01  0.00000000000E+00 0. -1.
         11    1    3    3    0    0  0.84850338004E+01 -0.12371376353E+01  0.43934441089E+01  0.96347630756E+01  0.51100000000E-03 0. -1.
        -11    1    3    3    0    0  0.34756279090E+02  0.31846034342E+00 -0.87339842029E+01  0.35838287257E+02  0.51100000000E-03 0.  1.
         12    1    3    3    0    0 -0.44342659105E+02  0.11323126768E+01  0.39742758121E+01  0.44534800064E+02  0.00000000000E+00 0. -1.
</event>
<event>
 7    1  0.2682188E-015  0.9000785E+02  0.7816164E-02  0.1186339E+00
        -11   -1    0    0    0    0  0.00000000000E+00  0.00000000000E+00  0.45593999997E+02  0.45594000000E+02  0.51100000000E-03 0.  1.
         11   -1    0    0    0    0 -0.00000000000E+00 -0.00000000000E+00 -0.45593999997E+02  0.45594000000E+02  0.51100000000E-03 0. -1.
    9900012    2    1    2    0    0  0.43418540384E+00 -0.85186065861E+00  0.69178847294E+00  0.90007849655E+02  0.90000112470E+02 0.  0.
         12    1    1    2    0    0 -0.43418540384E+00  0.85186065861E+00 -0.69178847294E+00  0.11801503455E+01  0.00000000000E+00 0. -1.
         11    1    3    3    0    0 -0.77813721592E+01 -0.58583107963E+01 -0.10232255145E+01  0.97936994431E+01  0.51100000000E-03 0. -1.
        -11    1    3    3    0    0 -0.90921635534E+01 -0.35076332925E+02 -0.26745661288E+01  0.36334141985E+02  0.51100000000E-03 0.  1.
         12    1    3    3    0    0  0.17307721116E+02  0.40082783063E+02  0.43895801163E+01  0.43880008226E+02  0.00000000000E+00 0. -1.
</event>
<event>
 7    1  0.2682188E-015  0.9000776E+02  0.7816164E-02  0.1186339E+00
        -11   -1    0    0    0    0  0.00000000000E+00  0.00000000000E+00  0.45593999997E+02  0.45594000000E+02  0.51100000000E-03 0.  1.
         11   -1    0    0    0    0 -0.00000000000E+00 -0.00000000000E+00 -0.45593999997E+02  0.45594000000E+02  0.51100000000E-03 0. -1.
    9900012    2    1    2    0    0 -0.36812397063E+00 -0.33126978223E-01  0.11208688169E+01  0.90007762923E+02  0.90000024593E+02 0.  0.
         12    1    1    2    0    0  0.36812397063E+00  0.33126978223E-01 -0.11208688169E+01  0.11802370775E+01  0.00000000000E+00 0. -1.
         11    1    3    3    0    0 -0.33017195438E+02  0.99758779133E+01 -0.25722629335E+02  0.43026817160E+02  0.51100000000E-03 0. -1.
        -11    1    3    3    0    0  0.92139993105E+01 -0.15524710251E+01 -0.12549898921E+01  0.94277754252E+01  0.51100000000E-03 0.  1.
        -12    1    3    3    0    0  0.23435072157E+02 -0.84565338665E+01  0.28098488044E+02  0.37553170337E+02  0.00000000000E+00 0.  1.
</event>
<event>
 7    1  0.2682188E-015  0.9000784E+02  0.7816164E-02  0.1186339E+00
        -11   -1    0    0    0    0  0.00000000000E+00  0.00000000000E+00  0.45593999997E+02  0.45594000000E+02  0.51100000000E-03 0. -1.
         11   -1    0    0    0    0 -0.00000000000E+00 -0.00000000000E+00 -0.45593999997E+02  0.45594000000E+02  0.51100000000E-03 0.  1.
    9900012    2    1    2    0    0  0.29705500746E+00  0.10765044057E+01 -0.38168311081E+00  0.90007836702E+02  0.90000099346E+02 0.  0.
         12    1    1    2    0    0 -0.29705500746E+00 -0.10765044057E+01  0.38168311081E+00  0.11801632981E+01  0.00000000000E+00 0. -1.
         11    1    3    3    0    0  0.18416659837E+02 -0.13350719919E+02  0.32063090763E+02  0.39312299239E+02  0.51100000000E-03 0. -1.
        -11    1    3    3    0    0 -0.98997278790E+01 -0.56844193162E+01  0.27530617883E+00  0.11418976696E+02  0.51100000000E-03 0.  1.
        -12    1    3    3    0    0 -0.82198769509E+01  0.20111643641E+02 -0.32720080052E+02  0.39276560767E+02  0.00000000000E+00 0.  1.
</event>
<event>
 7    1  0.2682188E-015  0.9000731E+02  0.7816164E-02  0.1186340E+00
        -11   -1    0    0    0    0  0.00000000000E+00  0.00000000000E+00  0.45593999997E+02  0.45594000000E+02  0.51100000000E-03 0.  1.
         11   -1    0    0    0    0 -0.00000000000E+00 -0.00000000000E+00 -0.45593999997E+02  0.45594000000E+02  0.51100000000E-03 0. -1.
    9900012    2    1    2    0    0 -0.65660224710E+00  0.70275849622E+00 -0.68486156849E+00  0.90007308938E+02  0.89999564615E+02 0.  0.
         12    1    1    2    0    0  0.65660224710E+00 -0.70275849622E+00  0.68486156849E+00  0.11806910616E+01  0.00000000000E+00 0. -1.
         11    1    3    3    0    0  0.46235083104E+01  0.57560631003E+01 -0.75794025445E+01  0.10580946777E+02  0.51100000000E-03 0. -1.
        -11    1    3    3    0    0  0.38836356669E+01  0.34967536612E+02  0.13801699876E+02  0.37792832157E+02  0.51100000000E-03 0.  1.
         12    1    3    3    0    0 -0.91637462244E+01 -0.40020841216E+02 -0.69071589005E+01  0.41633530004E+02  0.00000000000E+00 0. -1.
</event>
<event>
 7    1  0.2682188E-015  0.9000777E+02  0.7816164E-02  0.1186339E+00
        -11   -1    0    0    0    0  0.00000000000E+00  0.00000000000E+00  0.45593999997E+02  0.45594000000E+02  0.51100000000E-03 0. -1.
         11   -1    0    0    0    0 -0.00000000000E+00 -0.00000000000E+00 -0.45593999997E+02  0.45594000000E+02  0.51100000000E-03 0.  1.
    9900012    2    1    2    0    0 -0.91025828414E+00  0.40731581242E+00 -0.63125053885E+00  0.90007765465E+02  0.90000027169E+02 0.  0.
         12    1    1    2    0    0  0.91025828414E+00 -0.40731581242E+00  0.63125053885E+00  0.11802345350E+01  0.00000000000E+00 0. -1.
         11    1    3    3    0    0  0.21722734801E+02  0.14425078496E+02 -0.80768290395E+01  0.27298264861E+02  0.51100000000E-03 0. -1.
        -11    1    3    3    0    0  0.49324161999E+01 -0.13827340012E+02 -0.19334824592E+02  0.24276727614E+02  0.51100000000E-03 0.  1.
         12    1    3    3    0    0 -0.27565409285E+02 -0.19042267214E+00  0.26780403093E+02  0.38432772990E+02  0.00000000000E+00 0. -1.
</event>
<event>
 7    1  0.2682188E-015  0.9000773E+02  0.7816164E-02  0.1186339E+00
        -11   -1    0    0    0    0  0.00000000000E+00  0.00000000000E+00  0.45593999997E+02  0.45594000000E+02  0.51100000000E-03 0.  1.
         11   -1    0    0    0    0 -0.00000000000E+00 -0.00000000000E+00 -0.45593999997E+02  0.45594000000E+02  0.51100000000E-03 0. -1.
    9900012    2    1    2    0    0  0.70711653661E+00 -0.89725313496E+00  0.29656392298E+00  0.90007734291E+02  0.89999995583E+02 0.  0.
         12    1    1    2    0    0 -0.70711653661E+00  0.89725313496E+00 -0.29656392298E+00  0.11802657095E+01  0.00000000000E+00 0. -1.
         11    1    3    3    0    0 -0.20745450092E+01 -0.12069813398E+02  0.27373210494E+02  0.29987944002E+02  0.51100000000E-03 0. -1.
        -11    1    3    3    0    0  0.15128222006E+02 -0.93791746517E+01  0.63373565288E+01  0.18894287662E+02  0.51100000000E-03 0.  1.
        -12    1    3    3    0    0 -0.12346560460E+02  0.20551734915E+02 -0.33414003100E+02  0.41125502627E+02  0.00000000000E+00 0.  1.
</event>
<event>
 7    1  0.2682188E-015  0.9000762E+02  0.7816164E-02  0.1186339E+00
        -11   -1    0    0    0    0  0.00000000000E+00  0.00000000000E+00  0.45593999997E+02  0.45594000000E+02  0.51100000000E-03 0.  1.
         11   -1    0    0    0    0 -0.00000000000E+00 -0.00000000000E+00 -0.45593999997E+02  0.45594000000E+02  0.51100000000E-03 0. -1.
    9900012    2    1    2    0    0  0.16276509148E-01  0.11291753090E+01  0.34350027117E+00  0.90007621146E+02  0.89999880945E+02 0.  0.
         12    1    1    2    0    0 -0.16276509148E-01 -0.11291753090E+01 -0.34350027117E+00  0.11803788542E+01  0.00000000000E+00 0. -1.
         11    1    3    3    0    0 -0.25852734407E+02  0.19021033255E+02 -0.27743005730E+02  0.42424497046E+02  0.51100000000E-03 0. -1.
        -11    1    3    3    0    0  0.94372740840E+00 -0.10661383404E+02  0.15245109252E+02  0.18627105891E+02  0.51100000000E-03 0.  1.
        -12    1    3    3    0    0  0.24925283507E+02 -0.72304745424E+01  0.12841396749E+02  0.28956018209E+02  0.00000000000E+00 0.  1.
</event>
<event>
 7    1  0.2682188E-015  0.9000776E+02  0.7816164E-02  0.1186339E+00
        -11   -1    0    0    0    0  0.00000000000E+00  0.00000000000E+00  0.45593999997E+02  0.45594000000E+02  0.51100000000E-03 0.  1.
         11   -1    0    0    0    0 -0.00000000000E+00 -0.00000000000E+00 -0.45593999997E+02  0.45594000000E+02  0.51100000000E-03 0. -1.
    9900012    2    1    2    0    0 -0.11274884879E+01  0.34724324089E+00 -0.34194716629E-01  0.90007755349E+02  0.90000016919E+02 0.  0.
         12    1    1    2    0    0  0.11274884879E+01 -0.34724324089E+00  0.34194716629E-01  0.11802446514E+01  0.00000000000E+00 0. -1.
         11    1    3    3    0    0 -0.15791293041E+02 -0.29203826030E+02 -0.18384743941E+02  0.37950325436E+02  0.51100000000E-03 0. -1.
        -11    1    3    3    0    0 -0.34807653221E+01 -0.17890207471E+01 -0.68841455682E+01  0.79188245925E+01  0.51100000000E-03 0.  1.
        -12    1    3    3    0    0  0.18144569875E+02  0.31340090018E+02  0.25234694793E+02  0.44138605320E+02  0.00000000000E+00 0.  1.
</event>
<event>
 7    1  0.2682188E-015  0.9000774E+02  0.7816164E-02  0.1186339E+00
        -11   -1    0    0    0    0  0.00000000000E+00  0.00000000000E+00  0.45593999997E+02  0.45594000000E+02  0.51100000000E-03 0. -1.
         11   -1    0    0    0    0 -0.00000000000E+00 -0.00000000000E+00 -0.45593999997E+02  0.45594000000E+02  0.51100000000E-03 0.  1.
    9900012    2    1    2    0    0 -0.15488336195E+00  0.85361709473E+00 -0.80022287775E+00  0.90007742547E+02  0.90000003949E+02 0.  0.
         12    1    1    2    0    0  0.15488336195E+00 -0.85361709473E+00  0.80022287775E+00  0.11802574526E+01  0.00000000000E+00 0. -1.
         11    1    3    3    0    0 -0.69005035132E+01 -0.32572070744E+02 -0.47835123269E+00  0.33298431817E+02  0.51100000000E-03 0. -1.
        -11    1    3    3    0    0 -0.10388638837E+02 -0.71319262777E+01 -0.13160432703E+01  0.12669655065E+02  0.51100000000E-03 0.  1.
        -12    1    3    3    0    0  0.17134258988E+02  0.40557614117E+02  0.99417162522E+00  0.44039655665E+02  0.00000000000E+00 0.  1.
</event>
<event>
 7    1  0.2682188E-015  0.9000772E+02  0.7816164E-02  0.1186339E+00
        -11   -1    0    0    0    0  0.00000000000E+00  0.00000000000E+00  0.45593999997E+02  0.45594000000E+02  0.51100000000E-03 0. -1.
         11   -1    0    0    0    0 -0.00000000000E+00 -0.00000000000E+00 -0.45593999997E+02  0.45594000000E+02  0.51100000000E-03 0.  1.
    9900012    2    1    2    0    0  0.10806942432E+01  0.20749706260E+00  0.42673603780E+00  0.90007720913E+02  0.89999982029E+02 0.  0.
         12    1    1    2    0    0 -0.10806942432E+01 -0.20749706260E+00 -0.42673603780E+00  0.11802790874E+01  0.00000000000E+00 0. -1.
         11    1    3    3    0    0  0.24246982008E+02 -0.15481970800E+02 -0.20205393903E+02  0.35154878743E+02  0.51100000000E-03 0. -1.
        -11    1    3    3    0    0  0.89060648639E+01 -0.63437535286E+01  0.27463398174E+00  0.10937852818E+02  0.51100000000E-03 0.  1.
        -12    1    3    3    0    0 -0.32072352629E+02  0.22033221391E+02  0.20357495959E+02  0.43914989352E+02  0.00000000000E+00 0.  1.
</event>
<event>
 7    1  0.2682188E-015  0.9000772E+02  0.7816164E-02  0.1186339E+00
        -11   -1    0    0    0    0  0.00000000000E+00  0.00000000000E+00  0.45593999997E+02  0.45594000000E+02  0.51100000000E-03 0. -1.
         11   -1    0    0    0    0 -0.00000000000E+00 -0.00000000000E+00 -0.45593999997E+02  0.45594000000E+02  0.51100000000E-03 0.  1.
    9900012    2    1    2    0    0 -0.44856370542E+00  0.73834073901E+00  0.80418032751E+00  0.90007719337E+02  0.89999980432E+02 0.  0.
         12    1    1    2    0    0  0.44856370542E+00 -0.73834073901E+00 -0.80418032751E+00  0.11802806632E+01  0.00000000000E+00 0. -1.
         11    1    3    3    0    0 -0.25168360411E+02 -0.26898113323E+02 -0.35477621148E+01  0.37007316606E+02  0.51100000000E-03 0. -1.
        -11    1    3    3    0    0 -0.85775468623E+01 -0.37614869241E+00  0.40329366663E+01  0.94857986712E+01  0.51100000000E-03 0.  1.
        -12    1    3    3    0    0  0.33297343568E+02  0.28012602754E+02  0.31900577599E+00  0.43514604059E+02  0.00000000000E+00 0.  1.
</event>
<event>
 7    1  0.2682188E-015  0.9000768E+02  0.7816164E-02  0.1186339E+00
        -11   -1    0    0    0    0  0.00000000000E+00  0.00000000000E+00  0.45593999997E+02  0.45594000000E+02  0.51100000000E-03 0.  1.
         11   -1    0    0    0    0 -0.00000000000E+00 -0.00000000000E+00 -0.45593999997E+02  0.45594000000E+02  0.51100000000E-03 0. -1.
    9900012    2    1    2    0    0 -0.18883721756E+00 -0.10756864021E+01  0.44764938420E+00  0.90007681949E+02  0.89999942551E+02 0.  0.
         12    1    1    2    0    0  0.18883721756E+00  0.10756864021E+01 -0.44764938420E+00  0.11803180510E+01  0.00000000000E+00 0. -1.
         11    1    3    3    0    0 -0.10219446126E+02  0.25815377704E+02 -0.22360273557E+02  0.35649020168E+02  0.51100000000E-03 0. -1.
        -11    1    3    3    0    0 -0.79067330486E+01  0.89770241318E-01 -0.68297667446E+01  0.10448454443E+02  0.51100000000E-03 0.  1.
        -12    1    3    3    0    0  0.17937341957E+02 -0.26980834348E+02  0.29637689686E+02  0.43910207338E+02  0.00000000000E+00 0.  1.
</event>
<event>
 7    1  0.2682188E-015  0.9000786E+02  0.7816164E-02  0.1186339E+00
        -11   -1    0    0    0    0  0.00000000000E+00  0.00000000000E+00  0.45593999997E+02  0.45594000000E+02  0.51100000000E-03 0. -1.
         11   -1    0    0    0    0 -0.00000000000E+00 -0.00000000000E+00 -0.45593999997E+02  0.45594000000E+02  0.51100000000E-03 0.  1.
    9900012    2    1    2    0    0  0.39017970559E+00 -0.30205546678E-01 -0.11133666480E+01  0.90007856843E+02  0.90000119753E+02 0.  0.
         12    1    1    2    0    0 -0.39017970559E+00  0.30205546678E-01  0.11133666480E+01  0.11801431568E+01  0.00000000000E+00 0. -1.
         11    1    3    3    0    0  0.33286398589E+02 -0.15782400305E+01  0.11598833745E+00  0.33323994751E+02  0.51100000000E-03 0. -1.
        -11    1    3    3    0    0 -0.11938548053E+01  0.19457366251E+02 -0.48639217187E+01  0.20091593403E+02  0.51100000000E-03 0.  1.
        -12    1    3    3    0    0 -0.31702364078E+02 -0.17909331768E+02  0.36345667332E+01  0.36592268689E+02  0.00000000000E+00 0.  1.
</event>
<event>
 7    1  0.2682188E-015  0.9000809E+02  0.7816164E-02  0.1186338E+00
        -11   -1    0    0    0    0  0.00000000000E+00  0.00000000000E+00  0.45593999997E+02  0.45594000000E+02  0.51100000000E-03 0.  1.
         11   -1    0    0    0    0 -0.00000000000E+00 -0.00000000000E+00 -0.45593999997E+02  0.45594000000E+02  0.51100000000E-03 0. -1.
    9900012    2    1    2    0    0  0.35691207084E+00 -0.28266900755E+00  0.10885305751E+01  0.90008090339E+02  0.90000356331E+02 0.  0.
         12    1    1    2    0    0 -0.35691207084E+00  0.28266900755E+00 -0.10885305751E+01  0.11799096605E+01  0.00000000000E+00 0. -1.
         11    1    3    3    0    0 -0.40249532517E+01  0.72602555265E+01 -0.38596915018E+01  0.91547134165E+01  0.51100000000E-03 0. -1.
        -11    1    3    3    0    0  0.11984687964E+02  0.26952841354E+02  0.26349534334E+02  0.39552324363E+02  0.51100000000E-03 0.  1.
         12    1    3    3    0    0 -0.76028226411E+01 -0.34495765888E+02 -0.21401312257E+02  0.41301052560E+02  0.00000000000E+00 0. -1.
</event>
<event>
 7    1  0.2682188E-015  0.9000783E+02  0.7816164E-02  0.1186339E+00
        -11   -1    0    0    0    0  0.00000000000E+00  0.00000000000E+00  0.45593999997E+02  0.45594000000E+02  0.51100000000E-03 0.  1.
         11   -1    0    0    0    0 -0.00000000000E+00 -0.00000000000E+00 -0.45593999997E+02  0.45594000000E+02  0.51100000000E-03 0. -1.
    9900012    2    1    2    0    0 -0.17376043190E+00  0.56203623792E+00  0.10230994652E+01  0.90007826311E+02  0.90000088818E+02 0.  0.
         12    1    1    2    0    0  0.17376043190E+00 -0.56203623792E+00 -0.10230994652E+01  0.11801736889E+01  0.00000000000E+00 0. -1.
         11    1    3    3    0    0  0.42052152416E+01 -0.84757907964E+01 -0.56270279878E+01  0.11008465338E+02  0.51100000000E-03 0. -1.
        -11    1    3    3    0    0  0.19923583206E+00 -0.13450853274E+02  0.37906246574E+02  0.40222489708E+02  0.51100000000E-03 0.  1.
         12    1    3    3    0    0 -0.45782115055E+01  0.22488680308E+02 -0.31256119122E+02  0.38776871265E+02  0.00000000000E+00 0. -1.
</event>
<event>
 7    1  0.2682188E-015  0.9000776E+02  0.7816164E-02  0.1186339E+00
        -11   -1    0    0    0    0  0.00000000000E+00  0.00000000000E+00  0.45593999997E+02  0.45594000000E+02  0.51100000000E-03 0. -1.
         11   -1    0    0    0    0 -0.00000000000E+00 -0.00000000000E+00 -0.45593999997E+02  0.45594000000E+02  0.51100000000E-03 0.  1.
    9900012    2    1    2    0    0  0.50326253613E+00  0.10422592198E+01  0.23103885857E+00  0.90007764254E+02  0.90000025942E+02 0.  0.
         12    1    1    2    0    0 -0.50326253613E+00 -0.10422592198E+01 -0.23103885857E+00  0.11802357458E+01  0.00000000000E+00 0. -1.
         11    1    3    3    0    0  0.25835960321E+02 -0.16943671545E+02 -0.22488730168E+02  0.38214236038E+02  0.51100000000E-03 0. -1.
        -11    1    3    3    0    0  0.31380465639E+00 -0.40894917340E+01 -0.60963528714E+01  0.73476482359E+01  0.51100000000E-03 0.  1.
        -12    1    3    3    0    0 -0.25646502442E+02  0.22075422499E+02  0.28816121898E+02  0.44445879980E+02  0.00000000000E+00 0.  1.
</event>
<event>
 7    1  0.2682188E-015  0.9000774E+02  0.7816164E-02  0.1186339E+00
        -11   -1    0    0    0    0  0.00000000000E+00  0.00000000000E+00  0.45593999997E+02  0.45594000000E+02  0.51100000000E-03 0. -1.
         11   -1    0    0    0    0 -0.00000000000E+00 -0.00000000000E+00 -0.45593999997E+02  0.45594000000E+02  0.51100000000E-03 0.  1.
    9900012    2    1    2    0    0  0.36955380400E+00 -0.11404281125E+00 -0.11151000180E+01  0.90007735696E+02  0.89999997007E+02 0.  0.
         12    1    1    2    0    0 -0.36955380400E+00  0.11404281125E+00  0.11151000180E+01  0.11802643039E+01  0.00000000000E+00 0. -1.
         11    1    3    3    0    0 -0.16015212325E+02 -0.16810563690E+02  0.29107140028E+02  0.37233152946E+02  0.51100000000E-03 0. -1.
        -11    1    3    3    0    0 -0.92443161110E+01  0.63190958625E+00  0.98014921440E+00  0.93175846028E+01  0.51100000000E-03 0.  1.
        -12    1    3    3    0    0  0.25629082240E+02  0.16064611292E+02 -0.31202389261E+02  0.43456998148E+02  0.00000000000E+00 0.  1.
</event>
<event>
 7    1  0.2682188E-015  0.9000774E+02  0.7816164E-02  0.1186339E+00
        -11   -1    0    0    0    0  0.00000000000E+00  0.00000000000E+00  0.45593999997E+02  0.45594000000E+02  0.51100000000E-03 0. -1.
         11   -1    0    0    0    0 -0.00000000000E+00 -0.00000000000E+00 -0.45593999997E+02  0.45594000000E+02  0.51100000000E-03 0.  1.
    9900012    2    1    2    0    0 -0.31455925338E+00 -0.37552686711E+00 -0.10737971981E+01  0.90007742242E+02  0.90000003640E+02 0.  0.
         12    1    1    2    0    0  0.31455925338E+00  0.37552686711E+00  0.10737971981E+01  0.11802577576E+01  0.00000000000E+00 0. -1.
         11    1    3    3    0    0  0.34350202444E+02  0.23652588257E+02 -0.11371233119E+01  0.41721390064E+02  0.51100000000E-03 0. -1.
        -11    1    3    3    0    0 -0.39128993901E+01 -0.48049437860E+00 -0.78224861711E+01  0.87597343934E+01  0.51100000000E-03 0.  1.
        -12    1    3    3    0    0 -0.30751862307E+02 -0.23547620746E+02  0.78858122849E+01  0.39526617785E+02  0.00000000000E+00 0.  1.
</event>
<event>
 7    1  0.2682188E-015  0.9000770E+02  0.7816164E-02  0.1186339E+00
        -11   -1    0    0    0    0  0.00000000000E+00  0.00000000000E+00  0.45593999997E+02  0.45594000000E+02  0.51100000000E-03 0. -1.
         11   -1    0    0    0    0 -0.00000000000E+00 -0.00000000000E+00 -0.45593999997E+02  0.45594000000E+02  0.51100000000E-03 0.  1.
    9900012    2    1    2    0    0 -0.57114252866E+00 -0.28059820894E+00 -0.99406503675E+00  0.90007701546E+02  0.89999962407E+02 0.  0.
         12    1    1    2    0    0  0.57114252866E+00  0.28059820894E+00  0.99406503675E+00  0.11802984539E+01  0.00000000000E+00 0. -1.
         11    1    3    3    0    0  0.10260476957E+02  0.44295568045E+00 -0.47874585212E+00  0.10281186458E+02  0.51100000000E-03 0. -1.
        -11    1    3    3    0    0  0.30211021995E+02 -0.18026105515E+02  0.16519560944E+00  0.35180585837E+02  0.51100000000E-03 0.  1.
         12    1    3    3    0    0 -0.41042641481E+02  0.17302551625E+02 -0.68051479407E+00  0.44545929251E+02  0.00000000000E+00 0. -1.
</event>
<event>
 7    1  0.2682188E-015  0.9000797E+02  0.7816164E-02  0.1186339E+00
        -11   -1    0    0    0    0  0.00000000000E+00  0.00000000000E+00  0.45593999997E+02  0.45594000000E+02  0.51100000000E-03 0.  1.
         11   -1    0    0    0    0 -0.00000000000E+00 -0.00000000000E+00 -0.45593999997E+02  0.45594000000E+02  0.51100000000E-03 0. -1.
    9900012    2    1    2    0    0  0.11182282271E+01 -0.27099025270E+00 -0.26191538810E+00  0.90007970443E+02  0.90000234853E+02 0.  0.
         12    1    1    2    0    0 -0.11182282271E+01  0.27099025270E+00  0.26191538810E+00  0.11800295570E+01  0.00000000000E+00 0. -1.
         11    1    3    3    0    0 -0.48767823314E+01 -0.33346026940E+01 -0.53944270219E+01  0.80001515105E+01  0.51100000000E-03 0. -1.
        -11    1    3    3    0    0 -0.27653107716E+02  0.11390931581E+02 -0.22705687499E+02  0.37549912566E+02  0.51100000000E-03 0.  1.
         12    1    3    3    0    0  0.33648118275E+02 -0.83273191396E+01  0.27838199133E+02  0.44457906366E+02  0.00000000000E+00 0. -1.
</event>
<event>
 7    1  0.2682188E-015  0.9000753E+02  0.7816164E-02  0.1186339E+00
        -11   -1    0    0    0    0  0.00000000000E+00  0.00000000000E+00  0.45593999997E+02  0.45594000000E+02  0.51100000000E-03 0.  1.
         11   -1    0    0    0    0 -0.00000000000E+00 -0.00000000000E+00 -0.45593999997E+02  0.45594000000E+02  0.51100000000E-03 0. -1.
    9900012    2    1    2    0    0  0.49887534539E+00  0.97200191532E+00  0.44703164460E+00  0.90007533302E+02  0.89999791941E+02 0.  0.
         12    1    1    2    0    0 -0.49887534539E+00 -0.97200191532E+00 -0.44703164460E+00  0.11804666979E+01  0.00000000000E+00 0. -1.
         11    1    3    3    0    0 -0.29701996253E+02  0.29626223974E+02  0.47015240592E+01  0.42214050471E+02  0.51100000000E-03 0. -1.
        -11    1    3    3    0    0  0.16644003233E+01  0.32454545684E+01 -0.33965586249E+01  0.49839557126E+01  0.51100000000E-03 0.  1.
        -12    1    3    3    0    0  0.28536471275E+02 -0.31899676627E+02 -0.85793378973E+00  0.42809527119E+02  0.00000000000E+00 0.  1.
</event>
<event>
 7    1  0.2682188E-015  0.9000781E+02  0.7816164E-02  0.1186339E+00
        -11   -1    0    0    0    0  0.00000000000E+00  0.00000000000E+00  0.45593999997E+02  0.45594000000E+02  0.51100000000E-03 0. -1.
         11   -1    0    0    0    0 -0.00000000000E+00 -0.00000000000E+00 -0.45593999997E+02  0.45594000000E+02  0.51100000000E-03 0.  1.
    9900012    2    1    2    0    0 -0.24298990938E+00 -0.23887174502E+00 -0.11299347495E+01  0.90007806649E+02  0.90000068897E+02 0.  0.
         12    1    1    2    0    0  0.24298990938E+00  0.23887174502E+00  0.11299347495E+01  0.11801933506E+01  0.00000000000E+00 0. -1.
         11    1    3    3    0    0  0.18655686360E+01 -0.12045714439E+02 -0.40584565017E+01  0.12847204059E+02  0.51100000000E-03 0. -1.
        -11    1    3    3    0    0  0.12878211576E+02 -0.29781183784E+02  0.53677958107E+01  0.32887390792E+02  0.51100000000E-03 0.  1.
         12    1    3    3    0    0 -0.14986770122E+02  0.41588026478E+02 -0.24392740585E+01  0.44273211799E+02  0.00000000000E+00 0. -1.
</event>
<event>
 7    1  0.2682188E-015  0.9000779E+02  0.7816164E-02  0.1186339E+00
        -11   -1    0    0    0    0  0.00000000000E+00  0.00000000000E+00  0.45593999997E+02  0.45594000000E+02  0.51100000000E-03 0.  1.
         11   -1    0    0    0    0 -0.00000000000E+00 -0.00000000000E+00 -0.45593999997E+02  0.45594000000E+02  0.51100000000E-03 0. -1.
    9900012    2    1    2    0    0 -0.20634328229E+00  0.92108647291E+00  0.70845601606E+00  0.90007793337E+02  0.90000055409E+02 0.  0.
         12    1    1    2    0    0  0.20634328229E+00 -0.92108647291E+00 -0.70845601606E+00  0.11802066630E+01  0.00000000000E+00 0. -1.
         11    1    3    3    0    0 -0.48390949014E+01 -0.43312833083E+01 -0.75009469203E+01  0.99217467980E+01  0.51100000000E-03 0. -1.
        -11    1    3    3    0    0 -0.33880645713E+02  0.11331007582E+02  0.17828691010E+02  0.39926834462E+02  0.51100000000E-03 0.  1.
         12    1    3    3    0    0  0.38513397332E+02 -0.60786378012E+01 -0.96192880735E+01  0.40159212077E+02  0.00000000000E+00 0. -1.
</event>
<event>
 7    1  0.2682188E-015  0.9000771E+02  0.7816164E-02  0.1186339E+00
        -11   -1    0    0    0    0  0.00000000000E+00  0.00000000000E+00  0.45593999997E+02  0.45594000000E+02  0.51100000000E-03 0.  1.
         11   -1    0    0    0    0 -0.00000000000E+00 -0.00000000000E+00 -0.45593999997E+02  0.45594000000E+02  0.51100000000E-03 0. -1.
    9900012    2    1    2    0    0  0.17722476935E+00  0.10379804231E+01 -0.53317414117E+00  0.90007709086E+02  0.89999970046E+02 0.  0.
         12    1    1    2    0    0 -0.17722476935E+00 -0.10379804231E+01  0.53317414117E+00  0.11802909143E+01  0.00000000000E+00 0. -1.
         11    1    3    3    0    0 -0.16978138328E+02  0.31587975460E+02  0.19097532858E+02  0.40629707558E+02  0.51100000000E-03 0. -1.
        -11    1    3    3    0    0 -0.77823433885E+01 -0.68988113689E+01 -0.14635908288E+01  0.10502407595E+02  0.51100000000E-03 0.  1.
        -12    1    3    3    0    0  0.24937706486E+02 -0.23651183668E+02 -0.18167116170E+02  0.38875593932E+02  0.00000000000E+00 0.  1.
</event>
<event>
 7    1  0.2682188E-015  0.9000790E+02  0.7816164E-02  0.1186339E+00
        -11   -1    0    0    0    0  0.00000000000E+00  0.00000000000E+00  0.45593999997E+02  0.45594000000E+02  0.51100000000E-03 0. -1.
         11   -1    0    0    0    0 -0.00000000000E+00 -0.00000000000E+00 -0.45593999997E+02  0.45594000000E+02  0.51100000000E-03 0.  1.
    9900012    2    1    2    0    0  0.27313002662E+00  0.11331542879E+01 -0.18439816429E+00  0.90007897744E+02  0.90000161194E+02 0.  0.
         12    1    1    2    0    0 -0.27313002662E+00 -0.11331542879E+01  0.18439816429E+00  0.11801022560E+01  0.00000000000E+00 0. -1.
         11    1    3    3    0    0 -0.10762973570E+02 -0.28372979605E+01  0.22857711927E+01  0.11362949001E+02  0.51100000000E-03 0. -1.
        -11    1    3    3    0    0  0.38061308226E+00  0.39952852146E+02  0.53517037603E+01  0.40311487126E+02  0.51100000000E-03 0.  1.
         12    1    3    3    0    0  0.10655490514E+02 -0.35982399898E+02 -0.78218731173E+01  0.38333461617E+02  0.00000000000E+00 0. -1.
</event>
<event>
 7    1  0.2682188E-015  0.9000790E+02  0.7816164E-02  0.1186339E+00
        -11   -1    0    0    0    0  0.00000000000E+00  0.00000000000E+00  0.45593999997E+02  0.45594000000E+02  0.51100000000E-03 0. -1.
         11   -1    0    0    0    0 -0.00000000000E+00 -0.00000000000E+00 -0.45593999997E+02  0.45594000000E+02  0.51100000000E-03 0.  1.
    9900012    2    1    2    0    0  0.11173270814E+00 -0.11337475957E+01  0.30785404990E+00  0.90007897494E+02  0.90000160941E+02 0.  0.
         12    1    1    2    0    0 -0.11173270814E+00  0.11337475957E+01 -0.30785404990E+00  0.11801025061E+01  0.00000000000E+00 0. -1.
         11    1    3    3    0    0 -0.18400153888E+01  0.13544301484E+02  0.10882966172E+02  0.17472055182E+02  0.51100000000E-03 0. -1.
        -11    1    3    3    0    0  0.85711804169E+01 -0.19139679267E+02 -0.38310366599E+02  0.43674668235E+02  0.51100000000E-03 0.  1.
         12    1    3    3    0    0 -0.66194323199E+01  0.44616301875E+01  0.27735254478E+02  0.28861174077E+02  0.00000000000E+00 0. -1.
</event>
<event>
 7    1  0.2682188E-015  0.9000791E+02  0.7816164E-02  0.1186339E+00
        -11   -1    0    0    0    0  0.00000000000E+00  0.00000000000E+00  0.45593999997E+02  0.45594000000E+02  0.51100000000E-03 0.  1.
         11   -1    0    0    0    0 -0.00000000000E+00 -0.00000000000E+00 -0.45593999997E+02  0.45594000000E+02  0.51100000000E-03 0. -1.
    9900012    2    1    2    0    0  0.72119417921E+00 -0.70591942990E+00  0.61169669778E+00  0.90007908421E+02  0.90000172012E+02 0.  0.
         12    1    1    2    0    0 -0.72119417921E+00  0.70591942990E+00 -0.61169669778E+00  0.11800915794E+01  0.00000000000E+00 0. -1.
         11    1    3    3    0    0  0.46268770185E+01  0.53452767594E+01 -0.51358759165E+01  0.87382604831E+01  0.51100000000E-03 0. -1.
        -11    1    3    3    0    0 -0.12108375691E+02  0.17870911542E+02  0.35915784845E+02  0.41903768835E+02  0.51100000000E-03 0.  1.
         12    1    3    3    0    0  0.82026928514E+01 -0.23922107732E+02 -0.30168212231E+02  0.39365879103E+02  0.00000000000E+00 0. -1.
</event>
<event>
 7    1  0.2682188E-015  0.9000775E+02  0.7816164E-02  0.1186339E+00
        -11   -1    0    0    0    0  0.00000000000E+00  0.00000000000E+00  0.45593999997E+02  0.45594000000E+02  0.51100000000E-03 0. -1.
         11   -1    0    0    0    0 -0.00000000000E+00 -0.00000000000E+00 -0.45593999997E+02  0.45594000000E+02  0.51100000000E-03 0.  1.
    9900012    2    1    2    0    0  0.98136041866E-03 -0.35601638662E+00  0.11252734700E+01  0.90007750445E+02  0.90000011951E+02 0.  0.
         12    1    1    2    0    0 -0.98136041866E-03  0.35601638662E+00 -0.11252734700E+01  0.11802495553E+01  0.00000000000E+00 0. -1.
         11    1    3    3    0    0  0.80248882014E+00  0.11769199506E+02  0.54568399894E+01  0.12997505462E+02  0.51100000000E-03 0. -1.
        -11    1    3    3    0    0 -0.30754741451E+02 -0.29106066400E+02 -0.31677939806E+00  0.42345219003E+02  0.51100000000E-03 0.  1.
         12    1    3    3    0    0  0.29953233991E+02  0.16980850508E+02 -0.40147871214E+01  0.34665025979E+02  0.00000000000E+00 0. -1.
</event>
<event>
 7    1  0.2682188E-015  0.9000768E+02  0.7816164E-02  0.1186339E+00
        -11   -1    0    0    0    0  0.00000000000E+00  0.00000000000E+00  0.45593999997E+02  0.45594000000E+02  0.51100000000E-03 0. -1.
         11   -1    0    0    0    0 -0.00000000000E+00 -0.00000000000E+00 -0.45593999997E+02  0.45594000000E+02  0.51100000000E-03 0.  1.
    9900012    2    1    2    0    0 -0.98191299037E-01  0.72050716882E+00 -0.92971920183E+00  0.90007682286E+02  0.89999942892E+02 0.  0.
         12    1    1    2    0    0  0.98191299037E-01 -0.72050716882E+00  0.92971920183E+00  0.11803177139E+01  0.00000000000E+00 0. -1.
         11    1    3    3    0    0  0.23985093411E+02 -0.25746017327E+02 -0.20522444761E+02  0.40734664027E+02  0.51100000000E-03 0. -1.
        -11    1    3    3    0    0  0.12714715457E+01 -0.38509988674E+01  0.64569865595E+01  0.76249267445E+01  0.51100000000E-03 0.  1.
        -12    1    3    3    0    0 -0.25354756256E+02  0.30317523364E+02  0.13135739000E+02  0.41648091514E+02  0.00000000000E+00 0.  1.
</event>
<event>
 7    1  0.2682188E-015  0.9000780E+02  0.7816164E-02  0.1186339E+00
        -11   -1    0    0    0    0  0.00000000000E+00  0.00000000000E+00  0.45593999997E+02  0.45594000000E+02  0.51100000000E-03 0.  1.
         11   -1    0    0    0    0 -0.00000000000E+00 -0.00000000000E+00 -0.45593999997E+02  0.45594000000E+02  0.51100000000E-03 0. -1.
    9900012    2    1    2    0    0  0.38395159515E+00 -0.91362423514E+00  0.64089694282E+00  0.90007797915E+02  0.90000060047E+02 0.  0.
         12    1    1    2    0    0 -0.38395159515E+00  0.91362423514E+00 -0.64089694282E+00  0.11802020851E+01  0.00000000000E+00 0. -1.
         11    1    3    3    0    0  0.17854235640E+01  0.84018303464E+01 -0.45454825906E+01  0.97180194852E+01  0.51100000000E-03 0. -1.
        -11    1    3    3    0    0 -0.87578668552E+01  0.24801562759E+02  0.28138886039E+02  0.38517718714E+02  0.51100000000E-03 0.  1.
         12    1    3    3    0    0  0.73563948863E+01 -0.34117017341E+02 -0.22952506506E+02  0.41772059715E+02  0.00000000000E+00 0. -1.
</event>
<event>
 7    1  0.2682188E-015  0.9000775E+02  0.7816164E-02  0.1186339E+00
        -11   -1    0    0    0    0  0.00000000000E+00  0.00000000000E+00  0.45593999997E+02  0.45594000000E+02  0.51100000000E-03 0. -1.
         11   -1    0    0    0    0 -0.00000000000E+00 -0.00000000000E+00 -0.45593999997E+02  0.45594000000E+02  0.51100000000E-03 0.  1.
    9900012    2    1    2    0    0  0.14440587972E-01  0.38231721347E-01 -0.11795450363E+01  0.90007747193E+02  0.90000008656E+02 0.  0.
         12    1    1    2    0    0 -0.14440587972E-01 -0.38231721347E-01  0.11795450363E+01  0.11802528067E+01  0.00000000000E+00 0. -1.
         11    1    3    3    0    0  0.21371281334E+02 -0.20805758240E+02 -0.89564909238E+01  0.31142093246E+02  0.51100000000E-03 0. -1.
        -11    1    3    3    0    0  0.15469817434E+02  0.34069119560E+01 -0.42144271735E+01  0.16391573969E+02  0.51100000000E-03 0.  1.
        -12    1    3    3    0    0 -0.36826658181E+02  0.17437078005E+02  0.11991373061E+02  0.42474079978E+02  0.00000000000E+00 0.  1.
</event>
<event>
 7    1  0.2682188E-015  0.9000773E+02  0.7816164E-02  0.1186339E+00
        -11   -1    0    0    0    0  0.00000000000E+00  0.00000000000E+00  0.45593999997E+02  0.45594000000E+02  0.51100000000E-03 0. -1.
         11   -1    0    0    0    0 -0.00000000000E+00 -0.00000000000E+00 -0.45593999997E+02  0.45594000000E+02  0.51100000000E-03 0.  1.
    9900012    2    1    2    0    0 -0.32765349203E+00 -0.93551486055E+00  0.64070280970E+00  0.90007726745E+02  0.89999987938E+02 0.  0.
         12    1    1    2    0    0  0.32765349203E+00  0.93551486055E+00 -0.64070280970E+00  0.11802732546E+01  0.00000000000E+00 0. -1.
         11    1    3    3    0    0  0.16956111172E+02  0.12763948687E+02  0.35089619803E+02  0.41008651652E+02  0.51100000000E-03 0. -1.
        -11    1    3    3    0    0 -0.53018668577E+01 -0.65949487805E+01  0.30513387987E+01  0.89952104100E+01  0.51100000000E-03 0.  1.
        -12    1    3    3    0    0 -0.11981897806E+02 -0.71045147674E+01 -0.37500255792E+02  0.40003864683E+02  0.00000000000E+00 0.  1.
</event>
<event>
 7    1  0.2682188E-015  0.9000775E+02  0.7816164E-02  0.1186339E+00
        -11   -1    0    0    0    0  0.00000000000E+00  0.00000000000E+00  0.45593999997E+02  0.45594000000E+02  0.51100000000E-03 0.  1.
         11   -1    0    0    0    0 -0.00000000000E+00 -0.00000000000E+00 -0.45593999997E+02  0.45594000000E+02  0.51100000000E-03 0. -1.
    9900012    2    1    2    0    0  0.10409972711E+01  0.22679772491E+00  0.50782362119E+00  0.90007746910E+02  0.90000008369E+02 0.  0.
         12    1    1    2    0    0 -0.10409972711E+01 -0.22679772491E+00 -0.50782362119E+00  0.11802530901E+01  0.00000000000E+00 0. -1.
         11    1    3    3    0    0  0.42706235673E+01  0.68951685677E+01 -0.79372209562E+01  0.11348173950E+02  0.51100000000E-03 0. -1.
        -11    1    3    3    0    0  0.26101853005E+01  0.51393309463E+01  0.42113355934E+02  0.42506005907E+02  0.51100000000E-03 0.  1.
         12    1    3    3    0    0 -0.58398115967E+01 -0.11807701789E+02 -0.33668311357E+02  0.36153567053E+02  0.00000000000E+00 0. -1.
</event>
<event>
 7    1  0.2682188E-015  0.9000774E+02  0.7816164E-02  0.1186339E+00
        -11   -1    0    0    0    0  0.00000000000E+00  0.00000000000E+00  0.45593999997E+02  0.45594000000E+02  0.51100000000E-03 0. -1.
         11   -1    0    0    0    0 -0.00000000000E+00 -0.00000000000E+00 -0.45593999997E+02  0.45594000000E+02  0.51100000000E-03 0.  1.
    9900012    2    1    2    0    0  0.34783021277E+00 -0.11276541083E+01  0.20331677180E-01  0.90007744510E+02  0.90000005937E+02 0.  0.
         12    1    1    2    0    0 -0.34783021277E+00  0.11276541083E+01 -0.20331677180E-01  0.11802554901E+01  0.00000000000E+00 0. -1.
         11    1    3    3    0    0  0.87181607891E+01 -0.30784200610E+02  0.23257605554E+02  0.39554892885E+02  0.51100000000E-03 0. -1.
        -11    1    3    3    0    0 -0.46338878151E+01 -0.67219465999E+01 -0.33473562984E+01  0.88239603821E+01  0.51100000000E-03 0.  1.
        -12    1    3    3    0    0 -0.37364427611E+01  0.36378493102E+02 -0.19889917578E+02  0.41628891243E+02  0.00000000000E+00 0.  1.
</event>
<event>
 7    1  0.2682188E-015  0.9000773E+02  0.7816164E-02  0.1186339E+00
        -11   -1    0    0    0    0  0.00000000000E+00  0.00000000000E+00  0.45593999997E+02  0.45594000000E+02  0.51100000000E-03 0.  1.
         11   -1    0    0    0    0 -0.00000000000E+00 -0.00000000000E+00 -0.45593999997E+02  0.45594000000E+02  0.51100000000E-03 0. -1.
    9900012    2    1    2    0    0 -0.15425576403E-01 -0.61223805236E+00  0.10089407128E+01  0.90007731072E+02  0.89999992322E+02 0.  0.
         12    1    1    2    0    0  0.15425576403E-01  0.61223805236E+00 -0.10089407128E+01  0.11802689283E+01  0.00000000000E+00 0. -1.
         11    1    3    3    0    0  0.26067685177E+02 -0.10924377511E+02 -0.31101139530E+02  0.42025553117E+02  0.51100000000E-03 0. -1.
        -11    1    3    3    0    0  0.30506823347E+01  0.50802428044E+01  0.69558271836E+01  0.91377821012E+01  0.51100000000E-03 0.  1.
        -12    1    3    3    0    0 -0.29133793088E+02  0.52318966540E+01  0.25154253059E+02  0.38844395854E+02  0.00000000000E+00 0.  1.
</event>
<event>
 7    1  0.2682188E-015  0.9000772E+02  0.7816164E-02  0.1186339E+00
        -11   -1    0    0    0    0  0.00000000000E+00  0.00000000000E+00  0.45593999997E+02  0.45594000000E+02  0.51100000000E-03 0. -1.
         11   -1    0    0    0    0 -0.00000000000E+00 -0.00000000000E+00 -0.45593999997E+02  0.45594000000E+02  0.51100000000E-03 0.  1.
    9900012    2    1    2    0    0 -0.18336316853E+00 -0.20542895684E+00 -0.11477060256E+01  0.90007723664E+02  0.89999984816E+02 0.  0.
         12    1    1    2    0    0  0.18336316853E+00  0.20542895684E+00  0.11477060256E+01  0.11802763359E+01  0.00000000000E+00 0. -1.
         11    1    3    3    0    0 -0.65043572088E+01 -0.39134852995E+01  0.13198197778E+02  0.15225454171E+02  0.51100000000E-03 0. -1.
        -11    1    3    3    0    0 -0.26271607687E+02 -0.13380936479E+02  0.94472510395E+01  0.30959608912E+02  0.51100000000E-03 0.  1.
         12    1    3    3    0    0  0.32592601727E+02  0.17088992822E+02 -0.23793154843E+02  0.43822660581E+02  0.00000000000E+00 0. -1.
</event>
<event>
 7    1  0.2682188E-015  0.9000646E+02  0.7816164E-02  0.1186342E+00
        -11   -1    0    0    0    0  0.00000000000E+00  0.00000000000E+00  0.45593999997E+02  0.45594000000E+02  0.51100000000E-03 0.  1.
         11   -1    0    0    0    0 -0.00000000000E+00 -0.00000000000E+00 -0.45593999997E+02  0.45594000000E+02  0.51100000000E-03 0. -1.
    9900012    2    1    2    0    0  0.10283953679E+01  0.54526332497E+00  0.20278601465E+00  0.90006462318E+02  0.89998706811E+02 0.  0.
         12    1    1    2    0    0 -0.10283953679E+01 -0.54526332497E+00 -0.20278601465E+00  0.11815376820E+01  0.00000000000E+00 0. -1.
         11    1    3    3    0    0  0.10802230489E+02  0.12394601865E+02  0.31404891274E+02  0.35448293825E+02  0.51100000000E-03 0. -1.
        -11    1    3    3    0    0  0.15703051785E+02 -0.95080240401E+01 -0.80175974467E+01  0.20031730469E+02  0.51100000000E-03 0.  1.
         12    1    3    3    0    0 -0.25476886907E+02 -0.23413144998E+01 -0.23184507813E+02  0.34526438023E+02  0.00000000000E+00 0. -1.
</event>
<event>
 7    1  0.2682188E-015  0.9000772E+02  0.7816164E-02  0.1186339E+00
        -11   -1    0    0    0    0  0.00000000000E+00  0.00000000000E+00  0.45593999997E+02  0.45594000000E+02  0.51100000000E-03 0.  1.
         11   -1    0    0    0    0 -0.00000000000E+00 -0.00000000000E+00 -0.45593999997E+02  0.45594000000E+02  0.51100000000E-03 0. -1.
    9900012    2    1    2    0    0 -0.41584258577E+00  0.66416237983E+00  0.88261687715E+00  0.90007724916E+02  0.89999986085E+02 0.  0.
         12    1    1    2    0    0  0.41584258577E+00 -0.66416237983E+00 -0.88261687715E+00  0.11802750844E+01  0.00000000000E+00 0. -1.
         11    1    3    3    0    0 -0.32133037925E+02  0.18280749893E+02 -0.26610405623E+01  0.37064795697E+02  0.51100000000E-03 0. -1.
        -11    1    3    3    0    0 -0.61630048156E+01  0.85361229751E+00 -0.71359884578E+01  0.94675030416E+01  0.51100000000E-03 0.  1.
        -12    1    3    3    0    0  0.37880200154E+02 -0.18470199811E+02  0.10679645897E+02  0.43475426177E+02  0.00000000000E+00 0.  1.
</event>
<event>
 7    1  0.4301174E-015  0.9000776E+02  0.7816164E-02  0.1186339E+00
        -11   -1    0    0    0    0  0.00000000000E+00  0.00000000000E+00  0.45593999997E+02  0.45594000000E+02  0.51100000000E-03 0.  1.
         11   -1    0    0    0    0 -0.00000000000E+00 -0.00000000000E+00 -0.45593999997E+02  0.45594000000E+02  0.51100000000E-03 0. -1.
    9900012    2    1    2    0    0  0.76001249952E+00 -0.61774872125E+00  0.65858758385E+00  0.90007758462E+02  0.90000020074E+02 0.  0.
         12    1    1    2    0    0 -0.76001249952E+00  0.61774872125E+00 -0.65858758385E+00  0.11802415378E+01  0.00000000000E+00 0. -1.
         11    1    3    3    0    0  0.32675369573E+01 -0.63753291740E+01 -0.63986113334E+01  0.96054071804E+01  0.51100000000E-03 0. -1.
        -11    1    3    3    0    0  0.25797253627E+02  0.39011227846E+01  0.32927539535E+02  0.42011187960E+02  0.51100000000E-03 0.  1.
         12    1    3    3    0    0 -0.28304778085E+02  0.18564576681E+01 -0.25870340618E+02  0.38391163322E+02  0.00000000000E+00 0. -1.
</event>
<event>
 7    1  0.2682188E-015  0.9000771E+02  0.7816164E-02  0.1186339E+00
        -11   -1    0    0    0    0  0.00000000000E+00  0.00000000000E+00  0.45593999997E+02  0.45594000000E+02  0.51100000000E-03 0.  1.
         11   -1    0    0    0    0 -0.00000000000E+00 -0.00000000000E+00 -0.45593999997E+02  0.45594000000E+02  0.51100000000E-03 0. -1.
    9900012    2    1    2    0    0  0.23258975860E+00 -0.95811124514E+00  0.64885544468E+00  0.90007708281E+02  0.89999969230E+02 0.  0.
         12    1    1    2    0    0 -0.23258975860E+00  0.95811124514E+00 -0.64885544468E+00  0.11802917190E+01  0.00000000000E+00 0. -1.
         11    1    3    3    0    0 -0.53550548447E+01  0.44755397492E+01  0.17120576713E-01  0.69790659698E+01  0.51100000000E-03 0. -1.
        -11    1    3    3    0    0 -0.29294657096E+02  0.71866645544E+01  0.24549813022E+02  0.38891109542E+02  0.51100000000E-03 0.  1.
         12    1    3    3    0    0  0.34882301699E+02 -0.12620315549E+02 -0.23918078154E+02  0.44137532769E+02  0.00000000000E+00 0. -1.
</event>
<event>
 7    1  0.2682188E-015  0.9000833E+02  0.7816164E-02  0.1186338E+00
        -11   -1    0    0    0    0  0.00000000000E+00  0.00000000000E+00  0.45593999997E+02  0.45594000000E+02  0.51100000000E-03 0.  1.
         11   -1    0    0    0    0 -0.00000000000E+00 -0.00000000000E+00 -0.45593999997E+02  0.45594000000E+02  0.51100000000E-03 0. -1.
    9900012    2    1    2    0    0 -0.10284550665E+00  0.97507422243E+00  0.65595850260E+00  0.90008326954E+02  0.90000596068E+02 0.  0.
         12    1    1    2    0    0  0.10284550665E+00 -0.97507422243E+00 -0.65595850260E+00  0.11796730456E+01  0.00000000000E+00 0. -1.
         11    1    3    3    0    0 -0.31377107484E+01  0.24504641668E+01 -0.96902239694E+01  0.10476184621E+02  0.51100000000E-03 0. -1.
        -11    1    3    3    0    0  0.55089383454E+01  0.32488645628E+02 -0.15851786604E+02  0.36566919958E+02  0.51100000000E-03 0.  1.
         12    1    3    3    0    0 -0.24740731036E+01 -0.33964035572E+02  0.26197969076E+02  0.42965222375E+02  0.00000000000E+00 0. -1.
</event>
<event>
 7    1  0.2682188E-015  0.9000785E+02  0.7816164E-02  0.1186339E+00
        -11   -1    0    0    0    0  0.00000000000E+00  0.00000000000E+00  0.45593999997E+02  0.45594000000E+02  0.51100000000E-03 0. -1.
         11   -1    0    0    0    0 -0.00000000000E+00 -0.00000000000E+00 -0.45593999997E+02  0.45594000000E+02  0.51100000000E-03 0.  1.
    9900012    2    1    2    0    0  0.99535452548E+00  0.35612725778E+00 -0.52459256546E+00  0.90007849749E+02  0.90000112566E+02 0.  0.
         12    1    1    2    0    0 -0.99535452548E+00 -0.35612725778E+00  0.52459256546E+00  0.11801502510E+01  0.00000000000E+00 0. -1.
         11    1    3    3    0    0 -0.55844115642E-02  0.51669493997E+00 -0.78555477802E+01  0.78725241209E+01  0.51100000000E-03 0. -1.
        -11    1    3    3    0    0  0.25616636475E+02 -0.79540714499E+01 -0.27738337124E+02  0.38586197837E+02  0.51100000000E-03 0.  1.
         12    1    3    3    0    0 -0.24615697537E+02  0.77935037677E+01  0.35069292338E+02  0.43549127791E+02  0.00000000000E+00 0. -1.
</event>
<event>
 7    1  0.2682188E-015  0.9000751E+02  0.7816164E-02  0.1186340E+00
        -11   -1    0    0    0    0  0.00000000000E+00  0.00000000000E+00  0.45593999997E+02  0.45594000000E+02  0.51100000000E-03 0.  1.
         11   -1    0    0    0    0 -0.00000000000E+00 -0.00000000000E+00 -0.45593999997E+02  0.45594000000E+02  0.51100000000E-03 0. -1.
    9900012    2    1    2    0    0 -0.37456268747E+00  0.85111970497E+00  0.72722545988E+00  0.90007509073E+02  0.89999767393E+02 0.  0.
         12    1    1    2    0    0  0.37456268747E+00 -0.85111970497E+00 -0.72722545988E+00  0.11804909269E+01  0.00000000000E+00 0. -1.
         11    1    3    3    0    0 -0.26153487221E+02  0.31415482861E+02  0.25931001272E+00  0.40877924350E+02  0.51100000000E-03 0. -1.
        -11    1    3    3    0    0  0.58060844896E+00 -0.28946929333E+01  0.10069494820E+02  0.10493382655E+02  0.51100000000E-03 0.  1.
        -12    1    3    3    0    0  0.25198316085E+02 -0.27669670223E+02 -0.96015793733E+01  0.38636202068E+02  0.00000000000E+00 0.  1.
</event>
<event>
 7    1  0.2682188E-015  0.9000772E+02  0.7816164E-02  0.1186339E+00
        -11   -1    0    0    0    0  0.00000000000E+00  0.00000000000E+00  0.45593999997E+02  0.45594000000E+02  0.51100000000E-03 0.  1.
         11   -1    0    0    0    0 -0.00000000000E+00 -0.00000000000E+00 -0.45593999997E+02  0.45594000000E+02  0.51100000000E-03 0. -1.
    9900012    2    1    2    0    0 -0.37052969441E+00  0.11063880673E+01  0.17795336899E+00  0.90007722824E+02  0.89999983966E+02 0.  0.
         12    1    1    2    0    0  0.37052969441E+00 -0.11063880673E+01 -0.17795336899E+00  0.11802771757E+01  0.00000000000E+00 0. -1.
         11    1    3    3    0    0 -0.14746972605E+02  0.31065310280E+02 -0.58954183279E+01  0.34889578119E+02  0.51100000000E-03 0. -1.
        -11    1    3    3    0    0  0.30905892203E+01  0.95920492750E+01 -0.66398906513E+01  0.12068442283E+02  0.51100000000E-03 0.  1.
        -12    1    3    3    0    0  0.11285853690E+02 -0.39550971487E+02  0.12713262348E+02  0.43049702422E+02  0.00000000000E+00 0.  1.
</event>
<event>
 7    1  0.2682188E-015  0.9000782E+02  0.7816164E-02  0.1186339E+00
        -11   -1    0    0    0    0  0.00000000000E+00  0.00000000000E+00  0.45593999997E+02  0.45594000000E+02  0.51100000000E-03 0.  1.
         11   -1    0    0    0    0 -0.00000000000E+00 -0.00000000000E+00 -0.45593999997E+02  0.45594000000E+02  0.51100000000E-03 0. -1.
    9900012    2    1    2    0    0 -0.60435924266E+00 -0.71642164422E+00  0.71715169301E+00  0.90007823480E+02  0.90000085950E+02 0.  0.
         12    1    1    2    0    0  0.60435924266E+00  0.71642164422E+00 -0.71715169301E+00  0.11801765195E+01  0.00000000000E+00 0. -1.
         11    1    3    3    0    0 -0.22577979443E+02  0.18058246881E+02 -0.21639569788E+02  0.36112828981E+02  0.51100000000E-03 0. -1.
        -11    1    3    3    0    0 -0.95540549958E+01  0.18067287885E+01 -0.69442793621E+00  0.97481519375E+01  0.51100000000E-03 0.  1.
        -12    1    3    3    0    0  0.31527675196E+02 -0.20581397314E+02  0.23051149417E+02  0.44146842561E+02  0.00000000000E+00 0.  1.
</event>
<event>
 7    1  0.2682188E-015  0.9000773E+02  0.7816164E-02  0.1186339E+00
        -11   -1    0    0    0    0  0.00000000000E+00  0.00000000000E+00  0.45593999997E+02  0.45594000000E+02  0.51100000000E-03 0. -1.
         11   -1    0    0    0    0 -0.00000000000E+00 -0.00000000000E+00 -0.45593999997E+02  0.45594000000E+02  0.51100000000E-03 0.  1.
    9900012    2    1    2    0    0  0.53825058688E-01  0.78326383727E+00 -0.88126727435E+00  0.90007732494E+02  0.89999993763E+02 0.  0.
         12    1    1    2    0    0 -0.53825058688E-01 -0.78326383727E+00  0.88126727435E+00  0.11802675055E+01  0.00000000000E+00 0. -1.
         11    1    3    3    0    0  0.16360182785E+01  0.22973315560E+01  0.38833882440E+02  0.38936162031E+02  0.51100000000E-03 0. -1.
        -11    1    3    3    0    0  0.15396384692E+00  0.66318414410E+01  0.31933220815E+01  0.73622233016E+01  0.51100000000E-03 0.  1.
        -12    1    3    3    0    0 -0.17361570667E+01 -0.81459091597E+01 -0.42908471796E+02  0.43709347162E+02  0.00000000000E+00 0.  1.
</event>
<event>
 7    1  0.2682188E-015  0.9000758E+02  0.7816164E-02  0.1186339E+00
        -11   -1    0    0    0    0  0.00000000000E+00  0.00000000000E+00  0.45593999997E+02  0.45594000000E+02  0.51100000000E-03 0. -1.
         11   -1    0    0    0    0 -0.00000000000E+00 -0.00000000000E+00 -0.45593999997E+02  0.45594000000E+02  0.51100000000E-03 0.  1.
    9900012    2    1    2    0    0  0.35615152234E+00  0.79658443209E+00 -0.79498664857E+00  0.90007578704E+02  0.89999837943E+02 0.  0.
         12    1    1    2    0    0 -0.35615152234E+00 -0.79658443209E+00  0.79498664857E+00  0.11804212959E+01  0.00000000000E+00 0. -1.
         11    1    3    3    0    0 -0.23824294443E+02  0.25002459895E+02 -0.14569696518E+02  0.37483277116E+02  0.51100000000E-03 0. -1.
        -11    1    3    3    0    0  0.10528461591E+01  0.45808698044E+01 -0.82741374205E+01  0.95159972422E+01  0.51100000000E-03 0.  1.
        -12    1    3    3    0    0  0.23127599806E+02 -0.28786745267E+02  0.22048847290E+02  0.43008304346E+02  0.00000000000E+00 0.  1.
</event>
<event>
 7    1  0.2682188E-015  0.9000749E+02  0.7816164E-02  0.1186340E+00
        -11   -1    0    0    0    0  0.00000000000E+00  0.00000000000E+00  0.45593999997E+02  0.45594000000E+02  0.51100000000E-03 0.  1.
         11   -1    0    0    0    0 -0.00000000000E+00 -0.00000000000E+00 -0.45593999997E+02  0.45594000000E+02  0.51100000000E-03 0. -1.
    9900012    2    1    2    0    0 -0.30793024412E+00 -0.11301048528E+01 -0.14713438341E+00  0.90007488865E+02  0.89999746917E+02 0.  0.
         12    1    1    2    0    0  0.30793024412E+00  0.11301048528E+01  0.14713438341E+00  0.11805111352E+01  0.00000000000E+00 0. -1.
         11    1    3    3    0    0 -0.64385001796E+01  0.68540468326E+00  0.75255745356E+01  0.99276551358E+01  0.51100000000E-03 0. -1.
        -11    1    3    3    0    0 -0.19001095936E+02 -0.19430139514E+02  0.23796894153E+02  0.36122903260E+02  0.51100000000E-03 0.  1.
         12    1    3    3    0    0  0.25131665871E+02  0.17614629978E+02 -0.31469603072E+02  0.43956930469E+02  0.00000000000E+00 0. -1.
</event>
<event>
 7    1  0.2682188E-015  0.9000774E+02  0.7816164E-02  0.1186339E+00
        -11   -1    0    0    0    0  0.00000000000E+00  0.00000000000E+00  0.45593999997E+02  0.45594000000E+02  0.51100000000E-03 0.  1.
         11   -1    0    0    0    0 -0.00000000000E+00 -0.00000000000E+00 -0.45593999997E+02  0.45594000000E+02  0.51100000000E-03 0. -1.
    9900012    2    1    2    0    0  0.32500317222E+00  0.16928549132E+00  0.11219280826E+01  0.90007742714E+02  0.90000004117E+02 0.  0.
         12    1    1    2    0    0 -0.32500317222E+00 -0.16928549132E+00 -0.11219280826E+01  0.11802572864E+01  0.00000000000E+00 0. -1.
         11    1    3    3    0    0 -0.55762887000E+01  0.82637228804E+01  0.82690024701E+00  0.10003393214E+02  0.51100000000E-03 0. -1.
        -11    1    3    3    0    0 -0.18707158377E+02  0.56746878307E+01  0.32046712087E+02  0.37538668229E+02  0.51100000000E-03 0.  1.
         12    1    3    3    0    0  0.24608450249E+02 -0.13769125220E+02 -0.31751684252E+02  0.42465681271E+02  0.00000000000E+00 0. -1.
</event>
<event>
 7    1  0.3057059E-015  0.9000779E+02  0.7816164E-02  0.1186339E+00
        -11   -1    0    0    0    0  0.00000000000E+00  0.00000000000E+00  0.45593999997E+02  0.45594000000E+02  0.51100000000E-03 0. -1.
         11   -1    0    0    0    0 -0.00000000000E+00 -0.00000000000E+00 -0.45593999997E+02  0.45594000000E+02  0.51100000000E-03 0.  1.
    9900012    2    1    2    0    0  0.36435386612E+00 -0.11095297275E+01 -0.17053162447E+00  0.90007791971E+02  0.90000054025E+02 0.  0.
         12    1    1    2    0    0 -0.36435386612E+00  0.11095297275E+01  0.17053162447E+00  0.11802080287E+01  0.00000000000E+00 0. -1.
         11    1    3    3    0    0  0.94353343677E+01 -0.53799986395E+00  0.35387724687E+00  0.94572833230E+01  0.51100000000E-03 0. -1.
        -11    1    3    3    0    0 -0.80184182439E+01 -0.38197637737E+02  0.12077631921E+02  0.40856134826E+02  0.51100000000E-03 0.  1.
         12    1    3    3    0    0 -0.10525622577E+01  0.37626107874E+02 -0.12602040792E+02  0.39694373822E+02  0.00000000000E+00 0. -1.
</event>
<event>
 7    1  0.2682188E-015  0.9000776E+02  0.7816164E-02  0.1186339E+00
        -11   -1    0    0    0    0  0.00000000000E+00  0.00000000000E+00  0.45593999997E+02  0.45594000000E+02  0.51100000000E-03 0. -1.
         11   -1    0    0    0    0 -0.00000000000E+00 -0.00000000000E+00 -0.45593999997E+02  0.45594000000E+02  0.51100000000E-03 0.  1.
    9900012    2    1    2    0    0  0.73915030870E+00  0.27009711568E+00 -0.87959210918E+00  0.90007755149E+02  0.90000016717E+02 0.  0.
         12    1    1    2    0    0 -0.73915030870E+00 -0.27009711568E+00  0.87959210918E+00  0.11802448514E+01  0.00000000000E+00 0. -1.
         11    1    3    3    0    0 -0.14944729351E+02 -0.11090985938E+02 -0.40680012897E+02  0.44734979088E+02  0.51100000000E-03 0.  1.
        -11    1    3    3    0    0  0.53522509771E+01  0.96862886062E+01  0.19016841031E+02  0.22002523050E+02  0.51100000000E-03 0. -1.
        -12    1    3    3    0    0  0.10331628682E+02  0.16747944476E+01  0.20783579757E+02  0.23270253011E+02  0.00000000000E+00 0.  1.
</event>
<event>
 7    1  0.2682188E-015  0.9000776E+02  0.7816164E-02  0.1186339E+00
        -11   -1    0    0    0    0  0.00000000000E+00  0.00000000000E+00  0.45593999997E+02  0.45594000000E+02  0.51100000000E-03 0.  1.
         11   -1    0    0    0    0 -0.00000000000E+00 -0.00000000000E+00 -0.45593999997E+02  0.45594000000E+02  0.51100000000E-03 0. -1.
    9900012    2    1    2    0    0 -0.72016826467E+00  0.29439499077E+00  0.88749587510E+00  0.90007762876E+02  0.90000024546E+02 0.  0.
         12    1    1    2    0    0  0.72016826467E+00 -0.29439499077E+00 -0.88749587510E+00  0.11802371238E+01  0.00000000000E+00 0. -1.
         11    1    3    3    0    0 -0.13770421607E+01 -0.70155626280E+01 -0.71060718292E+01  0.10080209383E+02  0.51100000000E-03 0. -1.
        -11    1    3    3    0    0 -0.38634781455E+02  0.12223046019E+01 -0.27178642333E+01  0.38749543905E+02  0.51100000000E-03 0.  1.
         12    1    3    3    0    0  0.39291655351E+02  0.60876530169E+01  0.10711431938E+02  0.41178009588E+02  0.00000000000E+00 0. -1.
</event>
<event>
 7    1  0.2682188E-015  0.9000774E+02  0.7816164E-02  0.1186339E+00
        -11   -1    0    0    0    0  0.00000000000E+00  0.00000000000E+00  0.45593999997E+02  0.45594000000E+02  0.51100000000E-03 0.  1.
         11   -1    0    0    0    0 -0.00000000000E+00 -0.00000000000E+00 -0.45593999997E+02  0.45594000000E+02  0.51100000000E-03 0. -1.
    9900012    2    1    2    0    0 -0.97880610714E-01 -0.11712799816E+00  0.11703472324E+01  0.90007740611E+02  0.90000001987E+02 0.  0.
         12    1    1    2    0    0  0.97880610714E-01  0.11712799816E+00 -0.11703472324E+01  0.11802593894E+01  0.00000000000E+00 0. -1.
         11    1    3    3    0    0  0.31441552838E+02 -0.92965092940E+01  0.15139298849E+02  0.36113635927E+02  0.51100000000E-03 0. -1.
        -11    1    3    3    0    0  0.20812063507E+01 -0.45665835300E+01  0.94337072173E+01  0.10685501258E+02  0.51100000000E-03 0.  1.
        -12    1    3    3    0    0 -0.33620639800E+02  0.13745964826E+02 -0.23402658834E+02  0.43208603426E+02  0.00000000000E+00 0.  1.
</event>
<event>
 7    1  0.2682188E-015  0.9000779E+02  0.7816164E-02  0.1186339E+00
        -11   -1    0    0    0    0  0.00000000000E+00  0.00000000000E+00  0.45593999997E+02  0.45594000000E+02  0.51100000000E-03 0.  1.
         11   -1    0    0    0    0 -0.00000000000E+00 -0.00000000000E+00 -0.45593999997E+02  0.45594000000E+02  0.51100000000E-03 0. -1.
    9900012    2    1    2    0    0  0.16989831079E+00  0.11559935710E+01  0.16647128261E+00  0.90007788468E+02  0.90000050476E+02 0.  0.
         12    1    1    2    0    0 -0.16989831079E+00 -0.11559935710E+01 -0.16647128261E+00  0.11802115319E+01  0.00000000000E+00 0. -1.
         11    1    3    3    0    0 -0.74993222337E+01  0.11750997165E+01 -0.70859690371E+01  0.10384201980E+02  0.51100000000E-03 0. -1.
        -11    1    3    3    0    0 -0.17571449658E+02 -0.28237775202E+02 -0.14137914660E+02  0.36138738532E+02  0.51100000000E-03 0.  1.
         12    1    3    3    0    0  0.25240670203E+02  0.28218669057E+02  0.21390354980E+02  0.43484847956E+02  0.00000000000E+00 0. -1.
</event>
<event>
 7    1  0.2682188E-015  0.9000768E+02  0.7816164E-02  0.1186339E+00
        -11   -1    0    0    0    0  0.00000000000E+00  0.00000000000E+00  0.45593999997E+02  0.45594000000E+02  0.51100000000E-03 0. -1.
         11   -1    0    0    0    0 -0.00000000000E+00 -0.00000000000E+00 -0.45593999997E+02  0.45594000000E+02  0.51100000000E-03 0.  1.
    9900012    2    1    2    0    0  0.75389935237E+00 -0.11547235142E+00 -0.90080714361E+00  0.90007681565E+02  0.89999942162E+02 0.  0.
         12    1    1    2    0    0 -0.75389935237E+00  0.11547235142E+00  0.90080714361E+00  0.11803184348E+01  0.00000000000E+00 0. -1.
         11    1    3    3    0    0 -0.76829362924E+00 -0.69337690915E+01  0.73723510757E+01  0.10149827070E+02  0.51100000000E-03 0. -1.
        -11    1    3    3    0    0  0.63895289744E+01 -0.35810199499E+02 -0.13779362558E+01  0.36401856783E+02  0.51100000000E-03 0.  1.
         12    1    3    3    0    0 -0.48673359928E+01  0.42628496239E+02 -0.68952219635E+01  0.43455997712E+02  0.00000000000E+00 0. -1.
</event>
<event>
 7    1  0.2682188E-015  0.9000775E+02  0.7816164E-02  0.1186339E+00
        -11   -1    0    0    0    0  0.00000000000E+00  0.00000000000E+00  0.45593999997E+02  0.45594000000E+02  0.51100000000E-03 0. -1.
         11   -1    0    0    0    0 -0.00000000000E+00 -0.00000000000E+00 -0.45593999997E+02  0.45594000000E+02  0.51100000000E-03 0.  1.
    9900012    2    1    2    0    0  0.46355178148E+00  0.10089127820E+01 -0.40025673888E+00  0.90007749724E+02  0.90000011221E+02 0.  0.
         12    1    1    2    0    0 -0.46355178148E+00 -0.10089127820E+01  0.40025673888E+00  0.11802502755E+01  0.00000000000E+00 0. -1.
         11    1    3    3    0    0  0.95103717507E+00 -0.15386379358E+02  0.35995203507E+02  0.39157372451E+02  0.51100000000E-03 0. -1.
        -11    1    3    3    0    0 -0.94320880634E+00 -0.89546262242E+01 -0.43842817701E+01  0.10014834026E+02  0.51100000000E-03 0.  1.
        -12    1    3    3    0    0  0.45572341276E+00  0.25349918364E+02 -0.32011178476E+02  0.40835543248E+02  0.00000000000E+00 0.  1.
</event>
<event>
 7    1  0.2682188E-015  0.9000769E+02  0.7816164E-02  0.1186339E+00
        -11   -1    0    0    0    0  0.00000000000E+00  0.00000000000E+00  0.45593999997E+02  0.45594000000E+02  0.51100000000E-03 0.  1.
         11   -1    0    0    0    0 -0.00000000000E+00 -0.00000000000E+00 -0.45593999997E+02  0.45594000000E+02  0.51100000000E-03 0. -1.
    9900012    2    1    2    0    0 -0.61587126619E+00 -0.30438334671E+00  0.95977805205E+00  0.90007694723E+02  0.89999955493E+02 0.  0.
         12    1    1    2    0    0  0.61587126619E+00  0.30438334671E+00 -0.95977805205E+00  0.11803052772E+01  0.00000000000E+00 0. -1.
         11    1    3    3    0    0 -0.29048828692E+02 -0.21175994060E+02 -0.21829661161E+02  0.42057000362E+02  0.51100000000E-03 0. -1.
        -11    1    3    3    0    0  0.55904738458E+01  0.56069578892E+01 -0.45997609131E+01  0.91569195317E+01  0.51100000000E-03 0.  1.
        -12    1    3    3    0    0  0.22842483580E+02  0.15264652824E+02  0.27389200126E+02  0.38793774829E+02  0.00000000000E+00 0.  1.
</event>
<event>
 7    1  0.2682188E-015  0.9000773E+02  0.7816164E-02  0.1186339E+00
        -11   -1    0    0    0    0  0.00000000000E+00  0.00000000000E+00  0.45593999997E+02  0.45594000000E+02  0.51100000000E-03 0.  1.
         11   -1    0    0    0    0 -0.00000000000E+00 -0.00000000000E+00 -0.45593999997E+02  0.45594000000E+02  0.51100000000E-03 0. -1.
    9900012    2    1    2    0    0 -0.10550582740E+01  0.46799151327E-01  0.52697663331E+00  0.90007727788E+02  0.89999988995E+02 0.  0.
         12    1    1    2    0    0  0.10550582740E+01 -0.46799151327E-01 -0.52697663331E+00  0.11802722119E+01  0.00000000000E+00 0. -1.
         11    1    3    3    0    0 -0.11261116551E+02 -0.25532118041E+02  0.18043430017E+02  0.33230515564E+02  0.51100000000E-03 0. -1.
        -11    1    3    3    0    0 -0.96671349179E+01  0.98550966576E+01  0.11704149952E+02  0.18098716916E+02  0.51100000000E-03 0.  1.
        -12    1    3    3    0    0  0.19873193195E+02  0.15723820535E+02 -0.29220603335E+02  0.38678495308E+02  0.00000000000E+00 0.  1.
</event>
<event>
 7    1  0.2682188E-015  0.9000776E+02  0.7816164E-02  0.1186339E+00
        -11   -1    0    0    0    0  0.00000000000E+00  0.00000000000E+00  0.45593999997E+02  0.45594000000E+02  0.51100000000E-03 0.  1.
         11   -1    0    0    0    0 -0.00000000000E+00 -0.00000000000E+00 -0.45593999997E+02  0.45594000000E+02  0.51100000000E-03 0. -1.
    9900012    2    1    2    0    0  0.76804250807E+00 -0.52533242547E+00 -0.72602131125E+00  0.90007758332E+02  0.90000019942E+02 0.  0.
         12    1    1    2    0    0 -0.76804250807E+00  0.52533242547E+00  0.72602131125E+00  0.11802416684E+01  0.00000000000E+00 0. -1.
         11    1    3    3    0    0 -0.87112833650E+01 -0.48630823698E+00 -0.16309454758E+01  0.88759752688E+01  0.51100000000E-03 0. -1.
        -11    1    3    3    0    0  0.12818659477E+02 -0.24126387171E+01  0.39871269294E+02  0.41950649241E+02  0.51100000000E-03 0.  1.
         12    1    3    3    0    0 -0.33393336039E+01  0.23736145286E+01 -0.38966345129E+02  0.39181133822E+02  0.00000000000E+00 0. -1.
</event>
<event>
 7    1  0.2682188E-015  0.9000789E+02  0.7816164E-02  0.1186339E+00
        -11   -1    0    0    0    0  0.00000000000E+00  0.00000000000E+00  0.45593999997E+02  0.45594000000E+02  0.51100000000E-03 0.  1.
         11   -1    0    0    0    0 -0.00000000000E+00 -0.00000000000E+00 -0.45593999997E+02  0.45594000000E+02  0.51100000000E-03 0. -1.
    9900012    2    1    2    0    0  0.90862627359E+00  0.69887697460E+00  0.28038865440E+00  0.90007894696E+02  0.90000158106E+02 0.  0.
         12    1    1    2    0    0 -0.90862627359E+00 -0.69887697460E+00 -0.28038865440E+00  0.11801053039E+01  0.00000000000E+00 0. -1.
         11    1    3    3    0    0 -0.31144831994E+01 -0.41443191439E+01  0.11360460136E+01  0.53071637974E+01  0.51100000000E-03 0. -1.
        -11    1    3    3    0    0  0.37870949666E+02 -0.17867093050E+02  0.88530483448E+01  0.42799746587E+02  0.51100000000E-03 0.  1.
         12    1    3    3    0    0 -0.33847840193E+02  0.22710289168E+02 -0.97087057040E+01  0.41900984312E+02  0.00000000000E+00 0. -1.
</event>
<event>
 7    1  0.2682188E-015  0.9000771E+02  0.7816164E-02  0.1186339E+00
        -11   -1    0    0    0    0  0.00000000000E+00  0.00000000000E+00  0.45593999997E+02  0.45594000000E+02  0.51100000000E-03 0.  1.
         11   -1    0    0    0    0 -0.00000000000E+00 -0.00000000000E+00 -0.45593999997E+02  0.45594000000E+02  0.51100000000E-03 0. -1.
    9900012    2    1    2    0    0  0.11254689488E+01 -0.95813357401E-01  0.34239011178E+00  0.90007707010E+02  0.89999967942E+02 0.  0.
         12    1    1    2    0    0 -0.11254689488E+01  0.95813357401E-01 -0.34239011178E+00  0.11802929902E+01  0.00000000000E+00 0. -1.
         11    1    3    3    0    0 -0.77896628053E+01  0.34980299386E+02 -0.58354063820E+01  0.36309119511E+02  0.51100000000E-03 0. -1.
        -11    1    3    3    0    0 -0.61825564413E+01  0.65679086330E+01  0.16716580246E+01  0.91736507877E+01  0.51100000000E-03 0.  1.
        -12    1    3    3    0    0  0.15097688195E+02 -0.41644021376E+02  0.45061384692E+01  0.44524936711E+02  0.00000000000E+00 0.  1.
</event>
<event>
 7    1  0.2682188E-015  0.9000777E+02  0.7816164E-02  0.1186339E+00
        -11   -1    0    0    0    0  0.00000000000E+00  0.00000000000E+00  0.45593999997E+02  0.45594000000E+02  0.51100000000E-03 0. -1.
         11   -1    0    0    0    0 -0.00000000000E+00 -0.00000000000E+00 -0.45593999997E+02  0.45594000000E+02  0.51100000000E-03 0.  1.
    9900012    2    1    2    0    0 -0.47490997992E+00  0.10803534729E+01  0.15225874447E-01  0.90007773351E+02  0.90000035159E+02 0.  0.
         12    1    1    2    0    0  0.47490997992E+00 -0.10803534729E+01 -0.15225874447E-01  0.11802266488E+01  0.00000000000E+00 0. -1.
         11    1    3    3    0    0 -0.31327212460E+02 -0.12486080414E+02  0.13561792357E+02  0.36348571593E+02  0.51100000000E-03 0. -1.
        -11    1    3    3    0    0 -0.88348425815E+01  0.30028098895E+01  0.23474604441E+01  0.96219479042E+01  0.51100000000E-03 0.  1.
        -12    1    3    3    0    0  0.39687145061E+02  0.10563623998E+02 -0.15894026927E+02  0.44037253854E+02  0.00000000000E+00 0.  1.
</event>
<event>
 7    1  0.2682188E-015  0.9000781E+02  0.7816164E-02  0.1186339E+00
        -11   -1    0    0    0    0  0.00000000000E+00  0.00000000000E+00  0.45593999997E+02  0.45594000000E+02  0.51100000000E-03 0. -1.
         11   -1    0    0    0    0 -0.00000000000E+00 -0.00000000000E+00 -0.45593999997E+02  0.45594000000E+02  0.51100000000E-03 0.  1.
    9900012    2    1    2    0    0  0.95336106597E+00  0.17981252112E+00 -0.67202324273E+00  0.90007811412E+02  0.90000073722E+02 0.  0.
         12    1    1    2    0    0 -0.95336106597E+00 -0.17981252112E+00  0.67202324273E+00  0.11801885882E+01  0.00000000000E+00 0. -1.
         11    1    3    3    0    0  0.64603519433E+01  0.59588957687E+01 -0.33826442901E+01  0.94173705814E+01  0.51100000000E-03 0. -1.
        -11    1    3    3    0    0  0.63713825129E+01  0.36282754795E+02  0.12559079856E+01  0.36859328748E+02  0.51100000000E-03 0.  1.
         12    1    3    3    0    0 -0.11878373390E+02 -0.42061838042E+02  0.14547130618E+01  0.43731112083E+02  0.00000000000E+00 0. -1.
</event>
<event>
 7    1  0.2682188E-015  0.9000773E+02  0.7816164E-02  0.1186339E+00
        -11   -1    0    0    0    0  0.00000000000E+00  0.00000000000E+00  0.45593999997E+02  0.45594000000E+02  0.51100000000E-03 0.  1.
         11   -1    0    0    0    0 -0.00000000000E+00 -0.00000000000E+00 -0.45593999997E+02  0.45594000000E+02  0.51100000000E-03 0. -1.
    9900012    2    1    2    0    0  0.45423857258E+00  0.63643750830E+00  0.88411721488E+00  0.90007725188E+02  0.89999986360E+02 0.  0.
         12    1    1    2    0    0 -0.45423857258E+00 -0.63643750830E+00 -0.88411721488E+00  0.11802748123E+01  0.00000000000E+00 0. -1.
         11    1    3    3    0    0  0.11412550659E+02 -0.34359237641E+02  0.90712092604E+01  0.37324125730E+02  0.51100000000E-03 0. -1.
        -11    1    3    3    0    0 -0.30074981729E+01 -0.58752034111E+01 -0.88513339686E+01  0.11041248737E+02  0.51100000000E-03 0.  1.
        -12    1    3    3    0    0 -0.79508139135E+01  0.40870878561E+02  0.66424192306E+00  0.41642350721E+02  0.00000000000E+00 0.  1.
</event>
<event>
 7    1  0.2682188E-015  0.9000773E+02  0.7816164E-02  0.1186339E+00
        -11   -1    0    0    0    0  0.00000000000E+00  0.00000000000E+00  0.45593999997E+02  0.45594000000E+02  0.51100000000E-03 0. -1.
         11   -1    0    0    0    0 -0.00000000000E+00 -0.00000000000E+00 -0.45593999997E+02  0.45594000000E+02  0.51100000000E-03 0.  1.
    9900012    2    1    2    0    0 -0.11646867507E+01 -0.15314081964E+00  0.11442342091E+00  0.90007728820E+02  0.89999990041E+02 0.  0.
         12    1    1    2    0    0  0.11646867507E+01  0.15314081964E+00 -0.11442342091E+00  0.11802711795E+01  0.00000000000E+00 0. -1.
         11    1    3    3    0    0 -0.20978154558E+02 -0.13288527316E+02  0.23946694338E+02  0.34498001346E+02  0.51100000000E-03 0. -1.
        -11    1    3    3    0    0 -0.12891248267E+02  0.72630350750E+00  0.46380679818E+00  0.12920019957E+02  0.51100000000E-03 0.  1.
        -12    1    3    3    0    0  0.32704716074E+02  0.12409082989E+02 -0.24296077715E+02  0.42589707518E+02  0.00000000000E+00 0.  1.
</event>
<event>
 7    1  0.2682188E-015  0.9000769E+02  0.7816164E-02  0.1186339E+00
        -11   -1    0    0    0    0  0.00000000000E+00  0.00000000000E+00  0.45593999997E+02  0.45594000000E+02  0.51100000000E-03 0. -1.
         11   -1    0    0    0    0 -0.00000000000E+00 -0.00000000000E+00 -0.45593999997E+02  0.45594000000E+02  0.51100000000E-03 0.  1.
    9900012    2    1    2    0    0  0.63148036627E+00 -0.95826710412E+00  0.27583179770E+00  0.90007692211E+02  0.89999952948E+02 0.  0.
         12    1    1    2    0    0 -0.63148036627E+00  0.95826710412E+00 -0.27583179770E+00  0.11803077889E+01  0.00000000000E+00 0. -1.
         11    1    3    3    0    0  0.14342515611E+02 -0.70395658006E+01  0.36193641491E+02  0.39563151105E+02  0.51100000000E-03 0. -1.
        -11    1    3    3    0    0 -0.73318577369E+01 -0.45576031963E+01  0.33528890608E+01  0.92611959316E+01  0.51100000000E-03 0.  1.
        -12    1    3    3    0    0 -0.63791775077E+01  0.10638901893E+02 -0.39270698754E+02  0.41183345175E+02  0.00000000000E+00 0.  1.
</event>
<event>
 7    1  0.2682188E-015  0.9000770E+02  0.7816164E-02  0.1186339E+00
        -11   -1    0    0    0    0  0.00000000000E+00  0.00000000000E+00  0.45593999997E+02  0.45594000000E+02  0.51100000000E-03 0. -1.
         11   -1    0    0    0    0 -0.00000000000E+00 -0.00000000000E+00 -0.45593999997E+02  0.45594000000E+02  0.51100000000E-03 0.  1.
    9900012    2    1    2    0    0 -0.44346880276E+00 -0.36788792669E+00  0.10300976690E+01  0.90007700329E+02  0.89999961173E+02 0.  0.
         12    1    1    2    0    0  0.44346880276E+00  0.36788792669E+00 -0.10300976690E+01  0.11802996710E+01  0.00000000000E+00 0. -1.
         11    1    3    3    0    0  0.20128466931E+02  0.13613740315E+02  0.27473950423E+02  0.36678427698E+02  0.51100000000E-03 0. -1.
        -11    1    3    3    0    0  0.67283817784E+01 -0.27141926537E+01  0.60299037738E+01  0.94338593852E+01  0.51100000000E-03 0.  1.
        -12    1    3    3    0    0 -0.27300317512E+02 -0.11267435588E+02 -0.32473756527E+02  0.43895413245E+02  0.00000000000E+00 0.  1.
</event>
<event>
 7    1  0.3122199E-015  0.9000772E+02  0.7816164E-02  0.1186339E+00
        -11   -1    0    0    0    0  0.00000000000E+00  0.00000000000E+00  0.45593999997E+02  0.45594000000E+02  0.51100000000E-03 0.  1.
         11   -1    0    0    0    0 -0.00000000000E+00 -0.00000000000E+00 -0.45593999997E+02  0.45594000000E+02  0.51100000000E-03 0. -1.
    9900012    2    1    2    0    0 -0.11264403948E+01 -0.23976975838E+00 -0.25826970742E+00  0.90007720058E+02  0.89999981163E+02 0.  0.
         12    1    1    2    0    0  0.11264403948E+01  0.23976975838E+00  0.25826970742E+00  0.11802799421E+01  0.00000000000E+00 0. -1.
         11    1    3    3    0    0 -0.35431728470E+01 -0.21099848311E+01  0.86381547053E+01  0.95720335763E+01  0.51100000000E-03 0. -1.
        -11    1    3    3    0    0  0.25655303797E+02  0.26973863185E+02  0.13442912397E+02  0.39578981821E+02  0.51100000000E-03 0.  1.
         12    1    3    3    0    0 -0.23238571345E+02 -0.25103648112E+02 -0.22339336809E+02  0.40856704661E+02  0.00000000000E+00 0. -1.
</event>
<event>
 7    1  0.2682188E-015  0.9000795E+02  0.7816164E-02  0.1186339E+00
        -11   -1    0    0    0    0  0.00000000000E+00  0.00000000000E+00  0.45593999997E+02  0.45594000000E+02  0.51100000000E-03 0.  1.
         11   -1    0    0    0    0 -0.00000000000E+00 -0.00000000000E+00 -0.45593999997E+02  0.45594000000E+02  0.51100000000E-03 0. -1.
    9900012    2    1    2    0    0  0.99145358316E+00  0.63655926960E+00  0.65736688347E-01  0.90007953720E+02  0.90000217909E+02 0.  0.
         12    1    1    2    0    0 -0.99145358316E+00 -0.63655926960E+00 -0.65736688347E-01  0.11800462802E+01  0.00000000000E+00 0. -1.
         11    1    3    3    0    0  0.39054045486E+01 -0.53074915713E+01 -0.85855537392E+01  0.10822817782E+02  0.51100000000E-03 0. -1.
        -11    1    3    3    0    0  0.19731661706E+02 -0.20650376626E+02  0.27367553921E+02  0.39557041552E+02  0.51100000000E-03 0.  1.
         12    1    3    3    0    0 -0.22645612671E+02  0.26594427466E+02 -0.18716263493E+02  0.39628094386E+02  0.00000000000E+00 0. -1.
</event>
<event>
 7    1  0.2682188E-015  0.9000756E+02  0.7816164E-02  0.1186339E+00
        -11   -1    0    0    0    0  0.00000000000E+00  0.00000000000E+00  0.45593999997E+02  0.45594000000E+02  0.51100000000E-03 0. -1.
         11   -1    0    0    0    0 -0.00000000000E+00 -0.00000000000E+00 -0.45593999997E+02  0.45594000000E+02  0.51100000000E-03 0.  1.
    9900012    2    1    2    0    0  0.11777633219E+01  0.33903206745E-01  0.71894552232E-01  0.90007557415E+02  0.89999816373E+02 0.  0.
         12    1    1    2    0    0 -0.11777633219E+01 -0.33903206745E-01 -0.71894552232E-01  0.11804425850E+01  0.00000000000E+00 0. -1.
         11    1    3    3    0    0  0.18842687426E+02  0.18385278858E+02  0.61963309398E+01  0.27045514702E+02  0.51100000000E-03 0. -1.
        -11    1    3    3    0    0 -0.14145420209E+02  0.78430323684E+01  0.20052831625E+02  0.25762805089E+02  0.51100000000E-03 0.  1.
        -12    1    3    3    0    0 -0.35195038957E+01 -0.26194408020E+02 -0.26177268012E+02  0.37199237624E+02  0.00000000000E+00 0.  1.
</event>
<event>
 7    1  0.2682188E-015  0.9000778E+02  0.7816164E-02  0.1186339E+00
        -11   -1    0    0    0    0  0.00000000000E+00  0.00000000000E+00  0.45593999997E+02  0.45594000000E+02  0.51100000000E-03 0. -1.
         11   -1    0    0    0    0 -0.00000000000E+00 -0.00000000000E+00 -0.45593999997E+02  0.45594000000E+02  0.51100000000E-03 0.  1.
    9900012    2    1    2    0    0 -0.17404780920E+00 -0.94638749742E+00 -0.68336306817E+00  0.90007776708E+02  0.90000038561E+02 0.  0.
         12    1    1    2    0    0  0.17404780920E+00  0.94638749742E+00  0.68336306817E+00  0.11802232916E+01  0.00000000000E+00 0. -1.
         11    1    3    3    0    0  0.81917898115E+01 -0.12688999586E+01 -0.51577447923E+01  0.97630865522E+01  0.51100000000E-03 0. -1.
        -11    1    3    3    0    0  0.10834228445E+02 -0.35065941440E+02 -0.89989438559E+01  0.37788645726E+02  0.51100000000E-03 0.  1.
         12    1    3    3    0    0 -0.19200066065E+02  0.35388453901E+02  0.13473325580E+02  0.42456044430E+02  0.00000000000E+00 0. -1.
</event>
<event>
 7    1  0.2682188E-015  0.9000773E+02  0.7816164E-02  0.1186339E+00
        -11   -1    0    0    0    0  0.00000000000E+00  0.00000000000E+00  0.45593999997E+02  0.45594000000E+02  0.51100000000E-03 0.  1.
         11   -1    0    0    0    0 -0.00000000000E+00 -0.00000000000E+00 -0.45593999997E+02  0.45594000000E+02  0.51100000000E-03 0. -1.
    9900012    2    1    2    0    0 -0.11701112265E+01 -0.82228485527E-01 -0.13085609362E+00  0.90007726674E+02  0.89999987866E+02 0.  0.
         12    1    1    2    0    0  0.11701112265E+01  0.82228485527E-01  0.13085609362E+00  0.11802733257E+01  0.00000000000E+00 0. -1.
         11    1    3    3    0    0 -0.85507954643E+01 -0.13359203436E+01  0.38449242115E+00  0.86630607131E+01  0.51100000000E-03 0. -1.
        -11    1    3    3    0    0  0.74290847670E+01  0.65084828474E+01  0.39637441205E+02  0.40849460156E+02  0.51100000000E-03 0.  1.
         12    1    3    3    0    0 -0.48400529278E-01 -0.52547909893E+01 -0.40152789720E+02  0.40495205806E+02  0.00000000000E+00 0. -1.
</event>
<event>
 7    1  0.2682188E-015  0.9000789E+02  0.7816164E-02  0.1186339E+00
        -11   -1    0    0    0    0  0.00000000000E+00  0.00000000000E+00  0.45593999997E+02  0.45594000000E+02  0.51100000000E-03 0.  1.
         11   -1    0    0    0    0 -0.00000000000E+00 -0.00000000000E+00 -0.45593999997E+02  0.45594000000E+02  0.51100000000E-03 0. -1.
    9900012    2    1    2    0    0  0.85421072509E+00 -0.51163590034E+00 -0.63341311231E+00  0.90007890078E+02  0.90000153427E+02 0.  0.
         12    1    1    2    0    0 -0.85421072509E+00  0.51163590034E+00  0.63341311231E+00  0.11801099221E+01  0.00000000000E+00 0. -1.
         11    1    3    3    0    0 -0.73020459902E+01 -0.69531698519E+01 -0.29596996528E+01  0.10508390406E+02  0.51100000000E-03 0. -1.
        -11    1    3    3    0    0 -0.75333615294E+01  0.26018249897E+02  0.31154558036E+02  0.41283257506E+02  0.51100000000E-03 0.  1.
         12    1    3    3    0    0  0.15689618245E+02 -0.19576715945E+02 -0.28828271496E+02  0.38216242166E+02  0.00000000000E+00 0. -1.
</event>
<event>
 7    1  0.2682188E-015  0.9000767E+02  0.7816164E-02  0.1186339E+00
        -11   -1    0    0    0    0  0.00000000000E+00  0.00000000000E+00  0.45593999997E+02  0.45594000000E+02  0.51100000000E-03 0.  1.
         11   -1    0    0    0    0 -0.00000000000E+00 -0.00000000000E+00 -0.45593999997E+02  0.45594000000E+02  0.51100000000E-03 0. -1.
    9900012    2    1    2    0    0 -0.65907896185E+00 -0.85930766184E+00  0.46944169419E+00  0.90007673672E+02  0.89999934165E+02 0.  0.
         12    1    1    2    0    0  0.65907896185E+00  0.85930766184E+00 -0.46944169419E+00  0.11803263277E+01  0.00000000000E+00 0. -1.
         11    1    3    3    0    0 -0.30618856407E+01  0.74033205454E+01  0.90561495177E+01  0.12091242414E+02  0.51100000000E-03 0. -1.
        -11    1    3    3    0    0  0.26874761897E+02  0.21178373607E+02  0.95922628390E+01  0.35535726281E+02  0.51100000000E-03 0.  1.
         12    1    3    3    0    0 -0.24471955219E+02 -0.29441001814E+02 -0.18178970662E+02  0.42380704977E+02  0.00000000000E+00 0. -1.
</event>
<event>
 7    1  0.2682188E-015  0.9000773E+02  0.7816164E-02  0.1186339E+00
        -11   -1    0    0    0    0  0.00000000000E+00  0.00000000000E+00  0.45593999997E+02  0.45594000000E+02  0.51100000000E-03 0. -1.
         11   -1    0    0    0    0 -0.00000000000E+00 -0.00000000000E+00 -0.45593999997E+02  0.45594000000E+02  0.51100000000E-03 0.  1.
    9900012    2    1    2    0    0 -0.18552308433E-01 -0.46121210474E+00 -0.10862679477E+01  0.90007729333E+02  0.89999990560E+02 0.  0.
         12    1    1    2    0    0  0.18552308433E-01  0.46121210474E+00  0.10862679477E+01  0.11802706672E+01  0.00000000000E+00 0. -1.
         11    1    3    3    0    0  0.14457222056E+01 -0.49012032929E-01  0.16668654451E+02  0.16731304682E+02  0.51100000000E-03 0. -1.
        -11    1    3    3    0    0  0.22421377189E+02  0.19858803884E+02  0.98417755724E+01  0.31526985163E+02  0.51100000000E-03 0.  1.
         12    1    3    3    0    0 -0.23885651703E+02 -0.20271003956E+02 -0.27596697971E+02  0.41749439488E+02  0.00000000000E+00 0. -1.
</event>
<event>
 7    1  0.2682188E-015  0.9000779E+02  0.7816164E-02  0.1186339E+00
        -11   -1    0    0    0    0  0.00000000000E+00  0.00000000000E+00  0.45593999997E+02  0.45594000000E+02  0.51100000000E-03 0.  1.
         11   -1    0    0    0    0 -0.00000000000E+00 -0.00000000000E+00 -0.45593999997E+02  0.45594000000E+02  0.51100000000E-03 0. -1.
    9900012    2    1    2    0    0 -0.38264985831E+00 -0.10694988745E+01  0.32039733448E+00  0.90007786795E+02  0.90000048781E+02 0.  0.
         12    1    1    2    0    0  0.38264985831E+00  0.10694988745E+01 -0.32039733448E+00  0.11802132047E+01  0.00000000000E+00 0. -1.
         11    1    3    3    0    0 -0.22391570474E+02  0.33945037724E+01 -0.26931751695E+02  0.35188411924E+02  0.51100000000E-03 0. -1.
        -11    1    3    3    0    0  0.12868273473E+01 -0.18571904290E+01 -0.11003930944E+02  0.11233502455E+02  0.51100000000E-03 0.  1.
        -12    1    3    3    0    0  0.20722093268E+02 -0.26068122179E+01  0.38256079974E+02  0.43585872416E+02  0.00000000000E+00 0.  1.
</event>
<event>
 7    1  0.2682188E-015  0.9000771E+02  0.7816164E-02  0.1186339E+00
        -11   -1    0    0    0    0  0.00000000000E+00  0.00000000000E+00  0.45593999997E+02  0.45594000000E+02  0.51100000000E-03 0. -1.
         11   -1    0    0    0    0 -0.00000000000E+00 -0.00000000000E+00 -0.45593999997E+02  0.45594000000E+02  0.51100000000E-03 0.  1.
    9900012    2    1    2    0    0  0.77249060881E+00 -0.53995935321E+00  0.71048345631E+00  0.90007709957E+02  0.89999970928E+02 0.  0.
         12    1    1    2    0    0 -0.77249060881E+00  0.53995935321E+00 -0.71048345631E+00  0.11802900430E+01  0.00000000000E+00 0. -1.
         11    1    3    3    0    0  0.32385829896E+01  0.21243487311E+01 -0.12089699535E+02  0.12694964057E+02  0.51100000000E-03 0. -1.
        -11    1    3    3    0    0  0.51368221123E+00  0.22611107309E+02 -0.23736073530E+02  0.32786082871E+02  0.51100000000E-03 0.  1.
         12    1    3    3    0    0 -0.29797745920E+01 -0.25275415393E+02  0.36536256521E+02  0.44526663029E+02  0.00000000000E+00 0. -1.
</event>
<event>
 7    1  0.2682188E-015  0.9000773E+02  0.7816164E-02  0.1186339E+00
        -11   -1    0    0    0    0  0.00000000000E+00  0.00000000000E+00  0.45593999997E+02  0.45594000000E+02  0.51100000000E-03 0.  1.
         11   -1    0    0    0    0 -0.00000000000E+00 -0.00000000000E+00 -0.45593999997E+02  0.45594000000E+02  0.51100000000E-03 0. -1.
    9900012    2    1    2    0    0 -0.86433526514E+00  0.30188762439E+00  0.74485839957E+00  0.90007734935E+02  0.89999996236E+02 0.  0.
         12    1    1    2    0    0  0.86433526514E+00 -0.30188762439E+00 -0.74485839957E+00  0.11802650650E+01  0.00000000000E+00 0. -1.
         11    1    3    3    0    0  0.50124166830E+01  0.43349694957E+01  0.66855688675E+01  0.94134538229E+01  0.51100000000E-03 0. -1.
        -11    1    3    3    0    0 -0.34439917173E+02 -0.42860270200E+01  0.21630357468E+02  0.40894379650E+02  0.51100000000E-03 0.  1.
         12    1    3    3    0    0  0.28563165225E+02  0.25294514869E+00 -0.27571067936E+02  0.39699901462E+02  0.00000000000E+00 0. -1.
</event>
<event>
 7    1  0.2682188E-015  0.9000748E+02  0.7816164E-02  0.1186340E+00
        -11   -1    0    0    0    0  0.00000000000E+00  0.00000000000E+00  0.45593999997E+02  0.45594000000E+02  0.51100000000E-03 0. -1.
         11   -1    0    0    0    0 -0.00000000000E+00 -0.00000000000E+00 -0.45593999997E+02  0.45594000000E+02  0.51100000000E-03 0.  1.
    9900012    2    1    2    0    0 -0.84043231703E-01 -0.11343328462E+01 -0.31598424696E+00  0.90007483031E+02  0.89999741006E+02 0.  0.
         12    1    1    2    0    0  0.84043231703E-01  0.11343328462E+01  0.31598424696E+00  0.11805169694E+01  0.00000000000E+00 0. -1.
         11    1    3    3    0    0  0.70146414018E+01  0.47341573820E+01 -0.33239153878E+01  0.90920764339E+01  0.51100000000E-03 0. -1.
        -11    1    3    3    0    0  0.12630612065E+02 -0.27901472226E+02 -0.25488209450E+02  0.39845618765E+02  0.51100000000E-03 0.  1.
         12    1    3    3    0    0 -0.19729296699E+02  0.22032981998E+02  0.28496140591E+02  0.41069787832E+02  0.00000000000E+00 0. -1.
</event>
<event>
 7    1  0.2682188E-015  0.9000749E+02  0.7816164E-02  0.1186340E+00
        -11   -1    0    0    0    0  0.00000000000E+00  0.00000000000E+00  0.45593999997E+02  0.45594000000E+02  0.51100000000E-03 0. -1.
         11   -1    0    0    0    0 -0.00000000000E+00 -0.00000000000E+00 -0.45593999997E+02  0.45594000000E+02  0.51100000000E-03 0.  1.
    9900012    2    1    2    0    0  0.62020028070E+00 -0.71273312977E+00 -0.70778529818E+00  0.90007492935E+02  0.89999751041E+02 0.  0.
         12    1    1    2    0    0 -0.62020028070E+00  0.71273312977E+00  0.70778529818E+00  0.11805070651E+01  0.00000000000E+00 0. -1.
         11    1    3    3    0    0  0.21212660539E+01 -0.47220004477E+01 -0.75450921554E+01  0.91501625010E+01  0.51100000000E-03 0. -1.
        -11    1    3    3    0    0 -0.90542484870E+00 -0.20958464642E+02 -0.29845002915E+02  0.36480148486E+02  0.51100000000E-03 0.  1.
         12    1    3    3    0    0 -0.59564092453E+00  0.24967731960E+02  0.36682309773E+02  0.44377181947E+02  0.00000000000E+00 0. -1.
</event>
<event>
 7    1  0.2682188E-015  0.9000764E+02  0.7816164E-02  0.1186339E+00
        -11   -1    0    0    0    0  0.00000000000E+00  0.00000000000E+00  0.45593999997E+02  0.45594000000E+02  0.51100000000E-03 0.  1.
         11   -1    0    0    0    0 -0.00000000000E+00 -0.00000000000E+00 -0.45593999997E+02  0.45594000000E+02  0.51100000000E-03 0. -1.
    9900012    2    1    2    0    0  0.23968067178E+00 -0.26899537737E+00  0.11240270140E+01  0.90007643246E+02  0.89999903337E+02 0.  0.
         12    1    1    2    0    0 -0.23968067178E+00  0.26899537737E+00 -0.11240270140E+01  0.11803567536E+01  0.00000000000E+00 0. -1.
         11    1    3    3    0    0 -0.13241671113E+02 -0.25757602149E+02  0.23809869862E+02  0.37492743637E+02  0.51100000000E-03 0. -1.
        -11    1    3    3    0    0 -0.15428846406E+01 -0.93196734457E+01 -0.42804619230E+01  0.10371073266E+02  0.51100000000E-03 0.  1.
        -12    1    3    3    0    0  0.15024236425E+02  0.34808280217E+02 -0.18405380925E+02  0.42143826343E+02  0.00000000000E+00 0.  1.
</event>
<event>
 7    1  0.2682188E-015  0.9000775E+02  0.7816164E-02  0.1186339E+00
        -11   -1    0    0    0    0  0.00000000000E+00  0.00000000000E+00  0.45593999997E+02  0.45594000000E+02  0.51100000000E-03 0. -1.
         11   -1    0    0    0    0 -0.00000000000E+00 -0.00000000000E+00 -0.45593999997E+02  0.45594000000E+02  0.51100000000E-03 0.  1.
    9900012    2    1    2    0    0  0.95730344707E-02 -0.11405930819E+01  0.30321514507E+00  0.90007752718E+02  0.90000014254E+02 0.  0.
         12    1    1    2    0    0 -0.95730344707E-02  0.11405930819E+01 -0.30321514507E+00  0.11802472816E+01  0.00000000000E+00 0. -1.
         11    1    3    3    0    0 -0.72863071112E-01  0.10094753158E+02 -0.23412211831E+01  0.10362946841E+02  0.51100000000E-03 0. -1.
        -11    1    3    3    0    0 -0.31984701221E+02 -0.70428554718E+01  0.24250111091E+02  0.40751574369E+02  0.51100000000E-03 0.  1.
         12    1    3    3    0    0  0.32067137327E+02 -0.41924907681E+01 -0.21605674763E+02  0.38893231508E+02  0.00000000000E+00 0. -1.
</event>
<event>
 7    1  0.2682188E-015  0.9000784E+02  0.7816164E-02  0.1186339E+00
        -11   -1    0    0    0    0  0.00000000000E+00  0.00000000000E+00  0.45593999997E+02  0.45594000000E+02  0.51100000000E-03 0.  1.
         11   -1    0    0    0    0 -0.00000000000E+00 -0.00000000000E+00 -0.45593999997E+02  0.45594000000E+02  0.51100000000E-03 0. -1.
    9900012    2    1    2    0    0 -0.22028570143E+00 -0.11224943483E+01  0.29027699468E+00  0.90007838958E+02  0.90000101632E+02 0.  0.
         12    1    1    2    0    0  0.22028570143E+00  0.11224943483E+01 -0.29027699468E+00  0.11801610423E+01  0.00000000000E+00 0. -1.
         11    1    3    3    0    0 -0.39051655320E+01  0.34054804088E+02  0.11997217720E+02  0.36316845025E+02  0.51100000000E-03 0. -1.
        -11    1    3    3    0    0  0.44485819273E+01  0.69481479350E+01  0.34121674022E+01  0.89280192390E+01  0.51100000000E-03 0.  1.
        -12    1    3    3    0    0 -0.76370209672E+00 -0.42125446371E+02 -0.15119108128E+02  0.44762974694E+02  0.00000000000E+00 0.  1.
</event>
<event>
 7    1  0.2682188E-015  0.9000771E+02  0.7816164E-02  0.1186339E+00
        -11   -1    0    0    0    0  0.00000000000E+00  0.00000000000E+00  0.45593999997E+02  0.45594000000E+02  0.51100000000E-03 0.  1.
         11   -1    0    0    0    0 -0.00000000000E+00 -0.00000000000E+00 -0.45593999997E+02  0.45594000000E+02  0.51100000000E-03 0. -1.
    9900012    2    1    2    0    0 -0.61503190737E+00  0.77373636551E+00  0.64510417640E+00  0.90007706982E+02  0.89999967914E+02 0.  0.
         12    1    1    2    0    0  0.61503190737E+00 -0.77373636551E+00 -0.64510417640E+00  0.11802930182E+01  0.00000000000E+00 0. -1.
         11    1    3    3    0    0  0.12163408082E+01  0.38157962857E+00 -0.96506251378E+01  0.97344570360E+01  0.51100000000E-03 0. -1.
        -11    1    3    3    0    0  0.14072360297E+02 -0.34859250955E+02 -0.64299666392E+01  0.38138473655E+02  0.51100000000E-03 0.  1.
         12    1    3    3    0    0 -0.15903733012E+02  0.35251407692E+02  0.16725695953E+02  0.42134776291E+02  0.00000000000E+00 0. -1.
</event>
<event>
 7    1  0.2682188E-015  0.9000773E+02  0.7816164E-02  0.1186339E+00
        -11   -1    0    0    0    0  0.00000000000E+00  0.00000000000E+00  0.45593999997E+02  0.45594000000E+02  0.51100000000E-03 0. -1.
         11   -1    0    0    0    0 -0.00000000000E+00 -0.00000000000E+00 -0.45593999997E+02  0.45594000000E+02  0.51100000000E-03 0.  1.
    9900012    2    1    2    0    0  0.10681754542E+01 -0.37827413643E+00 -0.33007788283E+00  0.90007728196E+02  0.89999989408E+02 0.  0.
         12    1    1    2    0    0 -0.10681754542E+01  0.37827413643E+00  0.33007788283E+00  0.11802718043E+01  0.00000000000E+00 0. -1.
         11    1    3    3    0    0  0.31445937341E+02  0.19536703992E+02 -0.61061531792E+01  0.37520859333E+02  0.51100000000E-03 0. -1.
        -11    1    3    3    0    0  0.80739439344E+00  0.66269560356E+01 -0.69175785854E+01  0.96136010813E+01  0.51100000000E-03 0.  1.
        -12    1    3    3    0    0 -0.31185156280E+02 -0.26541934164E+02  0.12693653882E+02  0.42873267782E+02  0.00000000000E+00 0.  1.
</event>
<event>
 7    1  0.2682188E-015  0.9000777E+02  0.7816164E-02  0.1186339E+00
        -11   -1    0    0    0    0  0.00000000000E+00  0.00000000000E+00  0.45593999997E+02  0.45594000000E+02  0.51100000000E-03 0.  1.
         11   -1    0    0    0    0 -0.00000000000E+00 -0.00000000000E+00 -0.45593999997E+02  0.45594000000E+02  0.51100000000E-03 0. -1.
    9900012    2    1    2    0    0  0.85985331031E+00 -0.75787015364E+00  0.28148007729E+00  0.90007768701E+02  0.90000030448E+02 0.  0.
         12    1    1    2    0    0 -0.85985331031E+00  0.75787015364E+00 -0.28148007729E+00  0.11802312989E+01  0.00000000000E+00 0. -1.
         11    1    3    3    0    0 -0.45337769962E+01 -0.77459955403E+01  0.86599113934E+01  0.12471954392E+02  0.51100000000E-03 0. -1.
        -11    1    3    3    0    0 -0.24839485118E+02  0.30082170363E+02 -0.32468067231E+01  0.39146886835E+02  0.51100000000E-03 0.  1.
         12    1    3    3    0    0  0.30233115425E+02 -0.23094044976E+02 -0.51316245931E+01  0.38388927474E+02  0.00000000000E+00 0. -1.
</event>
<event>
 7    1  0.2682188E-015  0.9000766E+02  0.7816164E-02  0.1186339E+00
        -11   -1    0    0    0    0  0.00000000000E+00  0.00000000000E+00  0.45593999997E+02  0.45594000000E+02  0.51100000000E-03 0.  1.
         11   -1    0    0    0    0 -0.00000000000E+00 -0.00000000000E+00 -0.45593999997E+02  0.45594000000E+02  0.51100000000E-03 0. -1.
    9900012    2    1    2    0    0  0.46822758194E+00 -0.10812271366E+01 -0.70066178355E-01  0.90007661719E+02  0.89999922053E+02 0.  0.
         12    1    1    2    0    0 -0.46822758194E+00  0.10812271366E+01  0.70066178355E-01  0.11803382815E+01  0.00000000000E+00 0. -1.
         11    1    3    3    0    0  0.30235910912E+02  0.71685121293E+01 -0.21121784525E+02  0.37572964437E+02  0.51100000000E-03 0. -1.
        -11    1    3    3    0    0  0.68555437677E+01  0.44256601631E+01 -0.34200766420E+00  0.81671242021E+01  0.51100000000E-03 0.  1.
        -12    1    3    3    0    0 -0.36623227097E+02 -0.12675399429E+02  0.21393726011E+02  0.44267573079E+02  0.00000000000E+00 0.  1.
</event>
<event>
 7    1  0.2682188E-015  0.9000774E+02  0.7816164E-02  0.1186339E+00
        -11   -1    0    0    0    0  0.00000000000E+00  0.00000000000E+00  0.45593999997E+02  0.45594000000E+02  0.51100000000E-03 0. -1.
         11   -1    0    0    0    0 -0.00000000000E+00 -0.00000000000E+00 -0.45593999997E+02  0.45594000000E+02  0.51100000000E-03 0.  1.
    9900012    2    1    2    0    0  0.59815838428E+00 -0.72994166903E+00  0.70881331442E+00  0.90007735365E+02  0.89999996672E+02 0.  0.
         12    1    1    2    0    0 -0.59815838428E+00  0.72994166903E+00 -0.70881331442E+00  0.11802646345E+01  0.00000000000E+00 0. -1.
         11    1    3    3    0    0 -0.11801684990E+02  0.40121095784E+01 -0.32494533696E+00  0.12469257460E+02  0.51100000000E-03 0. -1.
        -11    1    3    3    0    0 -0.13108914916E+02 -0.83767854842E+01 -0.32037335269E+02  0.35614674457E+02  0.51100000000E-03 0.  1.
         12    1    3    3    0    0  0.25508758290E+02  0.36347342367E+01  0.33071093920E+02  0.41923803448E+02  0.00000000000E+00 0. -1.
</event>
<event>
 7    1  0.2682188E-015  0.9000775E+02  0.7816164E-02  0.1186339E+00
        -11   -1    0    0    0    0  0.00000000000E+00  0.00000000000E+00  0.45593999997E+02  0.45594000000E+02  0.51100000000E-03 0. -1.
         11   -1    0    0    0    0 -0.00000000000E+00 -0.00000000000E+00 -0.45593999997E+02  0.45594000000E+02  0.51100000000E-03 0.  1.
    9900012    2    1    2    0    0 -0.10750566466E+01 -0.42802745409E-01 -0.48518019811E+00  0.90007754817E+02  0.90000016380E+02 0.  0.
         12    1    1    2    0    0  0.10750566466E+01  0.42802745409E-01  0.48518019811E+00  0.11802451835E+01  0.00000000000E+00 0. -1.
         11    1    3    3    0    0 -0.46631649968E-01 -0.11425800162E+02  0.62987008421E+01  0.13047019445E+02  0.51100000000E-03 0. -1.
        -11    1    3    3    0    0  0.16459481131E+02 -0.28180893146E+02 -0.83113667584E+01  0.33677233783E+02  0.51100000000E-03 0.  1.
         12    1    3    3    0    0 -0.17487906127E+02  0.39563890562E+02  0.15274857182E+01  0.43283501589E+02  0.00000000000E+00 0. -1.
</event>
<event>
 7    1  0.2682188E-015  0.9000791E+02  0.7816164E-02  0.1186339E+00
        -11   -1    0    0    0    0  0.00000000000E+00  0.00000000000E+00  0.45593999997E+02  0.45594000000E+02  0.51100000000E-03 0.  1.
         11   -1    0    0    0    0 -0.00000000000E+00 -0.00000000000E+00 -0.45593999997E+02  0.45594000000E+02  0.51100000000E-03 0. -1.
    9900012    2    1    2    0    0 -0.64358640507E+00  0.20899494395E+00  0.96681463144E+00  0.90007909801E+02  0.90000173410E+02 0.  0.
         12    1    1    2    0    0  0.64358640507E+00 -0.20899494395E+00 -0.96681463144E+00  0.11800901995E+01  0.00000000000E+00 0. -1.
         11    1    3    3    0    0  0.55404169667E+01 -0.77868400018E+01 -0.82232359405E+01  0.12607644783E+02  0.51100000000E-03 0. -1.
        -11    1    3    3    0    0 -0.18515777087E+02 -0.30141191154E+02  0.11651390775E+02  0.37243527123E+02  0.51100000000E-03 0.  1.
         12    1    3    3    0    0  0.12331773715E+02  0.38137026100E+02 -0.24613402032E+01  0.40156737894E+02  0.00000000000E+00 0. -1.
</event>
<event>
 7    1  0.2682188E-015  0.9000771E+02  0.7816164E-02  0.1186339E+00
        -11   -1    0    0    0    0  0.00000000000E+00  0.00000000000E+00  0.45593999997E+02  0.45594000000E+02  0.51100000000E-03 0. -1.
         11   -1    0    0    0    0 -0.00000000000E+00 -0.00000000000E+00 -0.45593999997E+02  0.45594000000E+02  0.51100000000E-03 0.  1.
    9900012    2    1    2    0    0  0.64002131635E+00 -0.66072909905E+00  0.73952123305E+00  0.90007711102E+02  0.89999972089E+02 0.  0.
         12    1    1    2    0    0 -0.64002131635E+00  0.66072909905E+00 -0.73952123305E+00  0.11802888976E+01  0.00000000000E+00 0. -1.
         11    1    3    3    0    0  0.29984098224E+02 -0.19283983264E+02  0.70912741214E+01  0.36348374458E+02  0.51100000000E-03 0. -1.
        -11    1    3    3    0    0  0.24571847817E+01 -0.43960552985E+01  0.99492951473E+01  0.11151301871E+02  0.51100000000E-03 0.  1.
        -12    1    3    3    0    0 -0.31801261689E+02  0.23019309464E+02 -0.16301048036E+02  0.42508034773E+02  0.00000000000E+00 0.  1.
</event>
<event>
 7    1  0.2682188E-015  0.9000772E+02  0.7816164E-02  0.1186339E+00
        -11   -1    0    0    0    0  0.00000000000E+00  0.00000000000E+00  0.45593999997E+02  0.45594000000E+02  0.51100000000E-03 0.  1.
         11   -1    0    0    0    0 -0.00000000000E+00 -0.00000000000E+00 -0.45593999997E+02  0.45594000000E+02  0.51100000000E-03 0. -1.
    9900012    2    1    2    0    0  0.67539859804E-01 -0.74532188109E+00  0.91268130397E+00  0.90007723125E+02  0.89999984270E+02 0.  0.
         12    1    1    2    0    0 -0.67539859804E-01  0.74532188109E+00 -0.91268130397E+00  0.11802768750E+01  0.00000000000E+00 0. -1.
         11    1    3    3    0    0  0.23461610989E+02  0.33228274238E+02 -0.92310623267E-01  0.40676454130E+02  0.51100000000E-03 0. -1.
        -11    1    3    3    0    0 -0.24688942805E+01 -0.55705896739E+01  0.11077520433E+02  0.12642719940E+02  0.51100000000E-03 0.  1.
        -12    1    3    3    0    0 -0.20925176849E+02 -0.28403006445E+02 -0.10072528506E+02  0.36688549055E+02  0.00000000000E+00 0.  1.
</event>
<event>
 7    1  0.2682188E-015  0.9000787E+02  0.7816164E-02  0.1186339E+00
        -11   -1    0    0    0    0  0.00000000000E+00  0.00000000000E+00  0.45593999997E+02  0.45594000000E+02  0.51100000000E-03 0.  1.
         11   -1    0    0    0    0 -0.00000000000E+00 -0.00000000000E+00 -0.45593999997E+02  0.45594000000E+02  0.51100000000E-03 0. -1.
    9900012    2    1    2    0    0  0.10595126693E+01 -0.10362000175E+00  0.50932426511E+00  0.90007866360E+02  0.90000129396E+02 0.  0.
         12    1    1    2    0    0 -0.10595126693E+01  0.10362000175E+00 -0.50932426511E+00  0.11801336400E+01  0.00000000000E+00 0. -1.
         11    1    3    3    0    0 -0.31274215394E+02  0.24334250678E+02  0.25420555018E+01  0.39707610744E+02  0.51100000000E-03 0. -1.
        -11    1    3    3    0    0  0.43541257811E+00 -0.22400904617E+01  0.94944474770E+01  0.97648411428E+01  0.51100000000E-03 0.  1.
        -12    1    3    3    0    0  0.31898315485E+02 -0.22197780218E+02 -0.11527178714E+02  0.40535414473E+02  0.00000000000E+00 0.  1.
</event>
<event>
 7    1  0.2682188E-015  0.9000776E+02  0.7816164E-02  0.1186339E+00
        -11   -1    0    0    0    0  0.00000000000E+00  0.00000000000E+00  0.45593999997E+02  0.45594000000E+02  0.51100000000E-03 0.  1.
         11   -1    0    0    0    0 -0.00000000000E+00 -0.00000000000E+00 -0.45593999997E+02  0.45594000000E+02  0.51100000000E-03 0. -1.
    9900012    2    1    2    0    0 -0.91241971616E+00  0.74795743077E+00 -0.31803261315E-01  0.90007762099E+02  0.90000023758E+02 0.  0.
         12    1    1    2    0    0  0.91241971616E+00 -0.74795743077E+00  0.31803261315E-01  0.11802379015E+01  0.00000000000E+00 0. -1.
         11    1    3    3    0    0  0.87698214026E+01  0.21592319090E+02  0.13203761265E+02  0.26785767171E+02  0.51100000000E-03 0. -1.
        -11    1    3    3    0    0 -0.33281683156E+02 -0.10287326557E+02 -0.16024850989E+01  0.34872159098E+02  0.51100000000E-03 0.  1.
         12    1    3    3    0    0  0.23599442037E+02 -0.10557035103E+02 -0.11633079427E+02  0.28349835830E+02  0.00000000000E+00 0. -1.
</event>
<event>
 7    1  0.2682188E-015  0.9000763E+02  0.7816164E-02  0.1186339E+00
        -11   -1    0    0    0    0  0.00000000000E+00  0.00000000000E+00  0.45593999997E+02  0.45594000000E+02  0.51100000000E-03 0. -1.
         11   -1    0    0    0    0 -0.00000000000E+00 -0.00000000000E+00 -0.45593999997E+02  0.45594000000E+02  0.51100000000E-03 0.  1.
    9900012    2    1    2    0    0 -0.86118583189E+00 -0.79844602891E+00 -0.11884855335E+00  0.90007626298E+02  0.89999886165E+02 0.  0.
         12    1    1    2    0    0  0.86118583189E+00  0.79844602891E+00  0.11884855335E+00  0.11803737022E+01  0.00000000000E+00 0. -1.
         11    1    3    3    0    0 -0.24321299569E+02 -0.30267793042E+02 -0.23639730275E+01  0.38900556257E+02  0.51100000000E-03 0. -1.
        -11    1    3    3    0    0  0.16567839158E+01 -0.74663183139E+01 -0.22737921038E+01  0.79787826703E+01  0.51100000000E-03 0.  1.
        -12    1    3    3    0    0  0.21803329821E+02  0.36935665327E+02  0.45189165780E+01  0.43128287370E+02  0.00000000000E+00 0.  1.
</event>
<event>
 7    1  0.2682188E-015  0.9000778E+02  0.7816164E-02  0.1186339E+00
        -11   -1    0    0    0    0  0.00000000000E+00  0.00000000000E+00  0.45593999997E+02  0.45594000000E+02  0.51100000000E-03 0.  1.
         11   -1    0    0    0    0 -0.00000000000E+00 -0.00000000000E+00 -0.45593999997E+02  0.45594000000E+02  0.51100000000E-03 0. -1.
    9900012    2    1    2    0    0  0.60568494298E+00 -0.10122031701E+01 -0.38961084617E-01  0.90007776515E+02  0.90000038365E+02 0.  0.
         12    1    1    2    0    0 -0.60568494298E+00  0.10122031701E+01  0.38961084617E-01  0.11802234847E+01  0.00000000000E+00 0. -1.
         11    1    3    3    0    0 -0.55274650683E+01  0.65469673653E+01  0.10958950846E+02  0.13910940143E+02  0.51100000000E-03 0. -1.
        -11    1    3    3    0    0 -0.74277398997E+01 -0.26879816383E+02  0.22003468801E+02  0.35522506786E+02  0.51100000000E-03 0.  1.
         12    1    3    3    0    0  0.13560889911E+02  0.19320645848E+02 -0.33001380732E+02  0.40574329586E+02  0.00000000000E+00 0. -1.
</event>
<event>
 7    1  0.2682188E-015  0.9000748E+02  0.7816164E-02  0.1186340E+00
        -11   -1    0    0    0    0  0.00000000000E+00  0.00000000000E+00  0.45593999997E+02  0.45594000000E+02  0.51100000000E-03 0.  1.
         11   -1    0    0    0    0 -0.00000000000E+00 -0.00000000000E+00 -0.45593999997E+02  0.45594000000E+02  0.51100000000E-03 0. -1.
    9900012    2    1    2    0    0  0.38309308375E+00  0.33398175692E+00  0.10655191031E+01  0.90007476775E+02  0.89999734668E+02 0.  0.
         12    1    1    2    0    0 -0.38309308375E+00 -0.33398175692E+00 -0.10655191031E+01  0.11805232246E+01  0.00000000000E+00 0. -1.
         11    1    3    3    0    0 -0.45345161571E+01  0.29719721527E+01 -0.82327565895E+01  0.98576232724E+01  0.51100000000E-03 0. -1.
        -11    1    3    3    0    0 -0.93783191716E+01  0.31239545473E+02 -0.15180643140E+02  0.35976575688E+02  0.51100000000E-03 0.  1.
         12    1    3    3    0    0  0.14295928412E+02 -0.33877535869E+02  0.24478918833E+02  0.44173277815E+02  0.00000000000E+00 0. -1.
</event>
<event>
 7    1  0.2682188E-015  0.9000778E+02  0.7816164E-02  0.1186339E+00
        -11   -1    0    0    0    0  0.00000000000E+00  0.00000000000E+00  0.45593999997E+02  0.45594000000E+02  0.51100000000E-03 0.  1.
         11   -1    0    0    0    0 -0.00000000000E+00 -0.00000000000E+00 -0.45593999997E+02  0.45594000000E+02  0.51100000000E-03 0. -1.
    9900012    2    1    2    0    0  0.72915726255E+00 -0.92768980918E+00  0.25183705944E-01  0.90007782683E+02  0.90000044615E+02 0.  0.
         12    1    1    2    0    0 -0.72915726255E+00  0.92768980918E+00 -0.25183705944E-01  0.11802173167E+01  0.00000000000E+00 0. -1.
         11    1    3    3    0    0 -0.23720873845E+02 -0.13603008247E+02  0.10385617213E+02  0.29250345887E+02  0.51100000000E-03 0. -1.
        -11    1    3    3    0    0  0.57748388839E+01  0.23359747698E+01  0.21512717554E+02  0.22396485418E+02  0.51100000000E-03 0.  1.
         12    1    3    3    0    0  0.18675192223E+02  0.10339343668E+02 -0.31873151062E+02  0.38360951378E+02  0.00000000000E+00 0. -1.
</event>
<event>
 7    1  0.2682188E-015  0.9000814E+02  0.7816164E-02  0.1186338E+00
        -11   -1    0    0    0    0  0.00000000000E+00  0.00000000000E+00  0.45593999997E+02  0.45594000000E+02  0.51100000000E-03 0.  1.
         11   -1    0    0    0    0 -0.00000000000E+00 -0.00000000000E+00 -0.45593999997E+02  0.45594000000E+02  0.51100000000E-03 0. -1.
    9900012    2    1    2    0    0 -0.81119280486E+00 -0.81302758456E+00 -0.27024113638E+00  0.90008136494E+02  0.90000403095E+02 0.  0.
         12    1    1    2    0    0  0.81119280486E+00  0.81302758456E+00  0.27024113638E+00  0.11798635055E+01  0.00000000000E+00 0. -1.
         11    1    3    3    0    0 -0.82315532826E+01 -0.13629707862E+02 -0.11038015520E+02  0.19374343672E+02  0.51100000000E-03 0. -1.
        -11    1    3    3    0    0 -0.26474024476E+02  0.14709223717E+02  0.18935072914E+02  0.35717953761E+02  0.51100000000E-03 0.  1.
         12    1    3    3    0    0  0.33894384954E+02 -0.18925434399E+01 -0.81672985305E+01  0.34915839061E+02  0.00000000000E+00 0. -1.
</event>
<event>
 7    1  0.2682188E-015  0.9000776E+02  0.7816164E-02  0.1186339E+00
        -11   -1    0    0    0    0  0.00000000000E+00  0.00000000000E+00  0.45593999997E+02  0.45594000000E+02  0.51100000000E-03 0. -1.
         11   -1    0    0    0    0 -0.00000000000E+00 -0.00000000000E+00 -0.45593999997E+02  0.45594000000E+02  0.51100000000E-03 0.  1.
    9900012    2    1    2    0    0  0.77857668180E+00 -0.34197979426E+00 -0.81844131235E+00  0.90007755106E+02  0.90000016673E+02 0.  0.
         12    1    1    2    0    0 -0.77857668180E+00  0.34197979426E+00  0.81844131235E+00  0.11802448945E+01  0.00000000000E+00 0. -1.
         11    1    3    3    0    0 -0.37132339780E+02 -0.16011049105E+02 -0.34162866994E+01  0.40581219377E+02  0.51100000000E-03 0. -1.
        -11    1    3    3    0    0 -0.22291026365E+01 -0.39364509983E+01  0.14107822228E+01  0.47386550589E+01  0.51100000000E-03 0.  1.
        -12    1    3    3    0    0  0.40140019099E+02  0.19605520309E+02  0.11870631643E+01  0.44687880670E+02  0.00000000000E+00 0.  1.
</event>
<event>
 7    1  0.2682188E-015  0.9000773E+02  0.7816164E-02  0.1186339E+00
        -11   -1    0    0    0    0  0.00000000000E+00  0.00000000000E+00  0.45593999997E+02  0.45594000000E+02  0.51100000000E-03 0.  1.
         11   -1    0    0    0    0 -0.00000000000E+00 -0.00000000000E+00 -0.45593999997E+02  0.45594000000E+02  0.51100000000E-03 0. -1.
    9900012    2    1    2    0    0 -0.12145340196E+00 -0.94638324881E+00  0.69472632870E+00  0.90007730177E+02  0.89999991416E+02 0.  0.
         12    1    1    2    0    0  0.12145340196E+00  0.94638324881E+00 -0.69472632870E+00  0.11802698226E+01  0.00000000000E+00 0. -1.
         11    1    3    3    0    0 -0.28859921959E+01  0.73712482217E+01 -0.69840648213E+01  0.10556581501E+02  0.51100000000E-03 0. -1.
        -11    1    3    3    0    0 -0.16895125417E+02  0.20538611510E+01  0.38126767431E+02  0.41753011909E+02  0.51100000000E-03 0.  1.
         12    1    3    3    0    0  0.19659664211E+02 -0.10371492622E+02 -0.30447976281E+02  0.37698136767E+02  0.00000000000E+00 0. -1.
</event>
<event>
 7    1  0.2682188E-015  0.9000773E+02  0.7816164E-02  0.1186339E+00
        -11   -1    0    0    0    0  0.00000000000E+00  0.00000000000E+00  0.45593999997E+02  0.45594000000E+02  0.51100000000E-03 0. -1.
         11   -1    0    0    0    0 -0.00000000000E+00 -0.00000000000E+00 -0.45593999997E+02  0.45594000000E+02  0.51100000000E-03 0.  1.
    9900012    2    1    2    0    0 -0.21921652659E+00 -0.23286445324E-01 -0.11594974870E+01  0.90007731994E+02  0.89999993256E+02 0.  0.
         12    1    1    2    0    0  0.21921652659E+00  0.23286445324E-01  0.11594974870E+01  0.11802680062E+01  0.00000000000E+00 0. -1.
         11    1    3    3    0    0 -0.37639707281E+02  0.23156443372E+00  0.10037917765E+02  0.38955885045E+02  0.51100000000E-03 0. -1.
        -11    1    3    3    0    0 -0.34841828607E+01  0.31352319449E+01 -0.87593853055E+01  0.99345881015E+01  0.51100000000E-03 0.  1.
        -12    1    3    3    0    0  0.40904673615E+02 -0.33900828240E+01 -0.24380299466E+01  0.41117258848E+02  0.00000000000E+00 0.  1.
</event>
<event>
 7    1  0.2682188E-015  0.9000739E+02  0.7816164E-02  0.1186340E+00
        -11   -1    0    0    0    0  0.00000000000E+00  0.00000000000E+00  0.45593999997E+02  0.45594000000E+02  0.51100000000E-03 0.  1.
         11   -1    0    0    0    0 -0.00000000000E+00 -0.00000000000E+00 -0.45593999997E+02  0.45594000000E+02  0.51100000000E-03 0. -1.
    9900012    2    1    2    0    0  0.12752754259E+00 -0.62072898123E+00  0.99613075610E+00  0.90007388199E+02  0.89999644922E+02 0.  0.
         12    1    1    2    0    0 -0.12752754259E+00  0.62072898123E+00 -0.99613075610E+00  0.11806118014E+01  0.00000000000E+00 0. -1.
         11    1    3    3    0    0 -0.92671103825E+01 -0.10445083930E+02 -0.33619501949E+02  0.36403983638E+02  0.51100000000E-03 0. -1.
        -11    1    3    3    0    0 -0.10724438458E+01 -0.12257941935E+02  0.14252490803E+01  0.12387034007E+02  0.51100000000E-03 0.  1.
        -12    1    3    3    0    0  0.10467081771E+02  0.22082296884E+02  0.33190383625E+02  0.41216370554E+02  0.00000000000E+00 0.  1.
</event>
<event>
 7    1  0.2682188E-015  0.9000770E+02  0.7816164E-02  0.1186339E+00
        -11   -1    0    0    0    0  0.00000000000E+00  0.00000000000E+00  0.45593999997E+02  0.45594000000E+02  0.51100000000E-03 0. -1.
         11   -1    0    0    0    0 -0.00000000000E+00 -0.00000000000E+00 -0.45593999997E+02  0.45594000000E+02  0.51100000000E-03 0.  1.
    9900012    2    1    2    0    0  0.63100991904E+00  0.65983231991E+00 -0.74803125987E+00  0.90007702167E+02  0.89999963036E+02 0.  0.
         12    1    1    2    0    0 -0.63100991904E+00 -0.65983231991E+00  0.74803125987E+00  0.11802978328E+01  0.00000000000E+00 0. -1.
         11    1    3    3    0    0  0.24548795894E+01 -0.12872086782E+02  0.43802629220E+01  0.13816792517E+02  0.51100000000E-03 0. -1.
        -11    1    3    3    0    0 -0.17756812183E+02 -0.22284400428E+02 -0.19402528678E+02  0.34472554310E+02  0.51100000000E-03 0.  1.
         12    1    3    3    0    0  0.15932942513E+02  0.35816319530E+02  0.14274234496E+02  0.41718355340E+02  0.00000000000E+00 0. -1.
</event>
<event>
 7    1  0.2682188E-015  0.9000772E+02  0.7816164E-02  0.1186339E+00
        -11   -1    0    0    0    0  0.00000000000E+00  0.00000000000E+00  0.45593999997E+02  0.45594000000E+02  0.51100000000E-03 0.  1.
         11   -1    0    0    0    0 -0.00000000000E+00 -0.00000000000E+00 -0.45593999997E+02  0.45594000000E+02  0.51100000000E-03 0. -1.
    9900012    2    1    2    0    0 -0.59459160034E+00  0.84086110361E+00  0.57660663612E+00  0.90007719618E+02  0.89999980717E+02 0.  0.
         12    1    1    2    0    0  0.59459160034E+00 -0.84086110361E+00 -0.57660663612E+00  0.11802803818E+01  0.00000000000E+00 0. -1.
         11    1    3    3    0    0  0.49923393791E+01  0.84051884341E+01 -0.40958127020E+00  0.97846002559E+01  0.51100000000E-03 0. -1.
        -11    1    3    3    0    0  0.23832463549E+02  0.12726123109E+02  0.25287648892E+02  0.37005482228E+02  0.51100000000E-03 0.  1.
         12    1    3    3    0    0 -0.29419394529E+02 -0.20290450439E+02 -0.24301460985E+02  0.43217637134E+02  0.00000000000E+00 0. -1.
</event>
<event>
 7    1  0.2682188E-015  0.9000784E+02  0.7816164E-02  0.1186339E+00
        -11   -1    0    0    0    0  0.00000000000E+00  0.00000000000E+00  0.45593999997E+02  0.45594000000E+02  0.51100000000E-03 0.  1.
         11   -1    0    0    0    0 -0.00000000000E+00 -0.00000000000E+00 -0.45593999997E+02  0.45594000000E+02  0.51100000000E-03 0. -1.
    9900012    2    1    2    0    0  0.35451605306E-01 -0.61724920367E+00  0.10052443579E+01  0.90007843394E+02  0.90000106127E+02 0.  0.
         12    1    1    2    0    0 -0.35451605306E-01  0.61724920367E+00 -0.10052443579E+01  0.11801566061E+01  0.00000000000E+00 0. -1.
         11    1    3    3    0    0  0.12616698653E+02  0.38268077026E+01 -0.18079061685E+01  0.13307669483E+02  0.51100000000E-03 0. -1.
        -11    1    3    3    0    0  0.23082291977E+02 -0.78858499427E+01  0.24700600391E+02  0.34714528546E+02  0.51100000000E-03 0.  1.
         12    1    3    3    0    0 -0.35663539025E+02  0.34417930364E+01 -0.21887449865E+02  0.41985645365E+02  0.00000000000E+00 0. -1.
</event>
<event>
 7    1  0.2682188E-015  0.9000751E+02  0.7816164E-02  0.1186340E+00
        -11   -1    0    0    0    0  0.00000000000E+00  0.00000000000E+00  0.45593999997E+02  0.45594000000E+02  0.51100000000E-03 0. -1.
         11   -1    0    0    0    0 -0.00000000000E+00 -0.00000000000E+00 -0.45593999997E+02  0.45594000000E+02  0.51100000000E-03 0.  1.
    9900012    2    1    2    0    0 -0.33603716745E+00  0.66013066446E+00 -0.91916325596E+00  0.90007510880E+02  0.89999769223E+02 0.  0.
         12    1    1    2    0    0  0.33603716745E+00 -0.66013066446E+00  0.91916325596E+00  0.11804891203E+01  0.00000000000E+00 0. -1.
         11    1    3    3    0    0  0.36878526575E+01  0.24187133595E+01  0.86145520373E+01  0.96778581620E+01  0.51100000000E-03 0. -1.
        -11    1    3    3    0    0  0.34499050502E+02 -0.11388081860E+02  0.75434901384E+01  0.37104947618E+02  0.51100000000E-03 0.  1.
         12    1    3    3    0    0 -0.38522940327E+02  0.96294991651E+01 -0.17077205432E+02  0.43224705100E+02  0.00000000000E+00 0. -1.
</event>
<event>
 7    1  0.2682188E-015  0.9000777E+02  0.7816164E-02  0.1186339E+00
        -11   -1    0    0    0    0  0.00000000000E+00  0.00000000000E+00  0.45593999997E+02  0.45594000000E+02  0.51100000000E-03 0.  1.
         11   -1    0    0    0    0 -0.00000000000E+00 -0.00000000000E+00 -0.45593999997E+02  0.45594000000E+02  0.51100000000E-03 0. -1.
    9900012    2    1    2    0    0  0.10579517852E+01  0.44963269468E+00  0.26742108653E+00  0.90007768846E+02  0.90000030595E+02 0.  0.
         12    1    1    2    0    0 -0.10579517852E+01 -0.44963269468E+00 -0.26742108653E+00  0.11802311542E+01  0.00000000000E+00 0. -1.
         11    1    3    3    0    0  0.70293173755E+01  0.52019397534E+01 -0.38278660998E+02  0.39264836280E+02  0.51100000000E-03 0. -1.
        -11    1    3    3    0    0 -0.74510791859E+01 -0.80677189081E+00 -0.36505446222E+01  0.83364223872E+01  0.51100000000E-03 0.  1.
        -12    1    3    3    0    0  0.14797135956E+01 -0.39455351680E+01  0.42196626707E+02  0.42406510179E+02  0.00000000000E+00 0.  1.
</event>
<event>
 7    1  0.2682188E-015  0.9000778E+02  0.7816164E-02  0.1186339E+00
        -11   -1    0    0    0    0  0.00000000000E+00  0.00000000000E+00  0.45593999997E+02  0.45594000000E+02  0.51100000000E-03 0. -1.
         11   -1    0    0    0    0 -0.00000000000E+00 -0.00000000000E+00 -0.45593999997E+02  0.45594000000E+02  0.51100000000E-03 0.  1.
    9900012    2    1    2    0    0  0.10355625236E+01  0.33831448295E+00 -0.45395502191E+00  0.90007779007E+02  0.90000040890E+02 0.  0.
         12    1    1    2    0    0 -0.10355625236E+01 -0.33831448295E+00  0.45395502191E+00  0.11802209927E+01  0.00000000000E+00 0. -1.
         11    1    3    3    0    0  0.26389735544E+01  0.21297563049E+02  0.32690628872E+02  0.39105339655E+02  0.51100000000E-03 0. -1.
        -11    1    3    3    0    0  0.42270750829E+01 -0.90640279746E+01  0.45206668698E+01  0.10975481588E+02  0.51100000000E-03 0.  1.
        -12    1    3    3    0    0 -0.58304861137E+01 -0.11895220592E+02 -0.37665250763E+02  0.39926957764E+02  0.00000000000E+00 0.  1.
</event>
<event>
 7    1  0.2682188E-015  0.9000770E+02  0.7816164E-02  0.1186339E+00
        -11   -1    0    0    0    0  0.00000000000E+00  0.00000000000E+00  0.45593999997E+02  0.45594000000E+02  0.51100000000E-03 0.  1.
         11   -1    0    0    0    0 -0.00000000000E+00 -0.00000000000E+00 -0.45593999997E+02  0.45594000000E+02  0.51100000000E-03 0. -1.
    9900012    2    1    2    0    0  0.58199926683E+00 -0.39866607651E+00  0.94628061616E+00  0.90007701397E+02  0.89999962256E+02 0.  0.
         12    1    1    2    0    0 -0.58199926683E+00  0.39866607651E+00 -0.94628061616E+00  0.11802986028E+01  0.00000000000E+00 0. -1.
         11    1    3    3    0    0  0.23163981479E+02 -0.91073901514E+00 -0.33543752173E+02  0.40774781343E+02  0.51100000000E-03 0. -1.
        -11    1    3    3    0    0  0.58148757601E+01  0.31500205295E+01  0.65917449068E+01  0.93373717190E+01  0.51100000000E-03 0.  1.
        -12    1    3    3    0    0 -0.28396857972E+02 -0.26379475909E+01  0.27898287882E+02  0.39895548335E+02  0.00000000000E+00 0.  1.
</event>
<event>
 7    1  0.2682188E-015  0.9000774E+02  0.7816164E-02  0.1186339E+00
        -11   -1    0    0    0    0  0.00000000000E+00  0.00000000000E+00  0.45593999997E+02  0.45594000000E+02  0.51100000000E-03 0. -1.
         11   -1    0    0    0    0 -0.00000000000E+00 -0.00000000000E+00 -0.45593999997E+02  0.45594000000E+02  0.51100000000E-03 0.  1.
    9900012    2    1    2    0    0  0.10882293166E+01  0.20819641073E+00  0.40673879617E+00  0.90007735098E+02  0.89999996401E+02 0.  0.
         12    1    1    2    0    0 -0.10882293166E+01 -0.20819641073E+00 -0.40673879617E+00  0.11802649022E+01  0.00000000000E+00 0. -1.
         11    1    3    3    0    0  0.22330686552E+02 -0.15052772864E+00  0.15557190106E+01  0.22385318456E+02  0.51100000000E-03 0. -1.
        -11    1    3    3    0    0 -0.35095630004E+01  0.26296980927E+01 -0.31820316121E+02  0.32121096850E+02  0.51100000000E-03 0.  1.
        -12    1    3    3    0    0 -0.17732894235E+02 -0.22709739533E+01  0.30671335907E+02  0.35501319792E+02  0.00000000000E+00 0.  1.
</event>
<event>
 7    1  0.2682188E-015  0.9000730E+02  0.7816164E-02  0.1186340E+00
        -11   -1    0    0    0    0  0.00000000000E+00  0.00000000000E+00  0.45593999997E+02  0.45594000000E+02  0.51100000000E-03 0. -1.
         11   -1    0    0    0    0 -0.00000000000E+00 -0.00000000000E+00 -0.45593999997E+02  0.45594000000E+02  0.51100000000E-03 0.  1.
    9900012    2    1    2    0    0  0.90909975477E+00 -0.67198229088E+00 -0.34063571008E+00  0.90007298831E+02  0.89999554375E+02 0.  0.
         12    1    1    2    0    0 -0.90909975477E+00  0.67198229088E+00  0.34063571008E+00  0.11807011689E+01  0.00000000000E+00 0. -1.
         11    1    3    3    0    0  0.61628528192E+01  0.16449978894E+02 -0.42743019810E+01  0.18079054682E+02  0.51100000000E-03 0. -1.
        -11    1    3    3    0    0  0.23316555921E+02  0.95024553595E+01 -0.14160484485E+02  0.28887328692E+02  0.51100000000E-03 0.  1.
         12    1    3    3    0    0 -0.28570308985E+02 -0.26624416545E+02  0.18094150756E+02  0.43040915457E+02  0.00000000000E+00 0. -1.
</event>
<event>
 7    1  0.2682188E-015  0.9000773E+02  0.7816164E-02  0.1186339E+00
        -11   -1    0    0    0    0  0.00000000000E+00  0.00000000000E+00  0.45593999997E+02  0.45594000000E+02  0.51100000000E-03 0.  1.
         11   -1    0    0    0    0 -0.00000000000E+00 -0.00000000000E+00 -0.45593999997E+02  0.45594000000E+02  0.51100000000E-03 0. -1.
    9900012    2    1    2    0    0  0.44416253069E+00  0.10379497806E+01 -0.34413055212E+00  0.90007726329E+02  0.89999987517E+02 0.  0.
         12    1    1    2    0    0 -0.44416253069E+00 -0.10379497806E+01  0.34413055212E+00  0.11802736706E+01  0.00000000000E+00 0. -1.
         11    1    3    3    0    0  0.61883009201E+00 -0.82396346653E+01 -0.34837430177E+02  0.35803925367E+02  0.51100000000E-03 0. -1.
        -11    1    3    3    0    0 -0.15833583579E+01  0.39153255637E+01 -0.92195018156E+01  0.10140809235E+02  0.51100000000E-03 0.  1.
        -12    1    3    3    0    0  0.14086907966E+01  0.53622588822E+01  0.43712801441E+02  0.44062991726E+02  0.00000000000E+00 0.  1.
</event>
<event>
 7    1  0.2682188E-015  0.9000780E+02  0.7816164E-02  0.1186339E+00
        -11   -1    0    0    0    0  0.00000000000E+00  0.00000000000E+00  0.45593999997E+02  0.45594000000E+02  0.51100000000E-03 0.  1.
         11   -1    0    0    0    0 -0.00000000000E+00 -0.00000000000E+00 -0.45593999997E+02  0.45594000000E+02  0.51100000000E-03 0. -1.
    9900012    2    1    2    0    0 -0.11400579586E+01  0.23746841026E+00 -0.19171528619E+00  0.90007797413E+02  0.90000059539E+02 0.  0.
         12    1    1    2    0    0  0.11400579586E+01 -0.23746841026E+00  0.19171528619E+00  0.11802025867E+01  0.00000000000E+00 0. -1.
         11    1    3    3    0    0 -0.54942214368E+01 -0.74694003364E+01 -0.13844494504E+01  0.93752392569E+01  0.51100000000E-03 0. -1.
        -11    1    3    3    0    0 -0.20463369039E+02  0.82138272283E+01  0.33367667103E+02  0.39995220193E+02  0.51100000000E-03 0.  1.
         12    1    3    3    0    0  0.24817532517E+02 -0.50695848165E+00 -0.32174932938E+02  0.40637337963E+02  0.00000000000E+00 0. -1.
</event>
<event>
 7    1  0.2682188E-015  0.9000787E+02  0.7816164E-02  0.1186339E+00
        -11   -1    0    0    0    0  0.00000000000E+00  0.00000000000E+00  0.45593999997E+02  0.45594000000E+02  0.51100000000E-03 0.  1.
         11   -1    0    0    0    0 -0.00000000000E+00 -0.00000000000E+00 -0.45593999997E+02  0.45594000000E+02  0.51100000000E-03 0. -1.
    9900012    2    1    2    0    0  0.47529771298E+00  0.81110549821E+00  0.71336921466E+00  0.90007874718E+02  0.90000137864E+02 0.  0.
         12    1    1    2    0    0 -0.47529771298E+00 -0.81110549821E+00 -0.71336921466E+00  0.11801252822E+01  0.00000000000E+00 0. -1.
         11    1    3    3    0    0  0.21010049148E+02  0.21144797558E+01 -0.33324777969E+02  0.39451666844E+02  0.51100000000E-03 0. -1.
        -11    1    3    3    0    0  0.79469836010E+01  0.18294920997E+01  0.11514837134E+02  0.14110034166E+02  0.51100000000E-03 0.  1.
        -12    1    3    3    0    0 -0.28481735036E+02 -0.31328663572E+01  0.22523310050E+02  0.36446173707E+02  0.00000000000E+00 0.  1.
</event>
<event>
 7    1  0.2682188E-015  0.9000771E+02  0.7816164E-02  0.1186339E+00
        -11   -1    0    0    0    0  0.00000000000E+00  0.00000000000E+00  0.45593999997E+02  0.45594000000E+02  0.51100000000E-03 0. -1.
         11   -1    0    0    0    0 -0.00000000000E+00 -0.00000000000E+00 -0.45593999997E+02  0.45594000000E+02  0.51100000000E-03 0.  1.
    9900012    2    1    2    0    0  0.64322423876E+00  0.16171248903E+00 -0.97631204235E+00  0.90007714630E+02  0.89999975663E+02 0.  0.
         12    1    1    2    0    0 -0.64322423876E+00 -0.16171248903E+00  0.97631204235E+00  0.11802853699E+01  0.00000000000E+00 0. -1.
         11    1    3    3    0    0 -0.48567364724E+01 -0.38020238731E+01 -0.82269938809E+01  0.10282349113E+02  0.51100000000E-03 0. -1.
        -11    1    3    3    0    0 -0.34757507045E+02 -0.21405305408E+01  0.15604268399E+02  0.38159656177E+02  0.51100000000E-03 0.  1.
         12    1    3    3    0    0  0.40257467756E+02  0.61042669029E+01 -0.83535865609E+01  0.41565709341E+02  0.00000000000E+00 0. -1.
</event>
<event>
 7    1  0.2682188E-015  0.9000770E+02  0.7816164E-02  0.1186339E+00
        -11   -1    0    0    0    0  0.00000000000E+00  0.00000000000E+00  0.45593999997E+02  0.45594000000E+02  0.51100000000E-03 0. -1.
         11   -1    0    0    0    0 -0.00000000000E+00 -0.00000000000E+00 -0.45593999997E+02  0.45594000000E+02  0.51100000000E-03 0.  1.
    9900012    2    1    2    0    0 -0.22882247115E+00  0.56649378435E+00  0.10098628590E+01  0.90007704306E+02  0.89999965203E+02 0.  0.
         12    1    1    2    0    0  0.22882247115E+00 -0.56649378435E+00 -0.10098628590E+01  0.11802956939E+01  0.00000000000E+00 0. -1.
         11    1    3    3    0    0 -0.22880715019E+00  0.71102389700E+01 -0.78071152997E+01  0.10562144692E+02  0.51100000000E-03 0. -1.
        -11    1    3    3    0    0  0.15488208576E+01  0.35855473945E+02 -0.97740848552E+00  0.35902216999E+02  0.51100000000E-03 0.  1.
         12    1    3    3    0    0 -0.15488361786E+01 -0.42399219130E+02  0.97943866442E+01  0.43543342615E+02  0.00000000000E+00 0. -1.
</event>
<event>
 7    1  0.2682188E-015  0.9000785E+02  0.7816164E-02  0.1186339E+00
        -11   -1    0    0    0    0  0.00000000000E+00  0.00000000000E+00  0.45593999997E+02  0.45594000000E+02  0.51100000000E-03 0. -1.
         11   -1    0    0    0    0 -0.00000000000E+00 -0.00000000000E+00 -0.45593999997E+02  0.45594000000E+02  0.51100000000E-03 0.  1.
    9900012    2    1    2    0    0 -0.15386319697E+00  0.53562741929E+00 -0.10402832557E+01  0.90007847524E+02  0.90000110311E+02 0.  0.
         12    1    1    2    0    0  0.15386319697E+00 -0.53562741929E+00  0.10402832557E+01  0.11801524765E+01  0.00000000000E+00 0. -1.
         11    1    3    3    0    0  0.30542505119E+02 -0.19043592833E+02  0.43361012211E+00  0.35995708979E+02  0.51100000000E-03 0. -1.
        -11    1    3    3    0    0  0.17830712929E+01 -0.76075249588E+01 -0.79694825729E+01  0.11160933293E+02  0.51100000000E-03 0.  1.
        -12    1    3    3    0    0 -0.32479439609E+02  0.27186745211E+02  0.64955891951E+01  0.42851205251E+02  0.00000000000E+00 0.  1.
</event>
<event>
 7    1  0.2682188E-015  0.9000787E+02  0.7816164E-02  0.1186339E+00
        -11   -1    0    0    0    0  0.00000000000E+00  0.00000000000E+00  0.45593999997E+02  0.45594000000E+02  0.51100000000E-03 0.  1.
         11   -1    0    0    0    0 -0.00000000000E+00 -0.00000000000E+00 -0.45593999997E+02  0.45594000000E+02  0.51100000000E-03 0. -1.
    9900012    2    1    2    0    0  0.36849276920E+00  0.52379904201E+00  0.99123640872E+00  0.90007872051E+02  0.90000135162E+02 0.  0.
         12    1    1    2    0    0 -0.36849276920E+00 -0.52379904201E+00 -0.99123640872E+00  0.11801279487E+01  0.00000000000E+00 0. -1.
         11    1    3    3    0    0  0.20199902454E+02  0.59404782416E+01 -0.35556643039E+02  0.41323119501E+02  0.51100000000E-03 0. -1.
        -11    1    3    3    0    0  0.55543966872E+00 -0.66245065890E+01 -0.19167304224E+00  0.66505142350E+01  0.51100000000E-03 0.  1.
        -12    1    3    3    0    0 -0.20386849354E+02  0.12078273894E+01  0.36739552490E+02  0.42034238315E+02  0.00000000000E+00 0.  1.
</event>
<event>
 7    1  0.2682188E-015  0.9000770E+02  0.7816164E-02  0.1186339E+00
        -11   -1    0    0    0    0  0.00000000000E+00  0.00000000000E+00  0.45593999997E+02  0.45594000000E+02  0.51100000000E-03 0.  1.
         11   -1    0    0    0    0 -0.00000000000E+00 -0.00000000000E+00 -0.45593999997E+02  0.45594000000E+02  0.51100000000E-03 0. -1.
    9900012    2    1    2    0    0 -0.90877205659E+00 -0.16069158042E+00  0.73581014653E+00  0.90007701306E+02  0.89999962163E+02 0.  0.
         12    1    1    2    0    0  0.90877205659E+00  0.16069158042E+00 -0.73581014653E+00  0.11802986938E+01  0.00000000000E+00 0. -1.
         11    1    3    3    0    0 -0.26942636051E+01  0.57462367200E+00 -0.98315276362E+01  0.10210200030E+02  0.51100000000E-03 0. -1.
        -11    1    3    3    0    0 -0.31777671671E+02 -0.22511832121E+02  0.28202881739E+01  0.39045576292E+02  0.51100000000E-03 0.  1.
         12    1    3    3    0    0  0.33563163220E+02  0.21776516869E+02  0.77470496089E+01  0.40751924984E+02  0.00000000000E+00 0. -1.
</event>
<event>
 7    1  0.2682188E-015  0.9000789E+02  0.7816164E-02  0.1186339E+00
        -11   -1    0    0    0    0  0.00000000000E+00  0.00000000000E+00  0.45593999997E+02  0.45594000000E+02  0.51100000000E-03 0.  1.
         11   -1    0    0    0    0 -0.00000000000E+00 -0.00000000000E+00 -0.45593999997E+02  0.45594000000E+02  0.51100000000E-03 0. -1.
    9900012    2    1    2    0    0  0.10452600409E+01  0.54558983993E+00 -0.49237015937E-01  0.90007889365E+02  0.90000152705E+02 0.  0.
         12    1    1    2    0    0 -0.10452600409E+01 -0.54558983993E+00  0.49237015937E-01  0.11801106348E+01  0.00000000000E+00 0. -1.
         11    1    3    3    0    0 -0.31800089223E+02  0.16668724486E+01 -0.17191199690E+02  0.36187863786E+02  0.51100000000E-03 0. -1.
        -11    1    3    3    0    0 -0.77362510219E+01  0.59884571606E+01  0.25198871664E+01  0.10102525953E+02  0.51100000000E-03 0.  1.
        -12    1    3    3    0    0  0.40581600286E+02 -0.71097397692E+01  0.14622075508E+02  0.43717499626E+02  0.00000000000E+00 0.  1.
</event>
<event>
 7    1  0.2682188E-015  0.9000775E+02  0.7816164E-02  0.1186339E+00
        -11   -1    0    0    0    0  0.00000000000E+00  0.00000000000E+00  0.45593999997E+02  0.45594000000E+02  0.51100000000E-03 0. -1.
         11   -1    0    0    0    0 -0.00000000000E+00 -0.00000000000E+00 -0.45593999997E+02  0.45594000000E+02  0.51100000000E-03 0.  1.
    9900012    2    1    2    0    0 -0.43878580769E+00 -0.68005237641E+00 -0.85905891084E+00  0.90007751538E+02  0.90000013058E+02 0.  0.
         12    1    1    2    0    0  0.43878580769E+00  0.68005237641E+00  0.85905891084E+00  0.11802484620E+01  0.00000000000E+00 0. -1.
         11    1    3    3    0    0 -0.48567899711E+01 -0.59265971976E+01  0.76398580495E+01  0.10820369423E+02  0.51100000000E-03 0. -1.
        -11    1    3    3    0    0 -0.18596045151E+02 -0.28973743072E+02 -0.14791097447E+02  0.37470885323E+02  0.51100000000E-03 0.  1.
         12    1    3    3    0    0  0.23014049315E+02  0.34220287894E+02  0.62921804871E+01  0.41716496793E+02  0.00000000000E+00 0. -1.
</event>
<event>
 7    1  0.2682188E-015  0.9000764E+02  0.7816164E-02  0.1186339E+00
        -11   -1    0    0    0    0  0.00000000000E+00  0.00000000000E+00  0.45593999997E+02  0.45594000000E+02  0.51100000000E-03 0. -1.
         11   -1    0    0    0    0 -0.00000000000E+00 -0.00000000000E+00 -0.45593999997E+02  0.45594000000E+02  0.51100000000E-03 0.  1.
    9900012    2    1    2    0    0 -0.13296304133E+00 -0.92074521728E+00 -0.72649611547E+00  0.90007640931E+02  0.89999900991E+02 0.  0.
         12    1    1    2    0    0  0.13296304133E+00  0.92074521728E+00  0.72649611547E+00  0.11803590688E+01  0.00000000000E+00 0. -1.
         11    1    3    3    0    0 -0.38272140982E+02 -0.77593713361E+01 -0.11561898040E+02  0.40726430060E+02  0.51100000000E-03 0. -1.
        -11    1    3    3    0    0  0.71195584769E+00 -0.45704991296E+01  0.89899443839E+01  0.10110165365E+02  0.51100000000E-03 0.  1.
        -12    1    3    3    0    0  0.37427222093E+02  0.11409125248E+02  0.18454575409E+01  0.39171045506E+02  0.00000000000E+00 0.  1.
</event>
<event>
 7    1  0.2682188E-015  0.9000773E+02  0.7816164E-02  0.1186339E+00
        -11   -1    0    0    0    0  0.00000000000E+00  0.00000000000E+00  0.45593999997E+02  0.45594000000E+02  0.51100000000E-03 0. -1.
         11   -1    0    0    0    0 -0.00000000000E+00 -0.00000000000E+00 -0.45593999997E+02  0.45594000000E+02  0.51100000000E-03 0.  1.
    9900012    2    1    2    0    0  0.21178676748E+00  0.72221008747E+00  0.90917706261E+00  0.90007727160E+02  0.89999988359E+02 0.  0.
         12    1    1    2    0    0 -0.21178676748E+00 -0.72221008747E+00 -0.90917706261E+00  0.11802728399E+01  0.00000000000E+00 0. -1.
         11    1    3    3    0    0  0.27224505569E+02  0.25308845108E+01  0.20069908621E+02  0.33917256850E+02  0.51100000000E-03 0. -1.
        -11    1    3    3    0    0  0.80092724077E+01 -0.38172975516E+01  0.78265806511E+01  0.11831127167E+02  0.51100000000E-03 0.  1.
        -12    1    3    3    0    0 -0.35021991210E+02  0.20086231282E+01 -0.26987312210E+02  0.44259343143E+02  0.00000000000E+00 0.  1.
</event>
<event>
 7    1  0.2682188E-015  0.9000774E+02  0.7816164E-02  0.1186339E+00
        -11   -1    0    0    0    0  0.00000000000E+00  0.00000000000E+00  0.45593999997E+02  0.45594000000E+02  0.51100000000E-03 0. -1.
         11   -1    0    0    0    0 -0.00000000000E+00 -0.00000000000E+00 -0.45593999997E+02  0.45594000000E+02  0.51100000000E-03 0.  1.
    9900012    2    1    2    0    0  0.91027691378E+00  0.38485583129E+00 -0.64520541649E+00  0.90007742359E+02  0.90000003758E+02 0.  0.
         12    1    1    2    0    0 -0.91027691378E+00 -0.38485583129E+00  0.64520541649E+00  0.11802576414E+01  0.00000000000E+00 0. -1.
         11    1    3    3    0    0 -0.18268210958E+02 -0.30056761660E+02 -0.13610482825E+02  0.37714475948E+02  0.51100000000E-03 0. -1.
        -11    1    3    3    0    0  0.33460062910E+01  0.18103329563E+00 -0.10391251199E+02  0.10918179010E+02  0.51100000000E-03 0.  1.
        -12    1    3    3    0    0  0.15832481580E+02  0.30260584195E+02  0.23356528607E+02  0.41375087401E+02  0.00000000000E+00 0.  1.
</event>
<event>
 7    1  0.2682188E-015  0.9000767E+02  0.7816164E-02  0.1186339E+00
        -11   -1    0    0    0    0  0.00000000000E+00  0.00000000000E+00  0.45593999997E+02  0.45594000000E+02  0.51100000000E-03 0.  1.
         11   -1    0    0    0    0 -0.00000000000E+00 -0.00000000000E+00 -0.45593999997E+02  0.45594000000E+02  0.51100000000E-03 0. -1.
    9900012    2    1    2    0    0  0.58263109281E-01 -0.11249807844E+01 -0.35242992706E+00  0.90007668179E+02  0.89999928599E+02 0.  0.
         12    1    1    2    0    0 -0.58263109281E-01  0.11249807844E+01  0.35242992706E+00  0.11803318214E+01  0.00000000000E+00 0. -1.
         11    1    3    3    0    0 -0.73057633422E+01  0.89017537943E+01 -0.36723937388E+02  0.38487179374E+02  0.51100000000E-03 0. -1.
        -11    1    3    3    0    0  0.58012267956E+01 -0.36519632625E+01 -0.57152696344E+01  0.89249860089E+01  0.51100000000E-03 0.  1.
        -12    1    3    3    0    0  0.15627996559E+01 -0.63747713162E+01  0.42086777096E+02  0.42595502795E+02  0.00000000000E+00 0.  1.
</event>
<event>
 7    1  0.2682188E-015  0.9000760E+02  0.7816164E-02  0.1186339E+00
        -11   -1    0    0    0    0  0.00000000000E+00  0.00000000000E+00  0.45593999997E+02  0.45594000000E+02  0.51100000000E-03 0. -1.
         11   -1    0    0    0    0 -0.00000000000E+00 -0.00000000000E+00 -0.45593999997E+02  0.45594000000E+02  0.51100000000E-03 0.  1.
    9900012    2    1    2    0    0  0.92850816292E+00  0.32846495678E+00 -0.65063993709E+00  0.90007597965E+02  0.89999857458E+02 0.  0.
         12    1    1    2    0    0 -0.92850816292E+00 -0.32846495678E+00  0.65063993709E+00  0.11804020350E+01  0.00000000000E+00 0. -1.
         11    1    3    3    0    0 -0.30519839573E+01  0.92216508616E+01  0.58571797526E+00  0.97312135161E+01  0.51100000000E-03 0. -1.
        -11    1    3    3    0    0 -0.16393596735E+02  0.30759705136E+02  0.51722826990E+01  0.35237224387E+02  0.51100000000E-03 0.  1.
         12    1    3    3    0    0  0.20374088856E+02 -0.39652891040E+02 -0.64086406114E+01  0.45039160061E+02  0.00000000000E+00 0. -1.
</event>
<event>
 7    1  0.2682188E-015  0.9000776E+02  0.7816164E-02  0.1186339E+00
        -11   -1    0    0    0    0  0.00000000000E+00  0.00000000000E+00  0.45593999997E+02  0.45594000000E+02  0.51100000000E-03 0. -1.
         11   -1    0    0    0    0 -0.00000000000E+00 -0.00000000000E+00 -0.45593999997E+02  0.45594000000E+02  0.51100000000E-03 0.  1.
    9900012    2    1    2    0    0  0.89093456582E-01 -0.47505764996E+00 -0.10767263928E+01  0.90007763947E+02  0.90000025632E+02 0.  0.
         12    1    1    2    0    0 -0.89093456582E-01  0.47505764996E+00  0.10767263928E+01  0.11802360526E+01  0.00000000000E+00 0. -1.
         11    1    3    3    0    0  0.68450190238E+01  0.22416129293E+02  0.13772434841E+02  0.27184868946E+02  0.51100000000E-03 0. -1.
        -11    1    3    3    0    0  0.13518671325E+02  0.61712786342E+01  0.11395394860E+02  0.18726830448E+02  0.51100000000E-03 0.  1.
        -12    1    3    3    0    0 -0.20274596892E+02 -0.29062465577E+02 -0.26244556093E+02  0.44096064553E+02  0.00000000000E+00 0.  1.
</event>
<event>
 7    1  0.2682188E-015  0.9000792E+02  0.7816164E-02  0.1186339E+00
        -11   -1    0    0    0    0  0.00000000000E+00  0.00000000000E+00  0.45593999997E+02  0.45594000000E+02  0.51100000000E-03 0.  1.
         11   -1    0    0    0    0 -0.00000000000E+00 -0.00000000000E+00 -0.45593999997E+02  0.45594000000E+02  0.51100000000E-03 0. -1.
    9900012    2    1    2    0    0 -0.10608269072E+01 -0.11752384602E+00 -0.50341981383E+00  0.90007916490E+02  0.90000180188E+02 0.  0.
         12    1    1    2    0    0  0.10608269072E+01  0.11752384602E+00  0.50341981383E+00  0.11800835099E+01  0.00000000000E+00 0. -1.
         11    1    3    3    0    0  0.57266075974E+01  0.28560138495E+02  0.68353167146E+01  0.29919844590E+02  0.51100000000E-03 0. -1.
        -11    1    3    3    0    0 -0.74129282188E+01  0.90822840841E+01  0.12743190373E+02  0.17315550528E+02  0.51100000000E-03 0.  1.
         12    1    3    3    0    0  0.62549371422E+00 -0.37759946425E+02 -0.20081926901E+02  0.42772521372E+02  0.00000000000E+00 0. -1.
</event>
<event>
 7    1  0.2682188E-015  0.9000651E+02  0.7816164E-02  0.1186341E+00
        -11   -1    0    0    0    0  0.00000000000E+00  0.00000000000E+00  0.45593999997E+02  0.45594000000E+02  0.51100000000E-03 0.  1.
         11   -1    0    0    0    0 -0.00000000000E+00 -0.00000000000E+00 -0.45593999997E+02  0.45594000000E+02  0.51100000000E-03 0. -1.
    9900012    2    1    2    0    0  0.79536734190E+00 -0.31875633218E-02  0.87366468806E+00  0.90006513920E+02  0.89998759096E+02 0.  0.
         12    1    1    2    0    0 -0.79536734190E+00  0.31875633218E-02 -0.87366468806E+00  0.11814860796E+01  0.00000000000E+00 0. -1.
         11    1    3    3    0    0 -0.74395633592E+01 -0.42383549034E+02 -0.33659056306E+01  0.43162966217E+02  0.51100000000E-03 0. -1.
        -11    1    3    3    0    0 -0.37818553091E+01  0.84930881411E+01  0.56173838084E+01  0.10862319129E+02  0.51100000000E-03 0.  1.
        -12    1    3    3    0    0  0.12016786010E+02  0.33887273329E+02 -0.13778134897E+01  0.35981228574E+02  0.00000000000E+00 0.  1.
</event>
<event>
 7    1  0.2682188E-015  0.9000774E+02  0.7816164E-02  0.1186339E+00
        -11   -1    0    0    0    0  0.00000000000E+00  0.00000000000E+00  0.45593999997E+02  0.45594000000E+02  0.51100000000E-03 0. -1.
         11   -1    0    0    0    0 -0.00000000000E+00 -0.00000000000E+00 -0.45593999997E+02  0.45594000000E+02  0.51100000000E-03 0.  1.
    9900012    2    1    2    0    0  0.68089015068E+00  0.81138313329E+00 -0.52064121679E+00  0.90007736782E+02  0.89999998108E+02 0.  0.
         12    1    1    2    0    0 -0.68089015068E+00 -0.81138313329E+00  0.52064121679E+00  0.11802632176E+01  0.00000000000E+00 0. -1.
         11    1    3    3    0    0 -0.32066378223E+02 -0.16844760163E+00 -0.97249770087E+01  0.33509046017E+02  0.51100000000E-03 0. -1.
        -11    1    3    3    0    0 -0.83548129480E+01  0.97848955810E+01 -0.19397358190E+01  0.13011904405E+02  0.51100000000E-03 0.  1.
        -12    1    3    3    0    0  0.41102081321E+02 -0.88050648461E+01  0.11144071611E+02  0.43486786360E+02  0.00000000000E+00 0.  1.
</event>
<event>
 7    1  0.2682188E-015  0.9000777E+02  0.7816164E-02  0.1186339E+00
        -11   -1    0    0    0    0  0.00000000000E+00  0.00000000000E+00  0.45593999997E+02  0.45594000000E+02  0.51100000000E-03 0.  1.
         11   -1    0    0    0    0 -0.00000000000E+00 -0.00000000000E+00 -0.45593999997E+02  0.45594000000E+02  0.51100000000E-03 0. -1.
    9900012    2    1    2    0    0  0.66434770790E+00  0.86719636667E-01  0.97163000956E+00  0.90007769917E+02  0.90000031680E+02 0.  0.
         12    1    1    2    0    0 -0.66434770790E+00 -0.86719636667E-01 -0.97163000956E+00  0.11802300826E+01  0.00000000000E+00 0. -1.
         11    1    3    3    0    0  0.60057183042E+01  0.38999992762E+02 -0.61357555447E+01  0.39933890171E+02  0.51100000000E-03 0. -1.
        -11    1    3    3    0    0  0.46255857534E+00 -0.73394303481E+00 -0.84102286584E+01  0.84548553602E+01  0.51100000000E-03 0.  1.
        -12    1    3    3    0    0 -0.58039291717E+01 -0.38179330091E+02  0.15517614213E+02  0.41619024386E+02  0.00000000000E+00 0.  1.
</event>
<event>
 7    1  0.2682188E-015  0.9000782E+02  0.7816164E-02  0.1186339E+00
        -11   -1    0    0    0    0  0.00000000000E+00  0.00000000000E+00  0.45593999997E+02  0.45594000000E+02  0.51100000000E-03 0. -1.
         11   -1    0    0    0    0 -0.00000000000E+00 -0.00000000000E+00 -0.45593999997E+02  0.45594000000E+02  0.51100000000E-03 0.  1.
    9900012    2    1    2    0    0  0.76753649539E-01  0.88325032385E+00 -0.77897036352E+00  0.90007823282E+02  0.90000085750E+02 0.  0.
         12    1    1    2    0    0 -0.76753649539E-01 -0.88325032385E+00  0.77897036352E+00  0.11801767175E+01  0.00000000000E+00 0. -1.
         11    1    3    3    0    0 -0.49783694081E+01  0.51008306296E+01 -0.42057730080E+01  0.82759387342E+01  0.51100000000E-03 0. -1.
        -11    1    3    3    0    0 -0.24965526718E+02  0.26206425561E+02 -0.88518942814E+01  0.37261378096E+02  0.51100000000E-03 0.  1.
         12    1    3    3    0    0  0.30020649775E+02 -0.30424005867E+02  0.12278696926E+02  0.44470506452E+02  0.00000000000E+00 0. -1.
</event>
<event>
 7    1  0.2682188E-015  0.9000783E+02  0.7816164E-02  0.1186339E+00
        -11   -1    0    0    0    0  0.00000000000E+00  0.00000000000E+00  0.45593999997E+02  0.45594000000E+02  0.51100000000E-03 0.  1.
         11   -1    0    0    0    0 -0.00000000000E+00 -0.00000000000E+00 -0.45593999997E+02  0.45594000000E+02  0.51100000000E-03 0. -1.
    9900012    2    1    2    0    0 -0.74056195162E+00 -0.15720138003E-01 -0.91876455853E+00  0.90007827368E+02  0.90000089889E+02 0.  0.
         12    1    1    2    0    0  0.74056195162E+00  0.15720138003E-01  0.91876455853E+00  0.11801726318E+01  0.00000000000E+00 0. -1.
         11    1    3    3    0    0 -0.25318737685E+01  0.59804593640E+01 -0.72055222384E+01  0.97003005094E+01  0.51100000000E-03 0. -1.
        -11    1    3    3    0    0 -0.17205924064E+02 -0.36108880874E+02 -0.98858488989E+01  0.41202246415E+02  0.51100000000E-03 0.  1.
         12    1    3    3    0    0  0.18997235881E+02  0.30112701372E+02  0.16172606579E+02  0.39105280444E+02  0.00000000000E+00 0. -1.
</event>
<event>
 7    1  0.2682188E-015  0.9000780E+02  0.7816164E-02  0.1186339E+00
        -11   -1    0    0    0    0  0.00000000000E+00  0.00000000000E+00  0.45593999997E+02  0.45594000000E+02  0.51100000000E-03 0.  1.
         11   -1    0    0    0    0 -0.00000000000E+00 -0.00000000000E+00 -0.45593999997E+02  0.45594000000E+02  0.51100000000E-03 0. -1.
    9900012    2    1    2    0    0  0.97929932123E+00  0.35146878320E+00 -0.55706683567E+00  0.90007796236E+02  0.90000058346E+02 0.  0.
         12    1    1    2    0    0 -0.97929932123E+00 -0.35146878320E+00  0.55706683567E+00  0.11802037644E+01  0.00000000000E+00 0. -1.
         11    1    3    3    0    0  0.25868890477E+02 -0.27358447163E+02 -0.11534440908E+02  0.39379276949E+02  0.51100000000E-03 0. -1.
        -11    1    3    3    0    0  0.25644247188E+01  0.49421327338E+01 -0.83697831396E+01  0.10052572813E+02  0.51100000000E-03 0.  1.
        -12    1    3    3    0    0 -0.27454015875E+02  0.22767783212E+02  0.19347157212E+02  0.40575946474E+02  0.00000000000E+00 0.  1.
</event>
<event>
 7    1  0.2682188E-015  0.9000781E+02  0.7816164E-02  0.1186339E+00
        -11   -1    0    0    0    0  0.00000000000E+00  0.00000000000E+00  0.45593999997E+02  0.45594000000E+02  0.51100000000E-03 0. -1.
         11   -1    0    0    0    0 -0.00000000000E+00 -0.00000000000E+00 -0.45593999997E+02  0.45594000000E+02  0.51100000000E-03 0.  1.
    9900012    2    1    2    0    0  0.60577909095E-01  0.11782221927E+01 -0.31139581267E-01  0.90007810654E+02  0.90000072955E+02 0.  0.
         12    1    1    2    0    0 -0.60577909095E-01 -0.11782221927E+01  0.31139581267E-01  0.11801893458E+01  0.00000000000E+00 0. -1.
         11    1    3    3    0    0  0.24202032165E+00 -0.61234305233E+01  0.10791733938E+02  0.12410338305E+02  0.51100000000E-03 0. -1.
        -11    1    3    3    0    0 -0.24272988907E+02 -0.14913780137E+01 -0.34822335924E+02  0.42473489123E+02  0.51100000000E-03 0.  1.
         12    1    3    3    0    0  0.24091546495E+02  0.87930307296E+01  0.23999462405E+02  0.35123983226E+02  0.00000000000E+00 0. -1.
</event>
<event>
 7    1  0.2682188E-015  0.9000773E+02  0.7816164E-02  0.1186339E+00
        -11   -1    0    0    0    0  0.00000000000E+00  0.00000000000E+00  0.45593999997E+02  0.45594000000E+02  0.51100000000E-03 0.  1.
         11   -1    0    0    0    0 -0.00000000000E+00 -0.00000000000E+00 -0.45593999997E+02  0.45594000000E+02  0.51100000000E-03 0. -1.
    9900012    2    1    2    0    0 -0.55759030708E+00  0.38918180668E-01  0.10395322596E+01  0.90007725077E+02  0.89999986248E+02 0.  0.
         12    1    1    2    0    0  0.55759030708E+00 -0.38918180668E-01 -0.10395322596E+01  0.11802749231E+01  0.00000000000E+00 0. -1.
         11    1    3    3    0    0  0.23100568049E+02 -0.30549028053E+02  0.36448325851E+01  0.38472901684E+02  0.51100000000E-03 0. -1.
        -11    1    3    3    0    0 -0.11276020550E+01 -0.59402028849E+01 -0.59551773005E+01  0.84865560535E+01  0.51100000000E-03 0.  1.
        -12    1    3    3    0    0 -0.22530556301E+02  0.36528149118E+02  0.33498769750E+01  0.43048267340E+02  0.00000000000E+00 0.  1.
</event>
<event>
 7    1  0.2682188E-015  0.9000781E+02  0.7816164E-02  0.1186339E+00
        -11   -1    0    0    0    0  0.00000000000E+00  0.00000000000E+00  0.45593999997E+02  0.45594000000E+02  0.51100000000E-03 0.  1.
         11   -1    0    0    0    0 -0.00000000000E+00 -0.00000000000E+00 -0.45593999997E+02  0.45594000000E+02  0.51100000000E-03 0. -1.
    9900012    2    1    2    0    0  0.93184377749E+00 -0.37201464771E+00  0.62138519519E+00  0.90007810488E+02  0.90000072786E+02 0.  0.
         12    1    1    2    0    0 -0.93184377749E+00  0.37201464771E+00 -0.62138519519E+00  0.11801895121E+01  0.00000000000E+00 0. -1.
         11    1    3    3    0    0  0.92446941374E+01  0.63356923637E+00 -0.34347778360E+01  0.98824834285E+01  0.51100000000E-03 0. -1.
        -11    1    3    3    0    0  0.31239715520E+02  0.18103950721E+01  0.20272353038E+02  0.37284925293E+02  0.51100000000E-03 0.  1.
         12    1    3    3    0    0 -0.39552565880E+02 -0.28159789562E+01 -0.16216190007E+02  0.42840401767E+02  0.00000000000E+00 0. -1.
</event>
<event>
 7    1  0.2682188E-015  0.9000775E+02  0.7816164E-02  0.1186339E+00
        -11   -1    0    0    0    0  0.00000000000E+00  0.00000000000E+00  0.45593999997E+02  0.45594000000E+02  0.51100000000E-03 0.  1.
         11   -1    0    0    0    0 -0.00000000000E+00 -0.00000000000E+00 -0.45593999997E+02  0.45594000000E+02  0.51100000000E-03 0. -1.
    9900012    2    1    2    0    0  0.54377107516E+00  0.80720813718E+00  0.66761517401E+00  0.90007753424E+02  0.90000014969E+02 0.  0.
         12    1    1    2    0    0 -0.54377107516E+00 -0.80720813718E+00 -0.66761517401E+00  0.11802465757E+01  0.00000000000E+00 0. -1.
         11    1    3    3    0    0 -0.41071189953E+01 -0.70243181569E+00  0.80171177248E+01  0.90352650084E+01  0.51100000000E-03 0. -1.
        -11    1    3    3    0    0 -0.32928265371E+02  0.47150967832E+01 -0.22679959334E+02  0.40260195649E+02  0.51100000000E-03 0.  1.
         12    1    3    3    0    0  0.37579155441E+02 -0.32054568303E+01  0.15330456783E+02  0.40712292767E+02  0.00000000000E+00 0. -1.
</event>
<event>
 7    1  0.2682188E-015  0.9000770E+02  0.7816164E-02  0.1186339E+00
        -11   -1    0    0    0    0  0.00000000000E+00  0.00000000000E+00  0.45593999997E+02  0.45594000000E+02  0.51100000000E-03 0.  1.
         11   -1    0    0    0    0 -0.00000000000E+00 -0.00000000000E+00 -0.45593999997E+02  0.45594000000E+02  0.51100000000E-03 0. -1.
    9900012    2    1    2    0    0  0.29601257325E+00  0.28212781005E+00  0.11071942041E+01  0.90007704041E+02  0.89999964935E+02 0.  0.
         12    1    1    2    0    0 -0.29601257325E+00 -0.28212781005E+00 -0.11071942041E+01  0.11802959588E+01  0.00000000000E+00 0. -1.
         11    1    3    3    0    0  0.78711219199E+01  0.25850075335E+01  0.28860882532E+01  0.87730456452E+01  0.51100000000E-03 0. -1.
        -11    1    3    3    0    0  0.22420786581E+02 -0.20410967548E+02 -0.24918181624E+02  0.39245573545E+02  0.51100000000E-03 0.  1.
         12    1    3    3    0    0 -0.29995895927E+02  0.18108087825E+02  0.23139287575E+02  0.41989084851E+02  0.00000000000E+00 0. -1.
</event>
<event>
 7    1  0.2682188E-015  0.9000751E+02  0.7816164E-02  0.1186340E+00
        -11   -1    0    0    0    0  0.00000000000E+00  0.00000000000E+00  0.45593999997E+02  0.45594000000E+02  0.51100000000E-03 0. -1.
         11   -1    0    0    0    0 -0.00000000000E+00 -0.00000000000E+00 -0.45593999997E+02  0.45594000000E+02  0.51100000000E-03 0.  1.
    9900012    2    1    2    0    0  0.16862411340E+00  0.78452164437E+00 -0.86582353529E+00  0.90007509129E+02  0.89999767449E+02 0.  0.
         12    1    1    2    0    0 -0.16862411340E+00 -0.78452164437E+00  0.86582353529E+00  0.11804908709E+01  0.00000000000E+00 0. -1.
         11    1    3    3    0    0 -0.13595037380E+02 -0.24485477549E+02  0.23053708967E+02  0.36274469666E+02  0.51100000000E-03 0. -1.
        -11    1    3    3    0    0 -0.69088817118E+01  0.10050976707E+02  0.65881345112E+01  0.13862117294E+02  0.51100000000E-03 0.  1.
        -12    1    3    3    0    0  0.20672543205E+02  0.15219022487E+02 -0.30507667013E+02  0.39870922169E+02  0.00000000000E+00 0.  1.
</event>
<event>
 7    1  0.2682188E-015  0.9000772E+02  0.7816164E-02  0.1186339E+00
        -11   -1    0    0    0    0  0.00000000000E+00  0.00000000000E+00  0.45593999997E+02  0.45594000000E+02  0.51100000000E-03 0. -1.
         11   -1    0    0    0    0 -0.00000000000E+00 -0.00000000000E+00 -0.45593999997E+02  0.45594000000E+02  0.51100000000E-03 0.  1.
    9900012    2    1    2    0    0  0.11127443918E+01  0.14328648647E+00 -0.36649912545E+00  0.90007723461E+02  0.89999984611E+02 0.  0.
         12    1    1    2    0    0 -0.11127443918E+01 -0.14328648647E+00  0.36649912545E+00  0.11802765386E+01  0.00000000000E+00 0. -1.
         11    1    3    3    0    0 -0.55114226803E+01 -0.25558126979E+01 -0.78810102457E+01  0.99507929966E+01  0.51100000000E-03 0. -1.
        -11    1    3    3    0    0 -0.26885587833E+02  0.14320366177E+02 -0.18886904336E+02  0.35841636070E+02  0.51100000000E-03 0.  1.
         12    1    3    3    0    0  0.33509754905E+02 -0.11621266993E+02  0.26401415456E+02  0.44215294394E+02  0.00000000000E+00 0. -1.
</event>
<event>
 7    1  0.2682188E-015  0.9000790E+02  0.7816164E-02  0.1186339E+00
        -11   -1    0    0    0    0  0.00000000000E+00  0.00000000000E+00  0.45593999997E+02  0.45594000000E+02  0.51100000000E-03 0.  1.
         11   -1    0    0    0    0 -0.00000000000E+00 -0.00000000000E+00 -0.45593999997E+02  0.45594000000E+02  0.51100000000E-03 0. -1.
    9900012    2    1    2    0    0 -0.28390196027E+00 -0.87347146041E+00 -0.74100102140E+00  0.90007900331E+02  0.90000163815E+02 0.  0.
         12    1    1    2    0    0  0.28390196027E+00  0.87347146041E+00  0.74100102140E+00  0.11800996691E+01  0.00000000000E+00 0. -1.
         11    1    3    3    0    0 -0.23187569699E+01 -0.51326188373E+01  0.84636659359E+01  0.10166319459E+02  0.51100000000E-03 0. -1.
        -11    1    3    3    0    0  0.20025902105E+02 -0.28900205627E+02  0.11264257081E+02  0.36920754709E+02  0.51100000000E-03 0.  1.
         12    1    3    3    0    0 -0.17991047095E+02  0.33159353004E+02 -0.20468924038E+02  0.42920826163E+02  0.00000000000E+00 0. -1.
</event>
<event>
 7    1  0.2682188E-015  0.9000778E+02  0.7816164E-02  0.1186339E+00
        -11   -1    0    0    0    0  0.00000000000E+00  0.00000000000E+00  0.45593999997E+02  0.45594000000E+02  0.51100000000E-03 0. -1.
         11   -1    0    0    0    0 -0.00000000000E+00 -0.00000000000E+00 -0.45593999997E+02  0.45594000000E+02  0.51100000000E-03 0.  1.
    9900012    2    1    2    0    0  0.60754674611E+00  0.31038694997E-01 -0.10113584401E+01  0.90007778689E+02  0.90000040567E+02 0.  0.
         12    1    1    2    0    0 -0.60754674611E+00 -0.31038694997E-01  0.10113584401E+01  0.11802213113E+01  0.00000000000E+00 0. -1.
         11    1    3    3    0    0  0.24049516704E+02  0.26411889261E+02  0.43031061655E+01  0.35978936490E+02  0.51100000000E-03 0. -1.
        -11    1    3    3    0    0  0.70835877371E+01  0.58028732718E+01 -0.29011552999E+01  0.96055846138E+01  0.51100000000E-03 0.  1.
        -12    1    3    3    0    0 -0.30525557695E+02 -0.32183723838E+02 -0.24133093058E+01  0.44423257585E+02  0.00000000000E+00 0.  1.
</event>
<event>
 7    1  0.2682188E-015  0.9000769E+02  0.7816164E-02  0.1186339E+00
        -11   -1    0    0    0    0  0.00000000000E+00  0.00000000000E+00  0.45593999997E+02  0.45594000000E+02  0.51100000000E-03 0. -1.
         11   -1    0    0    0    0 -0.00000000000E+00 -0.00000000000E+00 -0.45593999997E+02  0.45594000000E+02  0.51100000000E-03 0.  1.
    9900012    2    1    2    0    0 -0.68923824869E+00 -0.77797027382E+00 -0.55933475281E+00  0.90007685433E+02  0.89999946081E+02 0.  0.
         12    1    1    2    0    0  0.68923824869E+00  0.77797027382E+00  0.55933475281E+00  0.11803145666E+01  0.00000000000E+00 0. -1.
         11    1    3    3    0    0 -0.19679416169E+02 -0.33222983238E+02  0.28122869380E+01  0.38716340143E+02  0.51100000000E-03 0. -1.
        -11    1    3    3    0    0  0.40615086364E+01 -0.29898071297E+01  0.94894113982E+01  0.10746335562E+02  0.51100000000E-03 0.  1.
        -12    1    3    3    0    0  0.14928669284E+02  0.35434820094E+02 -0.12861033089E+02  0.40545009728E+02  0.00000000000E+00 0.  1.
</event>
<event>
 7    1  0.2682188E-015  0.9000775E+02  0.7816164E-02  0.1186339E+00
        -11   -1    0    0    0    0  0.00000000000E+00  0.00000000000E+00  0.45593999997E+02  0.45594000000E+02  0.51100000000E-03 0.  1.
         11   -1    0    0    0    0 -0.00000000000E+00 -0.00000000000E+00 -0.45593999997E+02  0.45594000000E+02  0.51100000000E-03 0. -1.
    9900012    2    1    2    0    0  0.11200911517E-01  0.26581753655E+00  0.11498737812E+01  0.90007748274E+02  0.90000009752E+02 0.  0.
         12    1    1    2    0    0 -0.11200911517E-01 -0.26581753655E+00 -0.11498737812E+01  0.11802517256E+01  0.00000000000E+00 0. -1.
         11    1    3    3    0    0  0.72679133800E+01  0.78049945138E+01  0.51915229090E+01  0.11861383336E+02  0.51100000000E-03 0. -1.
        -11    1    3    3    0    0  0.10458580792E+02  0.32558175873E+02 -0.23485799699E+01  0.34277289224E+02  0.51100000000E-03 0.  1.
         12    1    3    3    0    0 -0.17715293261E+02 -0.40097352851E+02 -0.16930691579E+01  0.43869075715E+02  0.00000000000E+00 0. -1.
</event>
<event>
 7    1  0.2682188E-015  0.9000739E+02  0.7816164E-02  0.1186340E+00
        -11   -1    0    0    0    0  0.00000000000E+00  0.00000000000E+00  0.45593999997E+02  0.45594000000E+02  0.51100000000E-03 0. -1.
         11   -1    0    0    0    0 -0.00000000000E+00 -0.00000000000E+00 -0.45593999997E+02  0.45594000000E+02  0.51100000000E-03 0.  1.
    9900012    2    1    2    0    0  0.57396070806E+00  0.21567269578E+00 -0.10089120273E+01  0.90007386141E+02  0.89999642837E+02 0.  0.
         12    1    1    2    0    0 -0.57396070806E+00 -0.21567269578E+00  0.10089120273E+01  0.11806138594E+01  0.00000000000E+00 0. -1.
         11    1    3    3    0    0 -0.36539832280E+02  0.18251963199E+02  0.13004516245E+02  0.42865031748E+02  0.51100000000E-03 0. -1.
        -11    1    3    3    0    0  0.16857535446E+01 -0.63374371638E+01 -0.61972286469E+01  0.90227777309E+01  0.51100000000E-03 0.  1.
        -12    1    3    3    0    0  0.35428039444E+02 -0.11698853340E+02 -0.78161996258E+01  0.38119576662E+02  0.00000000000E+00 0.  1.
</event>
<event>
 7    1  0.2682188E-015  0.9000765E+02  0.7816164E-02  0.1186339E+00
        -11   -1    0    0    0    0  0.00000000000E+00  0.00000000000E+00  0.45593999997E+02  0.45594000000E+02  0.51100000000E-03 0.  1.
         11   -1    0    0    0    0 -0.00000000000E+00 -0.00000000000E+00 -0.45593999997E+02  0.45594000000E+02  0.51100000000E-03 0. -1.
    9900012    2    1    2    0    0 -0.75766321180E+00  0.60957921339E+00  0.66902024495E+00  0.90007649015E+02  0.89999909182E+02 0.  0.
         12    1    1    2    0    0  0.75766321180E+00 -0.60957921339E+00 -0.66902024495E+00  0.11803509851E+01  0.00000000000E+00 0. -1.
         11    1    3    3    0    0 -0.12444627026E+02 -0.41486500717E+01 -0.22385392225E+01  0.13307557904E+02  0.51100000000E-03 0. -1.
        -11    1    3    3    0    0 -0.27898999176E+02 -0.12962431938E+02  0.10824574210E+02  0.32612117439E+02  0.51100000000E-03 0.  1.
         12    1    3    3    0    0  0.39585962991E+02  0.17720661223E+02 -0.79170147424E+01  0.44087973672E+02  0.00000000000E+00 0. -1.
</event>
<event>
 7    1  0.2682188E-015  0.9000768E+02  0.7816164E-02  0.1186339E+00
        -11   -1    0    0    0    0  0.00000000000E+00  0.00000000000E+00  0.45593999997E+02  0.45594000000E+02  0.51100000000E-03 0. -1.
         11   -1    0    0    0    0 -0.00000000000E+00 -0.00000000000E+00 -0.45593999997E+02  0.45594000000E+02  0.51100000000E-03 0.  1.
    9900012    2    1    2    0    0  0.22192482033E+00  0.10178955919E+01 -0.55479587450E+00  0.90007677788E+02  0.89999938335E+02 0.  0.
         12    1    1    2    0    0 -0.22192482033E+00 -0.10178955919E+01  0.55479587450E+00  0.11803222120E+01  0.00000000000E+00 0. -1.
         11    1    3    3    0    0  0.25026602934E+02 -0.26690581411E+02 -0.57537219730E+01  0.37038133150E+02  0.51100000000E-03 0. -1.
        -11    1    3    3    0    0 -0.63885620060E+00 -0.88526164373E+01  0.13056338830E+01  0.89711557298E+01  0.51100000000E-03 0.  1.
        -12    1    3    3    0    0 -0.24165821913E+02  0.36561093440E+02  0.38932922155E+01  0.43998388908E+02  0.00000000000E+00 0.  1.
</event>
<event>
 7    1  0.2682188E-015  0.9000772E+02  0.7816164E-02  0.1186339E+00
        -11   -1    0    0    0    0  0.00000000000E+00  0.00000000000E+00  0.45593999997E+02  0.45594000000E+02  0.51100000000E-03 0. -1.
         11   -1    0    0    0    0 -0.00000000000E+00 -0.00000000000E+00 -0.45593999997E+02  0.45594000000E+02  0.51100000000E-03 0.  1.
    9900012    2    1    2    0    0 -0.11213528796E+00  0.74491603992E+00 -0.90861373291E+00  0.90007723276E+02  0.89999984423E+02 0.  0.
         12    1    1    2    0    0  0.11213528796E+00 -0.74491603992E+00  0.90861373291E+00  0.11802767239E+01  0.00000000000E+00 0. -1.
         11    1    3    3    0    0  0.87290546522E+01 -0.21418796409E+02  0.27142103936E+02  0.35660272588E+02  0.51100000000E-03 0. -1.
        -11    1    3    3    0    0 -0.87958398796E+01 -0.97130624097E+01 -0.21594522621E+01  0.13280572838E+02  0.51100000000E-03 0.  1.
        -12    1    3    3    0    0 -0.45350060508E-01  0.31876774859E+02 -0.25891265407E+02  0.41066877850E+02  0.00000000000E+00 0.  1.
</event>
<event>
 7    1  0.2682188E-015  0.9000771E+02  0.7816164E-02  0.1186339E+00
        -11   -1    0    0    0    0  0.00000000000E+00  0.00000000000E+00  0.45593999997E+02  0.45594000000E+02  0.51100000000E-03 0.  1.
         11   -1    0    0    0    0 -0.00000000000E+00 -0.00000000000E+00 -0.45593999997E+02  0.45594000000E+02  0.51100000000E-03 0. -1.
    9900012    2    1    2    0    0 -0.89728143751E+00 -0.40328449417E+00  0.65217463897E+00  0.90007710154E+02  0.89999971128E+02 0.  0.
         12    1    1    2    0    0  0.89728143751E+00  0.40328449417E+00 -0.65217463897E+00  0.11802898462E+01  0.00000000000E+00 0. -1.
         11    1    3    3    0    0 -0.21693599739E+02 -0.26103327838E+02 -0.13414984181E+02  0.36495996968E+02  0.51100000000E-03 0. -1.
        -11    1    3    3    0    0 -0.76989923977E+01 -0.52327407980E+00 -0.61122469994E+01  0.98441791606E+01  0.51100000000E-03 0.  1.
        -12    1    3    3    0    0  0.28495310700E+02  0.26223317424E+02  0.20179405819E+02  0.43667534025E+02  0.00000000000E+00 0.  1.
</event>
<event>
 7    1  0.2682188E-015  0.9000775E+02  0.7816164E-02  0.1186339E+00
        -11   -1    0    0    0    0  0.00000000000E+00  0.00000000000E+00  0.45593999997E+02  0.45594000000E+02  0.51100000000E-03 0.  1.
         11   -1    0    0    0    0 -0.00000000000E+00 -0.00000000000E+00 -0.45593999997E+02  0.45594000000E+02  0.51100000000E-03 0. -1.
    9900012    2    1    2    0    0  0.93055656409E+00 -0.42034410732E+00  0.59191504528E+00  0.90007750828E+02  0.90000012339E+02 0.  0.
         12    1    1    2    0    0 -0.93055656409E+00  0.42034410732E+00 -0.59191504528E+00  0.11802491722E+01  0.00000000000E+00 0. -1.
         11    1    3    3    0    0 -0.50695914764E+01 -0.66107590910E+01 -0.58390604059E+01  0.10173373098E+02  0.51100000000E-03 0. -1.
        -11    1    3    3    0    0  0.26053533378E+02 -0.28263536562E+02  0.10261500031E+02  0.39785832699E+02  0.51100000000E-03 0.  1.
         12    1    3    3    0    0 -0.20053385337E+02  0.34453951545E+02 -0.38305245798E+01  0.40048545031E+02  0.00000000000E+00 0. -1.
</event>
<event>
 7    1  0.2682188E-015  0.9000778E+02  0.7816164E-02  0.1186339E+00
        -11   -1    0    0    0    0  0.00000000000E+00  0.00000000000E+00  0.45593999997E+02  0.45594000000E+02  0.51100000000E-03 0. -1.
         11   -1    0    0    0    0 -0.00000000000E+00 -0.00000000000E+00 -0.45593999997E+02  0.45594000000E+02  0.51100000000E-03 0.  1.
    9900012    2    1    2    0    0 -0.10426954830E+00 -0.79111054507E+00 -0.86959931323E+00  0.90007775022E+02  0.90000036852E+02 0.  0.
         12    1    1    2    0    0  0.10426954830E+00  0.79111054507E+00  0.86959931323E+00  0.11802249780E+01  0.00000000000E+00 0. -1.
         11    1    3    3    0    0 -0.25786874086E+01 -0.58385031154E+01  0.36316759404E+01  0.73434881206E+01  0.51100000000E-03 0. -1.
        -11    1    3    3    0    0 -0.20571959595E+01 -0.37138018789E+02 -0.12984862986E+02  0.39396334371E+02  0.51100000000E-03 0.  1.
         12    1    3    3    0    0  0.45316138198E+01  0.42185411360E+02  0.84835877325E+01  0.43267952531E+02  0.00000000000E+00 0. -1.
</event>
<event>
 7    1  0.2682188E-015  0.9000779E+02  0.7816164E-02  0.1186339E+00
        -11   -1    0    0    0    0  0.00000000000E+00  0.00000000000E+00  0.45593999997E+02  0.45594000000E+02  0.51100000000E-03 0. -1.
         11   -1    0    0    0    0 -0.00000000000E+00 -0.00000000000E+00 -0.45593999997E+02  0.45594000000E+02  0.51100000000E-03 0.  1.
    9900012    2    1    2    0    0 -0.90118708128E+00  0.12316468708E+00  0.75205275491E+00  0.90007791950E+02  0.90000054004E+02 0.  0.
         12    1    1    2    0    0  0.90118708128E+00 -0.12316468708E+00 -0.75205275491E+00  0.11802080502E+01  0.00000000000E+00 0. -1.
         11    1    3    3    0    0  0.17863607997E+02 -0.35512214138E+02 -0.12228646646E+02  0.41590451341E+02  0.51100000000E-03 0. -1.
        -11    1    3    3    0    0 -0.10021440972E+01  0.78017142837E+01 -0.63916770384E+01  0.10135313226E+02  0.51100000000E-03 0.  1.
        -12    1    3    3    0    0 -0.17762650982E+02  0.27833664542E+02  0.19372376439E+02  0.38282027384E+02  0.00000000000E+00 0.  1.
</event>
<event>
 7    1  0.2682188E-015  0.9000775E+02  0.7816164E-02  0.1186339E+00
        -11   -1    0    0    0    0  0.00000000000E+00  0.00000000000E+00  0.45593999997E+02  0.45594000000E+02  0.51100000000E-03 0.  1.
         11   -1    0    0    0    0 -0.00000000000E+00 -0.00000000000E+00 -0.45593999997E+02  0.45594000000E+02  0.51100000000E-03 0. -1.
    9900012    2    1    2    0    0  0.33338416856E+00 -0.92420402677E+00  0.65398006589E+00  0.90007750868E+02  0.90000012379E+02 0.  0.
         12    1    1    2    0    0 -0.33338416856E+00  0.92420402677E+00 -0.65398006589E+00  0.11802491320E+01  0.00000000000E+00 0. -1.
         11    1    3    3    0    0 -0.61353737328E+01 -0.77635452022E+01 -0.19009818667E+01  0.10076168779E+02  0.51100000000E-03 0. -1.
        -11    1    3    3    0    0  0.29274520166E+02  0.72168195438E+01  0.31151264253E+02  0.43352984674E+02  0.51100000000E-03 0.  1.
         12    1    3    3    0    0 -0.22805762265E+02 -0.37747836829E+00 -0.28596302321E+02  0.36578597415E+02  0.00000000000E+00 0. -1.
</event>
<event>
 7    1  0.2682188E-015  0.9000775E+02  0.7816164E-02  0.1186339E+00
        -11   -1    0    0    0    0  0.00000000000E+00  0.00000000000E+00  0.45593999997E+02  0.45594000000E+02  0.51100000000E-03 0.  1.
         11   -1    0    0    0    0 -0.00000000000E+00 -0.00000000000E+00 -0.45593999997E+02  0.45594000000E+02  0.51100000000E-03 0. -1.
    9900012    2    1    2    0    0  0.57717561908E+00 -0.17253869288E+00  0.10149324768E+01  0.90007750353E+02  0.90000011858E+02 0.  0.
         12    1    1    2    0    0 -0.57717561908E+00  0.17253869288E+00 -0.10149324768E+01  0.11802496466E+01  0.00000000000E+00 0. -1.
         11    1    3    3    0    0  0.53161309318E+01  0.12243966889E+01  0.88338603259E+01  0.10382556711E+02  0.51100000000E-03 0. -1.
        -11    1    3    3    0    0  0.31364054149E+02  0.44325342247E+01  0.16491430290E+02  0.35711602114E+02  0.51100000000E-03 0.  1.
         12    1    3    3    0    0 -0.36103009462E+02 -0.58294696065E+01 -0.24310358139E+02  0.43913591528E+02  0.00000000000E+00 0. -1.
</event>
<event>
 7    1  0.2682188E-015  0.9000775E+02  0.7816164E-02  0.1186339E+00
        -11   -1    0    0    0    0  0.00000000000E+00  0.00000000000E+00  0.45593999997E+02  0.45594000000E+02  0.51100000000E-03 0. -1.
         11   -1    0    0    0    0 -0.00000000000E+00 -0.00000000000E+00 -0.45593999997E+02  0.45594000000E+02  0.51100000000E-03 0.  1.
    9900012    2    1    2    0    0 -0.20869178080E+00 -0.72646308515E+00 -0.90646931708E+00  0.90007751087E+02  0.90000012602E+02 0.  0.
         12    1    1    2    0    0  0.20869178080E+00  0.72646308515E+00  0.90646931708E+00  0.11802489128E+01  0.00000000000E+00 0. -1.
         11    1    3    3    0    0  0.19740396346E+02  0.13570911828E+02 -0.31628211731E+02  0.39676147411E+02  0.51100000000E-03 0. -1.
        -11    1    3    3    0    0  0.61150162855E+01  0.46148354479E+01  0.56159683491E+01  0.94989068393E+01  0.51100000000E-03 0.  1.
        -12    1    3    3    0    0 -0.26064104413E+02 -0.18912210361E+02  0.25105774065E+02  0.40832696837E+02  0.00000000000E+00 0.  1.
</event>
<event>
 7    1  0.2682188E-015  0.9000779E+02  0.7816164E-02  0.1186339E+00
        -11   -1    0    0    0    0  0.00000000000E+00  0.00000000000E+00  0.45593999997E+02  0.45594000000E+02  0.51100000000E-03 0. -1.
         11   -1    0    0    0    0 -0.00000000000E+00 -0.00000000000E+00 -0.45593999997E+02  0.45594000000E+02  0.51100000000E-03 0.  1.
    9900012    2    1    2    0    0  0.89254094781E+00  0.77217051535E+00 -0.39056200735E-02  0.90007791585E+02  0.90000053634E+02 0.  0.
         12    1    1    2    0    0 -0.89254094781E+00 -0.77217051535E+00  0.39056200735E-02  0.11802084147E+01  0.00000000000E+00 0. -1.
         11    1    3    3    0    0  0.49216176226E+01  0.84293070179E+01 -0.27958129220E+01  0.10153428336E+02  0.51100000000E-03 0. -1.
        -11    1    3    3    0    0  0.12444998812E+01  0.26528782747E+02  0.26814574127E+02  0.37740515098E+02  0.51100000000E-03 0.  1.
         12    1    3    3    0    0 -0.52735765560E+01 -0.34185919250E+02 -0.24022666825E+02  0.42113848151E+02  0.00000000000E+00 0. -1.
</event>
<event>
 7    1  0.2682188E-015  0.9000770E+02  0.7816164E-02  0.1186339E+00
        -11   -1    0    0    0    0  0.00000000000E+00  0.00000000000E+00  0.45593999997E+02  0.45594000000E+02  0.51100000000E-03 0. -1.
         11   -1    0    0    0    0 -0.00000000000E+00 -0.00000000000E+00 -0.45593999997E+02  0.45594000000E+02  0.51100000000E-03 0.  1.
    9900012    2    1    2    0    0  0.77247245115E+00 -0.86295019482E+00 -0.22738335054E+00  0.90007703463E+02  0.89999964349E+02 0.  0.
         12    1    1    2    0    0 -0.77247245115E+00  0.86295019482E+00  0.22738335054E+00  0.11802965367E+01  0.00000000000E+00 0. -1.
         11    1    3    3    0    0 -0.11227513619E+02  0.17918613662E+02 -0.28110530924E+02  0.35175783243E+02  0.51100000000E-03 0. -1.
        -11    1    3    3    0    0  0.27135280625E+00 -0.20373789611E+01 -0.10845642140E+02  0.11038681944E+02  0.51100000000E-03 0.  1.
        -12    1    3    3    0    0  0.11728633264E+02 -0.16744184896E+02  0.38728789714E+02  0.43793238276E+02  0.00000000000E+00 0.  1.
</event>
<event>
 7    1  0.2682188E-015  0.9000753E+02  0.7816164E-02  0.1186339E+00
        -11   -1    0    0    0    0  0.00000000000E+00  0.00000000000E+00  0.45593999997E+02  0.45594000000E+02  0.51100000000E-03 0.  1.
         11   -1    0    0    0    0 -0.00000000000E+00 -0.00000000000E+00 -0.45593999997E+02  0.45594000000E+02  0.51100000000E-03 0. -1.
    9900012    2    1    2    0    0 -0.86663859793E+00  0.17201024136E+00  0.78285655032E+00  0.90007527908E+02  0.89999786476E+02 0.  0.
         12    1    1    2    0    0  0.86663859793E+00 -0.17201024136E+00 -0.78285655032E+00  0.11804720924E+01  0.00000000000E+00 0. -1.
         11    1    3    3    0    0 -0.88135814099E+01 -0.34448056008E+01 -0.32031964631E+00  0.94682895939E+01  0.51100000000E-03 0. -1.
        -11    1    3    3    0    0  0.17934718241E+02  0.29758999826E+02  0.25750700099E+02  0.43247551895E+02  0.51100000000E-03 0.  1.
         12    1    3    3    0    0 -0.99877754294E+01 -0.26142183984E+02 -0.24647523902E+02  0.37291686419E+02  0.00000000000E+00 0. -1.
</event>
<event>
 7    1  0.2682188E-015  0.9000773E+02  0.7816164E-02  0.1186339E+00
        -11   -1    0    0    0    0  0.00000000000E+00  0.00000000000E+00  0.45593999997E+02  0.45594000000E+02  0.51100000000E-03 0.  1.
         11   -1    0    0    0    0 -0.00000000000E+00 -0.00000000000E+00 -0.45593999997E+02  0.45594000000E+02  0.51100000000E-03 0. -1.
    9900012    2    1    2    0    0  0.31292064237E+00 -0.53344626655E+00  0.10052568456E+01  0.90007734956E+02  0.89999996258E+02 0.  0.
         12    1    1    2    0    0 -0.31292064237E+00  0.53344626655E+00 -0.10052568456E+01  0.11802650437E+01  0.00000000000E+00 0. -1.
         11    1    3    3    0    0  0.83190098228E+01 -0.24006758416E+01 -0.14959899004E+01  0.87867602091E+01  0.51100000000E-03 0. -1.
        -11    1    3    3    0    0  0.33127994658E+02  0.17071309104E+02  0.27122323020E+01  0.37366426494E+02  0.51100000000E-03 0.  1.
         12    1    3    3    0    0 -0.41134083839E+02 -0.15204079529E+02 -0.21098555599E+00  0.43854548253E+02  0.00000000000E+00 0. -1.
</event>
<event>
 7    1  0.2682188E-015  0.9000746E+02  0.7816164E-02  0.1186340E+00
        -11   -1    0    0    0    0  0.00000000000E+00  0.00000000000E+00  0.45593999997E+02  0.45594000000E+02  0.51100000000E-03 0.  1.
         11   -1    0    0    0    0 -0.00000000000E+00 -0.00000000000E+00 -0.45593999997E+02  0.45594000000E+02  0.51100000000E-03 0. -1.
    9900012    2    1    2    0    0  0.30838806906E+00 -0.52610309478E+00  0.10108341149E+01  0.90007460600E+02  0.89999718279E+02 0.  0.
         12    1    1    2    0    0 -0.30838806906E+00  0.52610309478E+00 -0.10108341149E+01  0.11805394001E+01  0.00000000000E+00 0. -1.
         11    1    3    3    0    0  0.10830529016E+02 -0.26179842279E+01  0.14499516295E+01  0.11236394448E+02  0.51100000000E-03 0. -1.
        -11    1    3    3    0    0 -0.38874705750E+00  0.77053692348E+01  0.37922059801E+02  0.38698920646E+02  0.51100000000E-03 0.  1.
         12    1    3    3    0    0 -0.10133393890E+02 -0.56134881017E+01 -0.38361177316E+02  0.40072145506E+02  0.00000000000E+00 0. -1.
</event>
<event>
 7    1  0.2682188E-015  0.9000778E+02  0.7816164E-02  0.1186339E+00
        -11   -1    0    0    0    0  0.00000000000E+00  0.00000000000E+00  0.45593999997E+02  0.45594000000E+02  0.51100000000E-03 0. -1.
         11   -1    0    0    0    0 -0.00000000000E+00 -0.00000000000E+00 -0.45593999997E+02  0.45594000000E+02  0.51100000000E-03 0.  1.
    9900012    2    1    2    0    0 -0.68969872436E+00 -0.95772920042E+00 -0.97310083049E-03  0.90007775234E+02  0.90000037067E+02 0.  0.
         12    1    1    2    0    0  0.68969872436E+00  0.95772920042E+00  0.97310083049E-03  0.11802247662E+01  0.00000000000E+00 0. -1.
         11    1    3    3    0    0  0.90032353935E+01 -0.72097813594E+01  0.34395536573E+02  0.36277984112E+02  0.51100000000E-03 0. -1.
        -11    1    3    3    0    0  0.89538643160E+01 -0.41736269276E+01  0.32874545248E+01  0.10411445886E+02  0.51100000000E-03 0.  1.
        -12    1    3    3    0    0 -0.18646798434E+02  0.10425679087E+02 -0.37683964199E+02  0.43318345236E+02  0.00000000000E+00 0.  1.
</event>
<event>
 7    1  0.2682188E-015  0.9000750E+02  0.7816164E-02  0.1186340E+00
        -11   -1    0    0    0    0  0.00000000000E+00  0.00000000000E+00  0.45593999997E+02  0.45594000000E+02  0.51100000000E-03 0.  1.
         11   -1    0    0    0    0 -0.00000000000E+00 -0.00000000000E+00 -0.45593999997E+02  0.45594000000E+02  0.51100000000E-03 0. -1.
    9900012    2    1    2    0    0 -0.79899095106E+00  0.76589812458E+00 -0.41060537157E+00  0.90007498730E+02  0.89999756913E+02 0.  0.
         12    1    1    2    0    0  0.79899095106E+00 -0.76589812458E+00  0.41060537157E+00  0.11805012699E+01  0.00000000000E+00 0. -1.
         11    1    3    3    0    0 -0.18708545217E+02  0.67132948304E+00  0.64571875465E+01  0.19802919448E+02  0.51100000000E-03 0. -1.
        -11    1    3    3    0    0  0.17075098771E+02 -0.17682699985E+02  0.24139987244E+02  0.34452516036E+02  0.51100000000E-03 0.  1.
         12    1    3    3    0    0  0.83445549487E+00  0.17777268626E+02 -0.31007780162E+02  0.35752063246E+02  0.00000000000E+00 0. -1.
</event>
<event>
 7    1  0.2682188E-015  0.9000784E+02  0.7816164E-02  0.1186339E+00
        -11   -1    0    0    0    0  0.00000000000E+00  0.00000000000E+00  0.45593999997E+02  0.45594000000E+02  0.51100000000E-03 0.  1.
         11   -1    0    0    0    0 -0.00000000000E+00 -0.00000000000E+00 -0.45593999997E+02  0.45594000000E+02  0.51100000000E-03 0. -1.
    9900012    2    1    2    0    0 -0.64997037886E+00  0.56981867873E+00  0.80349968969E+00  0.90007844683E+02  0.90000107433E+02 0.  0.
         12    1    1    2    0    0  0.64997037886E+00 -0.56981867873E+00 -0.80349968969E+00  0.11801553166E+01  0.00000000000E+00 0. -1.
         11    1    3    3    0    0 -0.12861077116E+02  0.72450367117E+01 -0.32872036115E+02  0.36034270079E+02  0.51100000000E-03 0. -1.
        -11    1    3    3    0    0  0.41856224638E+01  0.19076465571E+01 -0.87853958506E+01  0.99167399537E+01  0.51100000000E-03 0.  1.
        -12    1    3    3    0    0  0.80254842733E+01 -0.85828645900E+01  0.42460931655E+02  0.44056834650E+02  0.00000000000E+00 0.  1.
</event>
<event>
 7    1  0.5714999E-015  0.9000772E+02  0.7816164E-02  0.1186339E+00
        -11   -1    0    0    0    0  0.00000000000E+00  0.00000000000E+00  0.45593999997E+02  0.45594000000E+02  0.51100000000E-03 0.  1.
         11   -1    0    0    0    0 -0.00000000000E+00 -0.00000000000E+00 -0.45593999997E+02  0.45594000000E+02  0.51100000000E-03 0. -1.
    9900012    2    1    2    0    0  0.10695739168E+01 -0.41649241217E+00 -0.27497054819E+00  0.90007719061E+02  0.89999980152E+02 0.  0.
         12    1    1    2    0    0 -0.10695739168E+01  0.41649241217E+00  0.27497054819E+00  0.11802809391E+01  0.00000000000E+00 0. -1.
         11    1    3    3    0    0 -0.90360877636E+01 -0.20240432823E+01 -0.15032955180E+01  0.93812329124E+01  0.51100000000E-03 0. -1.
        -11    1    3    3    0    0  0.10473698003E+02 -0.55129270314E+01  0.39737533054E+02  0.41462781477E+02  0.51100000000E-03 0.  1.
         12    1    3    3    0    0 -0.36803632296E+00  0.71204779014E+01 -0.38509208085E+02  0.39163704671E+02  0.00000000000E+00 0. -1.
</event>
<event>
 7    1  0.2682188E-015  0.9000777E+02  0.7816164E-02  0.1186339E+00
        -11   -1    0    0    0    0  0.00000000000E+00  0.00000000000E+00  0.45593999997E+02  0.45594000000E+02  0.51100000000E-03 0.  1.
         11   -1    0    0    0    0 -0.00000000000E+00 -0.00000000000E+00 -0.45593999997E+02  0.45594000000E+02  0.51100000000E-03 0. -1.
    9900012    2    1    2    0    0 -0.76957972166E-01 -0.87004649993E-01  0.11744958721E+01  0.90007774220E+02  0.90000036040E+02 0.  0.
         12    1    1    2    0    0  0.76957972166E-01  0.87004649993E-01 -0.11744958721E+01  0.11802257801E+01  0.00000000000E+00 0. -1.
         11    1    3    3    0    0  0.87655155906E+00 -0.83700492945E+01  0.12958418147E+01  0.85150028830E+01  0.51100000000E-03 0. -1.
        -11    1    3    3    0    0 -0.11763239818E+02 -0.27540006948E+02  0.22776320145E+02  0.37624281432E+02  0.51100000000E-03 0.  1.
         12    1    3    3    0    0  0.10809730287E+02  0.35823051592E+02 -0.22897666087E+02  0.43868489905E+02  0.00000000000E+00 0. -1.
</event>
<event>
 7    1  0.2741234E-015  0.9000770E+02  0.7816164E-02  0.1186339E+00
        -11   -1    0    0    0    0  0.00000000000E+00  0.00000000000E+00  0.45593999997E+02  0.45594000000E+02  0.51100000000E-03 0. -1.
         11   -1    0    0    0    0 -0.00000000000E+00 -0.00000000000E+00 -0.45593999997E+02  0.45594000000E+02  0.51100000000E-03 0.  1.
    9900012    2    1    2    0    0 -0.20814256855E-01  0.89206943147E+00 -0.77257789102E+00  0.90007704401E+02  0.89999965299E+02 0.  0.
         12    1    1    2    0    0  0.20814256855E-01 -0.89206943147E+00  0.77257789102E+00  0.11802955992E+01  0.00000000000E+00 0. -1.
         11    1    3    3    0    0 -0.26445093378E+01 -0.76409871418E+01 -0.62696676910E+01  0.10231659071E+02  0.51100000000E-03 0. -1.
        -11    1    3    3    0    0 -0.11242435741E+02  0.30742889253E+02 -0.23809221446E+02  0.40477112386E+02  0.51100000000E-03 0.  1.
         12    1    3    3    0    0  0.13866130822E+02 -0.22209832680E+02  0.29306311246E+02  0.39298932943E+02  0.00000000000E+00 0. -1.
</event>
<event>
 7    1  0.2682188E-015  0.9000773E+02  0.7816164E-02  0.1186339E+00
        -11   -1    0    0    0    0  0.00000000000E+00  0.00000000000E+00  0.45593999997E+02  0.45594000000E+02  0.51100000000E-03 0. -1.
         11   -1    0    0    0    0 -0.00000000000E+00 -0.00000000000E+00 -0.45593999997E+02  0.45594000000E+02  0.51100000000E-03 0.  1.
    9900012    2    1    2    0    0  0.37126757593E+00  0.69888749424E+00 -0.87564350541E+00  0.90007731009E+02  0.89999992258E+02 0.  0.
         12    1    1    2    0    0 -0.37126757593E+00 -0.69888749424E+00  0.87564350541E+00  0.11802689910E+01  0.00000000000E+00 0. -1.
         11    1    3    3    0    0 -0.19120512648E+02  0.15781025324E+02  0.25074790509E+02  0.35261592186E+02  0.51100000000E-03 0. -1.
        -11    1    3    3    0    0 -0.11615278842E+02  0.17532296129E+01 -0.17202780679E+01  0.11872146965E+02  0.51100000000E-03 0.  1.
        -12    1    3    3    0    0  0.31107059066E+02 -0.16835367443E+02 -0.24230155946E+02  0.42873991858E+02  0.00000000000E+00 0.  1.
</event>
<event>
 7    1  0.2682188E-015  0.9000774E+02  0.7816164E-02  0.1186339E+00
        -11   -1    0    0    0    0  0.00000000000E+00  0.00000000000E+00  0.45593999997E+02  0.45594000000E+02  0.51100000000E-03 0.  1.
         11   -1    0    0    0    0 -0.00000000000E+00 -0.00000000000E+00 -0.45593999997E+02  0.45594000000E+02  0.51100000000E-03 0. -1.
    9900012    2    1    2    0    0 -0.52864088445E+00 -0.16064105722E+00  0.10429515314E+01  0.90007739592E+02  0.90000000955E+02 0.  0.
         12    1    1    2    0    0  0.52864088445E+00  0.16064105722E+00 -0.10429515314E+01  0.11802604080E+01  0.00000000000E+00 0. -1.
         11    1    3    3    0    0 -0.17367358726E+02 -0.29757488517E+02 -0.88043132979E+01  0.35561906654E+02  0.51100000000E-03 0. -1.
        -11    1    3    3    0    0 -0.88609353551E+01 -0.36794636753E+01 -0.36833817119E+01  0.10277253009E+02  0.51100000000E-03 0.  1.
        -12    1    3    3    0    0  0.25699653196E+02  0.33276311135E+02  0.13530646541E+02  0.44168579930E+02  0.00000000000E+00 0.  1.
</event>
<event>
 7    1  0.2682188E-015  0.9000775E+02  0.7816164E-02  0.1186339E+00
        -11   -1    0    0    0    0  0.00000000000E+00  0.00000000000E+00  0.45593999997E+02  0.45594000000E+02  0.51100000000E-03 0. -1.
         11   -1    0    0    0    0 -0.00000000000E+00 -0.00000000000E+00 -0.45593999997E+02  0.45594000000E+02  0.51100000000E-03 0.  1.
    9900012    2    1    2    0    0 -0.91831039416E+00  0.63554082494E+00  0.38180935411E+00  0.90007752355E+02  0.90000013886E+02 0.  0.
         12    1    1    2    0    0  0.91831039416E+00 -0.63554082494E+00 -0.38180935411E+00  0.11802476448E+01  0.00000000000E+00 0. -1.
         11    1    3    3    0    0  0.22089892322E+02 -0.33857746290E+02 -0.42402431519E+01  0.40648370064E+02  0.51100000000E-03 0. -1.
        -11    1    3    3    0    0  0.17627422927E+01  0.42798719755E+01 -0.71828904820E+01  0.85450851637E+01  0.51100000000E-03 0.  1.
        -12    1    3    3    0    0 -0.24770945008E+02  0.30213415140E+02  0.11804942988E+02  0.40814297127E+02  0.00000000000E+00 0.  1.
</event>
<event>
 7    1  0.2682188E-015  0.9000796E+02  0.7816164E-02  0.1186339E+00
        -11   -1    0    0    0    0  0.00000000000E+00  0.00000000000E+00  0.45593999997E+02  0.45594000000E+02  0.51100000000E-03 0.  1.
         11   -1    0    0    0    0 -0.00000000000E+00 -0.00000000000E+00 -0.45593999997E+02  0.45594000000E+02  0.51100000000E-03 0. -1.
    9900012    2    1    2    0    0  0.99913941367E+00 -0.43968120979E+00 -0.44820692367E+00  0.90007962466E+02  0.90000226771E+02 0.  0.
         12    1    1    2    0    0 -0.99913941367E+00  0.43968120979E+00  0.44820692367E+00  0.11800375336E+01  0.00000000000E+00 0. -1.
         11    1    3    3    0    0 -0.11878807481E+02  0.28074141221E+02 -0.24080355090E+02  0.38847483496E+02  0.51100000000E-03 0. -1.
        -11    1    3    3    0    0 -0.63560954899E+01 -0.66672261785E+01 -0.48723335556E+01  0.10420724031E+02  0.51100000000E-03 0.  1.
        -12    1    3    3    0    0  0.19234042384E+02 -0.21846596253E+02  0.28504481722E+02  0.40739754939E+02  0.00000000000E+00 0.  1.
</event>
<event>
 7    1  0.2682188E-015  0.9000753E+02  0.7816164E-02  0.1186339E+00
        -11   -1    0    0    0    0  0.00000000000E+00  0.00000000000E+00  0.45593999997E+02  0.45594000000E+02  0.51100000000E-03 0. -1.
         11   -1    0    0    0    0 -0.00000000000E+00 -0.00000000000E+00 -0.45593999997E+02  0.45594000000E+02  0.51100000000E-03 0.  1.
    9900012    2    1    2    0    0 -0.10055023664E+01  0.59086775637E+00 -0.18260278238E+00  0.90007532512E+02  0.89999791141E+02 0.  0.
         12    1    1    2    0    0  0.10055023664E+01 -0.59086775637E+00  0.18260278238E+00  0.11804674881E+01  0.00000000000E+00 0. -1.
         11    1    3    3    0    0  0.12478339091E+02 -0.32542816707E+02  0.18711718350E+02  0.39558466472E+02  0.51100000000E-03 0. -1.
        -11    1    3    3    0    0 -0.61061379620E+01  0.27476200552E+01  0.71198419270E+01  0.97737651960E+01  0.51100000000E-03 0.  1.
        -12    1    3    3    0    0 -0.73777034957E+01  0.30386064409E+02 -0.26014163059E+02  0.40675300844E+02  0.00000000000E+00 0.  1.
</event>
<event>
 7    1  0.2682188E-015  0.9000772E+02  0.7816164E-02  0.1186339E+00
        -11   -1    0    0    0    0  0.00000000000E+00  0.00000000000E+00  0.45593999997E+02  0.45594000000E+02  0.51100000000E-03 0. -1.
         11   -1    0    0    0    0 -0.00000000000E+00 -0.00000000000E+00 -0.45593999997E+02  0.45594000000E+02  0.51100000000E-03 0.  1.
    9900012    2    1    2    0    0  0.19279520988E+00 -0.83888767030E+00 -0.80757021254E+00  0.90007715219E+02  0.89999976260E+02 0.  0.
         12    1    1    2    0    0 -0.19279520988E+00  0.83888767030E+00  0.80757021254E+00  0.11802847811E+01  0.00000000000E+00 0. -1.
         11    1    3    3    0    0  0.58055070734E+01  0.83522866982E+00 -0.69631385629E+01  0.91042198028E+01  0.51100000000E-03 0. -1.
        -11    1    3    3    0    0  0.24763047236E+02 -0.30141202051E+02  0.40792983691E+01  0.39221693550E+02  0.51100000000E-03 0.  1.
         12    1    3    3    0    0 -0.30375759100E+02  0.28467085711E+02  0.20762699813E+01  0.41681801866E+02  0.00000000000E+00 0. -1.
</event>
<event>
 7    1  0.2682188E-015  0.9000779E+02  0.7816164E-02  0.1186339E+00
        -11   -1    0    0    0    0  0.00000000000E+00  0.00000000000E+00  0.45593999997E+02  0.45594000000E+02  0.51100000000E-03 0. -1.
         11   -1    0    0    0    0 -0.00000000000E+00 -0.00000000000E+00 -0.45593999997E+02  0.45594000000E+02  0.51100000000E-03 0.  1.
    9900012    2    1    2    0    0 -0.44491641225E+00 -0.51506304259E+00 -0.96418536666E+00  0.90007790708E+02  0.90000052745E+02 0.  0.
         12    1    1    2    0    0  0.44491641225E+00  0.51506304259E+00  0.96418536666E+00  0.11802092920E+01  0.00000000000E+00 0. -1.
         11    1    3    3    0    0  0.26393600915E+01  0.33362060292E+02  0.13694088199E+02  0.36159664552E+02  0.51100000000E-03 0. -1.
        -11    1    3    3    0    0  0.25212290116E+01  0.34719306155E+01  0.85172271230E+01  0.95369835930E+01  0.51100000000E-03 0.  1.
        -12    1    3    3    0    0 -0.56055055154E+01 -0.37349053950E+02 -0.23175500689E+02  0.44311142563E+02  0.00000000000E+00 0.  1.
</event>
<event>
 7    1  0.2682188E-015  0.9000764E+02  0.7816164E-02  0.1186339E+00
        -11   -1    0    0    0    0  0.00000000000E+00  0.00000000000E+00  0.45593999997E+02  0.45594000000E+02  0.51100000000E-03 0. -1.
         11   -1    0    0    0    0 -0.00000000000E+00 -0.00000000000E+00 -0.45593999997E+02  0.45594000000E+02  0.51100000000E-03 0.  1.
    9900012    2    1    2    0    0  0.31659643295E+00  0.43619261817E+00 -0.10501232001E+01  0.90007637328E+02  0.89999897341E+02 0.  0.
         12    1    1    2    0    0 -0.31659643295E+00 -0.43619261817E+00  0.10501232001E+01  0.11803626718E+01  0.00000000000E+00 0. -1.
         11    1    3    3    0    0  0.44275118927E+01  0.42186395031E+01  0.83362438776E+01  0.10338894673E+02  0.51100000000E-03 0. -1.
        -11    1    3    3    0    0 -0.20303071604E+02  0.23855022812E+02  0.19195850841E+02  0.36739046255E+02  0.51100000000E-03 0.  1.
         12    1    3    3    0    0  0.16192156144E+02 -0.27637469697E+02 -0.28582217919E+02  0.42929696400E+02  0.00000000000E+00 0. -1.
</event>
<event>
 7    1  0.2682188E-015  0.9000771E+02  0.7816164E-02  0.1186339E+00
        -11   -1    0    0    0    0  0.00000000000E+00  0.00000000000E+00  0.45593999997E+02  0.45594000000E+02  0.51100000000E-03 0.  1.
         11   -1    0    0    0    0 -0.00000000000E+00 -0.00000000000E+00 -0.45593999997E+02  0.45594000000E+02  0.51100000000E-03 0. -1.
    9900012    2    1    2    0    0  0.68797800242E+00  0.68474234959E+00  0.67148556767E+00  0.90007712457E+02  0.89999973461E+02 0.  0.
         12    1    1    2    0    0 -0.68797800242E+00 -0.68474234959E+00 -0.67148556767E+00  0.11802875432E+01  0.00000000000E+00 0. -1.
         11    1    3    3    0    0 -0.75076320955E+01 -0.14097616518E+02 -0.80335812136E+01  0.17878639729E+02  0.51100000000E-03 0. -1.
        -11    1    3    3    0    0  0.13214958943E+02 -0.18434355963E+02  0.25869032801E+02  0.34404468867E+02  0.51100000000E-03 0.  1.
         12    1    3    3    0    0 -0.50193488450E+01  0.33216714831E+02 -0.17163966020E+02  0.37724603862E+02  0.00000000000E+00 0. -1.
</event>
<event>
 7    1  0.2682188E-015  0.9000869E+02  0.7816164E-02  0.1186337E+00
        -11   -1    0    0    0    0  0.00000000000E+00  0.00000000000E+00  0.45593999997E+02  0.45594000000E+02  0.51100000000E-03 0. -1.
         11   -1    0    0    0    0 -0.00000000000E+00 -0.00000000000E+00 -0.45593999997E+02  0.45594000000E+02  0.51100000000E-03 0.  1.
    9900012    2    1    2    0    0  0.11792737542E+01  0.78562747681E-02  0.34816992928E-02  0.90008694937E+02  0.90000968905E+02 0.  0.
         12    1    1    2    0    0 -0.11792737542E+01 -0.78562747681E-02 -0.34816992928E-02  0.11793050626E+01  0.00000000000E+00 0. -1.
         11    1    3    3    0    0 -0.48589109629E+01 -0.44897962075E+01  0.75281286077E+01  0.10021976169E+02  0.51100000000E-03 0. -1.
        -11    1    3    3    0    0 -0.15854250282E+02  0.17278695311E+01 -0.38662364472E+02  0.41822496481E+02  0.51100000000E-03 0.  1.
         12    1    3    3    0    0  0.21892434999E+02  0.27697829512E+01  0.31137717563E+02  0.38164222288E+02  0.00000000000E+00 0. -1.
</event>
<event>
 7    1  0.2682188E-015  0.9000787E+02  0.7816164E-02  0.1186339E+00
        -11   -1    0    0    0    0  0.00000000000E+00  0.00000000000E+00  0.45593999997E+02  0.45594000000E+02  0.51100000000E-03 0.  1.
         11   -1    0    0    0    0 -0.00000000000E+00 -0.00000000000E+00 -0.45593999997E+02  0.45594000000E+02  0.51100000000E-03 0. -1.
    9900012    2    1    2    0    0  0.69007847939E+00 -0.91764960212E+00 -0.27279709537E+00  0.90007869772E+02  0.90000132853E+02 0.  0.
         12    1    1    2    0    0 -0.69007847939E+00  0.91764960212E+00  0.27279709537E+00  0.11801302281E+01  0.00000000000E+00 0. -1.
         11    1    3    3    0    0  0.45212925916E+01 -0.30762862208E+00  0.87126976394E+01  0.98207852275E+01  0.51100000000E-03 0. -1.
        -11    1    3    3    0    0 -0.45857603446E+01  0.15098744785E+02  0.32332266049E+02  0.35977447382E+02  0.51100000000E-03 0.  1.
         12    1    3    3    0    0  0.75454623242E+00 -0.15708765765E+02 -0.41317760784E+02  0.44209637162E+02  0.00000000000E+00 0. -1.
</event>
<event>
 7    1  0.2682188E-015  0.9000770E+02  0.7816164E-02  0.1186339E+00
        -11   -1    0    0    0    0  0.00000000000E+00  0.00000000000E+00  0.45593999997E+02  0.45594000000E+02  0.51100000000E-03 0. -1.
         11   -1    0    0    0    0 -0.00000000000E+00 -0.00000000000E+00 -0.45593999997E+02  0.45594000000E+02  0.51100000000E-03 0.  1.
    9900012    2    1    2    0    0  0.91784023727E+00 -0.67667864275E+00  0.30460475780E+00  0.90007699722E+02  0.89999960559E+02 0.  0.
         12    1    1    2    0    0 -0.91784023727E+00  0.67667864275E+00 -0.30460475780E+00  0.11803002775E+01  0.00000000000E+00 0. -1.
         11    1    3    3    0    0  0.20680161960E+02 -0.33908784732E+02  0.78404885025E+01  0.40483923240E+02  0.51100000000E-03 0. -1.
        -11    1    3    3    0    0 -0.42789431808E+01 -0.41351418181E+01 -0.68448986110E+01  0.90698064950E+01  0.51100000000E-03 0.  1.
        -12    1    3    3    0    0 -0.15483378542E+02  0.37367247907E+02 -0.69098513366E+00  0.40453969987E+02  0.00000000000E+00 0.  1.
</event>
<event>
 7    1  0.2682188E-015  0.9000775E+02  0.7816164E-02  0.1186339E+00
        -11   -1    0    0    0    0  0.00000000000E+00  0.00000000000E+00  0.45593999997E+02  0.45594000000E+02  0.51100000000E-03 0.  1.
         11   -1    0    0    0    0 -0.00000000000E+00 -0.00000000000E+00 -0.45593999997E+02  0.45594000000E+02  0.51100000000E-03 0. -1.
    9900012    2    1    2    0    0 -0.91821209783E+00 -0.24507474603E+00  0.69987611108E+00  0.90007745087E+02  0.90000006523E+02 0.  0.
         12    1    1    2    0    0  0.91821209783E+00  0.24507474603E+00 -0.69987611108E+00  0.11802549125E+01  0.00000000000E+00 0. -1.
         11    1    3    3    0    0 -0.35922228736E+02  0.64214613144E+01  0.35363538765E+01  0.36662616952E+02  0.51100000000E-03 0. -1.
        -11    1    3    3    0    0 -0.40981818224E+01  0.61380293996E+01  0.79111205817E+01  0.10819257289E+02  0.51100000000E-03 0.  1.
        -12    1    3    3    0    0  0.39102198460E+02 -0.12804565460E+02 -0.10747598347E+02  0.42525870847E+02  0.00000000000E+00 0.  1.
</event>
<event>
 7    1  0.2682188E-015  0.9000773E+02  0.7816164E-02  0.1186339E+00
        -11   -1    0    0    0    0  0.00000000000E+00  0.00000000000E+00  0.45593999997E+02  0.45594000000E+02  0.51100000000E-03 0.  1.
         11   -1    0    0    0    0 -0.00000000000E+00 -0.00000000000E+00 -0.45593999997E+02  0.45594000000E+02  0.51100000000E-03 0. -1.
    9900012    2    1    2    0    0 -0.58468789540E+00  0.57771940381E+00  0.84700610077E+00  0.90007729277E+02  0.89999990504E+02 0.  0.
         12    1    1    2    0    0  0.58468789540E+00 -0.57771940381E+00 -0.84700610077E+00  0.11802707229E+01  0.00000000000E+00 0. -1.
         11    1    3    3    0    0  0.10178076819E+02  0.42695373028E+01 -0.23319053406E+00  0.11039772398E+02  0.51100000000E-03 0. -1.
        -11    1    3    3    0    0  0.29583319290E+02 -0.11945795915E+02  0.15322682621E+02  0.35392929000E+02  0.51100000000E-03 0.  1.
         12    1    3    3    0    0 -0.40346084005E+02  0.82539780161E+01 -0.14242485986E+02  0.43575027879E+02  0.00000000000E+00 0. -1.
</event>
<event>
 7    1  0.2682188E-015  0.9000771E+02  0.7816164E-02  0.1186339E+00
        -11   -1    0    0    0    0  0.00000000000E+00  0.00000000000E+00  0.45593999997E+02  0.45594000000E+02  0.51100000000E-03 0. -1.
         11   -1    0    0    0    0 -0.00000000000E+00 -0.00000000000E+00 -0.45593999997E+02  0.45594000000E+02  0.51100000000E-03 0.  1.
    9900012    2    1    2    0    0 -0.49516221220E-01  0.54815685225E+00 -0.10441063687E+01  0.90007709400E+02  0.89999970364E+02 0.  0.
         12    1    1    2    0    0  0.49516221220E-01 -0.54815685225E+00  0.10441063687E+01  0.11802905998E+01  0.00000000000E+00 0. -1.
         11    1    3    3    0    0  0.37081516454E+01  0.35247297375E+01  0.11330209415E+02  0.12431723694E+02  0.51100000000E-03 0. -1.
        -11    1    3    3    0    0  0.32701740402E+02  0.14933306069E+02 -0.64893565329E+01  0.36531071760E+02  0.51100000000E-03 0.  1.
         12    1    3    3    0    0 -0.36459408269E+02 -0.17909878954E+02 -0.58849592508E+01  0.41044913946E+02  0.00000000000E+00 0. -1.
</event>
<event>
 7    1  0.2682188E-015  0.9000771E+02  0.7816164E-02  0.1186339E+00
        -11   -1    0    0    0    0  0.00000000000E+00  0.00000000000E+00  0.45593999997E+02  0.45594000000E+02  0.51100000000E-03 0.  1.
         11   -1    0    0    0    0 -0.00000000000E+00 -0.00000000000E+00 -0.45593999997E+02  0.45594000000E+02  0.51100000000E-03 0. -1.
    9900012    2    1    2    0    0 -0.49216013955E+00  0.26173977844E+00  0.10403579690E+01  0.90007714434E+02  0.89999975464E+02 0.  0.
         12    1    1    2    0    0  0.49216013955E+00 -0.26173977844E+00 -0.10403579690E+01  0.11802855664E+01  0.00000000000E+00 0. -1.
         11    1    3    3    0    0 -0.68155507446E+01 -0.16069903803E+02 -0.96016735710E+01  0.19921989755E+02  0.51100000000E-03 0. -1.
        -11    1    3    3    0    0 -0.12459690591E+02 -0.93580346901E+00 -0.24002547199E+02  0.27059968405E+02  0.51100000000E-03 0.  1.
        -12    1    3    3    0    0  0.18783081196E+02  0.17267447050E+02  0.34644578739E+02  0.43025756273E+02  0.00000000000E+00 0.  1.
</event>
<event>
 7    1  0.2893526E-015  0.9000766E+02  0.7816164E-02  0.1186339E+00
        -11   -1    0    0    0    0  0.00000000000E+00  0.00000000000E+00  0.45593999997E+02  0.45594000000E+02  0.51100000000E-03 0. -1.
         11   -1    0    0    0    0 -0.00000000000E+00 -0.00000000000E+00 -0.45593999997E+02  0.45594000000E+02  0.51100000000E-03 0.  1.
    9900012    2    1    2    0    0 -0.10900692499E+01  0.27877060966E+00 -0.35670706224E+00  0.90007659392E+02  0.89999919696E+02 0.  0.
         12    1    1    2    0    0  0.10900692499E+01 -0.27877060966E+00  0.35670706224E+00  0.11803406079E+01  0.00000000000E+00 0. -1.
         11    1    3    3    0    0  0.89427522483E+00 -0.95944636922E+01 -0.13031948757E+00  0.96369313139E+01  0.51100000000E-03 0. -1.
        -11    1    3    3    0    0 -0.16652452374E+01 -0.12769888102E+01 -0.39493878843E+02  0.39549591761E+02  0.51100000000E-03 0.  1.
         12    1    3    3    0    0 -0.31909923732E+00  0.11150223112E+02  0.39267491268E+02  0.40821136318E+02  0.00000000000E+00 0. -1.
</event>
<event>
 7    1  0.2682188E-015  0.9000771E+02  0.7816164E-02  0.1186339E+00
        -11   -1    0    0    0    0  0.00000000000E+00  0.00000000000E+00  0.45593999997E+02  0.45594000000E+02  0.51100000000E-03 0. -1.
         11   -1    0    0    0    0 -0.00000000000E+00 -0.00000000000E+00 -0.45593999997E+02  0.45594000000E+02  0.51100000000E-03 0.  1.
    9900012    2    1    2    0    0  0.16631723956E+00 -0.11028666091E+01  0.38613906796E+00  0.90007712085E+02  0.89999973085E+02 0.  0.
         12    1    1    2    0    0 -0.16631723956E+00  0.11028666091E+01 -0.38613906796E+00  0.11802879146E+01  0.00000000000E+00 0. -1.
         11    1    3    3    0    0 -0.61095497721E+01  0.26705565969E+01  0.54871297044E+01  0.86352222675E+01  0.51100000000E-03 0. -1.
        -11    1    3    3    0    0  0.25438535415E+02  0.24515522594E+02 -0.23630486661E+02  0.42503292016E+02  0.51100000000E-03 0.  1.
         12    1    3    3    0    0 -0.19162668403E+02 -0.28288945800E+02  0.18529496025E+02  0.38869197802E+02  0.00000000000E+00 0. -1.
</event>
<event>
 7    1  0.2682188E-015  0.9000776E+02  0.7816164E-02  0.1186339E+00
        -11   -1    0    0    0    0  0.00000000000E+00  0.00000000000E+00  0.45593999997E+02  0.45594000000E+02  0.51100000000E-03 0. -1.
         11   -1    0    0    0    0 -0.00000000000E+00 -0.00000000000E+00 -0.45593999997E+02  0.45594000000E+02  0.51100000000E-03 0.  1.
    9900012    2    1    2    0    0 -0.10163672220E+01  0.35398400040E+00 -0.48442069336E+00  0.90007758325E+02  0.90000019935E+02 0.  0.
         12    1    1    2    0    0  0.10163672220E+01 -0.35398400040E+00  0.48442069336E+00  0.11802416747E+01  0.00000000000E+00 0. -1.
         11    1    3    3    0    0 -0.10932961792E+01  0.84152456319E+01 -0.22560097698E+01  0.87807309446E+01  0.51100000000E-03 0. -1.
        -11    1    3    3    0    0  0.11659033082E+02  0.84952177484E+01 -0.35783257706E+02  0.38581644720E+02  0.51100000000E-03 0.  1.
         12    1    3    3    0    0 -0.11582104125E+02 -0.16556479380E+02  0.37554846782E+02  0.42645382661E+02  0.00000000000E+00 0. -1.
</event>
<event>
 7    1  0.2682188E-015  0.9000772E+02  0.7816164E-02  0.1186339E+00
        -11   -1    0    0    0    0  0.00000000000E+00  0.00000000000E+00  0.45593999997E+02  0.45594000000E+02  0.51100000000E-03 0. -1.
         11   -1    0    0    0    0 -0.00000000000E+00 -0.00000000000E+00 -0.45593999997E+02  0.45594000000E+02  0.51100000000E-03 0.  1.
    9900012    2    1    2    0    0  0.73873168079E+00 -0.44820037913E+00 -0.80402337095E+00  0.90007719670E+02  0.89999980770E+02 0.  0.
         12    1    1    2    0    0 -0.73873168079E+00  0.44820037913E+00  0.80402337095E+00  0.11802803299E+01  0.00000000000E+00 0. -1.
         11    1    3    3    0    0 -0.32780817774E+01 -0.67242845661E+01 -0.17802623779E+02  0.19310495507E+02  0.51100000000E-03 0. -1.
        -11    1    3    3    0    0 -0.77988034355E+01  0.70361444674E+01 -0.24970621419E+02  0.27089861541E+02  0.51100000000E-03 0.  1.
         12    1    3    3    0    0  0.11815616894E+02 -0.76006028049E+00  0.41969221826E+02  0.43607362623E+02  0.00000000000E+00 0. -1.
</event>
<event>
 7    1  0.2682188E-015  0.9000775E+02  0.7816164E-02  0.1186339E+00
        -11   -1    0    0    0    0  0.00000000000E+00  0.00000000000E+00  0.45593999997E+02  0.45594000000E+02  0.51100000000E-03 0.  1.
         11   -1    0    0    0    0 -0.00000000000E+00 -0.00000000000E+00 -0.45593999997E+02  0.45594000000E+02  0.51100000000E-03 0. -1.
    9900012    2    1    2    0    0  0.98471584735E+00  0.62588424624E+00  0.17776460212E+00  0.90007747212E+02  0.90000008675E+02 0.  0.
         12    1    1    2    0    0 -0.98471584735E+00 -0.62588424624E+00 -0.17776460212E+00  0.11802527880E+01  0.00000000000E+00 0. -1.
         11    1    3    3    0    0 -0.77271229967E+01  0.51878285344E+01 -0.19757064703E+01  0.95144842754E+01  0.51100000000E-03 0. -1.
        -11    1    3    3    0    0  0.91666753960E+01 -0.39776859841E+02 -0.11986303143E+02  0.42542895764E+02  0.51100000000E-03 0.  1.
         12    1    3    3    0    0 -0.45483655191E+00  0.35214915553E+02  0.14139774215E+02  0.37950367173E+02  0.00000000000E+00 0. -1.
</event>
<event>
 7    1  0.2682188E-015  0.9000772E+02  0.7816164E-02  0.1186339E+00
        -11   -1    0    0    0    0  0.00000000000E+00  0.00000000000E+00  0.45593999997E+02  0.45594000000E+02  0.51100000000E-03 0. -1.
         11   -1    0    0    0    0 -0.00000000000E+00 -0.00000000000E+00 -0.45593999997E+02  0.45594000000E+02  0.51100000000E-03 0.  1.
    9900012    2    1    2    0    0 -0.56631817053E+00  0.16006717906E+00 -0.10230911384E+01  0.90007723232E+02  0.89999984378E+02 0.  0.
         12    1    1    2    0    0  0.56631817053E+00 -0.16006717906E+00  0.10230911384E+01  0.11802767682E+01  0.00000000000E+00 0. -1.
         11    1    3    3    0    0 -0.20132080194E+01 -0.70498995863E+01  0.79440253959E-01  0.73321485065E+01  0.51100000000E-03 0. -1.
        -11    1    3    3    0    0  0.39459684009E+02  0.17680597668E+02 -0.53628305800E+00  0.43243008634E+02  0.51100000000E-03 0.  1.
         12    1    3    3    0    0 -0.38012794160E+02 -0.10470630902E+02 -0.56624833435E+00  0.39432566091E+02  0.00000000000E+00 0. -1.
</event>
<event>
 7    1  0.2682188E-015  0.9000786E+02  0.7816164E-02  0.1186339E+00
        -11   -1    0    0    0    0  0.00000000000E+00  0.00000000000E+00  0.45593999997E+02  0.45594000000E+02  0.51100000000E-03 0.  1.
         11   -1    0    0    0    0 -0.00000000000E+00 -0.00000000000E+00 -0.45593999997E+02  0.45594000000E+02  0.51100000000E-03 0. -1.
    9900012    2    1    2    0    0 -0.11543930218E+01  0.17097185925E+00 -0.17569784685E+00  0.90007862568E+02  0.90000125554E+02 0.  0.
         12    1    1    2    0    0  0.11543930218E+01 -0.17097185925E+00  0.17569784685E+00  0.11801374322E+01  0.00000000000E+00 0. -1.
         11    1    3    3    0    0  0.40769723012E+01 -0.53929832244E+01  0.85835590684E+00  0.68148915125E+01  0.51100000000E-03 0. -1.
        -11    1    3    3    0    0  0.37584698927E+02  0.51873349859E+00  0.95870969318E+01  0.38791637059E+02  0.51100000000E-03 0.  1.
         12    1    3    3    0    0 -0.42816064250E+02  0.50452215851E+01 -0.10621150685E+02  0.44401333996E+02  0.00000000000E+00 0. -1.
</event>
<event>
 7    1  0.2682188E-015  0.9000764E+02  0.7816164E-02  0.1186339E+00
        -11   -1    0    0    0    0  0.00000000000E+00  0.00000000000E+00  0.45593999997E+02  0.45594000000E+02  0.51100000000E-03 0.  1.
         11   -1    0    0    0    0 -0.00000000000E+00 -0.00000000000E+00 -0.45593999997E+02  0.45594000000E+02  0.51100000000E-03 0. -1.
    9900012    2    1    2    0    0  0.36484871716E+00 -0.22283110451E+00  0.11002143833E+01  0.90007644131E+02  0.89999904234E+02 0.  0.
         12    1    1    2    0    0 -0.36484871716E+00  0.22283110451E+00 -0.11002143833E+01  0.11803558687E+01  0.00000000000E+00 0. -1.
         11    1    3    3    0    0  0.10055079048E+02 -0.57580128107E+01 -0.36223124423E+02  0.38031224926E+02  0.51100000000E-03 0. -1.
        -11    1    3    3    0    0 -0.71450672581E+01 -0.83261227371E+01 -0.11225515081E+01  0.11028890611E+02  0.51100000000E-03 0.  1.
        -12    1    3    3    0    0 -0.25451630725E+01  0.13861304443E+02  0.38445890314E+02  0.40947528594E+02  0.00000000000E+00 0.  1.
</event>
<event>
 7    1  0.2682188E-015  0.9000773E+02  0.7816164E-02  0.1186339E+00
        -11   -1    0    0    0    0  0.00000000000E+00  0.00000000000E+00  0.45593999997E+02  0.45594000000E+02  0.51100000000E-03 0.  1.
         11   -1    0    0    0    0 -0.00000000000E+00 -0.00000000000E+00 -0.45593999997E+02  0.45594000000E+02  0.51100000000E-03 0. -1.
    9900012    2    1    2    0    0  0.16139908780E+00 -0.95785428026E+00  0.67045090396E+00  0.90007729310E+02  0.89999990537E+02 0.  0.
         12    1    1    2    0    0 -0.16139908780E+00  0.95785428026E+00 -0.67045090396E+00  0.11802706903E+01  0.00000000000E+00 0. -1.
         11    1    3    3    0    0  0.77794891405E+01 -0.44326887603E+01 -0.49102784507E+01  0.10211758696E+02  0.51100000000E-03 0. -1.
        -11    1    3    3    0    0  0.12679939034E+02  0.32432706802E+02 -0.16047530137E+02  0.38342985645E+02  0.51100000000E-03 0.  1.
         12    1    3    3    0    0 -0.20298029087E+02 -0.28957872322E+02  0.21628259492E+02  0.41452984969E+02  0.00000000000E+00 0. -1.
</event>
<event>
 7    1  0.2682188E-015  0.9000698E+02  0.7816164E-02  0.1186341E+00
        -11   -1    0    0    0    0  0.00000000000E+00  0.00000000000E+00  0.45593999997E+02  0.45594000000E+02  0.51100000000E-03 0.  1.
         11   -1    0    0    0    0 -0.00000000000E+00 -0.00000000000E+00 -0.45593999997E+02  0.45594000000E+02  0.51100000000E-03 0. -1.
    9900012    2    1    2    0    0 -0.11148959862E+01 -0.33867934972E+00 -0.19264625785E+00  0.90006979533E+02  0.89999230860E+02 0.  0.
         12    1    1    2    0    0  0.11148959862E+01  0.33867934972E+00  0.19264625785E+00  0.11810204667E+01  0.00000000000E+00 0. -1.
         11    1    3    3    0    0  0.54473537198E+01 -0.50379272872E+01 -0.83507604100E+01  0.11170925368E+02  0.51100000000E-03 0. -1.
        -11    1    3    3    0    0  0.28092448498E+02 -0.19243027278E+01  0.26850706021E+02  0.38908212728E+02  0.51100000000E-03 0.  1.
         12    1    3    3    0    0 -0.34654698204E+02  0.66235506653E+01 -0.18692591869E+02  0.39927841437E+02  0.00000000000E+00 0. -1.
</event>
<event>
 7    1  0.2682188E-015  0.9000752E+02  0.7816164E-02  0.1186339E+00
        -11   -1    0    0    0    0  0.00000000000E+00  0.00000000000E+00  0.45593999997E+02  0.45594000000E+02  0.51100000000E-03 0.  1.
         11   -1    0    0    0    0 -0.00000000000E+00 -0.00000000000E+00 -0.45593999997E+02  0.45594000000E+02  0.51100000000E-03 0. -1.
    9900012    2    1    2    0    0 -0.10949863227E+01  0.34517224793E+00 -0.27459456224E+00  0.90007516582E+02  0.89999775000E+02 0.  0.
         12    1    1    2    0    0  0.10949863227E+01 -0.34517224793E+00  0.27459456224E+00  0.11804834185E+01  0.00000000000E+00 0. -1.
         11    1    3    3    0    0 -0.27674773519E+02  0.29130209923E+01 -0.22767942361E+02  0.35954943752E+02  0.51100000000E-03 0. -1.
        -11    1    3    3    0    0  0.70298004286E+01 -0.16167999084E+02 -0.43588291105E+01  0.18160993362E+02  0.51100000000E-03 0.  1.
        -12    1    3    3    0    0  0.19549986768E+02  0.13600150339E+02  0.26852176909E+02  0.35891579467E+02  0.00000000000E+00 0.  1.
</event>
<event>
 7    1  0.2682188E-015  0.9000769E+02  0.7816164E-02  0.1186339E+00
        -11   -1    0    0    0    0  0.00000000000E+00  0.00000000000E+00  0.45593999997E+02  0.45594000000E+02  0.51100000000E-03 0.  1.
         11   -1    0    0    0    0 -0.00000000000E+00 -0.00000000000E+00 -0.45593999997E+02  0.45594000000E+02  0.51100000000E-03 0. -1.
    9900012    2    1    2    0    0 -0.11823916579E+00 -0.72451184576E+00  0.92425121759E+00  0.90007687233E+02  0.89999947904E+02 0.  0.
         12    1    1    2    0    0  0.11823916579E+00  0.72451184576E+00 -0.92425121759E+00  0.11803127671E+01  0.00000000000E+00 0. -1.
         11    1    3    3    0    0 -0.30794254978E+02  0.17510519077E+02 -0.91795763566E+01  0.36594658631E+02  0.51100000000E-03 0. -1.
        -11    1    3    3    0    0 -0.91630279249E+01 -0.17516328094E+01  0.20891857617E+01  0.95600206935E+01  0.51100000000E-03 0.  1.
        -12    1    3    3    0    0  0.39839043737E+02 -0.16483398113E+02  0.80146418126E+01  0.43853007908E+02  0.00000000000E+00 0.  1.
</event>
<event>
 7    1  0.2682188E-015  0.9000767E+02  0.7816164E-02  0.1186339E+00
        -11   -1    0    0    0    0  0.00000000000E+00  0.00000000000E+00  0.45593999997E+02  0.45594000000E+02  0.51100000000E-03 0.  1.
         11   -1    0    0    0    0 -0.00000000000E+00 -0.00000000000E+00 -0.45593999997E+02  0.45594000000E+02  0.51100000000E-03 0. -1.
    9900012    2    1    2    0    0  0.10460589691E+01 -0.33324686247E+00  0.43344663520E+00  0.90007674272E+02  0.89999934773E+02 0.  0.
         12    1    1    2    0    0 -0.10460589691E+01  0.33324686247E+00 -0.43344663520E+00  0.11803257278E+01  0.00000000000E+00 0. -1.
         11    1    3    3    0    0  0.12290632194E+01 -0.95053527137E+01  0.66059440058E+00  0.96072218581E+01  0.51100000000E-03 0. -1.
        -11    1    3    3    0    0  0.29972078881E+02 -0.21810657882E+02 -0.20758881692E+01  0.37125996574E+02  0.51100000000E-03 0.  1.
         12    1    3    3    0    0 -0.30155083131E+02  0.30982763733E+02  0.18487404038E+01  0.43274455840E+02  0.00000000000E+00 0. -1.
</event>
<event>
 7    1  0.2682188E-015  0.9000778E+02  0.7816164E-02  0.1186339E+00
        -11   -1    0    0    0    0  0.00000000000E+00  0.00000000000E+00  0.45593999997E+02  0.45594000000E+02  0.51100000000E-03 0.  1.
         11   -1    0    0    0    0 -0.00000000000E+00 -0.00000000000E+00 -0.45593999997E+02  0.45594000000E+02  0.51100000000E-03 0. -1.
    9900012    2    1    2    0    0 -0.12276688608E+00  0.88554484642E+00  0.77049013231E+00  0.90007781195E+02  0.90000043107E+02 0.  0.
         12    1    1    2    0    0  0.12276688608E+00 -0.88554484642E+00 -0.77049013231E+00  0.11802188049E+01  0.00000000000E+00 0. -1.
         11    1    3    3    0    0 -0.69124926343E+00 -0.98233826895E+01  0.19729457156E+01  0.10043365375E+02  0.51100000000E-03 0. -1.
        -11    1    3    3    0    0 -0.11968980176E+02 -0.30360475037E+02 -0.13471207557E+02  0.35305642102E+02  0.51100000000E-03 0.  1.
         12    1    3    3    0    0  0.12537462554E+02  0.41069402573E+02  0.12268751974E+02  0.44658773718E+02  0.00000000000E+00 0. -1.
</event>
<event>
 7    1  0.2682188E-015  0.9000776E+02  0.7816164E-02  0.1186339E+00
        -11   -1    0    0    0    0  0.00000000000E+00  0.00000000000E+00  0.45593999997E+02  0.45594000000E+02  0.51100000000E-03 0. -1.
         11   -1    0    0    0    0 -0.00000000000E+00 -0.00000000000E+00 -0.45593999997E+02  0.45594000000E+02  0.51100000000E-03 0.  1.
    9900012    2    1    2    0    0 -0.51351238710E+00 -0.10599322102E+01 -0.76240659816E-01  0.90007761083E+02  0.90000022730E+02 0.  0.
         12    1    1    2    0    0  0.51351238710E+00  0.10599322102E+01  0.76240659816E-01  0.11802389166E+01  0.00000000000E+00 0. -1.
         11    1    3    3    0    0 -0.17663126873E+01  0.44209206430E+01  0.83868290102E+01  0.96438219057E+01  0.51100000000E-03 0. -1.
        -11    1    3    3    0    0  0.35559762231E+01  0.18357784615E+02  0.29825230629E+02  0.35202238640E+02  0.51100000000E-03 0.  1.
         12    1    3    3    0    0 -0.23031759229E+01 -0.23838637469E+02 -0.38288300299E+02  0.45161700538E+02  0.00000000000E+00 0. -1.
</event>
<event>
 7    1  0.2682188E-015  0.9000786E+02  0.7816164E-02  0.1186339E+00
        -11   -1    0    0    0    0  0.00000000000E+00  0.00000000000E+00  0.45593999997E+02  0.45594000000E+02  0.51100000000E-03 0. -1.
         11   -1    0    0    0    0 -0.00000000000E+00 -0.00000000000E+00 -0.45593999997E+02  0.45594000000E+02  0.51100000000E-03 0.  1.
    9900012    2    1    2    0    0  0.92562249873E+00  0.42437870188E+00 -0.59654527480E+00  0.90007855705E+02  0.90000118600E+02 0.  0.
         12    1    1    2    0    0 -0.92562249873E+00 -0.42437870188E+00  0.59654527480E+00  0.11801442953E+01  0.00000000000E+00 0. -1.
         11    1    3    3    0    0 -0.88777589018E+01 -0.39080713008E+02 -0.92317897321E+01  0.41125936758E+02  0.51100000000E-03 0. -1.
        -11    1    3    3    0    0 -0.61495999687E+01  0.37659280809E+01  0.64632502399E+01  0.96836665582E+01  0.51100000000E-03 0.  1.
        -12    1    3    3    0    0  0.15952981369E+02  0.35739163629E+02  0.21719942175E+01  0.39198252389E+02  0.00000000000E+00 0.  1.
</event>
<event>
 7    1  0.2682188E-015  0.9000758E+02  0.7816164E-02  0.1186339E+00
        -11   -1    0    0    0    0  0.00000000000E+00  0.00000000000E+00  0.45593999997E+02  0.45594000000E+02  0.51100000000E-03 0.  1.
         11   -1    0    0    0    0 -0.00000000000E+00 -0.00000000000E+00 -0.45593999997E+02  0.45594000000E+02  0.51100000000E-03 0. -1.
    9900012    2    1    2    0    0 -0.67991080378E+00  0.90391069171E+00  0.33772094017E+00  0.90007581145E+02  0.89999840416E+02 0.  0.
         12    1    1    2    0    0  0.67991080378E+00 -0.90391069171E+00 -0.33772094017E+00  0.11804188549E+01  0.00000000000E+00 0. -1.
         11    1    3    3    0    0  0.62339905211E+01  0.42568629955E+01  0.95897530784E+01  0.12204379736E+02  0.51100000000E-03 0. -1.
        -11    1    3    3    0    0  0.24234576934E+02 -0.36220316515E+01  0.22540341459E+02  0.33294156031E+02  0.51100000000E-03 0.  1.
         12    1    3    3    0    0 -0.31148478259E+02  0.26907934766E+00 -0.31792373597E+02  0.44509045378E+02  0.00000000000E+00 0. -1.
</event>
<event>
 7    1  0.2682188E-015  0.9000760E+02  0.7816164E-02  0.1186339E+00
        -11   -1    0    0    0    0  0.00000000000E+00  0.00000000000E+00  0.45593999997E+02  0.45594000000E+02  0.51100000000E-03 0. -1.
         11   -1    0    0    0    0 -0.00000000000E+00 -0.00000000000E+00 -0.45593999997E+02  0.45594000000E+02  0.51100000000E-03 0.  1.
    9900012    2    1    2    0    0 -0.68963055964E+00  0.75563845293E+00 -0.58887198563E+00  0.90007597528E+02  0.89999857015E+02 0.  0.
         12    1    1    2    0    0  0.68963055964E+00 -0.75563845293E+00  0.58887198563E+00  0.11804024720E+01  0.00000000000E+00 0. -1.
         11    1    3    3    0    0  0.23447663176E+02  0.12061296045E+02  0.26225608484E+02  0.37189384390E+02  0.51100000000E-03 0. -1.
        -11    1    3    3    0    0 -0.19199301016E+01 -0.85786022217E+00  0.90856523526E+01  0.93258315816E+01  0.51100000000E-03 0.  1.
        -12    1    3    3    0    0 -0.22217363634E+02 -0.10447797370E+02 -0.35900132823E+02  0.43492381556E+02  0.00000000000E+00 0.  1.
</event>
<event>
 7    1  0.2682188E-015  0.9000793E+02  0.7816164E-02  0.1186339E+00
        -11   -1    0    0    0    0  0.00000000000E+00  0.00000000000E+00  0.45593999997E+02  0.45594000000E+02  0.51100000000E-03 0. -1.
         11   -1    0    0    0    0 -0.00000000000E+00 -0.00000000000E+00 -0.45593999997E+02  0.45594000000E+02  0.51100000000E-03 0.  1.
    9900012    2    1    2    0    0  0.56664808260E+00  0.91536283002E-01 -0.10310660154E+01  0.90007929634E+02  0.90000193505E+02 0.  0.
         12    1    1    2    0    0 -0.56664808260E+00 -0.91536283002E-01  0.10310660154E+01  0.11800703660E+01  0.00000000000E+00 0. -1.
         11    1    3    3    0    0 -0.34875033370E+01  0.91465565580E+01 -0.11817380534E+01  0.98599534219E+01  0.51100000000E-03 0. -1.
        -11    1    3    3    0    0  0.10864705358E+02 -0.38161437168E+02 -0.19665219203E+02  0.44283834023E+02  0.51100000000E-03 0.  1.
         12    1    3    3    0    0 -0.68105539380E+01  0.29106416893E+02  0.19815891241E+02  0.35864142189E+02  0.00000000000E+00 0. -1.
</event>
<event>
 7    1  0.2682188E-015  0.9000776E+02  0.7816164E-02  0.1186339E+00
        -11   -1    0    0    0    0  0.00000000000E+00  0.00000000000E+00  0.45593999997E+02  0.45594000000E+02  0.51100000000E-03 0.  1.
         11   -1    0    0    0    0 -0.00000000000E+00 -0.00000000000E+00 -0.45593999997E+02  0.45594000000E+02  0.51100000000E-03 0. -1.
    9900012    2    1    2    0    0 -0.15580066310E+00 -0.79208315257E-01  0.11672258425E+01  0.90007761053E+02  0.90000022699E+02 0.  0.
         12    1    1    2    0    0  0.15580066310E+00  0.79208315257E-01 -0.11672258425E+01  0.11802389467E+01  0.00000000000E+00 0. -1.
         11    1    3    3    0    0  0.17207701017E+02 -0.75586345353E+01 -0.29888425786E+02  0.35306598909E+02  0.51100000000E-03 0. -1.
        -11    1    3    3    0    0  0.40202206002E+01 -0.71082496077E+01 -0.55455900809E+01  0.98713198594E+01  0.51100000000E-03 0.  1.
        -12    1    3    3    0    0 -0.21383722280E+02  0.14587675828E+02  0.36601241709E+02  0.44829842285E+02  0.00000000000E+00 0.  1.
</event>
<event>
 7    1  0.2682188E-015  0.9000779E+02  0.7816164E-02  0.1186339E+00
        -11   -1    0    0    0    0  0.00000000000E+00  0.00000000000E+00  0.45593999997E+02  0.45594000000E+02  0.51100000000E-03 0. -1.
         11   -1    0    0    0    0 -0.00000000000E+00 -0.00000000000E+00 -0.45593999997E+02  0.45594000000E+02  0.51100000000E-03 0.  1.
    9900012    2    1    2    0    0  0.91021518414E+00 -0.25925505959E+00 -0.70512237378E+00  0.90007787125E+02  0.90000049115E+02 0.  0.
         12    1    1    2    0    0 -0.91021518414E+00  0.25925505959E+00  0.70512237378E+00  0.11802128746E+01  0.00000000000E+00 0. -1.
         11    1    3    3    0    0  0.32606414674E+01 -0.90830840333E+01 -0.28647358260E+01  0.10066822237E+02  0.51100000000E-03 0. -1.
        -11    1    3    3    0    0 -0.36246815737E+02  0.19140547165E+01  0.19544475630E+02  0.41224771491E+02  0.51100000000E-03 0.  1.
         12    1    3    3    0    0  0.33896389454E+02  0.69097742572E+01 -0.17384862178E+02  0.38716193398E+02  0.00000000000E+00 0. -1.
</event>
<event>
 7    1  0.2682188E-015  0.9000776E+02  0.7816164E-02  0.1186339E+00
        -11   -1    0    0    0    0  0.00000000000E+00  0.00000000000E+00  0.45593999997E+02  0.45594000000E+02  0.51100000000E-03 0.  1.
         11   -1    0    0    0    0 -0.00000000000E+00 -0.00000000000E+00 -0.45593999997E+02  0.45594000000E+02  0.51100000000E-03 0. -1.
    9900012    2    1    2    0    0  0.10271305577E+01 -0.41058004353E-02  0.58133090043E+00  0.90007762881E+02  0.90000024552E+02 0.  0.
         12    1    1    2    0    0 -0.10271305577E+01  0.41058004353E-02 -0.58133090043E+00  0.11802371185E+01  0.00000000000E+00 0. -1.
         11    1    3    3    0    0 -0.14688799887E+02  0.32657411046E+02 -0.14060305021E+02  0.38470241952E+02  0.51100000000E-03 0. -1.
        -11    1    3    3    0    0 -0.44973957077E+01 -0.17879337104E+01 -0.71855764317E+01  0.86634741312E+01  0.51100000000E-03 0.  1.
        -12    1    3    3    0    0  0.20213326152E+02 -0.30873583136E+02  0.21827212353E+02  0.42874046798E+02  0.00000000000E+00 0.  1.
</event>
<event>
 7    1  0.2682188E-015  0.9000771E+02  0.7816164E-02  0.1186339E+00
        -11   -1    0    0    0    0  0.00000000000E+00  0.00000000000E+00  0.45593999997E+02  0.45594000000E+02  0.51100000000E-03 0.  1.
         11   -1    0    0    0    0 -0.00000000000E+00 -0.00000000000E+00 -0.45593999997E+02  0.45594000000E+02  0.51100000000E-03 0. -1.
    9900012    2    1    2    0    0 -0.51466826121E+00  0.55646256342E+00  0.90473808402E+00  0.90007709780E+02  0.89999970749E+02 0.  0.
         12    1    1    2    0    0  0.51466826121E+00 -0.55646256342E+00 -0.90473808402E+00  0.11802902203E+01  0.00000000000E+00 0. -1.
         11    1    3    3    0    0 -0.64330366772E+01  0.33199629473E+02 -0.14244353131E+02  0.36694699268E+02  0.51100000000E-03 0. -1.
        -11    1    3    3    0    0 -0.17384851057E+01  0.61224177084E+01 -0.57806266326E+01  0.85977888777E+01  0.51100000000E-03 0.  1.
        -12    1    3    3    0    0  0.76568535217E+01 -0.38765584618E+02  0.20929717847E+02  0.44715221634E+02  0.00000000000E+00 0.  1.
</event>
<event>
 7    1  0.2682188E-015  0.9000749E+02  0.7816164E-02  0.1186340E+00
        -11   -1    0    0    0    0  0.00000000000E+00  0.00000000000E+00  0.45593999997E+02  0.45594000000E+02  0.51100000000E-03 0. -1.
         11   -1    0    0    0    0 -0.00000000000E+00 -0.00000000000E+00 -0.45593999997E+02  0.45594000000E+02  0.51100000000E-03 0.  1.
    9900012    2    1    2    0    0  0.15174820272E-01 -0.11132314360E+01 -0.39255504599E+00  0.90007485718E+02  0.89999743729E+02 0.  0.
         12    1    1    2    0    0 -0.15174820272E-01  0.11132314360E+01  0.39255504599E+00  0.11805142817E+01  0.00000000000E+00 0. -1.
         11    1    3    3    0    0 -0.64996736981E+01 -0.54667331832E+01 -0.50610823477E+01  0.98866316139E+01  0.51100000000E-03 0. -1.
        -11    1    3    3    0    0 -0.32319310048E+02  0.18038364174E+02 -0.62180793157E+01  0.37531119017E+02  0.51100000000E-03 0.  1.
         12    1    3    3    0    0  0.38834158566E+02 -0.13684862426E+02  0.10886606617E+02  0.42589735087E+02  0.00000000000E+00 0. -1.
</event>
<event>
 7    1  0.2682188E-015  0.9000775E+02  0.7816164E-02  0.1186339E+00
        -11   -1    0    0    0    0  0.00000000000E+00  0.00000000000E+00  0.45593999997E+02  0.45594000000E+02  0.51100000000E-03 0.  1.
         11   -1    0    0    0    0 -0.00000000000E+00 -0.00000000000E+00 -0.45593999997E+02  0.45594000000E+02  0.51100000000E-03 0. -1.
    9900012    2    1    2    0    0 -0.50868416485E+00 -0.52903225821E+00  0.92431473651E+00  0.90007748992E+02  0.90000010479E+02 0.  0.
         12    1    1    2    0    0  0.50868416485E+00  0.52903225821E+00 -0.92431473651E+00  0.11802510080E+01  0.00000000000E+00 0. -1.
         11    1    3    3    0    0 -0.84567751959E+01 -0.39894457238E+01 -0.69115536767E+01  0.11627652316E+02  0.51100000000E-03 0. -1.
        -11    1    3    3    0    0  0.17999486910E+02  0.31352015485E+01  0.40378127233E+02  0.44319343146E+02  0.51100000000E-03 0.  1.
         12    1    3    3    0    0 -0.10051395879E+02  0.32521191715E+00 -0.32542258820E+02  0.34060753530E+02  0.00000000000E+00 0. -1.
</event>
<event>
 7    1  0.2682188E-015  0.9000776E+02  0.7816164E-02  0.1186339E+00
        -11   -1    0    0    0    0  0.00000000000E+00  0.00000000000E+00  0.45593999997E+02  0.45594000000E+02  0.51100000000E-03 0. -1.
         11   -1    0    0    0    0 -0.00000000000E+00 -0.00000000000E+00 -0.45593999997E+02  0.45594000000E+02  0.51100000000E-03 0.  1.
    9900012    2    1    2    0    0  0.84276747841E+00  0.79760998797E+00  0.21568594459E+00  0.90007763099E+02  0.90000024772E+02 0.  0.
         12    1    1    2    0    0 -0.84276747841E+00 -0.79760998797E+00 -0.21568594459E+00  0.11802369009E+01  0.00000000000E+00 0. -1.
         11    1    3    3    0    0  0.40714223156E+01 -0.57285886921E+01 -0.35862030254E+02  0.36544198203E+02  0.51100000000E-03 0. -1.
        -11    1    3    3    0    0 -0.91510208306E+01 -0.10577436477E+02  0.10378525218E+01  0.14024994930E+02  0.51100000000E-03 0.  1.
         12    1    3    3    0    0  0.59223659934E+01  0.17103635157E+02  0.35039863677E+02  0.39438569967E+02  0.00000000000E+00 0. -1.
</event>
<event>
 7    1  0.2682188E-015  0.9000771E+02  0.7816164E-02  0.1186339E+00
        -11   -1    0    0    0    0  0.00000000000E+00  0.00000000000E+00  0.45593999997E+02  0.45594000000E+02  0.51100000000E-03 0. -1.
         11   -1    0    0    0    0 -0.00000000000E+00 -0.00000000000E+00 -0.45593999997E+02  0.45594000000E+02  0.51100000000E-03 0.  1.
    9900012    2    1    2    0    0 -0.97819228224E+00 -0.17140591063E+00 -0.63783659914E+00  0.90007713740E+02  0.89999974762E+02 0.  0.
         12    1    1    2    0    0  0.97819228224E+00  0.17140591063E+00  0.63783659914E+00  0.11802862595E+01  0.00000000000E+00 0. -1.
         11    1    3    3    0    0  0.20634734968E+02 -0.18368629556E+02  0.14865053271E+02  0.31371462317E+02  0.51100000000E-03 0. -1.
        -11    1    3    3    0    0 -0.36612985165E+00 -0.15845892660E+02 -0.70599283994E+00  0.15865837243E+02  0.51100000000E-03 0.  1.
        -12    1    3    3    0    0 -0.21246797398E+02  0.34043116305E+02 -0.14796897030E+02  0.42770414180E+02  0.00000000000E+00 0.  1.
</event>
<event>
 7    1  0.2682188E-015  0.9000772E+02  0.7816164E-02  0.1186339E+00
        -11   -1    0    0    0    0  0.00000000000E+00  0.00000000000E+00  0.45593999997E+02  0.45594000000E+02  0.51100000000E-03 0. -1.
         11   -1    0    0    0    0 -0.00000000000E+00 -0.00000000000E+00 -0.45593999997E+02  0.45594000000E+02  0.51100000000E-03 0.  1.
    9900012    2    1    2    0    0 -0.30068025776E+00  0.30853025304E-01 -0.11409209787E+01  0.90007719861E+02  0.89999980963E+02 0.  0.
         12    1    1    2    0    0  0.30068025776E+00 -0.30853025304E-01  0.11409209787E+01  0.11802801389E+01  0.00000000000E+00 0. -1.
         11    1    3    3    0    0  0.79212084335E+01 -0.21379005424E+02  0.26398370003E+02  0.34880959779E+02  0.51100000000E-03 0. -1.
        -11    1    3    3    0    0 -0.10059695040E+02 -0.21205682286E+01  0.76083124070E+01  0.12789866764E+02  0.51100000000E-03 0.  1.
        -12    1    3    3    0    0  0.18378063485E+01  0.23530426678E+02 -0.35147603389E+02  0.42336893318E+02  0.00000000000E+00 0.  1.
</event>
<event>
 7    1  0.2682188E-015  0.9000773E+02  0.7816164E-02  0.1186339E+00
        -11   -1    0    0    0    0  0.00000000000E+00  0.00000000000E+00  0.45593999997E+02  0.45594000000E+02  0.51100000000E-03 0. -1.
         11   -1    0    0    0    0 -0.00000000000E+00 -0.00000000000E+00 -0.45593999997E+02  0.45594000000E+02  0.51100000000E-03 0.  1.
    9900012    2    1    2    0    0  0.11686725403E+01 -0.36340786366E-01  0.16097450675E+00  0.90007733525E+02  0.89999994808E+02 0.  0.
         12    1    1    2    0    0 -0.11686725403E+01  0.36340786366E-01 -0.16097450675E+00  0.11802664745E+01  0.00000000000E+00 0. -1.
         11    1    3    3    0    0  0.10333445437E+02 -0.16975160578E+02  0.95935870787E+01  0.22067466655E+02  0.51100000000E-03 0. -1.
        -11    1    3    3    0    0  0.14233034470E+02 -0.16330457400E+02 -0.15745320323E+02  0.26780183372E+02  0.51100000000E-03 0.  1.
         12    1    3    3    0    0 -0.23397807367E+02  0.33269277192E+02  0.63127077510E+01  0.41160083498E+02  0.00000000000E+00 0. -1.
</event>
<event>
 7    1  0.4341154E-015  0.9000781E+02  0.7816164E-02  0.1186339E+00
        -11   -1    0    0    0    0  0.00000000000E+00  0.00000000000E+00  0.45593999997E+02  0.45594000000E+02  0.51100000000E-03 0. -1.
         11   -1    0    0    0    0 -0.00000000000E+00 -0.00000000000E+00 -0.45593999997E+02  0.45594000000E+02  0.51100000000E-03 0.  1.
    9900012    2    1    2    0    0  0.38306865189E+00 -0.90723831303E+00 -0.65039802609E+00  0.90007813345E+02  0.90000075681E+02 0.  0.
         12    1    1    2    0    0 -0.38306865189E+00  0.90723831303E+00  0.65039802609E+00  0.11801866552E+01  0.00000000000E+00 0. -1.
         11    1    3    3    0    0  0.56306717997E+01  0.20700740171E+01 -0.79676620050E+01  0.99736307050E+01  0.51100000000E-03 0. -1.
        -11    1    3    3    0    0  0.18906145668E+01 -0.64389313985E+01 -0.35682833391E+02  0.36308385534E+02  0.51100000000E-03 0.  1.
         12    1    3    3    0    0 -0.71382177146E+01  0.34616190684E+01  0.43000097370E+02  0.43725797106E+02  0.00000000000E+00 0. -1.
</event>
<event>
 7    1  0.2682188E-015  0.9000775E+02  0.7816164E-02  0.1186339E+00
        -11   -1    0    0    0    0  0.00000000000E+00  0.00000000000E+00  0.45593999997E+02  0.45594000000E+02  0.51100000000E-03 0. -1.
         11   -1    0    0    0    0 -0.00000000000E+00 -0.00000000000E+00 -0.45593999997E+02  0.45594000000E+02  0.51100000000E-03 0.  1.
    9900012    2    1    2    0    0 -0.79893883208E+00  0.86442261873E+00 -0.86367180328E-01  0.90007750445E+02  0.90000011951E+02 0.  0.
         12    1    1    2    0    0  0.79893883208E+00 -0.86442261873E+00  0.86367180328E-01  0.11802495546E+01  0.00000000000E+00 0. -1.
         11    1    3    3    0    0 -0.28606291154E+02 -0.15763141604E+02  0.14931935153E+02  0.35913217824E+02  0.51100000000E-03 0. -1.
        -11    1    3    3    0    0 -0.79512577495E+01 -0.30964474825E+01  0.35396656192E+01  0.92379499765E+01  0.51100000000E-03 0.  1.
        -12    1    3    3    0    0  0.35758610071E+02  0.19724011706E+02 -0.18557967953E+02  0.44856582644E+02  0.00000000000E+00 0.  1.
</event>
<event>
 7    1  0.2682188E-015  0.9000776E+02  0.7816164E-02  0.1186339E+00
        -11   -1    0    0    0    0  0.00000000000E+00  0.00000000000E+00  0.45593999997E+02  0.45594000000E+02  0.51100000000E-03 0. -1.
         11   -1    0    0    0    0 -0.00000000000E+00 -0.00000000000E+00 -0.45593999997E+02  0.45594000000E+02  0.51100000000E-03 0.  1.
    9900012    2    1    2    0    0 -0.26867867717E+00 -0.49944386181E+00 -0.10350511588E+01  0.90007761336E+02  0.90000022986E+02 0.  0.
         12    1    1    2    0    0  0.26867867717E+00  0.49944386181E+00  0.10350511588E+01  0.11802386640E+01  0.00000000000E+00 0. -1.
         11    1    3    3    0    0 -0.19787284044E+02  0.20517288246E+02 -0.32361636736E+01  0.28687427254E+02  0.51100000000E-03 0. -1.
        -11    1    3    3    0    0 -0.16001239636E+02 -0.20172980114E+02  0.11918025350E+01  0.25776136059E+02  0.51100000000E-03 0.  1.
         12    1    3    3    0    0  0.35519845003E+02 -0.84375199388E+00  0.10093099799E+01  0.35544198023E+02  0.00000000000E+00 0. -1.
</event>
<event>
 7    1  0.2682188E-015  0.9000765E+02  0.7816164E-02  0.1186339E+00
        -11   -1    0    0    0    0  0.00000000000E+00  0.00000000000E+00  0.45593999997E+02  0.45594000000E+02  0.51100000000E-03 0. -1.
         11   -1    0    0    0    0 -0.00000000000E+00 -0.00000000000E+00 -0.45593999997E+02  0.45594000000E+02  0.51100000000E-03 0.  1.
    9900012    2    1    2    0    0  0.11781412793E+01  0.49439236144E-01  0.52689425352E-01  0.90007645270E+02  0.89999905388E+02 0.  0.
         12    1    1    2    0    0 -0.11781412793E+01 -0.49439236144E-01 -0.52689425352E-01  0.11803547296E+01  0.00000000000E+00 0. -1.
         11    1    3    3    0    0  0.37167686443E+01  0.76783272006E+01  0.65810055034E+01  0.10774075898E+02  0.51100000000E-03 0. -1.
        -11    1    3    3    0    0  0.25184816010E+02  0.13496170994E+02 -0.26578263189E+02  0.39023398921E+02  0.51100000000E-03 0.  1.
         12    1    3    3    0    0 -0.27723443375E+02 -0.21125058959E+02  0.20049947111E+02  0.40210170451E+02  0.00000000000E+00 0. -1.
</event>
<event>
 7    1  0.2682188E-015  0.9000762E+02  0.7816164E-02  0.1186339E+00
        -11   -1    0    0    0    0  0.00000000000E+00  0.00000000000E+00  0.45593999997E+02  0.45594000000E+02  0.51100000000E-03 0. -1.
         11   -1    0    0    0    0 -0.00000000000E+00 -0.00000000000E+00 -0.45593999997E+02  0.45594000000E+02  0.51100000000E-03 0.  1.
    9900012    2    1    2    0    0  0.10958403252E+01 -0.69886926447E-01 -0.43307548745E+00  0.90007616766E+02  0.89999876507E+02 0.  0.
         12    1    1    2    0    0 -0.10958403252E+01  0.69886926447E-01  0.43307548745E+00  0.11803832338E+01  0.00000000000E+00 0. -1.
         11    1    3    3    0    0  0.46233706342E+01 -0.85151134527E+01  0.54885518319E+01  0.11135839196E+02  0.51100000000E-03 0. -1.
        -11    1    3    3    0    0 -0.29902454209E+02 -0.20389132994E+01 -0.29439579888E+02  0.42011936392E+02  0.51100000000E-03 0.  1.
         12    1    3    3    0    0  0.26374923900E+02  0.10484139826E+02  0.23517952569E+02  0.36859841178E+02  0.00000000000E+00 0. -1.
</event>
<event>
 7    1  0.2682188E-015  0.9000780E+02  0.7816164E-02  0.1186339E+00
        -11   -1    0    0    0    0  0.00000000000E+00  0.00000000000E+00  0.45593999997E+02  0.45594000000E+02  0.51100000000E-03 0.  1.
         11   -1    0    0    0    0 -0.00000000000E+00 -0.00000000000E+00 -0.45593999997E+02  0.45594000000E+02  0.51100000000E-03 0. -1.
    9900012    2    1    2    0    0 -0.26147261271E+00 -0.13115210336E+00  0.11433724614E+01  0.90007801124E+02  0.90000063299E+02 0.  0.
         12    1    1    2    0    0  0.26147261271E+00  0.13115210336E+00 -0.11433724614E+01  0.11801988760E+01  0.00000000000E+00 0. -1.
         11    1    3    3    0    0  0.57220953233E+01  0.12223409718E+02  0.33131964678E+02  0.35775427373E+02  0.51100000000E-03 0. -1.
        -11    1    3    3    0    0  0.79020355705E+01  0.17529995465E+01  0.68738215339E+01  0.10619067582E+02  0.51100000000E-03 0.  1.
        -12    1    3    3    0    0 -0.13885603507E+02 -0.14107561368E+02 -0.38862413751E+02  0.43613306169E+02  0.00000000000E+00 0.  1.
</event>
<event>
 7    1  0.2682188E-015  0.9000775E+02  0.7816164E-02  0.1186339E+00
        -11   -1    0    0    0    0  0.00000000000E+00  0.00000000000E+00  0.45593999997E+02  0.45594000000E+02  0.51100000000E-03 0.  1.
         11   -1    0    0    0    0 -0.00000000000E+00 -0.00000000000E+00 -0.45593999997E+02  0.45594000000E+02  0.51100000000E-03 0. -1.
    9900012    2    1    2    0    0  0.45475591218E+00 -0.86723369307E-01  0.10856622955E+01  0.90007751508E+02  0.90000013028E+02 0.  0.
         12    1    1    2    0    0 -0.45475591218E+00  0.86723369307E-01 -0.10856622955E+01  0.11802484918E+01  0.00000000000E+00 0. -1.
         11    1    3    3    0    0  0.80080371089E+01 -0.37729149391E+01 -0.19236933189E+01  0.90589260799E+01  0.51100000000E-03 0. -1.
        -11    1    3    3    0    0 -0.39837888656E+02  0.92250606819E+01 -0.15014278800E+02  0.43561309499E+02  0.51100000000E-03 0.  1.
         12    1    3    3    0    0  0.32284607459E+02 -0.55388691122E+01  0.18023634415E+02  0.37387515929E+02  0.00000000000E+00 0. -1.
</event>
<event>
 7    1  0.2682188E-015  0.9000776E+02  0.7816164E-02  0.1186339E+00
        -11   -1    0    0    0    0  0.00000000000E+00  0.00000000000E+00  0.45593999997E+02  0.45594000000E+02  0.51100000000E-03 0. -1.
         11   -1    0    0    0    0 -0.00000000000E+00 -0.00000000000E+00 -0.45593999997E+02  0.45594000000E+02  0.51100000000E-03 0.  1.
    9900012    2    1    2    0    0  0.60244489870E+00 -0.46114708505E+00 -0.90408493037E+00  0.90007760172E+02  0.90000021806E+02 0.  0.
         12    1    1    2    0    0 -0.60244489870E+00  0.46114708505E+00  0.90408493037E+00  0.11802398279E+01  0.00000000000E+00 0. -1.
         11    1    3    3    0    0 -0.23147638552E+02 -0.32701841347E+02  0.74403245602E+01  0.40750239605E+02  0.51100000000E-03 0. -1.
        -11    1    3    3    0    0 -0.85081626203E+00  0.67452117014E+01  0.77797345413E+01  0.10331797472E+02  0.51100000000E-03 0.  1.
        -12    1    3    3    0    0  0.24600899713E+02  0.25495482561E+02 -0.16124144032E+02  0.38925723095E+02  0.00000000000E+00 0.  1.
</event>
<event>
 7    1  0.2682188E-015  0.9000781E+02  0.7816164E-02  0.1186339E+00
        -11   -1    0    0    0    0  0.00000000000E+00  0.00000000000E+00  0.45593999997E+02  0.45594000000E+02  0.51100000000E-03 0.  1.
         11   -1    0    0    0    0 -0.00000000000E+00 -0.00000000000E+00 -0.45593999997E+02  0.45594000000E+02  0.51100000000E-03 0. -1.
    9900012    2    1    2    0    0  0.12075180509E+00  0.33820643380E+00  0.11242271687E+01  0.90007808779E+02  0.90000071055E+02 0.  0.
         12    1    1    2    0    0 -0.12075180509E+00 -0.33820643380E+00 -0.11242271687E+01  0.11801912206E+01  0.00000000000E+00 0. -1.
         11    1    3    3    0    0 -0.10655709208E+02  0.33826146811E+02 -0.19705287951E+02  0.40571550627E+02  0.51100000000E-03 0. -1.
        -11    1    3    3    0    0 -0.56372126618E+01 -0.65212669983E+01 -0.37759422575E+01  0.94107826482E+01  0.51100000000E-03 0.  1.
        -12    1    3    3    0    0  0.16413673675E+02 -0.26966673378E+02  0.24605457377E+02  0.40025475504E+02  0.00000000000E+00 0.  1.
</event>
<event>
 7    1  0.2682188E-015  0.9000793E+02  0.7816164E-02  0.1186339E+00
        -11   -1    0    0    0    0  0.00000000000E+00  0.00000000000E+00  0.45593999997E+02  0.45594000000E+02  0.51100000000E-03 0. -1.
         11   -1    0    0    0    0 -0.00000000000E+00 -0.00000000000E+00 -0.45593999997E+02  0.45594000000E+02  0.51100000000E-03 0.  1.
    9900012    2    1    2    0    0  0.64098759238E+00 -0.89384771361E+00 -0.42748033429E+00  0.90007928703E+02  0.90000192562E+02 0.  0.
         12    1    1    2    0    0 -0.64098759238E+00  0.89384771361E+00  0.42748033429E+00  0.11800712965E+01  0.00000000000E+00 0. -1.
         11    1    3    3    0    0  0.33012896270E+01 -0.44115906055E+01  0.64573391263E+01  0.84886909312E+01  0.51100000000E-03 0. -1.
        -11    1    3    3    0    0  0.38066807263E+02  0.11321760496E+02 -0.20098217629E+01  0.39765606492E+02  0.51100000000E-03 0.  1.
         12    1    3    3    0    0 -0.40727109298E+02 -0.78040176043E+01 -0.48749976977E+01  0.41753631280E+02  0.00000000000E+00 0. -1.
</event>
<event>
 7    1  0.2682188E-015  0.9000780E+02  0.7816164E-02  0.1186339E+00
        -11   -1    0    0    0    0  0.00000000000E+00  0.00000000000E+00  0.45593999997E+02  0.45594000000E+02  0.51100000000E-03 0.  1.
         11   -1    0    0    0    0 -0.00000000000E+00 -0.00000000000E+00 -0.45593999997E+02  0.45594000000E+02  0.51100000000E-03 0. -1.
    9900012    2    1    2    0    0  0.50929680877E+00 -0.57480881469E+00  0.89615378101E+00  0.90007796623E+02  0.90000058738E+02 0.  0.
         12    1    1    2    0    0 -0.50929680877E+00  0.57480881469E+00 -0.89615378101E+00  0.11802033774E+01  0.00000000000E+00 0. -1.
         11    1    3    3    0    0  0.33315216299E+02  0.96061646405E+01 -0.10048490166E+02  0.36099227014E+02  0.51100000000E-03 0. -1.
        -11    1    3    3    0    0  0.27315425078E+01  0.98370974268E+01 -0.32616825137E+01  0.10717666879E+02  0.51100000000E-03 0.  1.
        -12    1    3    3    0    0 -0.35537461998E+02 -0.20018070882E+02  0.14206326460E+02  0.43190902729E+02  0.00000000000E+00 0.  1.
</event>
<event>
 7    1  0.2682188E-015  0.9000774E+02  0.7816164E-02  0.1186339E+00
        -11   -1    0    0    0    0  0.00000000000E+00  0.00000000000E+00  0.45593999997E+02  0.45594000000E+02  0.51100000000E-03 0. -1.
         11   -1    0    0    0    0 -0.00000000000E+00 -0.00000000000E+00 -0.45593999997E+02  0.45594000000E+02  0.51100000000E-03 0.  1.
    9900012    2    1    2    0    0 -0.66251363058E+00 -0.79879753454E+00  0.56215620188E+00  0.90007736721E+02  0.89999998046E+02 0.  0.
         12    1    1    2    0    0  0.66251363058E+00  0.79879753454E+00 -0.56215620188E+00  0.11802632788E+01  0.00000000000E+00 0. -1.
         11    1    3    3    0    0  0.67696024051E+01 -0.25314427131E+02  0.28553469834E+02  0.38754978745E+02  0.51100000000E-03 0. -1.
        -11    1    3    3    0    0  0.90833197505E+01 -0.39896743954E+01 -0.77290345780E+01  0.12576254420E+02  0.51100000000E-03 0.  1.
        -12    1    3    3    0    0 -0.16515435786E+02  0.28505303992E+02 -0.20262279054E+02  0.38676503556E+02  0.00000000000E+00 0.  1.
</event>
<event>
 7    1  0.2860637E-015  0.9000772E+02  0.7816164E-02  0.1186339E+00
        -11   -1    0    0    0    0  0.00000000000E+00  0.00000000000E+00  0.45593999997E+02  0.45594000000E+02  0.51100000000E-03 0.  1.
         11   -1    0    0    0    0 -0.00000000000E+00 -0.00000000000E+00 -0.45593999997E+02  0.45594000000E+02  0.51100000000E-03 0. -1.
    9900012    2    1    2    0    0  0.10248893297E+01  0.11696898180E+00  0.57355929332E+00  0.90007724548E+02  0.89999985712E+02 0.  0.
         12    1    1    2    0    0 -0.10248893297E+01 -0.11696898180E+00 -0.57355929332E+00  0.11802754525E+01  0.00000000000E+00 0. -1.
         11    1    3    3    0    0  0.63555327480E+01 -0.48778032879E+01 -0.50955285765E+01  0.94947445022E+01  0.51100000000E-03 0. -1.
        -11    1    3    3    0    0 -0.12496266850E+01 -0.33852599294E+02  0.19485896788E+02  0.39080176813E+02  0.51100000000E-03 0.  1.
         12    1    3    3    0    0 -0.40810167333E+01  0.38847371564E+02 -0.13816808918E+02  0.41432803232E+02  0.00000000000E+00 0. -1.
</event>
<event>
 7    1  0.2682188E-015  0.9000776E+02  0.7816164E-02  0.1186339E+00
        -11   -1    0    0    0    0  0.00000000000E+00  0.00000000000E+00  0.45593999997E+02  0.45594000000E+02  0.51100000000E-03 0. -1.
         11   -1    0    0    0    0 -0.00000000000E+00 -0.00000000000E+00 -0.45593999997E+02  0.45594000000E+02  0.51100000000E-03 0.  1.
    9900012    2    1    2    0    0 -0.96032430936E+00 -0.61717442296E+00  0.29974441030E+00  0.90007756907E+02  0.90000018498E+02 0.  0.
         12    1    1    2    0    0  0.96032430936E+00  0.61717442296E+00 -0.29974441030E+00  0.11802430932E+01  0.00000000000E+00 0. -1.
         11    1    3    3    0    0  0.29697917809E+01  0.81821350866E+01 -0.29310178296E+01  0.91846536993E+01  0.51100000000E-03 0. -1.
        -11    1    3    3    0    0  0.23215641183E+02  0.26092177604E+02 -0.65809720136E+01  0.35539793479E+02  0.51100000000E-03 0.  1.
         12    1    3    3    0    0 -0.27145757273E+02 -0.34891487113E+02  0.98117342535E+01  0.45283309728E+02  0.00000000000E+00 0. -1.
</event>
<event>
 7    1  0.2682188E-015  0.9000775E+02  0.7816164E-02  0.1186339E+00
        -11   -1    0    0    0    0  0.00000000000E+00  0.00000000000E+00  0.45593999997E+02  0.45594000000E+02  0.51100000000E-03 0. -1.
         11   -1    0    0    0    0 -0.00000000000E+00 -0.00000000000E+00 -0.45593999997E+02  0.45594000000E+02  0.51100000000E-03 0.  1.
    9900012    2    1    2    0    0 -0.79989088360E+00 -0.73431399909E+00 -0.46255115291E+00  0.90007747466E+02  0.90000008933E+02 0.  0.
         12    1    1    2    0    0  0.79989088360E+00  0.73431399909E+00  0.46255115291E+00  0.11802525340E+01  0.00000000000E+00 0. -1.
         11    1    3    3    0    0  0.10580659825E+02  0.11913925017E+02  0.31327920156E+02  0.35147269499E+02  0.51100000000E-03 0. -1.
        -11    1    3    3    0    0  0.76725679825E+01  0.24246097792E+01  0.59285358345E+01  0.99947270813E+01  0.51100000000E-03 0.  1.
        -12    1    3    3    0    0 -0.19053118691E+02 -0.15072848795E+02 -0.37719007144E+02  0.44865750886E+02  0.00000000000E+00 0.  1.
</event>
<event>
 7    1  0.2682188E-015  0.9000810E+02  0.7816164E-02  0.1186338E+00
        -11   -1    0    0    0    0  0.00000000000E+00  0.00000000000E+00  0.45593999997E+02  0.45594000000E+02  0.51100000000E-03 0.  1.
         11   -1    0    0    0    0 -0.00000000000E+00 -0.00000000000E+00 -0.45593999997E+02  0.45594000000E+02  0.51100000000E-03 0. -1.
    9900012    2    1    2    0    0  0.10246897898E+01 -0.58219568211E+00  0.56741154317E-01  0.90008101472E+02  0.90000367611E+02 0.  0.
         12    1    1    2    0    0 -0.10246897898E+01  0.58219568211E+00 -0.56741154317E-01  0.11798985279E+01  0.00000000000E+00 0. -1.
         11    1    3    3    0    0 -0.12405375592E+02  0.20445421708E+00 -0.63704296316E+00  0.12423404087E+02  0.51100000000E-03 0. -1.
        -11    1    3    3    0    0  0.12655948555E+01 -0.26920209062E+02  0.27296761363E+02  0.38358995913E+02  0.51100000000E-03 0.  1.
         12    1    3    3    0    0  0.12164470526E+02  0.26133559162E+02 -0.26602977246E+02  0.39225701473E+02  0.00000000000E+00 0. -1.
</event>
<event>
 7    1  0.2682188E-015  0.9000775E+02  0.7816164E-02  0.1186339E+00
        -11   -1    0    0    0    0  0.00000000000E+00  0.00000000000E+00  0.45593999997E+02  0.45594000000E+02  0.51100000000E-03 0.  1.
         11   -1    0    0    0    0 -0.00000000000E+00 -0.00000000000E+00 -0.45593999997E+02  0.45594000000E+02  0.51100000000E-03 0. -1.
    9900012    2    1    2    0    0  0.57269891443E+00 -0.22036130786E+00  0.10081912213E+01  0.90007748886E+02  0.90000010372E+02 0.  0.
         12    1    1    2    0    0 -0.57269891443E+00  0.22036130786E+00 -0.10081912213E+01  0.11802511136E+01  0.00000000000E+00 0. -1.
         11    1    3    3    0    0  0.18955166217E+02 -0.33409173927E+02 -0.17331070991E+01  0.38450941332E+02  0.51100000000E-03 0. -1.
        -11    1    3    3    0    0 -0.91534759950E+00 -0.45837009991E+01  0.83456659212E+01  0.95654752107E+01  0.51100000000E-03 0.  1.
        -12    1    3    3    0    0 -0.17467119703E+02  0.37772513619E+02 -0.56043676008E+01  0.41991332344E+02  0.00000000000E+00 0.  1.
</event>
<event>
 7    1  0.2682188E-015  0.9000772E+02  0.7816164E-02  0.1186339E+00
        -11   -1    0    0    0    0  0.00000000000E+00  0.00000000000E+00  0.45593999997E+02  0.45594000000E+02  0.51100000000E-03 0.  1.
         11   -1    0    0    0    0 -0.00000000000E+00 -0.00000000000E+00 -0.45593999997E+02  0.45594000000E+02  0.51100000000E-03 0. -1.
    9900012    2    1    2    0    0 -0.23699617909E+00 -0.46308045945E+00  0.10594573776E+01  0.90007720103E+02  0.89999981208E+02 0.  0.
         12    1    1    2    0    0  0.23699617909E+00  0.46308045945E+00 -0.10594573776E+01  0.11802798972E+01  0.00000000000E+00 0. -1.
         11    1    3    3    0    0  0.33165344534E+02 -0.97585296916E+01 -0.31961203667E+01  0.34718642909E+02  0.51100000000E-03 0. -1.
        -11    1    3    3    0    0  0.96209285607E+01  0.52328340149E+01  0.50659077765E+01  0.12066823942E+02  0.51100000000E-03 0.  1.
        -12    1    3    3    0    0 -0.43023269273E+02  0.40626152173E+01 -0.81033003234E+00  0.43222253251E+02  0.00000000000E+00 0.  1.
</event>
<event>
 7    1  0.2682188E-015  0.9000781E+02  0.7816164E-02  0.1186339E+00
        -11   -1    0    0    0    0  0.00000000000E+00  0.00000000000E+00  0.45593999997E+02  0.45594000000E+02  0.51100000000E-03 0. -1.
         11   -1    0    0    0    0 -0.00000000000E+00 -0.00000000000E+00 -0.45593999997E+02  0.45594000000E+02  0.51100000000E-03 0.  1.
    9900012    2    1    2    0    0 -0.50619472693E+00  0.57042124728E+00 -0.90068778554E+00  0.90007808495E+02  0.90000070767E+02 0.  0.
         12    1    1    2    0    0  0.50619472693E+00 -0.57042124728E+00  0.90068778554E+00  0.11801915048E+01  0.00000000000E+00 0. -1.
         11    1    3    3    0    0 -0.21141046105E+02 -0.22393586555E+02 -0.40810839738E+01  0.31065604708E+02  0.51100000000E-03 0. -1.
        -11    1    3    3    0    0 -0.38969032505E+01 -0.11626760948E+02 -0.85429424089E+01  0.14944875053E+02  0.51100000000E-03 0.  1.
        -12    1    3    3    0    0  0.24531754629E+02  0.34590768750E+02  0.11723338597E+02  0.43997328734E+02  0.00000000000E+00 0.  1.
</event>
<event>
 7    1  0.2682188E-015  0.9000777E+02  0.7816164E-02  0.1186339E+00
        -11   -1    0    0    0    0  0.00000000000E+00  0.00000000000E+00  0.45593999997E+02  0.45594000000E+02  0.51100000000E-03 0. -1.
         11   -1    0    0    0    0 -0.00000000000E+00 -0.00000000000E+00 -0.45593999997E+02  0.45594000000E+02  0.51100000000E-03 0.  1.
    9900012    2    1    2    0    0 -0.79695507649E+00  0.81652156241E+00 -0.30182770733E+00  0.90007769166E+02  0.90000030919E+02 0.  0.
         12    1    1    2    0    0  0.79695507649E+00 -0.81652156241E+00  0.30182770733E+00  0.11802308337E+01  0.00000000000E+00 0. -1.
         11    1    3    3    0    0  0.35491125468E+02  0.76503113663E+01  0.11716537133E+02  0.38150026129E+02  0.51100000000E-03 0. -1.
        -11    1    3    3    0    0 -0.15320379305E+01  0.11113676330E+02 -0.12631149836E+01  0.11289659052E+02  0.51100000000E-03 0.  1.
        -12    1    3    3    0    0 -0.34756042614E+02 -0.17947466134E+02 -0.10755249857E+02  0.40568083986E+02  0.00000000000E+00 0.  1.
</event>
<event>
 7    1  0.2682188E-015  0.9000771E+02  0.7816164E-02  0.1186339E+00
        -11   -1    0    0    0    0  0.00000000000E+00  0.00000000000E+00  0.45593999997E+02  0.45594000000E+02  0.51100000000E-03 0.  1.
         11   -1    0    0    0    0 -0.00000000000E+00 -0.00000000000E+00 -0.45593999997E+02  0.45594000000E+02  0.51100000000E-03 0. -1.
    9900012    2    1    2    0    0 -0.79052274367E+00  0.81236318147E+00  0.32896520480E+00  0.90007712640E+02  0.89999973647E+02 0.  0.
         12    1    1    2    0    0  0.79052274367E+00 -0.81236318147E+00 -0.32896520480E+00  0.11802873603E+01  0.00000000000E+00 0. -1.
         11    1    3    3    0    0  0.10045533304E+02  0.33941089628E+02  0.28442266401E+00  0.35397615753E+02  0.51100000000E-03 0. -1.
        -11    1    3    3    0    0 -0.95658787296E+01  0.75263133256E+01  0.58819853427E+01  0.13518475505E+02  0.51100000000E-03 0.  1.
        -12    1    3    3    0    0 -0.12701773185E+01 -0.40655039772E+02 -0.58374428019E+01  0.41091621381E+02  0.00000000000E+00 0.  1.
</event>
<event>
 7    1  0.2682188E-015  0.9000771E+02  0.7816164E-02  0.1186339E+00
        -11   -1    0    0    0    0  0.00000000000E+00  0.00000000000E+00  0.45593999997E+02  0.45594000000E+02  0.51100000000E-03 0.  1.
         11   -1    0    0    0    0 -0.00000000000E+00 -0.00000000000E+00 -0.45593999997E+02  0.45594000000E+02  0.51100000000E-03 0. -1.
    9900012    2    1    2    0    0  0.82313421685E+00  0.53486749043E+00  0.65533182357E+00  0.90007706405E+02  0.89999967330E+02 0.  0.
         12    1    1    2    0    0 -0.82313421685E+00 -0.53486749043E+00 -0.65533182357E+00  0.11802935949E+01  0.00000000000E+00 0. -1.
         11    1    3    3    0    0  0.15705718974E+01  0.10058262000E+02  0.16424696802E+01  0.10311791185E+02  0.51100000000E-03 0. -1.
        -11    1    3    3    0    0 -0.36042809694E+02 -0.43371120224E+01  0.16604488242E+02  0.39919966200E+02  0.51100000000E-03 0.  1.
         12    1    3    3    0    0  0.35295372014E+02 -0.51862824868E+01 -0.17591626099E+02  0.39775949020E+02  0.00000000000E+00 0. -1.
</event>
<event>
 7    1  0.2682188E-015  0.9000775E+02  0.7816164E-02  0.1186339E+00
        -11   -1    0    0    0    0  0.00000000000E+00  0.00000000000E+00  0.45593999997E+02  0.45594000000E+02  0.51100000000E-03 0.  1.
         11   -1    0    0    0    0 -0.00000000000E+00 -0.00000000000E+00 -0.45593999997E+02  0.45594000000E+02  0.51100000000E-03 0. -1.
    9900012    2    1    2    0    0  0.93455136079E+00  0.64165219433E+00  0.32844778182E+00  0.90007753530E+02  0.90000015077E+02 0.  0.
         12    1    1    2    0    0 -0.93455136079E+00 -0.64165219433E+00 -0.32844778182E+00  0.11802464700E+01  0.00000000000E+00 0. -1.
         11    1    3    3    0    0 -0.15251894564E+02 -0.48503126055E+01 -0.35788004587E+02  0.39203661726E+02  0.51100000000E-03 0. -1.
        -11    1    3    3    0    0  0.96092435094E+01  0.57582320222E+01 -0.26262400583E+01  0.11506169386E+02  0.51100000000E-03 0.  1.
        -12    1    3    3    0    0  0.65772024155E+01 -0.26626722240E+00  0.38742692427E+02  0.39297922418E+02  0.00000000000E+00 0.  1.
</event>
<event>
 7    1  0.2682188E-015  0.9000768E+02  0.7816164E-02  0.1186339E+00
        -11   -1    0    0    0    0  0.00000000000E+00  0.00000000000E+00  0.45593999997E+02  0.45594000000E+02  0.51100000000E-03 0. -1.
         11   -1    0    0    0    0 -0.00000000000E+00 -0.00000000000E+00 -0.45593999997E+02  0.45594000000E+02  0.51100000000E-03 0.  1.
    9900012    2    1    2    0    0  0.11346527457E+01  0.24904359023E+00 -0.20904067773E+00  0.90007679040E+02  0.89999939604E+02 0.  0.
         12    1    1    2    0    0 -0.11346527457E+01 -0.24904359023E+00  0.20904067773E+00  0.11803209597E+01  0.00000000000E+00 0. -1.
         11    1    3    3    0    0  0.13634238968E+02 -0.34461243693E+02  0.93017750295E+01  0.38209852238E+02  0.51100000000E-03 0. -1.
        -11    1    3    3    0    0 -0.94663736609E+00 -0.24434551200E+01 -0.12502808157E+02  0.12774459178E+02  0.51100000000E-03 0.  1.
        -12    1    3    3    0    0 -0.11552948856E+02  0.37153742404E+02  0.29919924499E+01  0.39023367623E+02  0.00000000000E+00 0.  1.
</event>
<event>
 7    1  0.2682188E-015  0.9000777E+02  0.7816164E-02  0.1186339E+00
        -11   -1    0    0    0    0  0.00000000000E+00  0.00000000000E+00  0.45593999997E+02  0.45594000000E+02  0.51100000000E-03 0. -1.
         11   -1    0    0    0    0 -0.00000000000E+00 -0.00000000000E+00 -0.45593999997E+02  0.45594000000E+02  0.51100000000E-03 0.  1.
    9900012    2    1    2    0    0 -0.19600757898E+00 -0.64336726084E+00 -0.96984588262E+00  0.90007770599E+02  0.90000032371E+02 0.  0.
         12    1    1    2    0    0  0.19600757898E+00  0.64336726084E+00  0.96984588262E+00  0.11802294012E+01  0.00000000000E+00 0. -1.
         11    1    3    3    0    0  0.21967117709E+02  0.28569856770E+02 -0.18922689091E+01  0.36088386749E+02  0.51100000000E-03 0. -1.
        -11    1    3    3    0    0  0.61028020379E+01  0.36592565443E+01  0.71887205730E+01  0.10114942160E+02  0.51100000000E-03 0.  1.
        -12    1    3    3    0    0 -0.28265927326E+02 -0.32872480575E+02 -0.62662975465E+01  0.43804441689E+02  0.00000000000E+00 0.  1.
</event>
<event>
 7    1  0.2682188E-015  0.9000779E+02  0.7816164E-02  0.1186339E+00
        -11   -1    0    0    0    0  0.00000000000E+00  0.00000000000E+00  0.45593999997E+02  0.45594000000E+02  0.51100000000E-03 0.  1.
         11   -1    0    0    0    0 -0.00000000000E+00 -0.00000000000E+00 -0.45593999997E+02  0.45594000000E+02  0.51100000000E-03 0. -1.
    9900012    2    1    2    0    0  0.82224753978E+00 -0.67694595990E+00 -0.50846841418E+00  0.90007793672E+02  0.90000055748E+02 0.  0.
         12    1    1    2    0    0 -0.82224753978E+00  0.67694595990E+00  0.50846841418E+00  0.11802063284E+01  0.00000000000E+00 0. -1.
         11    1    3    3    0    0  0.52854427070E+00  0.74921477680E+00  0.77779117931E+01  0.78317682519E+01  0.51100000000E-03 0. -1.
        -11    1    3    3    0    0  0.97586232286E+01 -0.23544114020E+02  0.28492183220E+02  0.38227745646E+02  0.51100000000E-03 0.  1.
         12    1    3    3    0    0 -0.94649199595E+01  0.22117953283E+02 -0.36778563427E+02  0.43948279773E+02  0.00000000000E+00 0. -1.
</event>
<event>
 7    1  0.2682188E-015  0.9000785E+02  0.7816164E-02  0.1186339E+00
        -11   -1    0    0    0    0  0.00000000000E+00  0.00000000000E+00  0.45593999997E+02  0.45594000000E+02  0.51100000000E-03 0. -1.
         11   -1    0    0    0    0 -0.00000000000E+00 -0.00000000000E+00 -0.45593999997E+02  0.45594000000E+02  0.51100000000E-03 0.  1.
    9900012    2    1    2    0    0  0.93933930403E+00  0.58282507979E+00  0.41317565961E+00  0.90007848515E+02  0.90000111315E+02 0.  0.
         12    1    1    2    0    0 -0.93933930403E+00 -0.58282507979E+00 -0.41317565961E+00  0.11801514849E+01  0.00000000000E+00 0. -1.
         11    1    3    3    0    0 -0.48131742286E+01  0.47257885542E+01  0.72377093240E+01  0.98936424099E+01  0.51100000000E-03 0. -1.
        -11    1    3    3    0    0 -0.30640981981E+01 -0.31065826751E+02  0.23155024555E+02  0.38866816848E+02  0.51100000000E-03 0.  1.
         12    1    3    3    0    0  0.88166117308E+01  0.26922863277E+02 -0.29979558220E+02  0.41247389257E+02  0.00000000000E+00 0. -1.
</event>
<event>
 7    1  0.2682188E-015  0.9000773E+02  0.7816164E-02  0.1186339E+00
        -11   -1    0    0    0    0  0.00000000000E+00  0.00000000000E+00  0.45593999997E+02  0.45594000000E+02  0.51100000000E-03 0.  1.
         11   -1    0    0    0    0 -0.00000000000E+00 -0.00000000000E+00 -0.45593999997E+02  0.45594000000E+02  0.51100000000E-03 0. -1.
    9900012    2    1    2    0    0  0.11004503910E+01 -0.34660683887E+00  0.24882941360E+00  0.90007727387E+02  0.89999988589E+02 0.  0.
         12    1    1    2    0    0 -0.11004503910E+01  0.34660683887E+00 -0.24882941360E+00  0.11802726130E+01  0.00000000000E+00 0. -1.
         11    1    3    3    0    0  0.46696833020E+01  0.91702331311E+01  0.21466779485E+01  0.10512247348E+02  0.51100000000E-03 0. -1.
        -11    1    3    3    0    0  0.15910462959E+02 -0.37523438031E+02  0.12257289758E+02  0.42560455656E+02  0.51100000000E-03 0.  1.
         12    1    3    3    0    0 -0.19479695870E+02  0.28006598061E+02 -0.14155138293E+02  0.36935024383E+02  0.00000000000E+00 0. -1.
</event>
<event>
 7    1  0.2682188E-015  0.9000773E+02  0.7816164E-02  0.1186339E+00
        -11   -1    0    0    0    0  0.00000000000E+00  0.00000000000E+00  0.45593999997E+02  0.45594000000E+02  0.51100000000E-03 0. -1.
         11   -1    0    0    0    0 -0.00000000000E+00 -0.00000000000E+00 -0.45593999997E+02  0.45594000000E+02  0.51100000000E-03 0.  1.
    9900012    2    1    2    0    0  0.80961803767E+00  0.62368820550E+00 -0.59039816611E+00  0.90007729548E+02  0.89999990778E+02 0.  0.
         12    1    1    2    0    0 -0.80961803767E+00 -0.62368820550E+00  0.59039816611E+00  0.11802704517E+01  0.00000000000E+00 0. -1.
         11    1    3    3    0    0 -0.38317974861E+01  0.48740110328E+01  0.59695786886E+01  0.86066558838E+01  0.51100000000E-03 0. -1.
        -11    1    3    3    0    0 -0.40789905759E+01  0.25537430009E+02 -0.32089028776E+02  0.41212913797E+02  0.51100000000E-03 0.  1.
         12    1    3    3    0    0  0.87204060996E+01 -0.29787752836E+02  0.25529051921E+02  0.40188159868E+02  0.00000000000E+00 0. -1.
</event>
<event>
 7    1  0.2682188E-015  0.9000752E+02  0.7816164E-02  0.1186339E+00
        -11   -1    0    0    0    0  0.00000000000E+00  0.00000000000E+00  0.45593999997E+02  0.45594000000E+02  0.51100000000E-03 0.  1.
         11   -1    0    0    0    0 -0.00000000000E+00 -0.00000000000E+00 -0.45593999997E+02  0.45594000000E+02  0.51100000000E-03 0. -1.
    9900012    2    1    2    0    0  0.17679276481E+00  0.89209357051E+00  0.75262727087E+00  0.90007519408E+02  0.89999777863E+02 0.  0.
         12    1    1    2    0    0 -0.17679276481E+00 -0.89209357051E+00 -0.75262727087E+00  0.11804805924E+01  0.00000000000E+00 0. -1.
         11    1    3    3    0    0  0.23119433580E+02  0.46396623278E+01 -0.34458707120E+02  0.41754486851E+02  0.51100000000E-03 0. -1.
        -11    1    3    3    0    0  0.34022781894E+01 -0.50877224524E+01  0.10237207470E+02  0.11927314604E+02  0.51100000000E-03 0.  1.
        -12    1    3    3    0    0 -0.26344919005E+02  0.13401536951E+01  0.24974126921E+02  0.36325717952E+02  0.00000000000E+00 0.  1.
</event>
<event>
 7    1  0.2682188E-015  0.9000762E+02  0.7816164E-02  0.1186339E+00
        -11   -1    0    0    0    0  0.00000000000E+00  0.00000000000E+00  0.45593999997E+02  0.45594000000E+02  0.51100000000E-03 0.  1.
         11   -1    0    0    0    0 -0.00000000000E+00 -0.00000000000E+00 -0.45593999997E+02  0.45594000000E+02  0.51100000000E-03 0. -1.
    9900012    2    1    2    0    0 -0.72404934770E+00  0.87604393073E+00  0.31874179700E+00  0.90007620078E+02  0.89999879863E+02 0.  0.
         12    1    1    2    0    0  0.72404934770E+00 -0.87604393073E+00 -0.31874179700E+00  0.11803799217E+01  0.00000000000E+00 0. -1.
         11    1    3    3    0    0  0.35054519381E+02 -0.96678789918E+01 -0.22001031615E+02  0.42500971819E+02  0.51100000000E-03 0. -1.
        -11    1    3    3    0    0 -0.87141331861E+00  0.46720634550E+01  0.80351349421E+01  0.93354663461E+01  0.51100000000E-03 0.  1.
        -12    1    3    3    0    0 -0.34907155410E+02  0.58718594674E+01  0.14284638469E+02  0.38171181913E+02  0.00000000000E+00 0.  1.
</event>
<event>
 7    1  0.2682188E-015  0.9000772E+02  0.7816164E-02  0.1186339E+00
        -11   -1    0    0    0    0  0.00000000000E+00  0.00000000000E+00  0.45593999997E+02  0.45594000000E+02  0.51100000000E-03 0.  1.
         11   -1    0    0    0    0 -0.00000000000E+00 -0.00000000000E+00 -0.45593999997E+02  0.45594000000E+02  0.51100000000E-03 0. -1.
    9900012    2    1    2    0    0  0.10312329411E+01 -0.17556939332E+00  0.54661771344E+00  0.90007721679E+02  0.89999982805E+02 0.  0.
         12    1    1    2    0    0 -0.10312329411E+01  0.17556939332E+00 -0.54661771344E+00  0.11802783211E+01  0.00000000000E+00 0. -1.
         11    1    3    3    0    0  0.20171845475E+02  0.24778798969E+02 -0.19612741215E+02  0.37490690131E+02  0.51100000000E-03 0. -1.
        -11    1    3    3    0    0  0.50112930030E+01 -0.69225279577E+00 -0.71263992240E+01  0.87394414956E+01  0.51100000000E-03 0.  1.
        -12    1    3    3    0    0 -0.24151905537E+02 -0.24262115567E+02  0.27285758153E+02  0.43777590053E+02  0.00000000000E+00 0.  1.
</event>
<event>
 7    1  0.2682188E-015  0.9000780E+02  0.7816164E-02  0.1186339E+00
        -11   -1    0    0    0    0  0.00000000000E+00  0.00000000000E+00  0.45593999997E+02  0.45594000000E+02  0.51100000000E-03 0. -1.
         11   -1    0    0    0    0 -0.00000000000E+00 -0.00000000000E+00 -0.45593999997E+02  0.45594000000E+02  0.51100000000E-03 0.  1.
    9900012    2    1    2    0    0 -0.56374635383E+00 -0.96179880373E+00 -0.38731208405E+00  0.90007797670E+02  0.90000059799E+02 0.  0.
         12    1    1    2    0    0  0.56374635383E+00  0.96179880373E+00  0.38731208405E+00  0.11802023304E+01  0.00000000000E+00 0. -1.
         11    1    3    3    0    0 -0.10258252722E+02  0.57271516897E+01 -0.23925374502E+01  0.11989839494E+02  0.51100000000E-03 0. -1.
        -11    1    3    3    0    0  0.64581651717E+01  0.14570062879E+02 -0.33164470115E+02  0.36795063636E+02  0.51100000000E-03 0.  1.
         12    1    3    3    0    0  0.32363411964E+01 -0.21259013373E+02  0.35169695482E+02  0.41222894539E+02  0.00000000000E+00 0. -1.
</event>
<event>
 7    1  0.2682188E-015  0.9000773E+02  0.7816164E-02  0.1186339E+00
        -11   -1    0    0    0    0  0.00000000000E+00  0.00000000000E+00  0.45593999997E+02  0.45594000000E+02  0.51100000000E-03 0.  1.
         11   -1    0    0    0    0 -0.00000000000E+00 -0.00000000000E+00 -0.45593999997E+02  0.45594000000E+02  0.51100000000E-03 0. -1.
    9900012    2    1    2    0    0 -0.60704812715E+00  0.95713004589E+00 -0.32928599061E+00  0.90007731125E+02  0.89999992376E+02 0.  0.
         12    1    1    2    0    0  0.60704812715E+00 -0.95713004589E+00  0.32928599061E+00  0.11802688749E+01  0.00000000000E+00 0. -1.
         11    1    3    3    0    0  0.15710173477E+02  0.50958768499E+01 -0.34276699003E+02  0.38048253657E+02  0.51100000000E-03 0. -1.
        -11    1    3    3    0    0  0.13315397746E+00  0.89738516545E+01 -0.29829983065E+01  0.94575907427E+01  0.51100000000E-03 0.  1.
        -12    1    3    3    0    0 -0.16450375582E+02 -0.13112598458E+02  0.36930411318E+02  0.42501886726E+02  0.00000000000E+00 0.  1.
</event>
<event>
 7    1  0.2682188E-015  0.9000769E+02  0.7816164E-02  0.1186339E+00
        -11   -1    0    0    0    0  0.00000000000E+00  0.00000000000E+00  0.45593999997E+02  0.45594000000E+02  0.51100000000E-03 0.  1.
         11   -1    0    0    0    0 -0.00000000000E+00 -0.00000000000E+00 -0.45593999997E+02  0.45594000000E+02  0.51100000000E-03 0. -1.
    9900012    2    1    2    0    0 -0.34058322296E+00 -0.89322610964E+00  0.69229547920E+00  0.90007693749E+02  0.89999954507E+02 0.  0.
         12    1    1    2    0    0  0.34058322296E+00  0.89322610964E+00 -0.69229547920E+00  0.11803062506E+01  0.00000000000E+00 0. -1.
         11    1    3    3    0    0 -0.17373135376E+02  0.20338221314E+01  0.13970988096E+02  0.22386397073E+02  0.51100000000E-03 0. -1.
        -11    1    3    3    0    0 -0.23182718897E+02 -0.59057718138E+01  0.30471574911E+01  0.24116421070E+02  0.51100000000E-03 0.  1.
         12    1    3    3    0    0  0.40215271050E+02  0.29787235727E+01 -0.16325850108E+02  0.43504875607E+02  0.00000000000E+00 0. -1.
</event>
<event>
 7    1  0.2682188E-015  0.9000771E+02  0.7816164E-02  0.1186339E+00
        -11   -1    0    0    0    0  0.00000000000E+00  0.00000000000E+00  0.45593999997E+02  0.45594000000E+02  0.51100000000E-03 0. -1.
         11   -1    0    0    0    0 -0.00000000000E+00 -0.00000000000E+00 -0.45593999997E+02  0.45594000000E+02  0.51100000000E-03 0.  1.
    9900012    2    1    2    0    0  0.25129047119E+00 -0.42338007682E+00 -0.10727055385E+01  0.90007705646E+02  0.89999966560E+02 0.  0.
         12    1    1    2    0    0 -0.25129047119E+00  0.42338007682E+00  0.10727055385E+01  0.11802943543E+01  0.00000000000E+00 0. -1.
         11    1    3    3    0    0  0.31955488110E+02  0.11356301754E+02  0.13228974067E+02  0.36402260438E+02  0.51100000000E-03 0. -1.
        -11    1    3    3    0    0  0.56347229683E+01 -0.12029415360E+02  0.84496185654E+00  0.13310555872E+02  0.51100000000E-03 0.  1.
        -12    1    3    3    0    0 -0.37338920607E+02  0.24973352961E+00 -0.15146641462E+02  0.40294889335E+02  0.00000000000E+00 0.  1.
</event>
<event>
 7    1  0.2682188E-015  0.9000784E+02  0.7816164E-02  0.1186339E+00
        -11   -1    0    0    0    0  0.00000000000E+00  0.00000000000E+00  0.45593999997E+02  0.45594000000E+02  0.51100000000E-03 0. -1.
         11   -1    0    0    0    0 -0.00000000000E+00 -0.00000000000E+00 -0.45593999997E+02  0.45594000000E+02  0.51100000000E-03 0.  1.
    9900012    2    1    2    0    0 -0.63332792357E+00 -0.75496848978E+00  0.64937932221E+00  0.90007841035E+02  0.90000103736E+02 0.  0.
         12    1    1    2    0    0  0.63332792357E+00  0.75496848978E+00 -0.64937932221E+00  0.11801589653E+01  0.00000000000E+00 0. -1.
         11    1    3    3    0    0  0.23195326735E+01 -0.25372834991E+02 -0.33758112233E+02  0.42293866330E+02  0.51100000000E-03 0. -1.
        -11    1    3    3    0    0 -0.30025232539E+01 -0.35430342028E+01  0.29932651592E+01  0.55252035099E+01  0.51100000000E-03 0.  1.
        -12    1    3    3    0    0  0.49662656787E-01  0.28160900704E+02  0.31414226397E+02  0.42188771195E+02  0.00000000000E+00 0.  1.
</event>
<event>
 7    1  0.2682188E-015  0.9000720E+02  0.7816164E-02  0.1186340E+00
        -11   -1    0    0    0    0  0.00000000000E+00  0.00000000000E+00  0.45593999997E+02  0.45594000000E+02  0.51100000000E-03 0. -1.
         11   -1    0    0    0    0 -0.00000000000E+00 -0.00000000000E+00 -0.45593999997E+02  0.45594000000E+02  0.51100000000E-03 0.  1.
    9900012    2    1    2    0    0  0.20424191213E+00  0.53073651772E+00 -0.10348371382E+01  0.90007202002E+02  0.89999456267E+02 0.  0.
         12    1    1    2    0    0 -0.20424191213E+00 -0.53073651772E+00  0.10348371382E+01  0.11807979982E+01  0.00000000000E+00 0. -1.
         11    1    3    3    0    0  0.17826124622E+02 -0.67267161165E+01 -0.10730798402E+02  0.21867086302E+02  0.51100000000E-03 0. -1.
        -11    1    3    3    0    0  0.16948289045E+01 -0.50670031355E+00 -0.26406198294E+02  0.26465383028E+02  0.51100000000E-03 0.  1.
         12    1    3    3    0    0 -0.19316711614E+02  0.77641529478E+01  0.36102159557E+02  0.41674732672E+02  0.00000000000E+00 0. -1.
</event>
<event>
 7    1  0.2682188E-015  0.9000781E+02  0.7816164E-02  0.1186339E+00
        -11   -1    0    0    0    0  0.00000000000E+00  0.00000000000E+00  0.45593999997E+02  0.45594000000E+02  0.51100000000E-03 0. -1.
         11   -1    0    0    0    0 -0.00000000000E+00 -0.00000000000E+00 -0.45593999997E+02  0.45594000000E+02  0.51100000000E-03 0.  1.
    9900012    2    1    2    0    0 -0.62008988153E-01 -0.11605582272E+01 -0.20522573641E+00  0.90007805899E+02  0.90000068137E+02 0.  0.
         12    1    1    2    0    0  0.62008988153E-01  0.11605582272E+01  0.20522573641E+00  0.11801941011E+01  0.00000000000E+00 0. -1.
         11    1    3    3    0    0  0.59048054420E+01  0.37263220836E+01 -0.39283210965E+01  0.80114861591E+01  0.51100000000E-03 0. -1.
        -11    1    3    3    0    0 -0.97104659483E+00 -0.36927860220E+02 -0.19821212520E+02  0.41922431441E+02  0.51100000000E-03 0.  1.
         12    1    3    3    0    0 -0.49957678353E+01  0.32040979909E+02  0.23544307880E+02  0.40073888299E+02  0.00000000000E+00 0. -1.
</event>
<event>
 7    1  0.2682188E-015  0.9000767E+02  0.7816164E-02  0.1186339E+00
        -11   -1    0    0    0    0  0.00000000000E+00  0.00000000000E+00  0.45593999997E+02  0.45594000000E+02  0.51100000000E-03 0. -1.
         11   -1    0    0    0    0 -0.00000000000E+00 -0.00000000000E+00 -0.45593999997E+02  0.45594000000E+02  0.51100000000E-03 0.  1.
    9900012    2    1    2    0    0 -0.90957635907E+00 -0.52626267132E+00 -0.53749744908E+00  0.90007667394E+02  0.89999927804E+02 0.  0.
         12    1    1    2    0    0  0.90957635907E+00  0.52626267132E+00  0.53749744908E+00  0.11803326057E+01  0.00000000000E+00 0. -1.
         11    1    3    3    0    0 -0.23022770696E+02 -0.62842624263E+01  0.29746564004E+02  0.38136570311E+02  0.51100000000E-03 0. -1.
        -11    1    3    3    0    0 -0.81638796060E+01 -0.51756480360E+01 -0.46808106659E+01  0.10739937224E+02  0.51100000000E-03 0.  1.
        -12    1    3    3    0    0  0.30277073943E+02  0.10933647791E+02 -0.25603250787E+02  0.41131159860E+02  0.00000000000E+00 0.  1.
</event>
<event>
 7    1  0.2682188E-015  0.9000788E+02  0.7816164E-02  0.1186339E+00
        -11   -1    0    0    0    0  0.00000000000E+00  0.00000000000E+00  0.45593999997E+02  0.45594000000E+02  0.51100000000E-03 0.  1.
         11   -1    0    0    0    0 -0.00000000000E+00 -0.00000000000E+00 -0.45593999997E+02  0.45594000000E+02  0.51100000000E-03 0. -1.
    9900012    2    1    2    0    0  0.37080604707E+00 -0.10019605969E+01  0.50125857189E+00  0.90007880380E+02  0.90000143601E+02 0.  0.
         12    1    1    2    0    0 -0.37080604707E+00  0.10019605969E+01 -0.50125857189E+00  0.11801196202E+01  0.00000000000E+00 0. -1.
         11    1    3    3    0    0 -0.19811537220E+01  0.19215986280E+02  0.31039819384E+02  0.36560217265E+02  0.51100000000E-03 0. -1.
        -11    1    3    3    0    0 -0.48965625377E+01 -0.32365346502E+01  0.84613702059E+01  0.10297876832E+02  0.51100000000E-03 0.  1.
        -12    1    3    3    0    0  0.72485223067E+01 -0.16981412227E+02 -0.38999931018E+02  0.43149786283E+02  0.00000000000E+00 0.  1.
</event>
<event>
 7    1  0.2682188E-015  0.9000665E+02  0.7816164E-02  0.1186341E+00
        -11   -1    0    0    0    0  0.00000000000E+00  0.00000000000E+00  0.45593999997E+02  0.45594000000E+02  0.51100000000E-03 0. -1.
         11   -1    0    0    0    0 -0.00000000000E+00 -0.00000000000E+00 -0.45593999997E+02  0.45594000000E+02  0.51100000000E-03 0.  1.
    9900012    2    1    2    0    0  0.23885983054E+00 -0.76256360267E+00 -0.87007333228E+00  0.90006651250E+02  0.89998898239E+02 0.  0.
         12    1    1    2    0    0 -0.23885983054E+00  0.76256360267E+00  0.87007333228E+00  0.11813487505E+01  0.00000000000E+00 0. -1.
         11    1    3    3    0    0  0.22108704860E+02  0.19689932497E+02 -0.24843476761E+02  0.38648242006E+02  0.51100000000E-03 0. -1.
        -11    1    3    3    0    0  0.65922856426E+01 -0.77478998619E+01  0.16373423434E+02  0.19276337243E+02  0.51100000000E-03 0.  1.
        -12    1    3    3    0    0 -0.28462130672E+02 -0.12704596238E+02  0.75999799942E+01  0.32082072001E+02  0.00000000000E+00 0.  1.
</event>
<event>
 7    1  0.2682188E-015  0.9000776E+02  0.7816164E-02  0.1186339E+00
        -11   -1    0    0    0    0  0.00000000000E+00  0.00000000000E+00  0.45593999997E+02  0.45594000000E+02  0.51100000000E-03 0. -1.
         11   -1    0    0    0    0 -0.00000000000E+00 -0.00000000000E+00 -0.45593999997E+02  0.45594000000E+02  0.51100000000E-03 0.  1.
    9900012    2    1    2    0    0  0.33853939356E+00 -0.10816960119E+00 -0.11254548530E+01  0.90007763494E+02  0.90000025172E+02 0.  0.
         12    1    1    2    0    0 -0.33853939356E+00  0.10816960119E+00  0.11254548530E+01  0.11802365059E+01  0.00000000000E+00 0. -1.
         11    1    3    3    0    0  0.94154557282E+01 -0.41074542826E+01 -0.22498640226E+01  0.10515886821E+02  0.51100000000E-03 0. -1.
        -11    1    3    3    0    0  0.48113459366E+01  0.28877458592E+02 -0.26732516890E+02  0.39644471544E+02  0.51100000000E-03 0.  1.
         12    1    3    3    0    0 -0.13888262271E+02 -0.24878173910E+02  0.27856926060E+02  0.39847405129E+02  0.00000000000E+00 0. -1.
</event>
<event>
 7    1  0.2682188E-015  0.9000777E+02  0.7816164E-02  0.1186339E+00
        -11   -1    0    0    0    0  0.00000000000E+00  0.00000000000E+00  0.45593999997E+02  0.45594000000E+02  0.51100000000E-03 0.  1.
         11   -1    0    0    0    0 -0.00000000000E+00 -0.00000000000E+00 -0.45593999997E+02  0.45594000000E+02  0.51100000000E-03 0. -1.
    9900012    2    1    2    0    0  0.39332088127E+00 -0.71546158202E+00  0.85226069211E+00  0.90007773378E+02  0.90000035187E+02 0.  0.
         12    1    1    2    0    0 -0.39332088127E+00  0.71546158202E+00 -0.85226069211E+00  0.11802266216E+01  0.00000000000E+00 0. -1.
         11    1    3    3    0    0 -0.68665681748E+01 -0.26846948828E+01 -0.10128243297E+02  0.12527516021E+02  0.51100000000E-03 0. -1.
        -11    1    3    3    0    0  0.39210298512E+02  0.45395966317E+01 -0.79345285964E+01  0.40261795679E+02  0.51100000000E-03 0.  1.
         12    1    3    3    0    0 -0.31950409456E+02 -0.25703633309E+01  0.18915032585E+02  0.37218461679E+02  0.00000000000E+00 0. -1.
</event>
<event>
 7    1  0.2682188E-015  0.9000772E+02  0.7816164E-02  0.1186339E+00
        -11   -1    0    0    0    0  0.00000000000E+00  0.00000000000E+00  0.45593999997E+02  0.45594000000E+02  0.51100000000E-03 0. -1.
         11   -1    0    0    0    0 -0.00000000000E+00 -0.00000000000E+00 -0.45593999997E+02  0.45594000000E+02  0.51100000000E-03 0.  1.
    9900012    2    1    2    0    0 -0.73153866931E+00 -0.87672175470E-01 -0.92207228768E+00  0.90007723533E+02  0.89999984684E+02 0.  0.
         12    1    1    2    0    0  0.73153866931E+00  0.87672175470E-01  0.92207228768E+00  0.11802764671E+01  0.00000000000E+00 0. -1.
         11    1    3    3    0    0 -0.11459250673E+02 -0.73968071592E+01 -0.32613579028E+01  0.14023681320E+02  0.51100000000E-03 0. -1.
        -11    1    3    3    0    0  0.29829494171E+02 -0.68399120059E+01 -0.25171697337E+02  0.39625717228E+02  0.51100000000E-03 0.  1.
         12    1    3    3    0    0 -0.19101782168E+02  0.14149046990E+02  0.27510982952E+02  0.36358324985E+02  0.00000000000E+00 0. -1.
</event>
<event>
 7    1  0.2682188E-015  0.9000777E+02  0.7816164E-02  0.1186339E+00
        -11   -1    0    0    0    0  0.00000000000E+00  0.00000000000E+00  0.45593999997E+02  0.45594000000E+02  0.51100000000E-03 0.  1.
         11   -1    0    0    0    0 -0.00000000000E+00 -0.00000000000E+00 -0.45593999997E+02  0.45594000000E+02  0.51100000000E-03 0. -1.
    9900012    2    1    2    0    0 -0.64097183141E+00  0.80436814267E+00 -0.57887541655E+00  0.90007767080E+02  0.90000028805E+02 0.  0.
         12    1    1    2    0    0  0.64097183141E+00 -0.80436814267E+00  0.57887541655E+00  0.11802329200E+01  0.00000000000E+00 0. -1.
         11    1    3    3    0    0  0.42485913148E+01  0.24607674489E+02 -0.26769444112E+02  0.36608623441E+02  0.51100000000E-03 0. -1.
        -11    1    3    3    0    0 -0.10311512529E+02  0.75461132931E+01  0.99600979806E+00  0.12816518726E+02  0.51100000000E-03 0.  1.
        -12    1    3    3    0    0  0.54219493828E+01 -0.31349419639E+02  0.25194558897E+02  0.40582624913E+02  0.00000000000E+00 0.  1.
</event>
<event>
 7    1  0.2732773E-015  0.9000776E+02  0.7816164E-02  0.1186339E+00
        -11   -1    0    0    0    0  0.00000000000E+00  0.00000000000E+00  0.45593999997E+02  0.45594000000E+02  0.51100000000E-03 0.  1.
         11   -1    0    0    0    0 -0.00000000000E+00 -0.00000000000E+00 -0.45593999997E+02  0.45594000000E+02  0.51100000000E-03 0. -1.
    9900012    2    1    2    0    0 -0.88371022063E+00 -0.77860655051E+00 -0.76187933919E-01  0.90007755739E+02  0.90000017315E+02 0.  0.
         12    1    1    2    0    0  0.88371022063E+00  0.77860655051E+00  0.76187933919E-01  0.11802442611E+01  0.00000000000E+00 0. -1.
         11    1    3    3    0    0  0.96906825433E+00 -0.69270030524E+01  0.72633187637E+01  0.10083564067E+02  0.51100000000E-03 0. -1.
        -11    1    3    3    0    0 -0.15440171352E+02  0.34353558301E+02  0.15952427083E+02  0.40902882410E+02  0.51100000000E-03 0.  1.
         12    1    3    3    0    0  0.13587392877E+02 -0.28205161799E+02 -0.23291933781E+02  0.39021309262E+02  0.00000000000E+00 0. -1.
</event>
<event>
 7    1  0.2682188E-015  0.9000741E+02  0.7816164E-02  0.1186340E+00
        -11   -1    0    0    0    0  0.00000000000E+00  0.00000000000E+00  0.45593999997E+02  0.45594000000E+02  0.51100000000E-03 0. -1.
         11   -1    0    0    0    0 -0.00000000000E+00 -0.00000000000E+00 -0.45593999997E+02  0.45594000000E+02  0.51100000000E-03 0.  1.
    9900012    2    1    2    0    0 -0.70174089188E+00  0.47744824802E+00 -0.82061072627E+00  0.90007407321E+02  0.89999664297E+02 0.  0.
         12    1    1    2    0    0  0.70174089188E+00 -0.47744824802E+00  0.82061072627E+00  0.11805926787E+01  0.00000000000E+00 0. -1.
         11    1    3    3    0    0  0.28683612019E+02 -0.24906473759E+02 -0.13194538173E+02  0.40214150139E+02  0.51100000000E-03 0. -1.
        -11    1    3    3    0    0  0.34978258813E+01  0.67114195434E+01 -0.40292558039E+01  0.85739629565E+01  0.51100000000E-03 0.  1.
        -12    1    3    3    0    0 -0.32883178792E+02  0.18672502463E+02  0.16403183251E+02  0.41219294226E+02  0.00000000000E+00 0.  1.
</event>
<event>
 7    1  0.2682188E-015  0.9000774E+02  0.7816164E-02  0.1186339E+00
        -11   -1    0    0    0    0  0.00000000000E+00  0.00000000000E+00  0.45593999997E+02  0.45594000000E+02  0.51100000000E-03 0. -1.
         11   -1    0    0    0    0 -0.00000000000E+00 -0.00000000000E+00 -0.45593999997E+02  0.45594000000E+02  0.51100000000E-03 0.  1.
    9900012    2    1    2    0    0  0.39126299970E+00  0.71092035244E-01 -0.11112529700E+01  0.90007735633E+02  0.89999996943E+02 0.  0.
         12    1    1    2    0    0 -0.39126299970E+00 -0.71092035244E-01  0.11112529700E+01  0.11802643669E+01  0.00000000000E+00 0. -1.
         11    1    3    3    0    0 -0.10834009094E+02 -0.38741450515E+02 -0.75704649552E+01  0.40933942896E+02  0.51100000000E-03 0. -1.
        -11    1    3    3    0    0 -0.14816463440E+01  0.31918134364E+01 -0.78778850635E+01  0.86280949367E+01  0.51100000000E-03 0.  1.
        -12    1    3    3    0    0  0.12706918437E+02  0.35620729114E+02  0.14337097049E+02  0.40445697801E+02  0.00000000000E+00 0.  1.
</event>
<event>
 7    1  0.2682188E-015  0.9000832E+02  0.7816164E-02  0.1186338E+00
        -11   -1    0    0    0    0  0.00000000000E+00  0.00000000000E+00  0.45593999997E+02  0.45594000000E+02  0.51100000000E-03 0.  1.
         11   -1    0    0    0    0 -0.00000000000E+00 -0.00000000000E+00 -0.45593999997E+02  0.45594000000E+02  0.51100000000E-03 0. -1.
    9900012    2    1    2    0    0  0.82765262669E+00 -0.84025387165E+00 -0.24675908119E-01  0.90008320238E+02  0.90000589264E+02 0.  0.
         12    1    1    2    0    0 -0.82765262669E+00  0.84025387165E+00  0.24675908119E-01  0.11796797615E+01  0.00000000000E+00 0. -1.
         11    1    3    3    0    0 -0.99835295676E+01 -0.86652462222E+00 -0.36035895078E+02  0.37403308167E+02  0.51100000000E-03 0. -1.
        -11    1    3    3    0    0  0.38756926886E+01 -0.18284730960E+01 -0.74285490741E+01  0.85759926123E+01  0.51100000000E-03 0.  1.
        -12    1    3    3    0    0  0.69354895058E+01  0.18547438466E+01  0.43439768244E+02  0.44029019459E+02  0.00000000000E+00 0.  1.
</event>
<event>
 7    1  0.2682188E-015  0.9000775E+02  0.7816164E-02  0.1186339E+00
        -11   -1    0    0    0    0  0.00000000000E+00  0.00000000000E+00  0.45593999997E+02  0.45594000000E+02  0.51100000000E-03 0.  1.
         11   -1    0    0    0    0 -0.00000000000E+00 -0.00000000000E+00 -0.45593999997E+02  0.45594000000E+02  0.51100000000E-03 0. -1.
    9900012    2    1    2    0    0 -0.90635428931E+00  0.59406273912E+00 -0.46754072213E+00  0.90007753008E+02  0.90000014547E+02 0.  0.
         12    1    1    2    0    0  0.90635428931E+00 -0.59406273912E+00  0.46754072213E+00  0.11802469922E+01  0.00000000000E+00 0. -1.
         11    1    3    3    0    0 -0.63460974412E+01  0.54055911423E+01  0.23528787639E+01  0.86619516894E+01  0.51100000000E-03 0. -1.
        -11    1    3    3    0    0 -0.35067167596E+02 -0.58642168432E+01  0.12985977779E+02  0.37851431961E+02  0.51100000000E-03 0.  1.
         12    1    3    3    0    0  0.40506910748E+02  0.10526884400E+01 -0.15806397265E+02  0.43494369357E+02  0.00000000000E+00 0. -1.
</event>
<event>
 7    1  0.2682188E-015  0.9000781E+02  0.7816164E-02  0.1186339E+00
        -11   -1    0    0    0    0  0.00000000000E+00  0.00000000000E+00  0.45593999997E+02  0.45594000000E+02  0.51100000000E-03 0. -1.
         11   -1    0    0    0    0 -0.00000000000E+00 -0.00000000000E+00 -0.45593999997E+02  0.45594000000E+02  0.51100000000E-03 0.  1.
    9900012    2    1    2    0    0  0.23999982312E+00  0.34157177140E+00 -0.11038927099E+01  0.90007809208E+02  0.90000071490E+02 0.  0.
         12    1    1    2    0    0 -0.23999982312E+00 -0.34157177140E+00  0.11038927099E+01  0.11801907918E+01  0.00000000000E+00 0. -1.
         11    1    3    3    0    0  0.87774003046E+01 -0.36070319501E+02 -0.62219871489E+01  0.37640720361E+02  0.51100000000E-03 0. -1.
        -11    1    3    3    0    0  0.39872214453E+01 -0.34543398829E+01 -0.70859610418E+01  0.88340954845E+01  0.51100000000E-03 0.  1.
        -12    1    3    3    0    0 -0.12524621927E+02  0.39866231155E+02  0.12204055481E+02  0.43532993362E+02  0.00000000000E+00 0.  1.
</event>
<event>
 7    1  0.2682188E-015  0.9000769E+02  0.7816164E-02  0.1186339E+00
        -11   -1    0    0    0    0  0.00000000000E+00  0.00000000000E+00  0.45593999997E+02  0.45594000000E+02  0.51100000000E-03 0.  1.
         11   -1    0    0    0    0 -0.00000000000E+00 -0.00000000000E+00 -0.45593999997E+02  0.45594000000E+02  0.51100000000E-03 0. -1.
    9900012    2    1    2    0    0 -0.52238071520E+00 -0.91440296562E+00  0.53303397124E+00  0.90007686648E+02  0.89999947311E+02 0.  0.
         12    1    1    2    0    0  0.52238071520E+00  0.91440296562E+00 -0.53303397124E+00  0.11803133523E+01  0.00000000000E+00 0. -1.
         11    1    3    3    0    0 -0.28890324038E+01  0.97510175181E+01 -0.14421759632E+01  0.10271743895E+02  0.51100000000E-03 0. -1.
        -11    1    3    3    0    0 -0.25698709084E+02  0.23697443886E+02  0.47679923218E+01  0.35280678088E+02  0.51100000000E-03 0.  1.
         12    1    3    3    0    0  0.28065360773E+02 -0.34362864369E+02 -0.27927823874E+01  0.44455264665E+02  0.00000000000E+00 0. -1.
</event>
<event>
 7    1  0.2682188E-015  0.9000768E+02  0.7816164E-02  0.1186339E+00
        -11   -1    0    0    0    0  0.00000000000E+00  0.00000000000E+00  0.45593999997E+02  0.45594000000E+02  0.51100000000E-03 0. -1.
         11   -1    0    0    0    0 -0.00000000000E+00 -0.00000000000E+00 -0.45593999997E+02  0.45594000000E+02  0.51100000000E-03 0.  1.
    9900012    2    1    2    0    0 -0.42152375680E+00 -0.99696987616E+00  0.47067390931E+00  0.90007675832E+02  0.89999936353E+02 0.  0.
         12    1    1    2    0    0  0.42152375680E+00  0.99696987616E+00 -0.47067390931E+00  0.11803241675E+01  0.00000000000E+00 0. -1.
         11    1    3    3    0    0  0.67251132272E+01  0.52300240495E+01  0.23222631802E+01  0.88302438254E+01  0.51100000000E-03 0. -1.
        -11    1    3    3    0    0  0.23951766955E+02  0.23043942013E+02 -0.15038083732E+02  0.36480876721E+02  0.51100000000E-03 0.  1.
         12    1    3    3    0    0 -0.31098403939E+02 -0.29270935939E+02  0.13186494461E+02  0.44696555286E+02  0.00000000000E+00 0. -1.
</event>
<event>
 7    1  0.2682188E-015  0.9000775E+02  0.7816164E-02  0.1186339E+00
        -11   -1    0    0    0    0  0.00000000000E+00  0.00000000000E+00  0.45593999997E+02  0.45594000000E+02  0.51100000000E-03 0.  1.
         11   -1    0    0    0    0 -0.00000000000E+00 -0.00000000000E+00 -0.45593999997E+02  0.45594000000E+02  0.51100000000E-03 0. -1.
    9900012    2    1    2    0    0 -0.39852219794E+00  0.38893329643E+00  0.10406287614E+01  0.90007746946E+02  0.90000008406E+02 0.  0.
         12    1    1    2    0    0  0.39852219794E+00 -0.38893329643E+00 -0.10406287614E+01  0.11802530536E+01  0.00000000000E+00 0. -1.
         11    1    3    3    0    0  0.28265791064E+01  0.56178472127E+01 -0.97888099062E+01  0.11634885319E+02  0.51100000000E-03 0. -1.
        -11    1    3    3    0    0  0.36466168454E+02 -0.24839911609E+01 -0.18999991950E+01  0.36600022554E+02  0.51100000000E-03 0.  1.
         12    1    3    3    0    0 -0.39691269758E+02 -0.27449227553E+01  0.12729437863E+02  0.41772839073E+02  0.00000000000E+00 0. -1.
</event>
<event>
 7    1  0.2682188E-015  0.9000769E+02  0.7816164E-02  0.1186339E+00
        -11   -1    0    0    0    0  0.00000000000E+00  0.00000000000E+00  0.45593999997E+02  0.45594000000E+02  0.51100000000E-03 0.  1.
         11   -1    0    0    0    0 -0.00000000000E+00 -0.00000000000E+00 -0.45593999997E+02  0.45594000000E+02  0.51100000000E-03 0. -1.
    9900012    2    1    2    0    0  0.10370294967E+01 -0.50783993583E+00  0.24456311721E+00  0.90007685340E+02  0.89999945987E+02 0.  0.
         12    1    1    2    0    0 -0.10370294967E+01  0.50783993583E+00 -0.24456311721E+00  0.11803146596E+01  0.00000000000E+00 0. -1.
         11    1    3    3    0    0 -0.72314715016E+01  0.30513750418E+02  0.25127423277E+02  0.40184207663E+02  0.51100000000E-03 0. -1.
        -11    1    3    3    0    0 -0.57138907928E+01 -0.60466474789E+01  0.39382607752E+01  0.92043680891E+01  0.51100000000E-03 0.  1.
        -12    1    3    3    0    0  0.13982391791E+02 -0.24974942875E+02 -0.28821120935E+02  0.40619109589E+02  0.00000000000E+00 0.  1.
</event>
<event>
 7    1  0.2682188E-015  0.9000775E+02  0.7816164E-02  0.1186339E+00
        -11   -1    0    0    0    0  0.00000000000E+00  0.00000000000E+00  0.45593999997E+02  0.45594000000E+02  0.51100000000E-03 0. -1.
         11   -1    0    0    0    0 -0.00000000000E+00 -0.00000000000E+00 -0.45593999997E+02  0.45594000000E+02  0.51100000000E-03 0.  1.
    9900012    2    1    2    0    0  0.11430909053E+01  0.95633525799E-01  0.27781932099E+00  0.90007751651E+02  0.90000013173E+02 0.  0.
         12    1    1    2    0    0 -0.11430909053E+01 -0.95633525799E-01 -0.27781932099E+00  0.11802483485E+01  0.00000000000E+00 0. -1.
         11    1    3    3    0    0 -0.56773603486E+01  0.45803724552E+01  0.49480598825E+01  0.88145067484E+01  0.51100000000E-03 0. -1.
        -11    1    3    3    0    0  0.11843144730E+02  0.34029049983E+02  0.13287213880E+02  0.38402947449E+02  0.51100000000E-03 0.  1.
         12    1    3    3    0    0 -0.50226934764E+01 -0.38513788912E+02 -0.17957454442E+02  0.42790297454E+02  0.00000000000E+00 0. -1.
</event>
<event>
 7    1  0.2682188E-015  0.9000773E+02  0.7816164E-02  0.1186339E+00
        -11   -1    0    0    0    0  0.00000000000E+00  0.00000000000E+00  0.45593999997E+02  0.45594000000E+02  0.51100000000E-03 0.  1.
         11   -1    0    0    0    0 -0.00000000000E+00 -0.00000000000E+00 -0.45593999997E+02  0.45594000000E+02  0.51100000000E-03 0. -1.
    9900012    2    1    2    0    0 -0.80846494450E+00  0.85977123479E+00  0.14489542920E-01  0.90007732196E+02  0.89999993461E+02 0.  0.
         12    1    1    2    0    0  0.80846494450E+00 -0.85977123479E+00 -0.14489542920E-01  0.11802678041E+01  0.00000000000E+00 0. -1.
         11    1    3    3    0    0 -0.24877708076E+02 -0.21781867017E+02 -0.17310454683E+02  0.37322941088E+02  0.51100000000E-03 0. -1.
        -11    1    3    3    0    0 -0.52027145561E+01 -0.64675373814E+01  0.45808497086E+01  0.94805834655E+01  0.51100000000E-03 0.  1.
        -12    1    3    3    0    0  0.29271957688E+02  0.29109175634E+02  0.12744094517E+02  0.43204207642E+02  0.00000000000E+00 0.  1.
</event>
<event>
 7    1  0.2682188E-015  0.9000774E+02  0.7816164E-02  0.1186339E+00
        -11   -1    0    0    0    0  0.00000000000E+00  0.00000000000E+00  0.45593999997E+02  0.45594000000E+02  0.51100000000E-03 0.  1.
         11   -1    0    0    0    0 -0.00000000000E+00 -0.00000000000E+00 -0.45593999997E+02  0.45594000000E+02  0.51100000000E-03 0. -1.
    9900012    2    1    2    0    0  0.85897436651E+00 -0.80045763209E+00 -0.12013958066E+00  0.90007744561E+02  0.90000005989E+02 0.  0.
         12    1    1    2    0    0 -0.85897436651E+00  0.80045763209E+00  0.12013958066E+00  0.11802554393E+01  0.00000000000E+00 0. -1.
         11    1    3    3    0    0  0.92470915603E+01 -0.18899189847E+01 -0.48550970018E+01  0.10613786471E+02  0.51100000000E-03 0. -1.
        -11    1    3    3    0    0 -0.17708726883E+02 -0.29738656283E+02 -0.18909137522E+02  0.39440362161E+02  0.51100000000E-03 0.  1.
         12    1    3    3    0    0  0.93206096892E+01  0.30828117635E+02  0.23644094943E+02  0.39953595928E+02  0.00000000000E+00 0. -1.
</event>
<event>
 7    1  0.2682188E-015  0.9000772E+02  0.7816164E-02  0.1186339E+00
        -11   -1    0    0    0    0  0.00000000000E+00  0.00000000000E+00  0.45593999997E+02  0.45594000000E+02  0.51100000000E-03 0.  1.
         11   -1    0    0    0    0 -0.00000000000E+00 -0.00000000000E+00 -0.45593999997E+02  0.45594000000E+02  0.51100000000E-03 0. -1.
    9900012    2    1    2    0    0 -0.16432311875E+00  0.36536010539E-01  0.11682135992E+01  0.90007720380E+02  0.89999981489E+02 0.  0.
         12    1    1    2    0    0  0.16432311875E+00 -0.36536010539E-01 -0.11682135992E+01  0.11802796197E+01  0.00000000000E+00 0. -1.
         11    1    3    3    0    0 -0.76787578435E+01  0.12047965629E+01  0.41396089440E+01  0.88063170081E+01  0.51100000000E-03 0. -1.
        -11    1    3    3    0    0 -0.29146374681E+02 -0.22320154429E+02 -0.10563732623E+02  0.38200692376E+02  0.51100000000E-03 0.  1.
         12    1    3    3    0    0  0.36660809406E+02  0.21151893877E+02  0.75923372778E+01  0.43000710997E+02  0.00000000000E+00 0. -1.
</event>
<event>
 7    1  0.2682188E-015  0.9000776E+02  0.7816164E-02  0.1186339E+00
        -11   -1    0    0    0    0  0.00000000000E+00  0.00000000000E+00  0.45593999997E+02  0.45594000000E+02  0.51100000000E-03 0.  1.
         11   -1    0    0    0    0 -0.00000000000E+00 -0.00000000000E+00 -0.45593999997E+02  0.45594000000E+02  0.51100000000E-03 0. -1.
    9900012    2    1    2    0    0 -0.14840296400E+00 -0.30869289969E+00  0.11294439266E+01  0.90007763443E+02  0.90000025121E+02 0.  0.
         12    1    1    2    0    0  0.14840296400E+00  0.30869289969E+00 -0.11294439266E+01  0.11802365566E+01  0.00000000000E+00 0. -1.
         11    1    3    3    0    0 -0.46103058420E+01 -0.70593857340E+01 -0.10762852264E+01  0.84998962963E+01  0.51100000000E-03 0. -1.
        -11    1    3    3    0    0  0.15684323141E+01 -0.10272566621E+02  0.39268426608E+02  0.40620129658E+02  0.51100000000E-03 0.  1.
         12    1    3    3    0    0  0.28934705639E+01  0.17023259456E+02 -0.37062697454E+02  0.40887737489E+02  0.00000000000E+00 0. -1.
</event>
<event>
 7    1  0.2682188E-015  0.9000777E+02  0.7816164E-02  0.1186339E+00
        -11   -1    0    0    0    0  0.00000000000E+00  0.00000000000E+00  0.45593999997E+02  0.45594000000E+02  0.51100000000E-03 0. -1.
         11   -1    0    0    0    0 -0.00000000000E+00 -0.00000000000E+00 -0.45593999997E+02  0.45594000000E+02  0.51100000000E-03 0.  1.
    9900012    2    1    2    0    0 -0.97930627363E+00 -0.46545589545E+00  0.46610517327E+00  0.90007769514E+02  0.90000031271E+02 0.  0.
         12    1    1    2    0    0  0.97930627363E+00  0.46545589545E+00 -0.46610517327E+00  0.11802304863E+01  0.00000000000E+00 0. -1.
         11    1    3    3    0    0  0.11123109835E+01  0.11736405690E+02  0.11434694427E+01  0.11844322559E+02  0.51100000000E-03 0. -1.
        -11    1    3    3    0    0  0.26635708214E+01  0.26058414353E+02  0.21320851180E+02  0.33774461705E+02  0.51100000000E-03 0.  1.
         12    1    3    3    0    0 -0.47551880785E+01 -0.38260275939E+02 -0.21998215449E+02  0.44388985250E+02  0.00000000000E+00 0. -1.
</event>
<event>
 7    1  0.2682188E-015  0.9000770E+02  0.7816164E-02  0.1186339E+00
        -11   -1    0    0    0    0  0.00000000000E+00  0.00000000000E+00  0.45593999997E+02  0.45594000000E+02  0.51100000000E-03 0.  1.
         11   -1    0    0    0    0 -0.00000000000E+00 -0.00000000000E+00 -0.45593999997E+02  0.45594000000E+02  0.51100000000E-03 0. -1.
    9900012    2    1    2    0    0 -0.19229884809E+00  0.81463834779E+00  0.83216153544E+00  0.90007700332E+02  0.89999961177E+02 0.  0.
         12    1    1    2    0    0  0.19229884809E+00 -0.81463834779E+00 -0.83216153544E+00  0.11802996678E+01  0.00000000000E+00 0. -1.
         11    1    3    3    0    0  0.83750136407E+01 -0.37943919927E+02 -0.74056086754E+01  0.39556604417E+02  0.51100000000E-03 0. -1.
        -11    1    3    3    0    0  0.63388064131E+01  0.54358330860E+00  0.69350238567E+01  0.94111904513E+01  0.51100000000E-03 0.  1.
        -12    1    3    3    0    0 -0.14906118902E+02  0.38214974966E+02  0.13027463542E+01  0.41039905464E+02  0.00000000000E+00 0.  1.
</event>
<event>
 7    1  0.2682188E-015  0.9000774E+02  0.7816164E-02  0.1186339E+00
        -11   -1    0    0    0    0  0.00000000000E+00  0.00000000000E+00  0.45593999997E+02  0.45594000000E+02  0.51100000000E-03 0.  1.
         11   -1    0    0    0    0 -0.00000000000E+00 -0.00000000000E+00 -0.45593999997E+02  0.45594000000E+02  0.51100000000E-03 0. -1.
    9900012    2    1    2    0    0 -0.51462319490E+00  0.10569397422E+01  0.10516519030E+00  0.90007738008E+02  0.89999999350E+02 0.  0.
         12    1    1    2    0    0  0.51462319490E+00 -0.10569397422E+01 -0.10516519030E+00  0.11802619916E+01  0.00000000000E+00 0. -1.
         11    1    3    3    0    0  0.24622427009E+02  0.14709708910E+02 -0.20135973689E+02  0.35044213284E+02  0.51100000000E-03 0. -1.
        -11    1    3    3    0    0  0.10491377861E+02  0.38872750748E+01  0.24760840611E+01  0.11459097236E+02  0.51100000000E-03 0.  1.
        -12    1    3    3    0    0 -0.35628428065E+02 -0.17540044242E+02  0.17765054819E+02  0.43504427488E+02  0.00000000000E+00 0.  1.
</event>
<event>
 7    1  0.2682188E-015  0.9000774E+02  0.7816164E-02  0.1186339E+00
        -11   -1    0    0    0    0  0.00000000000E+00  0.00000000000E+00  0.45593999997E+02  0.45594000000E+02  0.51100000000E-03 0.  1.
         11   -1    0    0    0    0 -0.00000000000E+00 -0.00000000000E+00 -0.45593999997E+02  0.45594000000E+02  0.51100000000E-03 0. -1.
    9900012    2    1    2    0    0  0.71866313044E+00 -0.45314813809E+00  0.81926761920E+00  0.90007737588E+02  0.89999998924E+02 0.  0.
         12    1    1    2    0    0 -0.71866313044E+00  0.45314813809E+00 -0.81926761920E+00  0.11802624123E+01  0.00000000000E+00 0. -1.
         11    1    3    3    0    0  0.10981892681E+02 -0.28836674389E+02  0.13953536575E+02  0.33865276315E+02  0.51100000000E-03 0. -1.
        -11    1    3    3    0    0 -0.11961637862E+02 -0.10347423628E+02 -0.38734995729E+01  0.16283548608E+02  0.51100000000E-03 0.  1.
        -12    1    3    3    0    0  0.16984083109E+01  0.38730949878E+02 -0.92607693826E+01  0.39858912665E+02  0.00000000000E+00 0.  1.
</event>
<event>
 7    1  0.2682188E-015  0.9000773E+02  0.7816164E-02  0.1186339E+00
        -11   -1    0    0    0    0  0.00000000000E+00  0.00000000000E+00  0.45593999997E+02  0.45594000000E+02  0.51100000000E-03 0.  1.
         11   -1    0    0    0    0 -0.00000000000E+00 -0.00000000000E+00 -0.45593999997E+02  0.45594000000E+02  0.51100000000E-03 0. -1.
    9900012    2    1    2    0    0 -0.17049369799E+00 -0.92384404236E+00  0.71447248531E+00  0.90007734416E+02  0.89999995711E+02 0.  0.
         12    1    1    2    0    0  0.17049369799E+00  0.92384404236E+00 -0.71447248531E+00  0.11802655836E+01  0.00000000000E+00 0. -1.
         11    1    3    3    0    0  0.29852740525E+02 -0.31198346130E+02  0.18472790693E+01  0.43219617749E+02  0.51100000000E-03 0. -1.
        -11    1    3    3    0    0 -0.80882895765E+01  0.52875561465E+01 -0.83428658684E+01  0.12766443884E+02  0.51100000000E-03 0.  1.
        -12    1    3    3    0    0 -0.21934944647E+02  0.24986945941E+02  0.72100592845E+01  0.34021672784E+02  0.00000000000E+00 0.  1.
</event>
<event>
 7    1  0.2682188E-015  0.9000789E+02  0.7816164E-02  0.1186339E+00
        -11   -1    0    0    0    0  0.00000000000E+00  0.00000000000E+00  0.45593999997E+02  0.45594000000E+02  0.51100000000E-03 0. -1.
         11   -1    0    0    0    0 -0.00000000000E+00 -0.00000000000E+00 -0.45593999997E+02  0.45594000000E+02  0.51100000000E-03 0.  1.
    9900012    2    1    2    0    0  0.63993876509E+00  0.61568720920E+00 -0.77721188816E+00  0.90007893784E+02  0.90000157182E+02 0.  0.
         12    1    1    2    0    0 -0.63993876509E+00 -0.61568720920E+00  0.77721188816E+00  0.11801062163E+01  0.00000000000E+00 0. -1.
         11    1    3    3    0    0 -0.23314959339E+02  0.10145806425E+02  0.87050511494E+01  0.26875688508E+02  0.51100000000E-03 0. -1.
        -11    1    3    3    0    0  0.12739574669E+02 -0.82879029054E+01 -0.33395044557E+02  0.36690804005E+02  0.51100000000E-03 0.  1.
         12    1    3    3    0    0  0.11215323436E+02 -0.12422163107E+01  0.23912781520E+02  0.26441401270E+02  0.00000000000E+00 0. -1.
</event>
<event>
 7    1  0.2682188E-015  0.9000780E+02  0.7816164E-02  0.1186339E+00
        -11   -1    0    0    0    0  0.00000000000E+00  0.00000000000E+00  0.45593999997E+02  0.45594000000E+02  0.51100000000E-03 0. -1.
         11   -1    0    0    0    0 -0.00000000000E+00 -0.00000000000E+00 -0.45593999997E+02  0.45594000000E+02  0.51100000000E-03 0.  1.
    9900012    2    1    2    0    0 -0.81761847664E+00 -0.63935183185E+00 -0.56178992270E+00  0.90007797197E+02  0.90000059320E+02 0.  0.
         12    1    1    2    0    0  0.81761847664E+00  0.63935183185E+00  0.56178992270E+00  0.11802028027E+01  0.00000000000E+00 0. -1.
         11    1    3    3    0    0  0.35734446044E+02 -0.18224120477E+02 -0.50469650191E+01  0.40429457792E+02  0.51100000000E-03 0. -1.
        -11    1    3    3    0    0 -0.81568994672E+01 -0.75521784904E+01  0.34572816620E+01  0.11641443451E+02  0.51100000000E-03 0.  1.
        -12    1    3    3    0    0 -0.28395165053E+02  0.25136947136E+02  0.10278934344E+01  0.37936895954E+02  0.00000000000E+00 0.  1.
</event>
<event>
 7    1  0.2682188E-015  0.9000776E+02  0.7816164E-02  0.1186339E+00
        -11   -1    0    0    0    0  0.00000000000E+00  0.00000000000E+00  0.45593999997E+02  0.45594000000E+02  0.51100000000E-03 0.  1.
         11   -1    0    0    0    0 -0.00000000000E+00 -0.00000000000E+00 -0.45593999997E+02  0.45594000000E+02  0.51100000000E-03 0. -1.
    9900012    2    1    2    0    0  0.27763766226E+00 -0.11418998365E+01  0.10932951461E+00  0.90007758139E+02  0.90000019746E+02 0.  0.
         12    1    1    2    0    0 -0.27763766226E+00  0.11418998365E+01 -0.10932951461E+00  0.11802418612E+01  0.00000000000E+00 0. -1.
         11    1    3    3    0    0 -0.34782449325E+02 -0.17024296142E+02  0.11988380180E+02  0.40538459514E+02  0.51100000000E-03 0. -1.
        -11    1    3    3    0    0 -0.34324137442E+01  0.80123828302E+01 -0.16605936353E+01  0.88734048827E+01  0.51100000000E-03 0.  1.
        -12    1    3    3    0    0  0.38492500731E+02  0.78700134755E+01 -0.10218457030E+02  0.40595893742E+02  0.00000000000E+00 0.  1.
</event>
<event>
 7    1  0.2682188E-015  0.9000711E+02  0.7816164E-02  0.1186340E+00
        -11   -1    0    0    0    0  0.00000000000E+00  0.00000000000E+00  0.45593999997E+02  0.45594000000E+02  0.51100000000E-03 0. -1.
         11   -1    0    0    0    0 -0.00000000000E+00 -0.00000000000E+00 -0.45593999997E+02  0.45594000000E+02  0.51100000000E-03 0.  1.
    9900012    2    1    2    0    0 -0.35216040394E+00 -0.62045447196E+00 -0.94101857371E+00  0.90007111920E+02  0.89999364995E+02 0.  0.
         12    1    1    2    0    0  0.35216040394E+00  0.62045447196E+00  0.94101857371E+00  0.11808880802E+01  0.00000000000E+00 0. -1.
         11    1    3    3    0    0  0.22170656096E+02 -0.34173788225E+01 -0.22148868431E+01  0.22541565912E+02  0.51100000000E-03 0. -1.
        -11    1    3    3    0    0  0.17088631475E+02  0.15389969417E+02 -0.89236450313E+01  0.24667872330E+02  0.51100000000E-03 0.  1.
         12    1    3    3    0    0 -0.39611447976E+02 -0.12593045067E+02  0.10197513301E+02  0.42797673679E+02  0.00000000000E+00 0. -1.
</event>
<event>
 7    1  0.3705860E-015  0.9000757E+02  0.7816164E-02  0.1186339E+00
        -11   -1    0    0    0    0  0.00000000000E+00  0.00000000000E+00  0.45593999997E+02  0.45594000000E+02  0.51100000000E-03 0.  1.
         11   -1    0    0    0    0 -0.00000000000E+00 -0.00000000000E+00 -0.45593999997E+02  0.45594000000E+02  0.51100000000E-03 0. -1.
    9900012    2    1    2    0    0  0.59347432030E+00 -0.10059646274E+01  0.17096359806E+00  0.90007574165E+02  0.89999833344E+02 0.  0.
         12    1    1    2    0    0 -0.59347432030E+00  0.10059646274E+01 -0.17096359806E+00  0.11804258352E+01  0.00000000000E+00 0. -1.
         11    1    3    3    0    0 -0.62845520724E+00 -0.92239266517E+01 -0.20474966122E+00  0.92475781428E+01  0.51100000000E-03 0. -1.
        -11    1    3    3    0    0 -0.36985690387E+01  0.19792055327E+01  0.40064581873E+02  0.40283587084E+02  0.51100000000E-03 0.  1.
         12    1    3    3    0    0  0.49204985663E+01  0.62387564915E+01 -0.39688868613E+02  0.40476408938E+02  0.00000000000E+00 0. -1.
</event>
<event>
 7    1  0.2682188E-015  0.9000777E+02  0.7816164E-02  0.1186339E+00
        -11   -1    0    0    0    0  0.00000000000E+00  0.00000000000E+00  0.45593999997E+02  0.45594000000E+02  0.51100000000E-03 0.  1.
         11   -1    0    0    0    0 -0.00000000000E+00 -0.00000000000E+00 -0.45593999997E+02  0.45594000000E+02  0.51100000000E-03 0. -1.
    9900012    2    1    2    0    0  0.64125097860E+00  0.89818802573E+00  0.41831946164E+00  0.90007773022E+02  0.90000034826E+02 0.  0.
         12    1    1    2    0    0 -0.64125097860E+00 -0.89818802573E+00 -0.41831946164E+00  0.11802269778E+01  0.00000000000E+00 0. -1.
         11    1    3    3    0    0 -0.30588674242E+02  0.26122033209E+02 -0.38934023289E+01  0.40412698411E+02  0.51100000000E-03 0. -1.
        -11    1    3    3    0    0  0.11632872956E+02 -0.15796815568E+01 -0.10271294320E+02  0.15598673479E+02  0.51100000000E-03 0.  1.
        -12    1    3    3    0    0  0.19597052265E+02 -0.23644163627E+02  0.14583016111E+02  0.33996401133E+02  0.00000000000E+00 0.  1.
</event>
<event>
 7    1  0.2682188E-015  0.9000774E+02  0.7816164E-02  0.1186339E+00
        -11   -1    0    0    0    0  0.00000000000E+00  0.00000000000E+00  0.45593999997E+02  0.45594000000E+02  0.51100000000E-03 0.  1.
         11   -1    0    0    0    0 -0.00000000000E+00 -0.00000000000E+00 -0.45593999997E+02  0.45594000000E+02  0.51100000000E-03 0. -1.
    9900012    2    1    2    0    0 -0.45152032061E+00  0.10024563555E+01  0.42920946959E+00  0.90007741506E+02  0.90000002894E+02 0.  0.
         12    1    1    2    0    0  0.45152032061E+00 -0.10024563555E+01 -0.42920946959E+00  0.11802584943E+01  0.00000000000E+00 0. -1.
         11    1    3    3    0    0 -0.16547865505E+02  0.36153684034E+01 -0.29940106566E+02  0.34399312827E+02  0.51100000000E-03 0. -1.
        -11    1    3    3    0    0 -0.74766161541E+01 -0.74259380441E+01 -0.59058281337E+01  0.12079865527E+02  0.51100000000E-03 0.  1.
        -12    1    3    3    0    0  0.23572961339E+02  0.48130259962E+01  0.36275144170E+02  0.43528563152E+02  0.00000000000E+00 0.  1.
</event>
<event>
 7    1  0.2682188E-015  0.9000775E+02  0.7816164E-02  0.1186339E+00
        -11   -1    0    0    0    0  0.00000000000E+00  0.00000000000E+00  0.45593999997E+02  0.45594000000E+02  0.51100000000E-03 0.  1.
         11   -1    0    0    0    0 -0.00000000000E+00 -0.00000000000E+00 -0.45593999997E+02  0.45594000000E+02  0.51100000000E-03 0. -1.
    9900012    2    1    2    0    0 -0.21776943414E+00 -0.11501089269E+01  0.15104072302E+00  0.90007751141E+02  0.90000012656E+02 0.  0.
         12    1    1    2    0    0  0.21776943414E+00  0.11501089269E+01 -0.15104072302E+00  0.11802488594E+01  0.00000000000E+00 0. -1.
         11    1    3    3    0    0 -0.23757695099E+02 -0.13195482996E+02 -0.24975191364E+02  0.36909470761E+02  0.51100000000E-03 0. -1.
        -11    1    3    3    0    0  0.19722029559E+01 -0.30485995850E+01 -0.91706104829E+01  0.98632469714E+01  0.51100000000E-03 0.  1.
        -12    1    3    3    0    0  0.21567722709E+02  0.15093973654E+02  0.34296842570E+02  0.43235033408E+02  0.00000000000E+00 0.  1.
</event>
<event>
 7    1  0.2682188E-015  0.9000778E+02  0.7816164E-02  0.1186339E+00
        -11   -1    0    0    0    0  0.00000000000E+00  0.00000000000E+00  0.45593999997E+02  0.45594000000E+02  0.51100000000E-03 0. -1.
         11   -1    0    0    0    0 -0.00000000000E+00 -0.00000000000E+00 -0.45593999997E+02  0.45594000000E+02  0.51100000000E-03 0.  1.
    9900012    2    1    2    0    0 -0.14015921718E+00 -0.20739433287E+00 -0.11533738731E+01  0.90007776163E+02  0.90000038008E+02 0.  0.
         12    1    1    2    0    0  0.14015921718E+00  0.20739433287E+00  0.11533738731E+01  0.11802238375E+01  0.00000000000E+00 0. -1.
         11    1    3    3    0    0  0.34970650061E+02  0.14137927181E+01  0.79711082711E+01  0.35895455741E+02  0.51100000000E-03 0. -1.
        -11    1    3    3    0    0  0.86912490617E+01 -0.37498454117E+01 -0.21598337179E+01  0.97089666193E+01  0.51100000000E-03 0.  1.
        -12    1    3    3    0    0 -0.43802058340E+02  0.21286583608E+01 -0.69646484263E+01  0.44403353802E+02  0.00000000000E+00 0.  1.
</event>
<event>
 7    1  0.2682188E-015  0.9000774E+02  0.7816164E-02  0.1186339E+00
        -11   -1    0    0    0    0  0.00000000000E+00  0.00000000000E+00  0.45593999997E+02  0.45594000000E+02  0.51100000000E-03 0.  1.
         11   -1    0    0    0    0 -0.00000000000E+00 -0.00000000000E+00 -0.45593999997E+02  0.45594000000E+02  0.51100000000E-03 0. -1.
    9900012    2    1    2    0    0 -0.56259346995E+00 -0.72618552925E+00  0.74105796758E+00  0.90007735730E+02  0.89999997042E+02 0.  0.
         12    1    1    2    0    0  0.56259346995E+00  0.72618552925E+00 -0.74105796758E+00  0.11802642698E+01  0.00000000000E+00 0. -1.
         11    1    3    3    0    0 -0.17833182093E+02  0.21058239721E+02 -0.26577579209E+02  0.38312394347E+02  0.51100000000E-03 0. -1.
        -11    1    3    3    0    0  0.36671141999E+01 -0.11921863683E+02 -0.64021494724E+01  0.14020202508E+02  0.51100000000E-03 0.  1.
        -12    1    3    3    0    0  0.13603474423E+02 -0.98625615667E+01  0.33720786649E+02  0.37675138876E+02  0.00000000000E+00 0.  1.
</event>
<event>
 7    1  0.2682188E-015  0.9000751E+02  0.7816164E-02  0.1186340E+00
        -11   -1    0    0    0    0  0.00000000000E+00  0.00000000000E+00  0.45593999997E+02  0.45594000000E+02  0.51100000000E-03 0.  1.
         11   -1    0    0    0    0 -0.00000000000E+00 -0.00000000000E+00 -0.45593999997E+02  0.45594000000E+02  0.51100000000E-03 0. -1.
    9900012    2    1    2    0    0  0.71405312531E+00 -0.71832877157E+00  0.60637899825E+00  0.90007507061E+02  0.89999765354E+02 0.  0.
         12    1    1    2    0    0 -0.71405312531E+00  0.71832877157E+00 -0.60637899825E+00  0.11804929391E+01  0.00000000000E+00 0. -1.
         11    1    3    3    0    0  0.37662272332E+01  0.48140366007E+01  0.64031101761E+01  0.88520752455E+01  0.51100000000E-03 0. -1.
        -11    1    3    3    0    0 -0.50541413480E+01  0.15816704052E+02  0.32935161943E+02  0.36884107205E+02  0.51100000000E-03 0.  1.
         12    1    3    3    0    0  0.20019672401E+01 -0.21349069424E+02 -0.38731893120E+02  0.44271324611E+02  0.00000000000E+00 0. -1.
</event>
<event>
 7    1  0.2682188E-015  0.9000777E+02  0.7816164E-02  0.1186339E+00
        -11   -1    0    0    0    0  0.00000000000E+00  0.00000000000E+00  0.45593999997E+02  0.45594000000E+02  0.51100000000E-03 0. -1.
         11   -1    0    0    0    0 -0.00000000000E+00 -0.00000000000E+00 -0.45593999997E+02  0.45594000000E+02  0.51100000000E-03 0.  1.
    9900012    2    1    2    0    0 -0.11238029046E+01 -0.26955872689E+00  0.23949515772E+00  0.90007765783E+02  0.90000027492E+02 0.  0.
         12    1    1    2    0    0  0.11238029046E+01  0.26955872689E+00 -0.23949515772E+00  0.11802342166E+01  0.00000000000E+00 0. -1.
         11    1    3    3    0    0  0.63477040197E+01  0.86666597892E+01 -0.60161312429E+01  0.12312521010E+02  0.51100000000E-03 0. -1.
        -11    1    3    3    0    0 -0.15885592622E+01  0.27233418818E+02 -0.18952484554E+02  0.33217153582E+02  0.51100000000E-03 0.  1.
         12    1    3    3    0    0 -0.58829476620E+01 -0.36169637335E+02  0.25208110955E+02  0.44478091191E+02  0.00000000000E+00 0. -1.
</event>
<event>
 7    1  0.2682188E-015  0.9000763E+02  0.7816164E-02  0.1186339E+00
        -11   -1    0    0    0    0  0.00000000000E+00  0.00000000000E+00  0.45593999997E+02  0.45594000000E+02  0.51100000000E-03 0.  1.
         11   -1    0    0    0    0 -0.00000000000E+00 -0.00000000000E+00 -0.45593999997E+02  0.45594000000E+02  0.51100000000E-03 0. -1.
    9900012    2    1    2    0    0  0.68891068050E+00  0.28004485924E+00  0.91664799850E+00  0.90007632853E+02  0.89999892806E+02 0.  0.
         12    1    1    2    0    0 -0.68891068050E+00 -0.28004485924E+00 -0.91664799850E+00  0.11803671471E+01  0.00000000000E+00 0. -1.
         11    1    3    3    0    0 -0.39605986186E+01  0.90822075986E+01 -0.70495032400E+00  0.99332669098E+01  0.51100000000E-03 0. -1.
        -11    1    3    3    0    0  0.22739731144E+02  0.29687177030E+02  0.30678941491E+01  0.37521138406E+02  0.51100000000E-03 0.  1.
         12    1    3    3    0    0 -0.18090221845E+02 -0.38489339769E+02 -0.14462958266E+01  0.42553227537E+02  0.00000000000E+00 0. -1.
</event>
<event>
 7    1  0.2682188E-015  0.9000772E+02  0.7816164E-02  0.1186339E+00
        -11   -1    0    0    0    0  0.00000000000E+00  0.00000000000E+00  0.45593999997E+02  0.45594000000E+02  0.51100000000E-03 0.  1.
         11   -1    0    0    0    0 -0.00000000000E+00 -0.00000000000E+00 -0.45593999997E+02  0.45594000000E+02  0.51100000000E-03 0. -1.
    9900012    2    1    2    0    0 -0.10316506820E+01  0.37658319783E+00  0.43237960158E+00  0.90007716070E+02  0.89999977123E+02 0.  0.
         12    1    1    2    0    0  0.10316506820E+01 -0.37658319783E+00 -0.43237960158E+00  0.11802839296E+01  0.00000000000E+00 0. -1.
         11    1    3    3    0    0  0.13271594722E+02 -0.44082371914E+01 -0.13499659035E+01  0.14049561908E+02  0.51100000000E-03 0. -1.
        -11    1    3    3    0    0  0.32545416135E+01 -0.31834608008E+02  0.11839196468E+02  0.34120388061E+02  0.51100000000E-03 0.  1.
         12    1    3    3    0    0 -0.17557787017E+02  0.36619428398E+02 -0.10056850963E+02  0.41837766102E+02  0.00000000000E+00 0. -1.
</event>
<event>
 7    1  0.2682188E-015  0.9000901E+02  0.7816164E-02  0.1186336E+00
        -11   -1    0    0    0    0  0.00000000000E+00  0.00000000000E+00  0.45593999997E+02  0.45594000000E+02  0.51100000000E-03 0.  1.
         11   -1    0    0    0    0 -0.00000000000E+00 -0.00000000000E+00 -0.45593999997E+02  0.45594000000E+02  0.51100000000E-03 0. -1.
    9900012    2    1    2    0    0  0.34082518152E+00  0.93340475306E+00  0.63450876076E+00  0.90009014163E+02  0.90001292340E+02 0.  0.
         12    1    1    2    0    0 -0.34082518152E+00 -0.93340475306E+00 -0.63450876076E+00  0.11789858374E+01  0.00000000000E+00 0. -1.
         11    1    3    3    0    0 -0.32977402558E+02  0.23693547650E+02  0.15706078102E+01  0.40636930111E+02  0.51100000000E-03 0. -1.
        -11    1    3    3    0    0 -0.40501831974E+01 -0.78644373637E+01 -0.22321130187E+01  0.91233594563E+01  0.51100000000E-03 0.  1.
        -12    1    3    3    0    0  0.37368410937E+02 -0.14895705534E+02  0.12960139693E+01  0.40248724595E+02  0.00000000000E+00 0.  1.
</event>
<event>
 7    1  0.2682188E-015  0.9000778E+02  0.7816164E-02  0.1186339E+00
        -11   -1    0    0    0    0  0.00000000000E+00  0.00000000000E+00  0.45593999997E+02  0.45594000000E+02  0.51100000000E-03 0.  1.
         11   -1    0    0    0    0 -0.00000000000E+00 -0.00000000000E+00 -0.45593999997E+02  0.45594000000E+02  0.51100000000E-03 0. -1.
    9900012    2    1    2    0    0 -0.98289002163E+00 -0.61991864876E+00 -0.20625087429E+00  0.90007783347E+02  0.90000045287E+02 0.  0.
         12    1    1    2    0    0  0.98289002163E+00  0.61991864876E+00  0.20625087429E+00  0.11802166533E+01  0.00000000000E+00 0. -1.
         11    1    3    3    0    0  0.17660050555E+02 -0.85812581550E+01 -0.97142730364E+01  0.21906220076E+02  0.51100000000E-03 0. -1.
        -11    1    3    3    0    0 -0.24740560417E+02 -0.19781652960E+02  0.20402812501E+02  0.37678692676E+02  0.51100000000E-03 0.  1.
        -12    1    3    3    0    0  0.60976198410E+01  0.27742992466E+02 -0.10894790339E+02  0.30422870595E+02  0.00000000000E+00 0.  1.
</event>
<event>
 7    1  0.2682188E-015  0.9000753E+02  0.7816164E-02  0.1186339E+00
        -11   -1    0    0    0    0  0.00000000000E+00  0.00000000000E+00  0.45593999997E+02  0.45594000000E+02  0.51100000000E-03 0.  1.
         11   -1    0    0    0    0 -0.00000000000E+00 -0.00000000000E+00 -0.45593999997E+02  0.45594000000E+02  0.51100000000E-03 0. -1.
    9900012    2    1    2    0    0  0.32079085786E+00  0.53452728843E+00  0.10024431763E+01  0.90007526147E+02  0.89999784692E+02 0.  0.
         12    1    1    2    0    0 -0.32079085786E+00 -0.53452728843E+00 -0.10024431763E+01  0.11804738533E+01  0.00000000000E+00 0. -1.
         11    1    3    3    0    0 -0.65553585113E+01 -0.61510514520E+01  0.33951644689E+01  0.96091259337E+01  0.51100000000E-03 0. -1.
        -11    1    3    3    0    0  0.26484417209E+02  0.27942807933E+02  0.20405434256E+02  0.43573003311E+02  0.51100000000E-03 0.  1.
         12    1    3    3    0    0 -0.19608267840E+02 -0.21257229193E+02 -0.22798155549E+02  0.36825396903E+02  0.00000000000E+00 0. -1.
</event>
<event>
 7    1  0.2682188E-015  0.9000774E+02  0.7816164E-02  0.1186339E+00
        -11   -1    0    0    0    0  0.00000000000E+00  0.00000000000E+00  0.45593999997E+02  0.45594000000E+02  0.51100000000E-03 0.  1.
         11   -1    0    0    0    0 -0.00000000000E+00 -0.00000000000E+00 -0.45593999997E+02  0.45594000000E+02  0.51100000000E-03 0. -1.
    9900012    2    1    2    0    0 -0.79664913411E+00 -0.53650367366E+00  0.68595564659E+00  0.90007736816E+02  0.89999998142E+02 0.  0.
         12    1    1    2    0    0  0.79664913411E+00  0.53650367366E+00 -0.68595564659E+00  0.11802631841E+01  0.00000000000E+00 0. -1.
         11    1    3    3    0    0 -0.24965371512E+02 -0.34737609297E+02  0.60869219115E+01  0.43209048740E+02  0.51100000000E-03 0. -1.
        -11    1    3    3    0    0  0.10120300855E+02  0.90950791981E+00 -0.29532850051E+01  0.10581568250E+02  0.51100000000E-03 0.  1.
        -12    1    3    3    0    0  0.14048421523E+02  0.33291597704E+02 -0.24476812598E+01  0.36217119826E+02  0.00000000000E+00 0.  1.
</event>
<event>
 7    1  0.2682188E-015  0.9000779E+02  0.7816164E-02  0.1186339E+00
        -11   -1    0    0    0    0  0.00000000000E+00  0.00000000000E+00  0.45593999997E+02  0.45594000000E+02  0.51100000000E-03 0. -1.
         11   -1    0    0    0    0 -0.00000000000E+00 -0.00000000000E+00 -0.45593999997E+02  0.45594000000E+02  0.51100000000E-03 0.  1.
    9900012    2    1    2    0    0  0.87011496455E+00 -0.71215514934E+00 -0.35865473789E+00  0.90007788905E+02  0.90000050918E+02 0.  0.
         12    1    1    2    0    0 -0.87011496455E+00  0.71215514934E+00  0.35865473789E+00  0.11802110952E+01  0.00000000000E+00 0. -1.
         11    1    3    3    0    0  0.12018720226E+02  0.20325840917E+02 -0.29258190545E+02  0.37598286651E+02  0.51100000000E-03 0. -1.
        -11    1    3    3    0    0  0.90294024076E+01 -0.14708260793E+01 -0.32473357871E+01  0.97076581712E+01  0.51100000000E-03 0.  1.
        -12    1    3    3    0    0 -0.20178007669E+02 -0.19567169987E+02  0.32146871594E+02  0.42701844083E+02  0.00000000000E+00 0.  1.
</event>
<event>
 7    1  0.2682188E-015  0.9000778E+02  0.7816164E-02  0.1186339E+00
        -11   -1    0    0    0    0  0.00000000000E+00  0.00000000000E+00  0.45593999997E+02  0.45594000000E+02  0.51100000000E-03 0. -1.
         11   -1    0    0    0    0 -0.00000000000E+00 -0.00000000000E+00 -0.45593999997E+02  0.45594000000E+02  0.51100000000E-03 0.  1.
    9900012    2    1    2    0    0  0.44194563345E+00  0.64911844195E+00 -0.88105288636E+00  0.90007777613E+02  0.90000039477E+02 0.  0.
         12    1    1    2    0    0 -0.44194563345E+00 -0.64911844195E+00  0.88105288636E+00  0.11802223872E+01  0.00000000000E+00 0. -1.
         11    1    3    3    0    0  0.83220944579E+01  0.30910613973E+02  0.18063910841E+02  0.36756335338E+02  0.51100000000E-03 0. -1.
        -11    1    3    3    0    0 -0.53354776158E+01  0.54160361279E+01  0.59654476114E+01  0.96637122366E+01  0.51100000000E-03 0.  1.
        -12    1    3    3    0    0 -0.25446712086E+01 -0.35677531659E+02 -0.24910411339E+02  0.43587730038E+02  0.00000000000E+00 0.  1.
</event>
<event>
 7    1  0.2682188E-015  0.9000774E+02  0.7816164E-02  0.1186339E+00
        -11   -1    0    0    0    0  0.00000000000E+00  0.00000000000E+00  0.45593999997E+02  0.45594000000E+02  0.51100000000E-03 0.  1.
         11   -1    0    0    0    0 -0.00000000000E+00 -0.00000000000E+00 -0.45593999997E+02  0.45594000000E+02  0.51100000000E-03 0. -1.
    9900012    2    1    2    0    0  0.34444059500E+00 -0.10893471065E+01 -0.29614458268E+00  0.90007738141E+02  0.89999999484E+02 0.  0.
         12    1    1    2    0    0 -0.34444059500E+00  0.10893471065E+01  0.29614458268E+00  0.11802618590E+01  0.00000000000E+00 0. -1.
         11    1    3    3    0    0 -0.17857609239E+01 -0.65091348242E+01 -0.59338195605E+01  0.89871014835E+01  0.51100000000E-03 0. -1.
        -11    1    3    3    0    0  0.32724957627E+02  0.25402304219E+02 -0.76690802082E+01  0.42130923356E+02  0.51100000000E-03 0.  1.
         12    1    3    3    0    0 -0.30594756108E+02 -0.19982516502E+02  0.13306755186E+02  0.38889713301E+02  0.00000000000E+00 0. -1.
</event>
<event>
 7    1  0.2682188E-015  0.9000772E+02  0.7816164E-02  0.1186339E+00
        -11   -1    0    0    0    0  0.00000000000E+00  0.00000000000E+00  0.45593999997E+02  0.45594000000E+02  0.51100000000E-03 0.  1.
         11   -1    0    0    0    0 -0.00000000000E+00 -0.00000000000E+00 -0.45593999997E+02  0.45594000000E+02  0.51100000000E-03 0. -1.
    9900012    2    1    2    0    0  0.28377835131E+00 -0.11067026075E+01 -0.29620656805E+00  0.90007720734E+02  0.89999981848E+02 0.  0.
         12    1    1    2    0    0 -0.28377835131E+00  0.11067026075E+01  0.29620656805E+00  0.11802792657E+01  0.00000000000E+00 0. -1.
         11    1    3    3    0    0  0.30468303223E+02 -0.17512880913E+02  0.85149633008E+01  0.36159688874E+02  0.51100000000E-03 0. -1.
        -11    1    3    3    0    0  0.41515783486E+01 -0.86095485336E+01  0.25113635267E+01  0.98826552991E+01  0.51100000000E-03 0.  1.
        -12    1    3    3    0    0 -0.34336103221E+02  0.25015726839E+02 -0.11322533396E+02  0.43965376561E+02  0.00000000000E+00 0.  1.
</event>
<event>
 7    1  0.2682188E-015  0.9000772E+02  0.7816164E-02  0.1186339E+00
        -11   -1    0    0    0    0  0.00000000000E+00  0.00000000000E+00  0.45593999997E+02  0.45594000000E+02  0.51100000000E-03 0. -1.
         11   -1    0    0    0    0 -0.00000000000E+00 -0.00000000000E+00 -0.45593999997E+02  0.45594000000E+02  0.51100000000E-03 0.  1.
    9900012    2    1    2    0    0  0.72934747720E+00 -0.91659849042E+00 -0.14476889839E+00  0.90007720978E+02  0.89999982095E+02 0.  0.
         12    1    1    2    0    0 -0.72934747720E+00  0.91659849042E+00  0.14476889839E+00  0.11802790217E+01  0.00000000000E+00 0. -1.
         11    1    3    3    0    0  0.27344722075E+00  0.17453114708E+02  0.21000528333E+02  0.27307657844E+02  0.51100000000E-03 0. -1.
        -11    1    3    3    0    0  0.10633491673E+02  0.76090539363E+01  0.13112513379E+02  0.18517744310E+02  0.51100000000E-03 0.  1.
        -12    1    3    3    0    0 -0.10177591416E+02 -0.25978767135E+02 -0.34257810610E+02  0.44182318824E+02  0.00000000000E+00 0.  1.
</event>
<event>
 7    1  0.2682188E-015  0.9000783E+02  0.7816164E-02  0.1186339E+00
        -11   -1    0    0    0    0  0.00000000000E+00  0.00000000000E+00  0.45593999997E+02  0.45594000000E+02  0.51100000000E-03 0.  1.
         11   -1    0    0    0    0 -0.00000000000E+00 -0.00000000000E+00 -0.45593999997E+02  0.45594000000E+02  0.51100000000E-03 0. -1.
    9900012    2    1    2    0    0  0.41694729703E+00 -0.36304386624E+00  0.10426669851E+01  0.90007830377E+02  0.90000092938E+02 0.  0.
         12    1    1    2    0    0 -0.41694729703E+00  0.36304386624E+00 -0.10426669851E+01  0.11801696230E+01  0.00000000000E+00 0. -1.
         11    1    3    3    0    0 -0.21044563945E+02  0.26001498979E+02 -0.20761337973E+02  0.39369846018E+02  0.51100000000E-03 0. -1.
        -11    1    3    3    0    0  0.19765433146E+00  0.65303026633E+01  0.30093886026E+01  0.71930758463E+01  0.51100000000E-03 0.  1.
        -12    1    3    3    0    0  0.21263856911E+02 -0.32894845508E+02  0.18794616355E+02  0.43444908513E+02  0.00000000000E+00 0.  1.
</event>
<event>
 7    1  0.2682188E-015  0.9000777E+02  0.7816164E-02  0.1186339E+00
        -11   -1    0    0    0    0  0.00000000000E+00  0.00000000000E+00  0.45593999997E+02  0.45594000000E+02  0.51100000000E-03 0.  1.
         11   -1    0    0    0    0 -0.00000000000E+00 -0.00000000000E+00 -0.45593999997E+02  0.45594000000E+02  0.51100000000E-03 0. -1.
    9900012    2    1    2    0    0  0.17854116164E+00 -0.99313566255E+00 -0.61216647046E+00  0.90007769862E+02  0.90000031624E+02 0.  0.
         12    1    1    2    0    0 -0.17854116164E+00  0.99313566255E+00  0.61216647046E+00  0.11802301378E+01  0.00000000000E+00 0. -1.
         11    1    3    3    0    0 -0.30717441921E+02 -0.89812729752E+01 -0.17706837115E+02  0.36575354862E+02  0.51100000000E-03 0. -1.
        -11    1    3    3    0    0 -0.36637128041E+01  0.20512454690E+01 -0.88609395576E+01  0.98054397958E+01  0.51100000000E-03 0.  1.
        -12    1    3    3    0    0  0.34559695886E+02  0.59368918436E+01  0.25955610202E+02  0.43626975204E+02  0.00000000000E+00 0.  1.
</event>
<event>
 7    1  0.2682188E-015  0.9000776E+02  0.7816164E-02  0.1186339E+00
        -11   -1    0    0    0    0  0.00000000000E+00  0.00000000000E+00  0.45593999997E+02  0.45594000000E+02  0.51100000000E-03 0.  1.
         11   -1    0    0    0    0 -0.00000000000E+00 -0.00000000000E+00 -0.45593999997E+02  0.45594000000E+02  0.51100000000E-03 0. -1.
    9900012    2    1    2    0    0 -0.10455363465E+01  0.37536158291E+00  0.39866095653E+00  0.90007757174E+02  0.90000018769E+02 0.  0.
         12    1    1    2    0    0  0.10455363465E+01 -0.37536158291E+00 -0.39866095653E+00  0.11802428259E+01  0.00000000000E+00 0. -1.
         11    1    3    3    0    0 -0.96036847361E+01 -0.34128387519E+01  0.62047726538E+01  0.11932201507E+02  0.51100000000E-03 0. -1.
        -11    1    3    3    0    0 -0.11052279250E+00 -0.15720747905E+02  0.31436410946E+02  0.35148286778E+02  0.51100000000E-03 0.  1.
         12    1    3    3    0    0  0.86686711822E+01  0.19508948240E+02 -0.37242522643E+02  0.42927268890E+02  0.00000000000E+00 0. -1.
</event>
<event>
 7    1  0.2682188E-015  0.9000756E+02  0.7816164E-02  0.1186339E+00
        -11   -1    0    0    0    0  0.00000000000E+00  0.00000000000E+00  0.45593999997E+02  0.45594000000E+02  0.51100000000E-03 0.  1.
         11   -1    0    0    0    0 -0.00000000000E+00 -0.00000000000E+00 -0.45593999997E+02  0.45594000000E+02  0.51100000000E-03 0. -1.
    9900012    2    1    2    0    0 -0.57614041016E+00  0.51047911174E+00  0.89494046574E+00  0.90007557230E+02  0.89999816185E+02 0.  0.
         12    1    1    2    0    0  0.57614041016E+00 -0.51047911174E+00 -0.89494046574E+00  0.11804427699E+01  0.00000000000E+00 0. -1.
         11    1    3    3    0    0 -0.74155833259E+01  0.54638092318E+01 -0.25859676706E+01  0.95672000313E+01  0.51100000000E-03 0. -1.
        -11    1    3    3    0    0 -0.25796365887E+02 -0.25859707603E+02  0.15763652674E+02  0.39782781655E+02  0.51100000000E-03 0.  1.
         12    1    3    3    0    0  0.32635808803E+02  0.20906377483E+02 -0.12282744538E+02  0.40657575544E+02  0.00000000000E+00 0. -1.
</event>
<event>
 7    1  0.3197613E-015  0.9000729E+02  0.7816164E-02  0.1186340E+00
        -11   -1    0    0    0    0  0.00000000000E+00  0.00000000000E+00  0.45593999997E+02  0.45594000000E+02  0.51100000000E-03 0. -1.
         11   -1    0    0    0    0 -0.00000000000E+00 -0.00000000000E+00 -0.45593999997E+02  0.45594000000E+02  0.51100000000E-03 0.  1.
    9900012    2    1    2    0    0  0.11802195031E+01  0.21276093693E-01 -0.26478139592E-01  0.90007291806E+02  0.89999547257E+02 0.  0.
         12    1    1    2    0    0 -0.11802195031E+01 -0.21276093693E-01  0.26478139592E-01  0.11807081940E+01  0.00000000000E+00 0. -1.
         11    1    3    3    0    0  0.30717204076E+01 -0.90605568198E+00 -0.87261402197E+01  0.92952636626E+01  0.51100000000E-03 0. -1.
        -11    1    3    3    0    0  0.20940689025E+02 -0.32322973498E+02  0.11739426858E+02  0.40262901235E+02  0.51100000000E-03 0.  1.
         12    1    3    3    0    0 -0.22832189930E+02  0.33250305273E+02 -0.30397647783E+01  0.40449126909E+02  0.00000000000E+00 0. -1.
</event>
<event>
 7    1  0.2682188E-015  0.9000770E+02  0.7816164E-02  0.1186339E+00
        -11   -1    0    0    0    0  0.00000000000E+00  0.00000000000E+00  0.45593999997E+02  0.45594000000E+02  0.51100000000E-03 0. -1.
         11   -1    0    0    0    0 -0.00000000000E+00 -0.00000000000E+00 -0.45593999997E+02  0.45594000000E+02  0.51100000000E-03 0.  1.
    9900012    2    1    2    0    0 -0.33317271712E+00  0.11290793995E+01  0.85364963097E-01  0.90007698544E+02  0.89999959365E+02 0.  0.
         12    1    1    2    0    0  0.33317271712E+00 -0.11290793995E+01 -0.85364963097E-01  0.11803014559E+01  0.00000000000E+00 0. -1.
         11    1    3    3    0    0  0.17704872782E+02  0.33610335186E+02  0.18249167959E+02  0.42144386139E+02  0.51100000000E-03 0. -1.
        -11    1    3    3    0    0 -0.60123368449E+00 -0.80205690838E+01  0.53973128376E+01  0.96861755353E+01  0.51100000000E-03 0.  1.
        -12    1    3    3    0    0 -0.17436811814E+02 -0.24460686703E+02 -0.23561115834E+02  0.38177136870E+02  0.00000000000E+00 0.  1.
</event>
<event>
 7    1  0.2682188E-015  0.9000772E+02  0.7816164E-02  0.1186339E+00
        -11   -1    0    0    0    0  0.00000000000E+00  0.00000000000E+00  0.45593999997E+02  0.45594000000E+02  0.51100000000E-03 0.  1.
         11   -1    0    0    0    0 -0.00000000000E+00 -0.00000000000E+00 -0.45593999997E+02  0.45594000000E+02  0.51100000000E-03 0. -1.
    9900012    2    1    2    0    0  0.43272358915E+00 -0.18781587015E+00  0.10819183345E+01  0.90007715378E+02  0.89999976421E+02 0.  0.
         12    1    1    2    0    0 -0.43272358915E+00  0.18781587015E+00 -0.10819183345E+01  0.11802846217E+01  0.00000000000E+00 0. -1.
         11    1    3    3    0    0 -0.77605894848E+01  0.25497701696E+01 -0.45810887810E+01  0.93655993802E+01  0.51100000000E-03 0. -1.
        -11    1    3    3    0    0  0.15166732199E+02  0.31321751976E+02 -0.17413859297E+02  0.38914321378E+02  0.51100000000E-03 0.  1.
         12    1    3    3    0    0 -0.69734191249E+01 -0.34059338016E+02  0.23076866413E+02  0.41727794620E+02  0.00000000000E+00 0. -1.
</event>
<event>
 7    1  0.2682188E-015  0.9000775E+02  0.7816164E-02  0.1186339E+00
        -11   -1    0    0    0    0  0.00000000000E+00  0.00000000000E+00  0.45593999997E+02  0.45594000000E+02  0.51100000000E-03 0. -1.
         11   -1    0    0    0    0 -0.00000000000E+00 -0.00000000000E+00 -0.45593999997E+02  0.45594000000E+02  0.51100000000E-03 0.  1.
    9900012    2    1    2    0    0 -0.10196557648E+00 -0.11019072480E+01  0.41037001898E+00  0.90007745742E+02  0.90000007185E+02 0.  0.
         12    1    1    2    0    0  0.10196557648E+00  0.11019072480E+01 -0.41037001898E+00  0.11802542584E+01  0.00000000000E+00 0. -1.
         11    1    3    3    0    0  0.37973418233E+01  0.66570308661E+01 -0.15779388995E+00  0.76655569952E+01  0.51100000000E-03 0. -1.
        -11    1    3    3    0    0 -0.21109935400E+02  0.28614087892E+02  0.16326409162E+02  0.39127318268E+02  0.51100000000E-03 0.  1.
         12    1    3    3    0    0  0.17210628000E+02 -0.36373026006E+02 -0.15758245253E+02  0.43214870478E+02  0.00000000000E+00 0. -1.
</event>
<event>
 7    1  0.2682188E-015  0.9000823E+02  0.7816164E-02  0.1186338E+00
        -11   -1    0    0    0    0  0.00000000000E+00  0.00000000000E+00  0.45593999997E+02  0.45594000000E+02  0.51100000000E-03 0.  1.
         11   -1    0    0    0    0 -0.00000000000E+00 -0.00000000000E+00 -0.45593999997E+02  0.45594000000E+02  0.51100000000E-03 0. -1.
    9900012    2    1    2    0    0 -0.42097038268E+00 -0.86816790313E+00  0.67891307530E+00  0.90008231152E+02  0.90000499002E+02 0.  0.
         12    1    1    2    0    0  0.42097038268E+00  0.86816790313E+00 -0.67891307530E+00  0.11797688481E+01  0.00000000000E+00 0. -1.
         11    1    3    3    0    0 -0.16043718880E+02  0.10551311259E+01 -0.37643669336E+02  0.40933605491E+02  0.51100000000E-03 0. -1.
        -11    1    3    3    0    0 -0.73483044905E+01 -0.18891853543E+01  0.78957074014E+01  0.10950287477E+02  0.51100000000E-03 0.  1.
        -12    1    3    3    0    0  0.22971052987E+02 -0.34113674796E-01  0.30426875010E+02  0.38124338184E+02  0.00000000000E+00 0.  1.
</event>
<event>
 7    1  0.2682188E-015  0.9000769E+02  0.7816164E-02  0.1186339E+00
        -11   -1    0    0    0    0  0.00000000000E+00  0.00000000000E+00  0.45593999997E+02  0.45594000000E+02  0.51100000000E-03 0. -1.
         11   -1    0    0    0    0 -0.00000000000E+00 -0.00000000000E+00 -0.45593999997E+02  0.45594000000E+02  0.51100000000E-03 0.  1.
    9900012    2    1    2    0    0 -0.30306954609E+00 -0.40068778872E+00 -0.10680478265E+01  0.90007691560E+02  0.89999952289E+02 0.  0.
         12    1    1    2    0    0  0.30306954609E+00  0.40068778872E+00  0.10680478265E+01  0.11803084400E+01  0.00000000000E+00 0. -1.
         11    1    3    3    0    0 -0.35141724237E+02 -0.12404493696E+02 -0.91021867106E+01  0.38362247710E+02  0.51100000000E-03 0. -1.
        -11    1    3    3    0    0  0.15594052590E+00 -0.98622132126E+01  0.31562483347E+01  0.10356132034E+02  0.51100000000E-03 0.  1.
        -12    1    3    3    0    0  0.34682714165E+02  0.21866019120E+02  0.48778905494E+01  0.41289311816E+02  0.00000000000E+00 0.  1.
</event>
<event>
 7    1  0.2682188E-015  0.9000762E+02  0.7816164E-02  0.1186339E+00
        -11   -1    0    0    0    0  0.00000000000E+00  0.00000000000E+00  0.45593999997E+02  0.45594000000E+02  0.51100000000E-03 0. -1.
         11   -1    0    0    0    0 -0.00000000000E+00 -0.00000000000E+00 -0.45593999997E+02  0.45594000000E+02  0.51100000000E-03 0.  1.
    9900012    2    1    2    0    0  0.27813536360E+00  0.11463916831E+01  0.41585573363E-01  0.90007617633E+02  0.89999877386E+02 0.  0.
         12    1    1    2    0    0 -0.27813536360E+00 -0.11463916831E+01 -0.41585573363E-01  0.11803823667E+01  0.00000000000E+00 0. -1.
         11    1    3    3    0    0 -0.57151372203E+01  0.52609504014E+00  0.11658077366E+02  0.12994242478E+02  0.51100000000E-03 0. -1.
        -11    1    3    3    0    0  0.38946909280E+02  0.11226061111E+02 -0.10924503021E+00  0.40532679719E+02  0.51100000000E-03 0.  1.
         12    1    3    3    0    0 -0.32953636696E+02 -0.10605764468E+02 -0.11507246763E+02  0.36480695436E+02  0.00000000000E+00 0. -1.
</event>
<event>
 7    1  0.2682188E-015  0.9000766E+02  0.7816164E-02  0.1186339E+00
        -11   -1    0    0    0    0  0.00000000000E+00  0.00000000000E+00  0.45593999997E+02  0.45594000000E+02  0.51100000000E-03 0.  1.
         11   -1    0    0    0    0 -0.00000000000E+00 -0.00000000000E+00 -0.45593999997E+02  0.45594000000E+02  0.51100000000E-03 0. -1.
    9900012    2    1    2    0    0  0.11068391955E+01 -0.34730918860E+00  0.21789293084E+00  0.90007663605E+02  0.89999923964E+02 0.  0.
         12    1    1    2    0    0 -0.11068391955E+01  0.34730918860E+00 -0.21789293084E+00  0.11803363954E+01  0.00000000000E+00 0. -1.
         11    1    3    3    0    0 -0.98005401539E+01  0.39138026495E+00  0.20627766707E+01  0.10022914430E+02  0.51100000000E-03 0. -1.
        -11    1    3    3    0    0 -0.56040672394E+01 -0.13281937122E+02  0.34918299677E+02  0.37777017827E+02  0.51100000000E-03 0.  1.
         12    1    3    3    0    0  0.16511446589E+02  0.12543247668E+02 -0.36763183417E+02  0.42207731347E+02  0.00000000000E+00 0. -1.
</event>
<event>
 7    1  0.2682188E-015  0.9000772E+02  0.7816164E-02  0.1186339E+00
        -11   -1    0    0    0    0  0.00000000000E+00  0.00000000000E+00  0.45593999997E+02  0.45594000000E+02  0.51100000000E-03 0. -1.
         11   -1    0    0    0    0 -0.00000000000E+00 -0.00000000000E+00 -0.45593999997E+02  0.45594000000E+02  0.51100000000E-03 0.  1.
    9900012    2    1    2    0    0 -0.70439024804E+00  0.45115498189E+00 -0.83268464669E+00  0.90007716068E+02  0.89999977120E+02 0.  0.
         12    1    1    2    0    0  0.70439024804E+00 -0.45115498189E+00  0.83268464669E+00  0.11802839320E+01  0.00000000000E+00 0. -1.
         11    1    3    3    0    0  0.79568874069E+01  0.15713771255E+01 -0.15606905076E+01  0.82593606531E+01  0.51100000000E-03 0. -1.
        -11    1    3    3    0    0  0.74540991114E+00 -0.27728984556E+02 -0.29431456812E+02  0.40443329125E+02  0.51100000000E-03 0.  1.
         12    1    3    3    0    0 -0.94066875661E+01  0.26608762412E+02  0.30159462673E+02  0.41305026289E+02  0.00000000000E+00 0. -1.
</event>
<event>
 7    1  0.2682188E-015  0.9000781E+02  0.7816164E-02  0.1186339E+00
        -11   -1    0    0    0    0  0.00000000000E+00  0.00000000000E+00  0.45593999997E+02  0.45594000000E+02  0.51100000000E-03 0.  1.
         11   -1    0    0    0    0 -0.00000000000E+00 -0.00000000000E+00 -0.45593999997E+02  0.45594000000E+02  0.51100000000E-03 0. -1.
    9900012    2    1    2    0    0  0.21313736725E+00 -0.96001144316E+00  0.65253551480E+00  0.90007808445E+02  0.90000070716E+02 0.  0.
         12    1    1    2    0    0 -0.21313736725E+00  0.96001144316E+00 -0.65253551480E+00  0.11801915550E+01  0.00000000000E+00 0. -1.
         11    1    3    3    0    0  0.41853848180E+02  0.12583895762E+01 -0.56218529300E+01  0.42248471954E+02  0.51100000000E-03 0. -1.
        -11    1    3    3    0    0 -0.55294531575E+01  0.78598108481E+01  0.32568704099E+01  0.10146855864E+02  0.51100000000E-03 0.  1.
        -12    1    3    3    0    0 -0.36111257655E+02 -0.10078211867E+02  0.30175180349E+01  0.37612480628E+02  0.00000000000E+00 0.  1.
</event>
<event>
 7    1  0.2682188E-015  0.9000784E+02  0.7816164E-02  0.1186339E+00
        -11   -1    0    0    0    0  0.00000000000E+00  0.00000000000E+00  0.45593999997E+02  0.45594000000E+02  0.51100000000E-03 0.  1.
         11   -1    0    0    0    0 -0.00000000000E+00 -0.00000000000E+00 -0.45593999997E+02  0.45594000000E+02  0.51100000000E-03 0. -1.
    9900012    2    1    2    0    0 -0.14291654918E+00 -0.39048999127E-01  0.11708252345E+01  0.90007838276E+02  0.90000100941E+02 0.  0.
         12    1    1    2    0    0  0.14291654918E+00  0.39048999127E-01 -0.11708252345E+01  0.11801617237E+01  0.00000000000E+00 0. -1.
         11    1    3    3    0    0 -0.37944011833E+01 -0.14908943270E+02 -0.36002326528E+02  0.39151520857E+02  0.51100000000E-03 0. -1.
        -11    1    3    3    0    0  0.12989765988E+01  0.38750786241E+01 -0.54289989789E+01  0.67954105631E+01  0.51100000000E-03 0.  1.
        -12    1    3    3    0    0  0.23525080354E+01  0.10994815646E+02  0.42602150741E+02  0.44060906856E+02  0.00000000000E+00 0.  1.
</event>
<event>
 7    1  0.2682188E-015  0.9000752E+02  0.7816164E-02  0.1186339E+00
        -11   -1    0    0    0    0  0.00000000000E+00  0.00000000000E+00  0.45593999997E+02  0.45594000000E+02  0.51100000000E-03 0. -1.
         11   -1    0    0    0    0 -0.00000000000E+00 -0.00000000000E+00 -0.45593999997E+02  0.45594000000E+02  0.51100000000E-03 0.  1.
    9900012    2    1    2    0    0  0.34580204766E+00  0.87524874479E+00 -0.71266706667E+00  0.90007519687E+02  0.89999778147E+02 0.  0.
         12    1    1    2    0    0 -0.34580204766E+00 -0.87524874479E+00  0.71266706667E+00  0.11804803130E+01  0.00000000000E+00 0. -1.
         11    1    3    3    0    0 -0.81673374328E+01  0.11309446408E+02  0.15403389605E+01  0.14035014185E+02  0.51100000000E-03 0. -1.
        -11    1    3    3    0    0  0.33005504328E+02  0.18498451827E+02  0.16001940064E+01  0.37869732730E+02  0.51100000000E-03 0.  1.
         12    1    3    3    0    0 -0.24492364848E+02 -0.28932649491E+02 -0.38532000335E+01  0.38102772772E+02  0.00000000000E+00 0. -1.
</event>
<event>
 7    1  0.2682188E-015  0.9000775E+02  0.7816164E-02  0.1186339E+00
        -11   -1    0    0    0    0  0.00000000000E+00  0.00000000000E+00  0.45593999997E+02  0.45594000000E+02  0.51100000000E-03 0.  1.
         11   -1    0    0    0    0 -0.00000000000E+00 -0.00000000000E+00 -0.45593999997E+02  0.45594000000E+02  0.51100000000E-03 0. -1.
    9900012    2    1    2    0    0  0.76529221867E+00 -0.67174067069E+00  0.59672354612E+00  0.90007751425E+02  0.90000012944E+02 0.  0.
         12    1    1    2    0    0 -0.76529221867E+00  0.67174067069E+00 -0.59672354612E+00  0.11802485751E+01  0.00000000000E+00 0. -1.
         11    1    3    3    0    0 -0.53850231965E+00  0.84246218528E+01  0.45111926367E+01  0.95715775804E+01  0.51100000000E-03 0. -1.
        -11    1    3    3    0    0 -0.70376550362E+01  0.34380712894E+02 -0.79492004165E+01  0.35982659644E+02  0.51100000000E-03 0.  1.
         12    1    3    3    0    0  0.83414495745E+01 -0.43477075418E+02  0.40347313260E+01  0.44453514200E+02  0.00000000000E+00 0. -1.
</event>
<event>
 7    1  0.2682188E-015  0.9000775E+02  0.7816164E-02  0.1186339E+00
        -11   -1    0    0    0    0  0.00000000000E+00  0.00000000000E+00  0.45593999997E+02  0.45594000000E+02  0.51100000000E-03 0.  1.
         11   -1    0    0    0    0 -0.00000000000E+00 -0.00000000000E+00 -0.45593999997E+02  0.45594000000E+02  0.51100000000E-03 0. -1.
    9900012    2    1    2    0    0 -0.72317804103E+00  0.27653461006E+00  0.89080712973E+00  0.90007747818E+02  0.90000009290E+02 0.  0.
         12    1    1    2    0    0  0.72317804103E+00 -0.27653461006E+00 -0.89080712973E+00  0.11802521815E+01  0.00000000000E+00 0. -1.
         11    1    3    3    0    0 -0.20995756775E+01 -0.38778033572E+02  0.11861336128E+02  0.40605854267E+02  0.51100000000E-03 0. -1.
        -11    1    3    3    0    0  0.75733396969E+01  0.19227122413E+00 -0.61434334422E+01  0.97536771070E+01  0.51100000000E-03 0.  1.
        -12    1    3    3    0    0 -0.61969420604E+01  0.38862296958E+02 -0.48270955557E+01  0.39648216445E+02  0.00000000000E+00 0.  1.
</event>
<event>
 7    1  0.2682188E-015  0.9000778E+02  0.7816164E-02  0.1186339E+00
        -11   -1    0    0    0    0  0.00000000000E+00  0.00000000000E+00  0.45593999997E+02  0.45594000000E+02  0.51100000000E-03 0.  1.
         11   -1    0    0    0    0 -0.00000000000E+00 -0.00000000000E+00 -0.45593999997E+02  0.45594000000E+02  0.51100000000E-03 0. -1.
    9900012    2    1    2    0    0 -0.72717631524E+00  0.78625116655E+00 -0.49592678457E+00  0.90007779823E+02  0.90000041717E+02 0.  0.
         12    1    1    2    0    0  0.72717631524E+00 -0.78625116655E+00  0.49592678457E+00  0.11802201769E+01  0.00000000000E+00 0. -1.
         11    1    3    3    0    0 -0.71691570924E+01  0.43946082258E+01  0.39597478988E+01  0.92945682286E+01  0.51100000000E-03 0. -1.
        -11    1    3    3    0    0 -0.71761294181E+01  0.31887036874E+02  0.17227048563E+02  0.36946598713E+02  0.51100000000E-03 0.  1.
         12    1    3    3    0    0  0.13618110195E+02 -0.35495393933E+02 -0.21682723246E+02  0.43766612881E+02  0.00000000000E+00 0. -1.
</event>
<event>
 7    1  0.2682188E-015  0.9000766E+02  0.7816164E-02  0.1186339E+00
        -11   -1    0    0    0    0  0.00000000000E+00  0.00000000000E+00  0.45593999997E+02  0.45594000000E+02  0.51100000000E-03 0. -1.
         11   -1    0    0    0    0 -0.00000000000E+00 -0.00000000000E+00 -0.45593999997E+02  0.45594000000E+02  0.51100000000E-03 0.  1.
    9900012    2    1    2    0    0  0.34894148776E+00  0.10692212580E+01 -0.35806274788E+00  0.90007659714E+02  0.89999920022E+02 0.  0.
         12    1    1    2    0    0 -0.34894148776E+00 -0.10692212580E+01  0.35806274788E+00  0.11803402865E+01  0.00000000000E+00 0. -1.
         11    1    3    3    0    0  0.37077002936E+02 -0.53642094868E+01 -0.11990287044E+02  0.39335046381E+02  0.51100000000E-03 0. -1.
        -11    1    3    3    0    0  0.25006538324E+01 -0.71380328109E+01 -0.87059239982E-03  0.75633843627E+01  0.51100000000E-03 0.  1.
        -12    1    3    3    0    0 -0.39228715281E+02  0.13571463556E+02  0.11633094889E+02  0.43109228969E+02  0.00000000000E+00 0.  1.
</event>
<event>
 7    1  0.2682188E-015  0.9000776E+02  0.7816164E-02  0.1186339E+00
        -11   -1    0    0    0    0  0.00000000000E+00  0.00000000000E+00  0.45593999997E+02  0.45594000000E+02  0.51100000000E-03 0. -1.
         11   -1    0    0    0    0 -0.00000000000E+00 -0.00000000000E+00 -0.45593999997E+02  0.45594000000E+02  0.51100000000E-03 0.  1.
    9900012    2    1    2    0    0 -0.11375137327E+00 -0.11186590404E+01  0.35865498943E+00  0.90007758150E+02  0.90000019757E+02 0.  0.
         12    1    1    2    0    0  0.11375137327E+00  0.11186590404E+01 -0.35865498943E+00  0.11802418503E+01  0.00000000000E+00 0. -1.
         11    1    3    3    0    0  0.10824684749E+02  0.22030258538E+02 -0.25611273121E+02  0.35474545837E+02  0.51100000000E-03 0. -1.
        -11    1    3    3    0    0 -0.49665166317E+01  0.69411568326E+01 -0.58394580250E+01  0.10341432005E+02  0.51100000000E-03 0.  1.
        -12    1    3    3    0    0 -0.59719194908E+01 -0.30090074411E+02  0.31809386136E+02  0.44191780308E+02  0.00000000000E+00 0.  1.
</event>
<event>
 7    1  0.2682188E-015  0.9000775E+02  0.7816164E-02  0.1186339E+00
        -11   -1    0    0    0    0  0.00000000000E+00  0.00000000000E+00  0.45593999997E+02  0.45594000000E+02  0.51100000000E-03 0.  1.
         11   -1    0    0    0    0 -0.00000000000E+00 -0.00000000000E+00 -0.45593999997E+02  0.45594000000E+02  0.51100000000E-03 0. -1.
    9900012    2    1    2    0    0  0.71153509324E-01  0.85812523793E+00  0.80718149293E+00  0.90007752692E+02  0.90000014227E+02 0.  0.
         12    1    1    2    0    0 -0.71153509324E-01 -0.85812523793E+00 -0.80718149293E+00  0.11802473081E+01  0.00000000000E+00 0. -1.
         11    1    3    3    0    0  0.22333281003E+01 -0.15438986680E+02 -0.86892167932E+01  0.17856442895E+02  0.51100000000E-03 0. -1.
        -11    1    3    3    0    0  0.12981229490E+02 -0.13225211042E+02  0.28439843869E+02  0.33944708656E+02  0.51100000000E-03 0.  1.
         12    1    3    3    0    0 -0.15143404081E+02  0.29522322961E+02 -0.18943445583E+02  0.38206601141E+02  0.00000000000E+00 0. -1.
</event>
<event>
 7    1  0.2682188E-015  0.9000748E+02  0.7816164E-02  0.1186340E+00
        -11   -1    0    0    0    0  0.00000000000E+00  0.00000000000E+00  0.45593999997E+02  0.45594000000E+02  0.51100000000E-03 0.  1.
         11   -1    0    0    0    0 -0.00000000000E+00 -0.00000000000E+00 -0.45593999997E+02  0.45594000000E+02  0.51100000000E-03 0. -1.
    9900012    2    1    2    0    0 -0.13271599977E-01 -0.11376463304E+01  0.31499762429E+00  0.90007475196E+02  0.89999733069E+02 0.  0.
         12    1    1    2    0    0  0.13271599977E-01  0.11376463304E+01 -0.31499762429E+00  0.11805248035E+01  0.00000000000E+00 0. -1.
         11    1    3    3    0    0  0.32419382127E+01 -0.37606535693E+02 -0.10643199784E+02  0.39217845327E+02  0.51100000000E-03 0. -1.
        -11    1    3    3    0    0 -0.62223356805E+01  0.74249535414E+00 -0.80588455467E+01  0.10208513725E+02  0.51100000000E-03 0.  1.
        -12    1    3    3    0    0  0.29671258678E+01  0.35726394008E+02  0.19017042955E+02  0.40581116144E+02  0.00000000000E+00 0.  1.
</event>
<event>
 7    1  0.2682188E-015  0.9000776E+02  0.7816164E-02  0.1186339E+00
        -11   -1    0    0    0    0  0.00000000000E+00  0.00000000000E+00  0.45593999997E+02  0.45594000000E+02  0.51100000000E-03 0.  1.
         11   -1    0    0    0    0 -0.00000000000E+00 -0.00000000000E+00 -0.45593999997E+02  0.45594000000E+02  0.51100000000E-03 0. -1.
    9900012    2    1    2    0    0  0.18808941705E+00  0.60881653559E+00  0.99344991343E+00  0.90007755138E+02  0.90000016706E+02 0.  0.
         12    1    1    2    0    0 -0.18808941705E+00 -0.60881653559E+00 -0.99344991343E+00  0.11802448616E+01  0.00000000000E+00 0. -1.
         11    1    3    3    0    0  0.41569789881E+02 -0.39601822541E+01 -0.12812340268E+02  0.43679360545E+02  0.51100000000E-03 0. -1.
        -11    1    3    3    0    0 -0.90967959955E+01 -0.62436554229E+00 -0.29525389247E+01  0.95843109338E+01  0.51100000000E-03 0.  1.
        -12    1    3    3    0    0 -0.32284904468E+02  0.51933643320E+01  0.16758329106E+02  0.36744083660E+02  0.00000000000E+00 0.  1.
</event>
<event>
 7    1  0.2682188E-015  0.9000772E+02  0.7816164E-02  0.1186339E+00
        -11   -1    0    0    0    0  0.00000000000E+00  0.00000000000E+00  0.45593999997E+02  0.45594000000E+02  0.51100000000E-03 0. -1.
         11   -1    0    0    0    0 -0.00000000000E+00 -0.00000000000E+00 -0.45593999997E+02  0.45594000000E+02  0.51100000000E-03 0.  1.
    9900012    2    1    2    0    0  0.22294741868E+00 -0.10200665568E+01 -0.55028318765E+00  0.90007723372E+02  0.89999984521E+02 0.  0.
         12    1    1    2    0    0 -0.22294741868E+00  0.10200665568E+01  0.55028318765E+00  0.11802766279E+01  0.00000000000E+00 0. -1.
         11    1    3    3    0    0 -0.20377577068E+02  0.29285665530E+02  0.23416855935E+02  0.42676047085E+02  0.51100000000E-03 0. -1.
        -11    1    3    3    0    0 -0.28111078440E+01 -0.76670905733E+01 -0.60338368923E+01  0.10153511367E+02  0.51100000000E-03 0.  1.
        -12    1    3    3    0    0  0.23411632331E+02 -0.22638641513E+02 -0.17933302230E+02  0.37178164920E+02  0.00000000000E+00 0.  1.
</event>
<event>
 7    1  0.2682188E-015  0.9000766E+02  0.7816164E-02  0.1186339E+00
        -11   -1    0    0    0    0  0.00000000000E+00  0.00000000000E+00  0.45593999997E+02  0.45594000000E+02  0.51100000000E-03 0.  1.
         11   -1    0    0    0    0 -0.00000000000E+00 -0.00000000000E+00 -0.45593999997E+02  0.45594000000E+02  0.51100000000E-03 0. -1.
    9900012    2    1    2    0    0 -0.20388469360E+00 -0.11326962027E+01 -0.26196170395E+00  0.90007663781E+02  0.89999924143E+02 0.  0.
         12    1    1    2    0    0  0.20388469360E+00  0.11326962027E+01  0.26196170395E+00  0.11803362192E+01  0.00000000000E+00 0. -1.
         11    1    3    3    0    0  0.17214040999E+02  0.43632956481E+01 -0.37541386149E+02  0.41529715032E+02  0.51100000000E-03 0. -1.
        -11    1    3    3    0    0 -0.87867834993E+01 -0.11104744485E+01 -0.10739248268E+01  0.89215487758E+01  0.51100000000E-03 0.  1.
        -12    1    3    3    0    0 -0.86311421933E+01 -0.43855174024E+01  0.38353349272E+02  0.39556399973E+02  0.00000000000E+00 0.  1.
</event>
<event>
 7    1  0.2682188E-015  0.9000768E+02  0.7816164E-02  0.1186339E+00
        -11   -1    0    0    0    0  0.00000000000E+00  0.00000000000E+00  0.45593999997E+02  0.45594000000E+02  0.51100000000E-03 0. -1.
         11   -1    0    0    0    0 -0.00000000000E+00 -0.00000000000E+00 -0.45593999997E+02  0.45594000000E+02  0.51100000000E-03 0.  1.
    9900012    2    1    2    0    0  0.58382368941E+00  0.10208772439E+01 -0.10060069386E+00  0.90007677609E+02  0.89999938153E+02 0.  0.
         12    1    1    2    0    0 -0.58382368941E+00 -0.10208772439E+01  0.10060069386E+00  0.11803223912E+01  0.00000000000E+00 0. -1.
         11    1    3    3    0    0  0.20291304248E+02  0.31429180520E+02 -0.29603312217E+01  0.37527243137E+02  0.51100000000E-03 0. -1.
        -11    1    3    3    0    0  0.48264052290E+01  0.21881872639E+01 -0.86020752843E+01  0.10103368270E+02  0.51100000000E-03 0.  1.
        -12    1    3    3    0    0 -0.24533885788E+02 -0.32596490540E+02  0.11461805812E+02  0.42377066202E+02  0.00000000000E+00 0.  1.
</event>
<event>
 7    1  0.2682188E-015  0.9000775E+02  0.7816164E-02  0.1186339E+00
        -11   -1    0    0    0    0  0.00000000000E+00  0.00000000000E+00  0.45593999997E+02  0.45594000000E+02  0.51100000000E-03 0.  1.
         11   -1    0    0    0    0 -0.00000000000E+00 -0.00000000000E+00 -0.45593999997E+02  0.45594000000E+02  0.51100000000E-03 0. -1.
    9900012    2    1    2    0    0 -0.80775791910E+00  0.20080592734E+00  0.83678250623E+00  0.90007745435E+02  0.90000006874E+02 0.  0.
         12    1    1    2    0    0  0.80775791910E+00 -0.20080592734E+00 -0.83678250623E+00  0.11802545654E+01  0.00000000000E+00 0. -1.
         11    1    3    3    0    0  0.24618037561E+02 -0.27704354030E+02  0.43590238511E+01  0.37317289488E+02  0.51100000000E-03 0. -1.
        -11    1    3    3    0    0  0.11061982322E+00 -0.65354566422E+01 -0.71193200729E+01  0.96648408590E+01  0.51100000000E-03 0.  1.
        -12    1    3    3    0    0 -0.25536415303E+02  0.34440616599E+02  0.35970787280E+01  0.43025615087E+02  0.00000000000E+00 0.  1.
</event>
<event>
 7    1  0.2682188E-015  0.9000738E+02  0.7816164E-02  0.1186340E+00
        -11   -1    0    0    0    0  0.00000000000E+00  0.00000000000E+00  0.45593999997E+02  0.45594000000E+02  0.51100000000E-03 0. -1.
         11   -1    0    0    0    0 -0.00000000000E+00 -0.00000000000E+00 -0.45593999997E+02  0.45594000000E+02  0.51100000000E-03 0.  1.
    9900012    2    1    2    0    0  0.56577315006E+00 -0.30182113763E+00 -0.99130142828E+00  0.90007375683E+02  0.89999632241E+02 0.  0.
         12    1    1    2    0    0 -0.56577315006E+00  0.30182113763E+00  0.99130142828E+00  0.11806243171E+01  0.00000000000E+00 0. -1.
         11    1    3    3    0    0  0.28227550116E+01  0.95777378781E+01  0.89543951581E+01  0.13412017060E+02  0.51100000000E-03 0. -1.
        -11    1    3    3    0    0  0.29832640722E+02  0.14780444936E+02 -0.13591982846E+02  0.35960951085E+02  0.51100000000E-03 0.  1.
         12    1    3    3    0    0 -0.32089622584E+02 -0.24660003951E+02  0.36462862596E+01  0.40634407538E+02  0.00000000000E+00 0. -1.
</event>
<event>
 7    1  0.2682188E-015  0.9000903E+02  0.7816164E-02  0.1186336E+00
        -11   -1    0    0    0    0  0.00000000000E+00  0.00000000000E+00  0.45593999997E+02  0.45594000000E+02  0.51100000000E-03 0.  1.
         11   -1    0    0    0    0 -0.00000000000E+00 -0.00000000000E+00 -0.45593999997E+02  0.45594000000E+02  0.51100000000E-03 0. -1.
    9900012    2    1    2    0    0 -0.10913685500E+01 -0.36750131072E+00  0.25262814919E+00  0.90009032864E+02  0.90001311289E+02 0.  0.
         12    1    1    2    0    0  0.10913685500E+01  0.36750131072E+00 -0.25262814919E+00  0.11789671357E+01  0.00000000000E+00 0. -1.
         11    1    3    3    0    0 -0.64567932380E+00  0.95179829244E+01  0.19546994886E+01  0.97380568437E+01  0.51100000000E-03 0. -1.
        -11    1    3    3    0    0  0.39480973306E+02 -0.51485053653E+01  0.21960505465E+01  0.39875769572E+02  0.51100000000E-03 0.  1.
         12    1    3    3    0    0 -0.39926662532E+02 -0.47369788698E+01 -0.38981218859E+01  0.40395206449E+02  0.00000000000E+00 0. -1.
</event>
<event>
 7    1  0.2682188E-015  0.9000767E+02  0.7816164E-02  0.1186339E+00
        -11   -1    0    0    0    0  0.00000000000E+00  0.00000000000E+00  0.45593999997E+02  0.45594000000E+02  0.51100000000E-03 0.  1.
         11   -1    0    0    0    0 -0.00000000000E+00 -0.00000000000E+00 -0.45593999997E+02  0.45594000000E+02  0.51100000000E-03 0. -1.
    9900012    2    1    2    0    0 -0.10090592868E+01 -0.58930360986E+00  0.16640081342E+00  0.90007674359E+02  0.89999934860E+02 0.  0.
         12    1    1    2    0    0  0.10090592868E+01  0.58930360986E+00 -0.16640081342E+00  0.11803256413E+01  0.00000000000E+00 0. -1.
         11    1    3    3    0    0 -0.29661244683E+02  0.23938351691E+02 -0.10503806379E+02  0.39536869711E+02  0.51100000000E-03 0. -1.
        -11    1    3    3    0    0 -0.83407888433E+00  0.38878009641E+01  0.85930798413E+01  0.94684584459E+01  0.51100000000E-03 0.  1.
        -12    1    3    3    0    0  0.29486264281E+02 -0.28415456265E+02  0.20771273514E+01  0.41002346202E+02  0.00000000000E+00 0.  1.
</event>
<event>
 7    1  0.2682188E-015  0.9000793E+02  0.7816164E-02  0.1186339E+00
        -11   -1    0    0    0    0  0.00000000000E+00  0.00000000000E+00  0.45593999997E+02  0.45594000000E+02  0.51100000000E-03 0. -1.
         11   -1    0    0    0    0 -0.00000000000E+00 -0.00000000000E+00 -0.45593999997E+02  0.45594000000E+02  0.51100000000E-03 0.  1.
    9900012    2    1    2    0    0 -0.13600560349E+00 -0.55602897744E+00 -0.10319343380E+01  0.90007934652E+02  0.90000198589E+02 0.  0.
         12    1    1    2    0    0  0.13600560349E+00  0.55602897744E+00  0.10319343380E+01  0.11800653482E+01  0.00000000000E+00 0. -1.
         11    1    3    3    0    0 -0.38510953188E+02 -0.36107739817E+01  0.45908269632E+01  0.38951340114E+02  0.51100000000E-03 0. -1.
        -11    1    3    3    0    0 -0.67928356528E+00  0.73736124323E+01  0.65873580945E+01  0.99108462500E+01  0.51100000000E-03 0.  1.
        -12    1    3    3    0    0  0.39054231150E+02 -0.43188674280E+01 -0.12210119396E+02  0.41145748288E+02  0.00000000000E+00 0.  1.
</event>
<event>
 7    1  0.2682188E-015  0.9000787E+02  0.7816164E-02  0.1186339E+00
        -11   -1    0    0    0    0  0.00000000000E+00  0.00000000000E+00  0.45593999997E+02  0.45594000000E+02  0.51100000000E-03 0.  1.
         11   -1    0    0    0    0 -0.00000000000E+00 -0.00000000000E+00 -0.45593999997E+02  0.45594000000E+02  0.51100000000E-03 0. -1.
    9900012    2    1    2    0    0  0.88746552841E+00  0.50292383332E+00  0.59345203554E+00  0.90007867480E+02  0.90000130531E+02 0.  0.
         12    1    1    2    0    0 -0.88746552841E+00 -0.50292383332E+00 -0.59345203554E+00  0.11801325200E+01  0.00000000000E+00 0. -1.
         11    1    3    3    0    0 -0.81598714494E+01 -0.33187797189E+01 -0.16121037800E+01  0.89552598930E+01  0.51100000000E-03 0. -1.
        -11    1    3    3    0    0 -0.22273383484E+02 -0.26941219699E+02  0.10233048035E+02  0.36423182220E+02  0.51100000000E-03 0.  1.
         12    1    3    3    0    0  0.31320720462E+02  0.30762923251E+02 -0.80274922198E+01  0.44629425367E+02  0.00000000000E+00 0. -1.
</event>
<event>
 7    1  0.2682188E-015  0.9000770E+02  0.7816164E-02  0.1186339E+00
        -11   -1    0    0    0    0  0.00000000000E+00  0.00000000000E+00  0.45593999997E+02  0.45594000000E+02  0.51100000000E-03 0.  1.
         11   -1    0    0    0    0 -0.00000000000E+00 -0.00000000000E+00 -0.45593999997E+02  0.45594000000E+02  0.51100000000E-03 0. -1.
    9900012    2    1    2    0    0 -0.10663053759E+01  0.31329592609E+00 -0.39741157652E+00  0.90007704506E+02  0.89999965405E+02 0.  0.
         12    1    1    2    0    0  0.10663053759E+01 -0.31329592609E+00  0.39741157652E+00  0.11802954940E+01  0.00000000000E+00 0. -1.
         11    1    3    3    0    0 -0.25929429092E+02  0.11761052467E+02 -0.15562615688E+02  0.32447691066E+02  0.51100000000E-03 0. -1.
        -11    1    3    3    0    0  0.86552532066E+01  0.18779855697E+02  0.96553620830E+01  0.22821533807E+02  0.51100000000E-03 0.  1.
        -12    1    3    3    0    0  0.16207870510E+02 -0.30227612238E+02  0.55098420288E+01  0.34738479633E+02  0.00000000000E+00 0.  1.
</event>
<event>
 7    1  0.2682188E-015  0.9000775E+02  0.7816164E-02  0.1186339E+00
        -11   -1    0    0    0    0  0.00000000000E+00  0.00000000000E+00  0.45593999997E+02  0.45594000000E+02  0.51100000000E-03 0.  1.
         11   -1    0    0    0    0 -0.00000000000E+00 -0.00000000000E+00 -0.45593999997E+02  0.45594000000E+02  0.51100000000E-03 0. -1.
    9900012    2    1    2    0    0  0.60713924318E+00 -0.91633868880E+00  0.42975344624E+00  0.90007753128E+02  0.90000014670E+02 0.  0.
         12    1    1    2    0    0 -0.60713924318E+00  0.91633868880E+00 -0.42975344624E+00  0.11802468715E+01  0.00000000000E+00 0. -1.
         11    1    3    3    0    0 -0.56074945639E+01 -0.38697013271E+02 -0.88777544674E+01  0.40096350907E+02  0.51100000000E-03 0. -1.
        -11    1    3    3    0    0  0.11763333047E+02  0.59642460882E+01 -0.56143951523E+01  0.14334213231E+02  0.51100000000E-03 0.  1.
        -12    1    3    3    0    0 -0.55486992398E+01  0.31816428494E+02  0.14921903066E+02  0.35577188991E+02  0.00000000000E+00 0.  1.
</event>
<event>
 7    1  0.2682188E-015  0.9000794E+02  0.7816164E-02  0.1186339E+00
        -11   -1    0    0    0    0  0.00000000000E+00  0.00000000000E+00  0.45593999997E+02  0.45594000000E+02  0.51100000000E-03 0.  1.
         11   -1    0    0    0    0 -0.00000000000E+00 -0.00000000000E+00 -0.45593999997E+02  0.45594000000E+02  0.51100000000E-03 0. -1.
    9900012    2    1    2    0    0  0.21267142429E+00 -0.11356530291E+01 -0.23998652315E+00  0.90007944718E+02  0.90000208788E+02 0.  0.
         12    1    1    2    0    0 -0.21267142429E+00  0.11356530291E+01  0.23998652315E+00  0.11800552820E+01  0.00000000000E+00 0. -1.
         11    1    3    3    0    0  0.38703288926E+01  0.29401929650E+01 -0.77394457053E+01  0.91391028276E+01  0.51100000000E-03 0. -1.
        -11    1    3    3    0    0 -0.18509162667E+02  0.21969747097E+02 -0.23961922173E+02  0.37408990960E+02  0.51100000000E-03 0.  1.
         12    1    3    3    0    0  0.14851505199E+02 -0.26045593091E+02  0.31461381355E+02  0.43459850931E+02  0.00000000000E+00 0. -1.
</event>
<event>
 7    1  0.2682188E-015  0.9000777E+02  0.7816164E-02  0.1186339E+00
        -11   -1    0    0    0    0  0.00000000000E+00  0.00000000000E+00  0.45593999997E+02  0.45594000000E+02  0.51100000000E-03 0.  1.
         11   -1    0    0    0    0 -0.00000000000E+00 -0.00000000000E+00 -0.45593999997E+02  0.45594000000E+02  0.51100000000E-03 0. -1.
    9900012    2    1    2    0    0  0.46304760578E+00 -0.10278633258E+01  0.34932984961E+00  0.90007768054E+02  0.90000029793E+02 0.  0.
         12    1    1    2    0    0 -0.46304760578E+00  0.10278633258E+01 -0.34932984961E+00  0.11802319456E+01  0.00000000000E+00 0. -1.
         11    1    3    3    0    0  0.76569317783E+01  0.38052287533E+01  0.60654697411E+01  0.10483238696E+02  0.51100000000E-03 0. -1.
        -11    1    3    3    0    0 -0.22799702354E+02  0.13855536746E+02  0.27516662438E+02  0.38327131878E+02  0.51100000000E-03 0.  1.
         12    1    3    3    0    0  0.15605818182E+02 -0.18688628825E+02 -0.33232802330E+02  0.41197397480E+02  0.00000000000E+00 0. -1.
</event>
<event>
 7    1  0.2682188E-015  0.9000777E+02  0.7816164E-02  0.1186339E+00
        -11   -1    0    0    0    0  0.00000000000E+00  0.00000000000E+00  0.45593999997E+02  0.45594000000E+02  0.51100000000E-03 0. -1.
         11   -1    0    0    0    0 -0.00000000000E+00 -0.00000000000E+00 -0.45593999997E+02  0.45594000000E+02  0.51100000000E-03 0.  1.
    9900012    2    1    2    0    0 -0.28476413945E+00 -0.11437410336E+01 -0.60818299548E-01  0.90007774160E+02  0.90000035979E+02 0.  0.
         12    1    1    2    0    0  0.28476413945E+00  0.11437410336E+01  0.60818299548E-01  0.11802258397E+01  0.00000000000E+00 0. -1.
         11    1    3    3    0    0  0.17520841035E+02  0.21223725904E+02  0.21013472273E+02  0.34626470063E+02  0.51100000000E-03 0. -1.
        -11    1    3    3    0    0  0.17053249699E+01  0.99508796161E+01  0.30905771626E+01  0.10558399777E+02  0.51100000000E-03 0.  1.
        -12    1    3    3    0    0 -0.19510930145E+02 -0.32318346554E+02 -0.24164867735E+02  0.44822904320E+02  0.00000000000E+00 0.  1.
</event>
<event>
 7    1  0.2682188E-015  0.9000768E+02  0.7816164E-02  0.1186339E+00
        -11   -1    0    0    0    0  0.00000000000E+00  0.00000000000E+00  0.45593999997E+02  0.45594000000E+02  0.51100000000E-03 0.  1.
         11   -1    0    0    0    0 -0.00000000000E+00 -0.00000000000E+00 -0.45593999997E+02  0.45594000000E+02  0.51100000000E-03 0. -1.
    9900012    2    1    2    0    0 -0.11482913536E+01  0.26150990560E+00  0.78756524140E-01  0.90007676716E+02  0.89999937249E+02 0.  0.
         12    1    1    2    0    0  0.11482913536E+01 -0.26150990560E+00 -0.78756524140E-01  0.11803232835E+01  0.00000000000E+00 0. -1.
         11    1    3    3    0    0  0.43476851872E+01  0.48434901675E+01 -0.68736062260E+01  0.94661621738E+01  0.51100000000E-03 0. -1.
        -11    1    3    3    0    0 -0.34999893097E+02 -0.19884346307E+02  0.19860493349E+02  0.44886734579E+02  0.51100000000E-03 0.  1.
         12    1    3    3    0    0  0.29503916556E+02  0.15302366045E+02 -0.12908130598E+02  0.35654779964E+02  0.00000000000E+00 0. -1.
</event>
<event>
 7    1  0.2682188E-015  0.9000764E+02  0.7816164E-02  0.1186339E+00
        -11   -1    0    0    0    0  0.00000000000E+00  0.00000000000E+00  0.45593999997E+02  0.45594000000E+02  0.51100000000E-03 0.  1.
         11   -1    0    0    0    0 -0.00000000000E+00 -0.00000000000E+00 -0.45593999997E+02  0.45594000000E+02  0.51100000000E-03 0. -1.
    9900012    2    1    2    0    0 -0.77981457569E+00 -0.88310583180E+00  0.72625231067E-01  0.90007635181E+02  0.89999895165E+02 0.  0.
         12    1    1    2    0    0  0.77981457569E+00  0.88310583180E+00 -0.72625231067E-01  0.11803648194E+01  0.00000000000E+00 0. -1.
         11    1    3    3    0    0 -0.35253634269E+02 -0.10057741984E+02  0.15602531675E+01  0.36693477529E+02  0.51100000000E-03 0. -1.
        -11    1    3    3    0    0 -0.76559081592E+01  0.58430792579E+01  0.45008697292E+01  0.10630725918E+02  0.51100000000E-03 0.  1.
        -12    1    3    3    0    0  0.42129727853E+02  0.33315568944E+01 -0.59884976656E+01  0.42683431734E+02  0.00000000000E+00 0.  1.
</event>
<event>
 7    1  0.2682188E-015  0.9000725E+02  0.7816164E-02  0.1186340E+00
        -11   -1    0    0    0    0  0.00000000000E+00  0.00000000000E+00  0.45593999997E+02  0.45594000000E+02  0.51100000000E-03 0.  1.
         11   -1    0    0    0    0 -0.00000000000E+00 -0.00000000000E+00 -0.45593999997E+02  0.45594000000E+02  0.51100000000E-03 0. -1.
    9900012    2    1    2    0    0  0.11085565414E+01 -0.29574266591E+00  0.27895789925E+00  0.90007246495E+02  0.89999501347E+02 0.  0.
         12    1    1    2    0    0 -0.11085565414E+01  0.29574266591E+00 -0.27895789925E+00  0.11807535050E+01  0.00000000000E+00 0. -1.
         11    1    3    3    0    0  0.77610499030E+01 -0.67464349032E+01 -0.18785721149E+02  0.21416152756E+02  0.51100000000E-03 0. -1.
        -11    1    3    3    0    0  0.16446163377E+02 -0.22565104648E+02  0.13752205678E+02  0.31125285523E+02  0.51100000000E-03 0.  1.
         12    1    3    3    0    0 -0.23098656739E+02  0.29015796885E+02  0.53124733707E+01  0.37465808217E+02  0.00000000000E+00 0. -1.
</event>
<event>
 7    1  0.2682188E-015  0.9000770E+02  0.7816164E-02  0.1186339E+00
        -11   -1    0    0    0    0  0.00000000000E+00  0.00000000000E+00  0.45593999997E+02  0.45594000000E+02  0.51100000000E-03 0.  1.
         11   -1    0    0    0    0 -0.00000000000E+00 -0.00000000000E+00 -0.45593999997E+02  0.45594000000E+02  0.51100000000E-03 0. -1.
    9900012    2    1    2    0    0  0.50469929400E+00  0.32650166926E+00  0.10157654130E+01  0.90007701694E+02  0.89999962556E+02 0.  0.
         12    1    1    2    0    0 -0.50469929400E+00 -0.32650166926E+00 -0.10157654130E+01  0.11802983062E+01  0.00000000000E+00 0. -1.
         11    1    3    3    0    0  0.40474316553E+02 -0.24931251264E+01  0.62216781936E+01  0.41025543911E+02  0.51100000000E-03 0. -1.
        -11    1    3    3    0    0 -0.28697769269E+00  0.29765889324E+01 -0.86477830374E+01  0.91502234722E+01  0.51100000000E-03 0.  1.
        -12    1    3    3    0    0 -0.39682639567E+02 -0.15696213675E+00  0.34418702568E+01  0.39831934311E+02  0.00000000000E+00 0.  1.
</event>
<event>
 7    1  0.2682188E-015  0.9000773E+02  0.7816164E-02  0.1186339E+00
        -11   -1    0    0    0    0  0.00000000000E+00  0.00000000000E+00  0.45593999997E+02  0.45594000000E+02  0.51100000000E-03 0. -1.
         11   -1    0    0    0    0 -0.00000000000E+00 -0.00000000000E+00 -0.45593999997E+02  0.45594000000E+02  0.51100000000E-03 0.  1.
    9900012    2    1    2    0    0 -0.86915110738E+00 -0.52185479605E+00 -0.60438345590E+00  0.90007730778E+02  0.89999992024E+02 0.  0.
         12    1    1    2    0    0  0.86915110738E+00  0.52185479605E+00  0.60438345590E+00  0.11802692224E+01  0.00000000000E+00 0. -1.
         11    1    3    3    0    0 -0.25228743813E+02 -0.39813614398E+01  0.26269107524E+02  0.36638869574E+02  0.51100000000E-03 0. -1.
        -11    1    3    3    0    0 -0.69362586535E+01  0.47524561710E+01  0.40681297195E+01  0.93406211486E+01  0.51100000000E-03 0.  1.
        -12    1    3    3    0    0  0.31295851359E+02 -0.12929495272E+01 -0.30941620700E+02  0.44028240055E+02  0.00000000000E+00 0.  1.
</event>
<event>
 7    1  0.2682188E-015  0.9000773E+02  0.7816164E-02  0.1186339E+00
        -11   -1    0    0    0    0  0.00000000000E+00  0.00000000000E+00  0.45593999997E+02  0.45594000000E+02  0.51100000000E-03 0.  1.
         11   -1    0    0    0    0 -0.00000000000E+00 -0.00000000000E+00 -0.45593999997E+02  0.45594000000E+02  0.51100000000E-03 0. -1.
    9900012    2    1    2    0    0  0.71551665955E+00 -0.77405231522E+00  0.53096228399E+00  0.90007727987E+02  0.89999989197E+02 0.  0.
         12    1    1    2    0    0 -0.71551665955E+00  0.77405231522E+00 -0.53096228399E+00  0.11802720126E+01  0.00000000000E+00 0. -1.
         11    1    3    3    0    0 -0.95409346114E+01  0.10728333226E+01 -0.12924112809E+01  0.96876587356E+01  0.51100000000E-03 0. -1.
        -11    1    3    3    0    0  0.83986836899E+00  0.63691414560E+01  0.39812871010E+02  0.40327856874E+02  0.51100000000E-03 0.  1.
         12    1    3    3    0    0  0.94165829019E+01 -0.82160270937E+01 -0.37989497445E+02  0.39992212378E+02  0.00000000000E+00 0. -1.
</event>
<event>
 7    1  0.2682188E-015  0.9000776E+02  0.7816164E-02  0.1186339E+00
        -11   -1    0    0    0    0  0.00000000000E+00  0.00000000000E+00  0.45593999997E+02  0.45594000000E+02  0.51100000000E-03 0.  1.
         11   -1    0    0    0    0 -0.00000000000E+00 -0.00000000000E+00 -0.45593999997E+02  0.45594000000E+02  0.51100000000E-03 0. -1.
    9900012    2    1    2    0    0 -0.99674777696E+00  0.45000164687E+00  0.44380361336E+00  0.90007758813E+02  0.90000020429E+02 0.  0.
         12    1    1    2    0    0  0.99674777696E+00 -0.45000164687E+00 -0.44380361336E+00  0.11802411873E+01  0.00000000000E+00 0. -1.
         11    1    3    3    0    0  0.72018884292E+01  0.67307302369E+01 -0.34772141869E+02  0.36142382004E+02  0.51100000000E-03 0. -1.
        -11    1    3    3    0    0 -0.51195766493E+01  0.12209955301E+02 -0.79921192012E+00  0.13263929036E+02  0.51100000000E-03 0.  1.
        -12    1    3    3    0    0 -0.30790595568E+01 -0.18490683891E+02  0.36015157403E+02  0.40601447773E+02  0.00000000000E+00 0.  1.
</event>
<event>
 7    1  0.2682188E-015  0.9000774E+02  0.7816164E-02  0.1186339E+00
        -11   -1    0    0    0    0  0.00000000000E+00  0.00000000000E+00  0.45593999997E+02  0.45594000000E+02  0.51100000000E-03 0.  1.
         11   -1    0    0    0    0 -0.00000000000E+00 -0.00000000000E+00 -0.45593999997E+02  0.45594000000E+02  0.51100000000E-03 0. -1.
    9900012    2    1    2    0    0 -0.67900902727E+00  0.72646811529E+00  0.63577304001E+00  0.90007738783E+02  0.90000000135E+02 0.  0.
         12    1    1    2    0    0  0.67900902727E+00 -0.72646811529E+00 -0.63577304001E+00  0.11802612169E+01  0.00000000000E+00 0. -1.
         11    1    3    3    0    0  0.13580304748E+02  0.33055247359E+01 -0.28023531444E+02  0.31315642827E+02  0.51100000000E-03 0. -1.
        -11    1    3    3    0    0  0.34681998410E+01  0.54156499963E+01 -0.12003858527E+02  0.13618013615E+02  0.51100000000E-03 0.  1.
        -12    1    3    3    0    0 -0.17727513616E+02 -0.79947066169E+01  0.40663163010E+02  0.45074082341E+02  0.00000000000E+00 0.  1.
</event>
<event>
 7    1  0.2682188E-015  0.9000786E+02  0.7816164E-02  0.1186339E+00
        -11   -1    0    0    0    0  0.00000000000E+00  0.00000000000E+00  0.45593999997E+02  0.45594000000E+02  0.51100000000E-03 0.  1.
         11   -1    0    0    0    0 -0.00000000000E+00 -0.00000000000E+00 -0.45593999997E+02  0.45594000000E+02  0.51100000000E-03 0. -1.
    9900012    2    1    2    0    0 -0.99886358852E+00 -0.58080100925E+00 -0.24013087224E+00  0.90007863941E+02  0.90000126945E+02 0.  0.
         12    1    1    2    0    0  0.99886358852E+00  0.58080100925E+00  0.24013087224E+00  0.11801360585E+01  0.00000000000E+00 0. -1.
         11    1    3    3    0    0  0.34904307702E+01 -0.71870132363E+01 -0.35495242748E+02  0.36383355044E+02  0.51100000000E-03 0. -1.
        -11    1    3    3    0    0 -0.48688338643E+01  0.64703381435E+01 -0.73987767209E+01  0.10968715336E+02  0.51100000000E-03 0.  1.
        -12    1    3    3    0    0  0.37953950557E+00  0.13587408361E+00  0.42653888597E+02  0.42655793562E+02  0.00000000000E+00 0.  1.
</event>
<event>
 7    1  0.2682188E-015  0.9000776E+02  0.7816164E-02  0.1186339E+00
        -11   -1    0    0    0    0  0.00000000000E+00  0.00000000000E+00  0.45593999997E+02  0.45594000000E+02  0.51100000000E-03 0.  1.
         11   -1    0    0    0    0 -0.00000000000E+00 -0.00000000000E+00 -0.45593999997E+02  0.45594000000E+02  0.51100000000E-03 0. -1.
    9900012    2    1    2    0    0  0.74134513479E+00 -0.81078928736E+00  0.43128452489E+00  0.90007755017E+02  0.90000016584E+02 0.  0.
         12    1    1    2    0    0 -0.74134513479E+00  0.81078928736E+00 -0.43128452489E+00  0.11802449825E+01  0.00000000000E+00 0. -1.
         11    1    3    3    0    0 -0.70835399402E+01  0.29018643618E+01 -0.41536585290E+02  0.42236066018E+02  0.51100000000E-03 0. -1.
        -11    1    3    3    0    0  0.80076266274E+01 -0.22528092985E+01  0.31020917193E+01  0.88780745229E+01  0.51100000000E-03 0.  1.
        -12    1    3    3    0    0 -0.18274155234E+00 -0.14598443507E+01  0.38865778096E+02  0.38893614476E+02  0.00000000000E+00 0.  1.
</event>
<event>
 7    1  0.2682188E-015  0.9000800E+02  0.7816164E-02  0.1186339E+00
        -11   -1    0    0    0    0  0.00000000000E+00  0.00000000000E+00  0.45593999997E+02  0.45594000000E+02  0.51100000000E-03 0. -1.
         11   -1    0    0    0    0 -0.00000000000E+00 -0.00000000000E+00 -0.45593999997E+02  0.45594000000E+02  0.51100000000E-03 0.  1.
    9900012    2    1    2    0    0  0.88620233338E+00  0.72177011100E+00  0.29340324518E+00  0.90008003333E+02  0.90000268177E+02 0.  0.
         12    1    1    2    0    0 -0.88620233338E+00 -0.72177011100E+00 -0.29340324518E+00  0.11799966666E+01  0.00000000000E+00 0. -1.
         11    1    3    3    0    0  0.61079031994E+01  0.58582577522E+01  0.21479357772E+01  0.87315115385E+01  0.51100000000E-03 0. -1.
        -11    1    3    3    0    0  0.22696643035E+02 -0.38614330971E+01 -0.32482495306E+02  0.39814077563E+02  0.51100000000E-03 0.  1.
         12    1    3    3    0    0 -0.27918343901E+02 -0.12750545441E+01  0.30627962774E+02  0.41462414232E+02  0.00000000000E+00 0. -1.
</event>
<event>
 7    1  0.3161282E-015  0.9000780E+02  0.7816164E-02  0.1186339E+00
        -11   -1    0    0    0    0  0.00000000000E+00  0.00000000000E+00  0.45593999997E+02  0.45594000000E+02  0.51100000000E-03 0.  1.
         11   -1    0    0    0    0 -0.00000000000E+00 -0.00000000000E+00 -0.45593999997E+02  0.45594000000E+02  0.51100000000E-03 0. -1.
    9900012    2    1    2    0    0 -0.75709270777E+00 -0.70077769995E+00  0.57323205361E+00  0.90007799280E+02  0.90000061430E+02 0.  0.
         12    1    1    2    0    0  0.75709270777E+00  0.70077769995E+00 -0.57323205361E+00  0.11802007203E+01  0.00000000000E+00 0. -1.
         11    1    3    3    0    0  0.18268893821E+01  0.12958152802E+01 -0.92648730117E+01  0.95317644871E+01  0.51100000000E-03 0. -1.
        -11    1    3    3    0    0  0.15236907644E+02  0.33705872322E+02  0.15626906846E+02  0.40155315979E+02  0.51100000000E-03 0.  1.
         12    1    3    3    0    0 -0.17820889734E+02 -0.35702465302E+02 -0.57888017812E+01  0.40320718813E+02  0.00000000000E+00 0. -1.
</event>
<event>
 7    1  0.2682188E-015  0.9000775E+02  0.7816164E-02  0.1186339E+00
        -11   -1    0    0    0    0  0.00000000000E+00  0.00000000000E+00  0.45593999997E+02  0.45594000000E+02  0.51100000000E-03 0. -1.
         11   -1    0    0    0    0 -0.00000000000E+00 -0.00000000000E+00 -0.45593999997E+02  0.45594000000E+02  0.51100000000E-03 0.  1.
    9900012    2    1    2    0    0  0.35483253986E+00 -0.44649407329E+00  0.10333068060E+01  0.90007751702E+02  0.90000013225E+02 0.  0.
         12    1    1    2    0    0 -0.35483253986E+00  0.44649407329E+00 -0.10333068060E+01  0.11802482977E+01  0.00000000000E+00 0. -1.
         11    1    3    3    0    0 -0.12275613959E+01 -0.15596713700E+02  0.11213623776E+02  0.19248629657E+02  0.51100000000E-03 0. -1.
        -11    1    3    3    0    0  0.79771752417E+01 -0.26359353512E+02 -0.81082074184E+01  0.28708776885E+02  0.51100000000E-03 0.  1.
        -12    1    3    3    0    0 -0.63947813060E+01  0.41509573139E+02 -0.20721095513E+01  0.42050345161E+02  0.00000000000E+00 0.  1.
</event>
<event>
 7    1  0.2682188E-015  0.9000777E+02  0.7816164E-02  0.1186339E+00
        -11   -1    0    0    0    0  0.00000000000E+00  0.00000000000E+00  0.45593999997E+02  0.45594000000E+02  0.51100000000E-03 0.  1.
         11   -1    0    0    0    0 -0.00000000000E+00 -0.00000000000E+00 -0.45593999997E+02  0.45594000000E+02  0.51100000000E-03 0. -1.
    9900012    2    1    2    0    0 -0.71073667939E+00 -0.22499988395E+00  0.91497047862E+00  0.90007770127E+02  0.90000031893E+02 0.  0.
         12    1    1    2    0    0  0.71073667939E+00  0.22499988395E+00 -0.91497047862E+00  0.11802298725E+01  0.00000000000E+00 0. -1.
         11    1    3    3    0    0  0.54281381134E+01  0.28672842374E+02 -0.27618429673E+02  0.40179276139E+02  0.51100000000E-03 0. -1.
        -11    1    3    3    0    0 -0.36496157234E+01 -0.85099265874E+01 -0.49861131829E+01  0.10516647298E+02  0.51100000000E-03 0.  1.
        -12    1    3    3    0    0 -0.24892590694E+01 -0.20387915670E+02  0.33519513334E+02  0.39311846691E+02  0.00000000000E+00 0.  1.
</event>
<event>
 7    1  0.2682188E-015  0.9000767E+02  0.7816164E-02  0.1186339E+00
        -11   -1    0    0    0    0  0.00000000000E+00  0.00000000000E+00  0.45593999997E+02  0.45594000000E+02  0.51100000000E-03 0. -1.
         11   -1    0    0    0    0 -0.00000000000E+00 -0.00000000000E+00 -0.45593999997E+02  0.45594000000E+02  0.51100000000E-03 0.  1.
    9900012    2    1    2    0    0  0.90650410782E+00 -0.72199068761E+00  0.22394175640E+00  0.90007673706E+02  0.89999934199E+02 0.  0.
         12    1    1    2    0    0 -0.90650410782E+00  0.72199068761E+00 -0.22394175640E+00  0.11803262942E+01  0.00000000000E+00 0. -1.
         11    1    3    3    0    0 -0.27658701949E+02 -0.17253151952E+02  0.15945726704E+02  0.36289685121E+02  0.51100000000E-03 0. -1.
        -11    1    3    3    0    0  0.15807186029E+01  0.15943728501E+00  0.11760543311E+02  0.11867370003E+02  0.51100000000E-03 0.  1.
        -12    1    3    3    0    0  0.26984487454E+02  0.16371723980E+02 -0.27482328259E+02  0.41850618582E+02  0.00000000000E+00 0.  1.
</event>
<event>
 7    1  0.2682188E-015  0.9000793E+02  0.7816164E-02  0.1186339E+00
        -11   -1    0    0    0    0  0.00000000000E+00  0.00000000000E+00  0.45593999997E+02  0.45594000000E+02  0.51100000000E-03 0. -1.
         11   -1    0    0    0    0 -0.00000000000E+00 -0.00000000000E+00 -0.45593999997E+02  0.45594000000E+02  0.51100000000E-03 0.  1.
    9900012    2    1    2    0    0 -0.12948245393E+00  0.10591286791E+01 -0.50403541039E+00  0.90007927562E+02  0.90000191405E+02 0.  0.
         12    1    1    2    0    0  0.12948245393E+00 -0.10591286791E+01  0.50403541039E+00  0.11800724383E+01  0.00000000000E+00 0. -1.
         11    1    3    3    0    0 -0.12357940726E+01  0.11928344438E+01 -0.10634435070E+02  0.10772244451E+02  0.51100000000E-03 0. -1.
        -11    1    3    3    0    0  0.69112221437E+01  0.34147955693E+02 -0.13317048115E+02  0.37298681481E+02  0.51100000000E-03 0.  1.
         12    1    3    3    0    0 -0.58049105251E+01 -0.34281661457E+02  0.23447447775E+02  0.41937001629E+02  0.00000000000E+00 0. -1.
</event>
<event>
 7    1  0.2682188E-015  0.9000781E+02  0.7816164E-02  0.1186339E+00
        -11   -1    0    0    0    0  0.00000000000E+00  0.00000000000E+00  0.45593999997E+02  0.45594000000E+02  0.51100000000E-03 0. -1.
         11   -1    0    0    0    0 -0.00000000000E+00 -0.00000000000E+00 -0.45593999997E+02  0.45594000000E+02  0.51100000000E-03 0.  1.
    9900012    2    1    2    0    0 -0.10232387388E+00 -0.84502353353E+00 -0.81750641491E+00  0.90007808623E+02  0.90000070897E+02 0.  0.
         12    1    1    2    0    0  0.10232387388E+00  0.84502353353E+00  0.81750641491E+00  0.11801913768E+01  0.00000000000E+00 0. -1.
         11    1    3    3    0    0 -0.21752910037E+02 -0.99342051041E+01  0.26313008397E+02  0.35556320637E+02  0.51100000000E-03 0. -1.
        -11    1    3    3    0    0 -0.80964890034E+01 -0.73288376933E+01  0.80705626922E-01  0.10921149654E+02  0.51100000000E-03 0.  1.
        -12    1    3    3    0    0  0.29747075166E+02  0.16418019264E+02 -0.27211220439E+02  0.43530338331E+02  0.00000000000E+00 0.  1.
</event>
<event>
 7    1  0.2682188E-015  0.9000776E+02  0.7816164E-02  0.1186339E+00
        -11   -1    0    0    0    0  0.00000000000E+00  0.00000000000E+00  0.45593999997E+02  0.45594000000E+02  0.51100000000E-03 0.  1.
         11   -1    0    0    0    0 -0.00000000000E+00 -0.00000000000E+00 -0.45593999997E+02  0.45594000000E+02  0.51100000000E-03 0. -1.
    9900012    2    1    2    0    0 -0.38652650915E+00 -0.10504350528E+01  0.37436110399E+00  0.90007761559E+02  0.90000023211E+02 0.  0.
         12    1    1    2    0    0  0.38652650915E+00  0.10504350528E+01 -0.37436110399E+00  0.11802384415E+01  0.00000000000E+00 0. -1.
         11    1    3    3    0    0  0.90419355885E+01 -0.46689669253E+01  0.28143924944E+01  0.10558250646E+02  0.51100000000E-03 0. -1.
        -11    1    3    3    0    0  0.12262650296E+02 -0.33199320525E+02 -0.82041709515E+01  0.36330096296E+02  0.51100000000E-03 0.  1.
         12    1    3    3    0    0 -0.21691112394E+02  0.36817852397E+02  0.57641395611E+01  0.43119414617E+02  0.00000000000E+00 0. -1.
</event>
<event>
 7    1  0.2682188E-015  0.9000770E+02  0.7816164E-02  0.1186339E+00
        -11   -1    0    0    0    0  0.00000000000E+00  0.00000000000E+00  0.45593999997E+02  0.45594000000E+02  0.51100000000E-03 0.  1.
         11   -1    0    0    0    0 -0.00000000000E+00 -0.00000000000E+00 -0.45593999997E+02  0.45594000000E+02  0.51100000000E-03 0. -1.
    9900012    2    1    2    0    0 -0.50318096954E+00 -0.90975423940E+00 -0.55880496794E+00  0.90007700523E+02  0.89999961369E+02 0.  0.
         12    1    1    2    0    0  0.50318096954E+00  0.90975423940E+00  0.55880496794E+00  0.11802994774E+01  0.00000000000E+00 0. -1.
         11    1    3    3    0    0 -0.67625449873E+01  0.28826712309E+02  0.16251990948E+02  0.33776301859E+02  0.51100000000E-03 0. -1.
        -11    1    3    3    0    0 -0.93522861644E+01  0.54585408646E+01 -0.13898927443E+02  0.17619339068E+02  0.51100000000E-03 0.  1.
        -12    1    3    3    0    0  0.15611650182E+02 -0.35195007413E+02 -0.29118684722E+01  0.38612059595E+02  0.00000000000E+00 0.  1.
</event>
<event>
 7    1  0.2682188E-015  0.9000774E+02  0.7816164E-02  0.1186339E+00
        -11   -1    0    0    0    0  0.00000000000E+00  0.00000000000E+00  0.45593999997E+02  0.45594000000E+02  0.51100000000E-03 0. -1.
         11   -1    0    0    0    0 -0.00000000000E+00 -0.00000000000E+00 -0.45593999997E+02  0.45594000000E+02  0.51100000000E-03 0.  1.
    9900012    2    1    2    0    0 -0.63200113512E+00  0.62448158940E+00 -0.77691893222E+00  0.90007743368E+02  0.90000004780E+02 0.  0.
         12    1    1    2    0    0  0.63200113512E+00 -0.62448158940E+00  0.77691893222E+00  0.11802566321E+01  0.00000000000E+00 0. -1.
         11    1    3    3    0    0  0.31958217902E+02  0.14198361325E+02  0.21855130580E+02  0.41237942343E+02  0.51100000000E-03 0. -1.
        -11    1    3    3    0    0 -0.45358984914E+01  0.21099281500E+01 -0.14892604428E+02  0.15710373606E+02  0.51100000000E-03 0.  1.
        -12    1    3    3    0    0 -0.28054320545E+02 -0.15683807886E+02 -0.77394450837E+01  0.33059427419E+02  0.00000000000E+00 0.  1.
</event>
<event>
 7    1  0.3443678E-015  0.9000770E+02  0.7816164E-02  0.1186339E+00
        -11   -1    0    0    0    0  0.00000000000E+00  0.00000000000E+00  0.45593999997E+02  0.45594000000E+02  0.51100000000E-03 0.  1.
         11   -1    0    0    0    0 -0.00000000000E+00 -0.00000000000E+00 -0.45593999997E+02  0.45594000000E+02  0.51100000000E-03 0. -1.
    9900012    2    1    2    0    0 -0.42235747427E+00  0.76292561383E+00  0.79540933799E+00  0.90007696080E+02  0.89999956868E+02 0.  0.
         12    1    1    2    0    0  0.42235747427E+00 -0.76292561383E+00 -0.79540933799E+00  0.11803039199E+01  0.00000000000E+00 0. -1.
         11    1    3    3    0    0 -0.32301586634E+01  0.91690936606E+01  0.11491382200E+01  0.97891124448E+01  0.51100000000E-03 0. -1.
        -11    1    3    3    0    0 -0.30095800246E+02 -0.14667815439E+02  0.21899278076E+02  0.40006004333E+02  0.51100000000E-03 0.  1.
         12    1    3    3    0    0  0.32903601435E+02  0.62616473922E+01 -0.22253006958E+02  0.40212579302E+02  0.00000000000E+00 0. -1.
</event>
<event>
 7    1  0.2682188E-015  0.9000783E+02  0.7816164E-02  0.1186339E+00
        -11   -1    0    0    0    0  0.00000000000E+00  0.00000000000E+00  0.45593999997E+02  0.45594000000E+02  0.51100000000E-03 0.  1.
         11   -1    0    0    0    0 -0.00000000000E+00 -0.00000000000E+00 -0.45593999997E+02  0.45594000000E+02  0.51100000000E-03 0. -1.
    9900012    2    1    2    0    0  0.95139111000E+00 -0.16684150183E+00  0.67810117609E+00  0.90007829531E+02  0.90000092081E+02 0.  0.
         12    1    1    2    0    0 -0.95139111000E+00  0.16684150183E+00 -0.67810117609E+00  0.11801704690E+01  0.00000000000E+00 0. -1.
         11    1    3    3    0    0  0.10502048860E+02  0.39015037588E+01 -0.36178866438E+02  0.37873805444E+02  0.51100000000E-03 0. -1.
        -11    1    3    3    0    0  0.28739831802E+01  0.90635812931E+01 -0.15979563920E+01  0.96416673905E+01  0.51100000000E-03 0.  1.
        -12    1    3    3    0    0 -0.12424640931E+02 -0.13131926554E+02  0.38454924006E+02  0.42492356696E+02  0.00000000000E+00 0.  1.
</event>
<event>
 7    1  0.2682188E-015  0.9000768E+02  0.7816164E-02  0.1186339E+00
        -11   -1    0    0    0    0  0.00000000000E+00  0.00000000000E+00  0.45593999997E+02  0.45594000000E+02  0.51100000000E-03 0.  1.
         11   -1    0    0    0    0 -0.00000000000E+00 -0.00000000000E+00 -0.45593999997E+02  0.45594000000E+02  0.51100000000E-03 0. -1.
    9900012    2    1    2    0    0  0.96214652248E+00  0.70822575780E-01  0.68000839332E+00  0.90007680898E+02  0.89999941486E+02 0.  0.
         12    1    1    2    0    0 -0.96214652248E+00 -0.70822575780E-01 -0.68000839332E+00  0.11803191022E+01  0.00000000000E+00 0. -1.
         11    1    3    3    0    0 -0.11774919520E+02 -0.17762258307E+02 -0.30334989202E+02  0.37072336317E+02  0.51100000000E-03 0. -1.
        -11    1    3    3    0    0  0.44974539728E+01 -0.67202525130E+01 -0.42865864965E+01  0.91522516426E+01  0.51100000000E-03 0.  1.
        -12    1    3    3    0    0  0.82396120695E+01  0.24553333396E+02  0.35301584091E+02  0.43783092938E+02  0.00000000000E+00 0.  1.
</event>
<event>
 7    1  0.2682188E-015  0.9000767E+02  0.7816164E-02  0.1186339E+00
        -11   -1    0    0    0    0  0.00000000000E+00  0.00000000000E+00  0.45593999997E+02  0.45594000000E+02  0.51100000000E-03 0.  1.
         11   -1    0    0    0    0 -0.00000000000E+00 -0.00000000000E+00 -0.45593999997E+02  0.45594000000E+02  0.51100000000E-03 0. -1.
    9900012    2    1    2    0    0  0.53327113452E+00  0.85878048897E+00  0.60935089323E+00  0.90007665072E+02  0.89999925451E+02 0.  0.
         12    1    1    2    0    0 -0.53327113452E+00 -0.85878048897E+00 -0.60935089323E+00  0.11803349280E+01  0.00000000000E+00 0. -1.
         11    1    3    3    0    0  0.20092122800E+02  0.22816753888E+02 -0.23860346282E+02  0.38647299796E+02  0.51100000000E-03 0. -1.
        -11    1    3    3    0    0 -0.50960949197E+01 -0.31361757314E+00 -0.81558496963E+01  0.96221839487E+01  0.51100000000E-03 0.  1.
        -12    1    3    3    0    0 -0.14462756746E+02 -0.21644355826E+02  0.32625546872E+02  0.41738181327E+02  0.00000000000E+00 0.  1.
</event>
<event>
 7    1  0.2682188E-015  0.9000773E+02  0.7816164E-02  0.1186339E+00
        -11   -1    0    0    0    0  0.00000000000E+00  0.00000000000E+00  0.45593999997E+02  0.45594000000E+02  0.51100000000E-03 0.  1.
         11   -1    0    0    0    0 -0.00000000000E+00 -0.00000000000E+00 -0.45593999997E+02  0.45594000000E+02  0.51100000000E-03 0. -1.
    9900012    2    1    2    0    0 -0.28794043475E+00  0.95992292330E+00 -0.62343781645E+00  0.90007730360E+02  0.89999991601E+02 0.  0.
         12    1    1    2    0    0  0.28794043475E+00 -0.95992292330E+00  0.62343781645E+00  0.11802696402E+01  0.00000000000E+00 0. -1.
         11    1    3    3    0    0 -0.60186757072E+01  0.47641276115E+00 -0.35508512554E+02  0.36018132801E+02  0.51100000000E-03 0. -1.
        -11    1    3    3    0    0 -0.78440092398E+01  0.36082878468E+01 -0.61854472698E+01  0.10621110127E+02  0.51100000000E-03 0.  1.
        -12    1    3    3    0    0  0.13574744512E+02 -0.31247776847E+01  0.41070522008E+02  0.43368487432E+02  0.00000000000E+00 0.  1.
</event>
<event>
 7    1  0.2682188E-015  0.9000772E+02  0.7816164E-02  0.1186339E+00
        -11   -1    0    0    0    0  0.00000000000E+00  0.00000000000E+00  0.45593999997E+02  0.45594000000E+02  0.51100000000E-03 0.  1.
         11   -1    0    0    0    0 -0.00000000000E+00 -0.00000000000E+00 -0.45593999997E+02  0.45594000000E+02  0.51100000000E-03 0. -1.
    9900012    2    1    2    0    0 -0.11770178684E+01 -0.36146733375E-01  0.79920954344E-01  0.90007718251E+02  0.89999979332E+02 0.  0.
         12    1    1    2    0    0  0.11770178684E+01  0.36146733375E-01 -0.79920954344E-01  0.11802817494E+01  0.00000000000E+00 0. -1.
         11    1    3    3    0    0 -0.11400383990E+01 -0.64303457010E+01 -0.27536267436E+01  0.70874179988E+01  0.51100000000E-03 0. -1.
        -11    1    3    3    0    0 -0.16781828731E+02 -0.24109147520E+02  0.27522884049E+02  0.40254067078E+02  0.51100000000E-03 0.  1.
         12    1    3    3    0    0  0.16744849262E+02  0.30503346487E+02 -0.24689336351E+02  0.42666233173E+02  0.00000000000E+00 0. -1.
</event>
<event>
 7    1  0.2682188E-015  0.9000777E+02  0.7816164E-02  0.1186339E+00
        -11   -1    0    0    0    0  0.00000000000E+00  0.00000000000E+00  0.45593999997E+02  0.45594000000E+02  0.51100000000E-03 0. -1.
         11   -1    0    0    0    0 -0.00000000000E+00 -0.00000000000E+00 -0.45593999997E+02  0.45594000000E+02  0.51100000000E-03 0.  1.
    9900012    2    1    2    0    0 -0.76233934426E+00  0.89520622463E+00  0.10193260776E+00  0.90007768787E+02  0.90000030535E+02 0.  0.
         12    1    1    2    0    0  0.76233934426E+00 -0.89520622463E+00 -0.10193260776E+00  0.11802312133E+01  0.00000000000E+00 0. -1.
         11    1    3    3    0    0 -0.31546934335E+01  0.57882304814E+01  0.50215697849E+01  0.82868489868E+01  0.51100000000E-03 0. -1.
        -11    1    3    3    0    0 -0.14186731971E+02 -0.11159676301E+02 -0.39185365889E+02  0.43142724059E+02  0.51100000000E-03 0.  1.
         12    1    3    3    0    0  0.16579086061E+02  0.62666520445E+01  0.34265728712E+02  0.38578195740E+02  0.00000000000E+00 0. -1.
</event>
<event>
 7    1  0.2682188E-015  0.9000769E+02  0.7816164E-02  0.1186339E+00
        -11   -1    0    0    0    0  0.00000000000E+00  0.00000000000E+00  0.45593999997E+02  0.45594000000E+02  0.51100000000E-03 0. -1.
         11   -1    0    0    0    0 -0.00000000000E+00 -0.00000000000E+00 -0.45593999997E+02  0.45594000000E+02  0.51100000000E-03 0.  1.
    9900012    2    1    2    0    0  0.39997034712E+00 -0.10988218868E+01  0.16048817772E+00  0.90007685520E+02  0.89999946168E+02 0.  0.
         12    1    1    2    0    0 -0.39997034712E+00  0.10988218868E+01 -0.16048817772E+00  0.11803144804E+01  0.00000000000E+00 0. -1.
         11    1    3    3    0    0 -0.16927646906E+02 -0.35688840334E+02  0.97650631918E+00  0.39511923757E+02  0.51100000000E-03 0. -1.
        -11    1    3    3    0    0  0.77394604386E+01 -0.39831582420E+01  0.54327458118E+01  0.10260581113E+02  0.51100000000E-03 0.  1.
        -12    1    3    3    0    0  0.95881568140E+01  0.38573176689E+02 -0.62487639533E+01  0.40235180650E+02  0.00000000000E+00 0.  1.
</event>
<event>
 7    1  0.2682188E-015  0.9000781E+02  0.7816164E-02  0.1186339E+00
        -11   -1    0    0    0    0  0.00000000000E+00  0.00000000000E+00  0.45593999997E+02  0.45594000000E+02  0.51100000000E-03 0.  1.
         11   -1    0    0    0    0 -0.00000000000E+00 -0.00000000000E+00 -0.45593999997E+02  0.45594000000E+02  0.51100000000E-03 0. -1.
    9900012    2    1    2    0    0 -0.10968089677E+01  0.16907334616E+00  0.40159573256E+00  0.90007807287E+02  0.90000069543E+02 0.  0.
         12    1    1    2    0    0  0.10968089677E+01 -0.16907334616E+00 -0.40159573256E+00  0.11801927132E+01  0.00000000000E+00 0. -1.
         11    1    3    3    0    0  0.14331200751E+02 -0.24299209074E+02 -0.24178397098E+02  0.37154135208E+02  0.51100000000E-03 0. -1.
        -11    1    3    3    0    0  0.96032954494E+01  0.40660662187E+00 -0.10907819081E+01  0.96735938443E+01  0.51100000000E-03 0.  1.
        -12    1    3    3    0    0 -0.25031305168E+02  0.24061675798E+02  0.25670774739E+02  0.43180078234E+02  0.00000000000E+00 0.  1.
</event>
<event>
 7    1  0.2682188E-015  0.9000774E+02  0.7816164E-02  0.1186339E+00
        -11   -1    0    0    0    0  0.00000000000E+00  0.00000000000E+00  0.45593999997E+02  0.45594000000E+02  0.51100000000E-03 0.  1.
         11   -1    0    0    0    0 -0.00000000000E+00 -0.00000000000E+00 -0.45593999997E+02  0.45594000000E+02  0.51100000000E-03 0. -1.
    9900012    2    1    2    0    0  0.50755681714E+00  0.99123925298E+00  0.39096113330E+00  0.90007737408E+02  0.89999998741E+02 0.  0.
         12    1    1    2    0    0 -0.50755681714E+00 -0.99123925298E+00 -0.39096113330E+00  0.11802625924E+01  0.00000000000E+00 0. -1.
         11    1    3    3    0    0  0.17580726190E+02 -0.52266958490E+01  0.31608158330E+02  0.36544164461E+02  0.51100000000E-03 0. -1.
        -11    1    3    3    0    0 -0.10300070254E+01  0.97219754817E+00  0.93857356967E+01  0.94920028116E+01  0.51100000000E-03 0.  1.
        -12    1    3    3    0    0 -0.16043162348E+02  0.52457375538E+01 -0.40602932893E+02  0.43971570135E+02  0.00000000000E+00 0.  1.
</event>
<event>
 7    1  0.2682188E-015  0.9000771E+02  0.7816164E-02  0.1186339E+00
        -11   -1    0    0    0    0  0.00000000000E+00  0.00000000000E+00  0.45593999997E+02  0.45594000000E+02  0.51100000000E-03 0.  1.
         11   -1    0    0    0    0 -0.00000000000E+00 -0.00000000000E+00 -0.45593999997E+02  0.45594000000E+02  0.51100000000E-03 0. -1.
    9900012    2    1    2    0    0  0.73702513551E+00  0.85161364724E+00 -0.35303625737E+00  0.90007709166E+02  0.89999970127E+02 0.  0.
         12    1    1    2    0    0 -0.73702513551E+00 -0.85161364724E+00  0.35303625737E+00  0.11802908343E+01  0.00000000000E+00 0. -1.
         11    1    3    3    0    0 -0.40941253983E+01  0.17167624183E+02 -0.39214808851E+02  0.43003376802E+02  0.51100000000E-03 0. -1.
        -11    1    3    3    0    0  0.77684740404E+01 -0.65711795643E+00  0.41981490128E+01  0.88546851057E+01  0.51100000000E-03 0.  1.
        -12    1    3    3    0    0 -0.29373235066E+01 -0.15658892579E+02  0.34663623581E+02  0.38149647258E+02  0.00000000000E+00 0.  1.
</event>
<event>
 7    1  0.3018847E-015  0.9000783E+02  0.7816164E-02  0.1186339E+00
        -11   -1    0    0    0    0  0.00000000000E+00  0.00000000000E+00  0.45593999997E+02  0.45594000000E+02  0.51100000000E-03 0.  1.
         11   -1    0    0    0    0 -0.00000000000E+00 -0.00000000000E+00 -0.45593999997E+02  0.45594000000E+02  0.51100000000E-03 0. -1.
    9900012    2    1    2    0    0  0.59772034783E+00 -0.10160657073E+01 -0.56044154013E-01  0.90007830485E+02  0.90000093048E+02 0.  0.
         12    1    1    2    0    0 -0.59772034783E+00  0.10160657073E+01  0.56044154013E-01  0.11801695145E+01  0.00000000000E+00 0. -1.
         11    1    3    3    0    0 -0.73616455827E+01  0.60305697185E+01  0.19182695049E+01  0.97077986675E+01  0.51100000000E-03 0. -1.
        -11    1    3    3    0    0 -0.24428955875E+02 -0.13083405139E+01  0.27022174817E+02  0.36451112084E+02  0.51100000000E-03 0.  1.
         12    1    3    3    0    0  0.32388321806E+02 -0.57382949119E+01 -0.28996488476E+02  0.43848919734E+02  0.00000000000E+00 0. -1.
</event>
<event>
 7    1  0.2682188E-015  0.9000769E+02  0.7816164E-02  0.1186339E+00
        -11   -1    0    0    0    0  0.00000000000E+00  0.00000000000E+00  0.45593999997E+02  0.45594000000E+02  0.51100000000E-03 0. -1.
         11   -1    0    0    0    0 -0.00000000000E+00 -0.00000000000E+00 -0.45593999997E+02  0.45594000000E+02  0.51100000000E-03 0.  1.
    9900012    2    1    2    0    0 -0.10207226175E+01 -0.29722824454E+00  0.51275136725E+00  0.90007689339E+02  0.89999950039E+02 0.  0.
         12    1    1    2    0    0  0.10207226175E+01  0.29722824454E+00 -0.51275136725E+00  0.11803106607E+01  0.00000000000E+00 0. -1.
         11    1    3    3    0    0 -0.27122909613E+01 -0.75540638819E+01 -0.29621671710E+01  0.85553981790E+01  0.51100000000E-03 0. -1.
        -11    1    3    3    0    0 -0.37713902153E+02 -0.28126654422E+01 -0.90677216761E+01  0.38890526857E+02  0.51100000000E-03 0.  1.
         12    1    3    3    0    0  0.39405470497E+02  0.10069501080E+02  0.12542640214E+02  0.42561764304E+02  0.00000000000E+00 0. -1.
</event>
<event>
 7    1  0.2682188E-015  0.9000779E+02  0.7816164E-02  0.1186339E+00
        -11   -1    0    0    0    0  0.00000000000E+00  0.00000000000E+00  0.45593999997E+02  0.45594000000E+02  0.51100000000E-03 0. -1.
         11   -1    0    0    0    0 -0.00000000000E+00 -0.00000000000E+00 -0.45593999997E+02  0.45594000000E+02  0.51100000000E-03 0.  1.
    9900012    2    1    2    0    0 -0.70163165913E+00 -0.72558118839E+00 -0.61166941591E+00  0.90007790476E+02  0.90000052510E+02 0.  0.
         12    1    1    2    0    0  0.70163165913E+00  0.72558118839E+00  0.61166941591E+00  0.11802095239E+01  0.00000000000E+00 0. -1.
         11    1    3    3    0    0  0.36127689419E+02  0.86872338268E+01 -0.11322668685E+02  0.38844314909E+02  0.51100000000E-03 0. -1.
        -11    1    3    3    0    0  0.24313328263E+01 -0.89444929043E+01 -0.27306686760E+01  0.96629128272E+01  0.51100000000E-03 0.  1.
        -12    1    3    3    0    0 -0.39260653904E+02 -0.46832211095E+00  0.13441667945E+02  0.41500562740E+02  0.00000000000E+00 0.  1.
</event>
<event>
 7    1  0.2682188E-015  0.9000778E+02  0.7816164E-02  0.1186339E+00
        -11   -1    0    0    0    0  0.00000000000E+00  0.00000000000E+00  0.45593999997E+02  0.45594000000E+02  0.51100000000E-03 0. -1.
         11   -1    0    0    0    0 -0.00000000000E+00 -0.00000000000E+00 -0.45593999997E+02  0.45594000000E+02  0.51100000000E-03 0.  1.
    9900012    2    1    2    0    0  0.96068019728E-01 -0.49021475693E+00 -0.10692867135E+01  0.90007782373E+02  0.90000044300E+02 0.  0.
         12    1    1    2    0    0 -0.96068019728E-01  0.49021475693E+00  0.10692867135E+01  0.11802176274E+01  0.00000000000E+00 0. -1.
         11    1    3    3    0    0  0.71336969650E+01  0.39328539043E+02 -0.28394764455E+01  0.40071014991E+02  0.51100000000E-03 0. -1.
        -11    1    3    3    0    0 -0.13049719666E+02 -0.42245991259E+01 -0.85491254000E+00  0.13743118163E+02  0.51100000000E-03 0.  1.
        -12    1    3    3    0    0  0.60120907207E+01 -0.35594154674E+02  0.26251022720E+01  0.36193649218E+02  0.00000000000E+00 0.  1.
</event>
<event>
 7    1  0.2682188E-015  0.9000784E+02  0.7816164E-02  0.1186339E+00
        -11   -1    0    0    0    0  0.00000000000E+00  0.00000000000E+00  0.45593999997E+02  0.45594000000E+02  0.51100000000E-03 0.  1.
         11   -1    0    0    0    0 -0.00000000000E+00 -0.00000000000E+00 -0.45593999997E+02  0.45594000000E+02  0.51100000000E-03 0. -1.
    9900012    2    1    2    0    0  0.72083505191E+00 -0.26237898957E+00  0.89684815807E+00  0.90007837924E+02  0.90000100585E+02 0.  0.
         12    1    1    2    0    0 -0.72083505191E+00  0.26237898957E+00 -0.89684815807E+00  0.11801620757E+01  0.00000000000E+00 0. -1.
         11    1    3    3    0    0 -0.35069847911E+02  0.50215470089E+01  0.88384515364E+01  0.36513400179E+02  0.51100000000E-03 0. -1.
        -11    1    3    3    0    0 -0.73591419773E+01 -0.61330190728E+01  0.16685618177E+00  0.95811656303E+01  0.51100000000E-03 0.  1.
        -12    1    3    3    0    0  0.43149824940E+02  0.84909307432E+00 -0.81084595601E+01  0.43913272115E+02  0.00000000000E+00 0.  1.
</event>
<event>
 7    1  0.2682188E-015  0.9000770E+02  0.7816164E-02  0.1186339E+00
        -11   -1    0    0    0    0  0.00000000000E+00  0.00000000000E+00  0.45593999997E+02  0.45594000000E+02  0.51100000000E-03 0.  1.
         11   -1    0    0    0    0 -0.00000000000E+00 -0.00000000000E+00 -0.45593999997E+02  0.45594000000E+02  0.51100000000E-03 0. -1.
    9900012    2    1    2    0    0  0.22672977763E+00  0.10278883495E+01  0.53399018540E+00  0.90007700729E+02  0.89999961579E+02 0.  0.
         12    1    1    2    0    0 -0.22672977763E+00 -0.10278883495E+01 -0.53399018540E+00  0.11802992710E+01  0.00000000000E+00 0. -1.
         11    1    3    3    0    0 -0.82709891812E+01  0.87536710493E+00 -0.39934560597E+01  0.92262246432E+01  0.51100000000E-03 0. -1.
        -11    1    3    3    0    0 -0.32081126590E+02 -0.17338129334E+02  0.21129706734E+01  0.36527716291E+02  0.51100000000E-03 0.  1.
         12    1    3    3    0    0  0.40578845549E+02  0.17490650578E+02  0.24144755716E+01  0.44253759795E+02  0.00000000000E+00 0. -1.
</event>
<event>
 7    1  0.2682188E-015  0.9000779E+02  0.7816164E-02  0.1186339E+00
        -11   -1    0    0    0    0  0.00000000000E+00  0.00000000000E+00  0.45593999997E+02  0.45594000000E+02  0.51100000000E-03 0.  1.
         11   -1    0    0    0    0 -0.00000000000E+00 -0.00000000000E+00 -0.45593999997E+02  0.45594000000E+02  0.51100000000E-03 0. -1.
    9900012    2    1    2    0    0  0.15488437680E+00  0.69265025007E+00  0.94294938757E+00  0.90007785152E+02  0.90000047116E+02 0.  0.
         12    1    1    2    0    0 -0.15488437680E+00 -0.69265025007E+00 -0.94294938757E+00  0.11802148476E+01  0.00000000000E+00 0. -1.
         11    1    3    3    0    0 -0.28640309091E+02  0.21089719142E+02 -0.42401168678E+01  0.35819298564E+02  0.51100000000E-03 0. -1.
        -11    1    3    3    0    0 -0.93108778409E+01 -0.26358666843E+01 -0.50553555079E+01  0.10917731400E+02  0.51100000000E-03 0.  1.
        -12    1    3    3    0    0  0.38106071308E+02 -0.17761202207E+02  0.10238421763E+02  0.43270755189E+02  0.00000000000E+00 0.  1.
</event>
<event>
 7    1  0.2682188E-015  0.9000773E+02  0.7816164E-02  0.1186339E+00
        -11   -1    0    0    0    0  0.00000000000E+00  0.00000000000E+00  0.45593999997E+02  0.45594000000E+02  0.51100000000E-03 0.  1.
         11   -1    0    0    0    0 -0.00000000000E+00 -0.00000000000E+00 -0.45593999997E+02  0.45594000000E+02  0.51100000000E-03 0. -1.
    9900012    2    1    2    0    0 -0.36641661443E+00  0.62180704248E+00  0.93387585561E+00  0.90007733400E+02  0.89999994681E+02 0.  0.
         12    1    1    2    0    0  0.36641661443E+00 -0.62180704248E+00 -0.93387585561E+00  0.11802666000E+01  0.00000000000E+00 0. -1.
         11    1    3    3    0    0  0.13658230755E+02  0.28947694297E+02 -0.27071559921E+02  0.41921183539E+02  0.51100000000E-03 0. -1.
        -11    1    3    3    0    0 -0.48480414511E+01 -0.81963015161E+01 -0.30123228804E+01  0.99878402997E+01  0.51100000000E-03 0.  1.
        -12    1    3    3    0    0 -0.91766059187E+01 -0.20129585738E+02  0.31017758657E+02  0.38098709562E+02  0.00000000000E+00 0.  1.
</event>
<event>
 7    1  0.2682188E-015  0.9000809E+02  0.7816164E-02  0.1186338E+00
        -11   -1    0    0    0    0  0.00000000000E+00  0.00000000000E+00  0.45593999997E+02  0.45594000000E+02  0.51100000000E-03 0.  1.
         11   -1    0    0    0    0 -0.00000000000E+00 -0.00000000000E+00 -0.45593999997E+02  0.45594000000E+02  0.51100000000E-03 0. -1.
    9900012    2    1    2    0    0  0.42842674054E+00  0.97042372539E+00  0.51664534236E+00  0.90008087254E+02  0.90000353205E+02 0.  0.
         12    1    1    2    0    0 -0.42842674054E+00 -0.97042372539E+00 -0.51664534236E+00  0.11799127462E+01  0.00000000000E+00 0. -1.
         11    1    3    3    0    0 -0.84878235484E+01  0.14730241889E+01  0.21899642458E+01  0.88886946460E+01  0.51100000000E-03 0. -1.
        -11    1    3    3    0    0  0.19218734238E+02 -0.28439492117E+02  0.23935404731E+02  0.41845765108E+02  0.51100000000E-03 0.  1.
         12    1    3    3    0    0 -0.10302483949E+02  0.27936891654E+02 -0.25608723635E+02  0.39273627500E+02  0.00000000000E+00 0. -1.
</event>
<event>
 7    1  0.2682188E-015  0.9000774E+02  0.7816164E-02  0.1186339E+00
        -11   -1    0    0    0    0  0.00000000000E+00  0.00000000000E+00  0.45593999997E+02  0.45594000000E+02  0.51100000000E-03 0.  1.
         11   -1    0    0    0    0 -0.00000000000E+00 -0.00000000000E+00 -0.45593999997E+02  0.45594000000E+02  0.51100000000E-03 0. -1.
    9900012    2    1    2    0    0  0.33964243733E+00  0.86567392319E+00  0.72682362260E+00  0.90007736934E+02  0.89999998262E+02 0.  0.
         12    1    1    2    0    0 -0.33964243733E+00 -0.86567392319E+00 -0.72682362260E+00  0.11802630660E+01  0.00000000000E+00 0. -1.
         11    1    3    3    0    0 -0.45267626160E+01  0.71147174564E+01 -0.41419748477E+01  0.93950380609E+01  0.51100000000E-03 0. -1.
        -11    1    3    3    0    0  0.40846404761E+01  0.33441625790E+02  0.18751334112E+02  0.38556959871E+02  0.51100000000E-03 0.  1.
         12    1    3    3    0    0  0.78176457719E+00 -0.39690669323E+02 -0.13882535641E+02  0.42055739002E+02  0.00000000000E+00 0. -1.
</event>
<event>
 7    1  0.2682188E-015  0.9000739E+02  0.7816164E-02  0.1186340E+00
        -11   -1    0    0    0    0  0.00000000000E+00  0.00000000000E+00  0.45593999997E+02  0.45594000000E+02  0.51100000000E-03 0.  1.
         11   -1    0    0    0    0 -0.00000000000E+00 -0.00000000000E+00 -0.45593999997E+02  0.45594000000E+02  0.51100000000E-03 0. -1.
    9900012    2    1    2    0    0 -0.10614310075E+00  0.81649425063E+00  0.84611059710E+00  0.90007393223E+02  0.89999650013E+02 0.  0.
         12    1    1    2    0    0  0.10614310075E+00 -0.81649425063E+00 -0.84611059710E+00  0.11806067769E+01  0.00000000000E+00 0. -1.
         11    1    3    3    0    0 -0.25449572542E+02 -0.86588337889E+00 -0.14949545677E+02  0.29528281575E+02  0.51100000000E-03 0. -1.
        -11    1    3    3    0    0 -0.53749222719E+00  0.14290710048E+01 -0.17914241871E+02  0.17979188077E+02  0.51100000000E-03 0.  1.
        -12    1    3    3    0    0  0.25880921668E+02  0.25330662473E+00  0.33709898145E+02  0.42499923571E+02  0.00000000000E+00 0.  1.
</event>
<event>
 7    1  0.2682188E-015  0.9000665E+02  0.7816164E-02  0.1186341E+00
        -11   -1    0    0    0    0  0.00000000000E+00  0.00000000000E+00  0.45593999997E+02  0.45594000000E+02  0.51100000000E-03 0.  1.
         11   -1    0    0    0    0 -0.00000000000E+00 -0.00000000000E+00 -0.45593999997E+02  0.45594000000E+02  0.51100000000E-03 0. -1.
    9900012    2    1    2    0    0  0.28172345742E+00 -0.94017138964E+00  0.65749572259E+00  0.90006648666E+02  0.89998895622E+02 0.  0.
         12    1    1    2    0    0 -0.28172345742E+00  0.94017138964E+00 -0.65749572259E+00  0.11813513337E+01  0.00000000000E+00 0. -1.
         11    1    3    3    0    0  0.22023419552E+02 -0.20230031089E+02 -0.27569189796E+02  0.40673644942E+02  0.51100000000E-03 0. -1.
        -11    1    3    3    0    0 -0.17401970986E+01  0.67584899183E+01 -0.49936481493E+01  0.85814913633E+01  0.51100000000E-03 0.  1.
        -12    1    3    3    0    0 -0.20001498996E+02  0.12531369781E+02  0.33220333668E+02  0.40751512361E+02  0.00000000000E+00 0.  1.
</event>
<event>
 7    1  0.2682188E-015  0.9000778E+02  0.7816164E-02  0.1186339E+00
        -11   -1    0    0    0    0  0.00000000000E+00  0.00000000000E+00  0.45593999997E+02  0.45594000000E+02  0.51100000000E-03 0.  1.
         11   -1    0    0    0    0 -0.00000000000E+00 -0.00000000000E+00 -0.45593999997E+02  0.45594000000E+02  0.51100000000E-03 0. -1.
    9900012    2    1    2    0    0 -0.11691153855E+01 -0.20565719996E-01  0.16021018948E+00  0.90007779242E+02  0.90000041128E+02 0.  0.
         12    1    1    2    0    0  0.11691153855E+01  0.20565719996E-01 -0.16021018948E+00  0.11802207583E+01  0.00000000000E+00 0. -1.
         11    1    3    3    0    0 -0.33075692431E+02 -0.64732780922E+01 -0.10622548219E+02  0.35337562026E+02  0.51100000000E-03 0. -1.
        -11    1    3    3    0    0 -0.73992131966E+01 -0.87035771260E+01  0.32329497718E+01  0.11872344975E+02  0.51100000000E-03 0.  1.
        -12    1    3    3    0    0  0.39305790242E+02  0.15156289498E+02  0.75498086369E+01  0.42797872241E+02  0.00000000000E+00 0.  1.
</event>
<event>
 7    1  0.2682188E-015  0.9000779E+02  0.7816164E-02  0.1186339E+00
        -11   -1    0    0    0    0  0.00000000000E+00  0.00000000000E+00  0.45593999997E+02  0.45594000000E+02  0.51100000000E-03 0. -1.
         11   -1    0    0    0    0 -0.00000000000E+00 -0.00000000000E+00 -0.45593999997E+02  0.45594000000E+02  0.51100000000E-03 0.  1.
    9900012    2    1    2    0    0  0.10847522929E+01 -0.29598382981E+00 -0.35862036213E+00  0.90007787083E+02  0.90000049073E+02 0.  0.
         12    1    1    2    0    0 -0.10847522929E+01  0.29598382981E+00  0.35862036213E+00  0.11802129166E+01  0.00000000000E+00 0. -1.
         11    1    3    3    0    0  0.22422929891E+02  0.13423626124E+02  0.34465533913E+02  0.43253376185E+02  0.51100000000E-03 0. -1.
        -11    1    3    3    0    0 -0.38928901350E+01  0.42714824846E+01 -0.95480481919E+01  0.11160886199E+02  0.51100000000E-03 0.  1.
        -12    1    3    3    0    0 -0.17445287463E+02 -0.17991092439E+02 -0.25276106083E+02  0.35593524699E+02  0.00000000000E+00 0.  1.
</event>
<event>
 7    1  0.2682188E-015  0.9000784E+02  0.7816164E-02  0.1186339E+00
        -11   -1    0    0    0    0  0.00000000000E+00  0.00000000000E+00  0.45593999997E+02  0.45594000000E+02  0.51100000000E-03 0.  1.
         11   -1    0    0    0    0 -0.00000000000E+00 -0.00000000000E+00 -0.45593999997E+02  0.45594000000E+02  0.51100000000E-03 0. -1.
    9900012    2    1    2    0    0  0.10626883445E+01 -0.29769568582E+00 -0.41814352546E+00  0.90007841855E+02  0.90000104568E+02 0.  0.
         12    1    1    2    0    0 -0.10626883445E+01  0.29769568582E+00  0.41814352546E+00  0.11801581448E+01  0.00000000000E+00 0. -1.
         11    1    3    3    0    0  0.29549348850E+02 -0.60934507371E-01 -0.27533430763E+02  0.40388829400E+02  0.51100000000E-03 0. -1.
        -11    1    3    3    0    0 -0.90327183798E+00 -0.67919442364E+01 -0.36656842311E+01  0.77706915822E+01  0.51100000000E-03 0.  1.
        -12    1    3    3    0    0 -0.27583388667E+02  0.65551830579E+01  0.30780971469E+02  0.41848320873E+02  0.00000000000E+00 0.  1.
</event>
<event>
 7    1  0.2682188E-015  0.9000776E+02  0.7816164E-02  0.1186339E+00
        -11   -1    0    0    0    0  0.00000000000E+00  0.00000000000E+00  0.45593999997E+02  0.45594000000E+02  0.51100000000E-03 0.  1.
         11   -1    0    0    0    0 -0.00000000000E+00 -0.00000000000E+00 -0.45593999997E+02  0.45594000000E+02  0.51100000000E-03 0. -1.
    9900012    2    1    2    0    0 -0.53452760024E+00 -0.10611515073E+00  0.10468889132E+01  0.90007764186E+02  0.90000025873E+02 0.  0.
         12    1    1    2    0    0  0.53452760024E+00  0.10611515073E+00 -0.10468889132E+01  0.11802358142E+01  0.00000000000E+00 0. -1.
         11    1    3    3    0    0  0.34906882235E+02 -0.87588384669E+01 -0.97220771587E+01  0.37279035170E+02  0.51100000000E-03 0. -1.
        -11    1    3    3    0    0  0.63605729776E+01 -0.79895870210E+00  0.73240548077E+01  0.97332935176E+01  0.51100000000E-03 0.  1.
        -12    1    3    3    0    0 -0.41801982813E+02  0.94516820182E+01  0.34449112641E+01  0.42995435498E+02  0.00000000000E+00 0.  1.
</event>
<event>
 7    1  0.2682188E-015  0.9000770E+02  0.7816164E-02  0.1186339E+00
        -11   -1    0    0    0    0  0.00000000000E+00  0.00000000000E+00  0.45593999997E+02  0.45594000000E+02  0.51100000000E-03 0. -1.
         11   -1    0    0    0    0 -0.00000000000E+00 -0.00000000000E+00 -0.45593999997E+02  0.45594000000E+02  0.51100000000E-03 0.  1.
    9900012    2    1    2    0    0 -0.10785817471E+01  0.42902921870E+00 -0.21380005301E+00  0.90007697023E+02  0.89999957823E+02 0.  0.
         12    1    1    2    0    0  0.10785817471E+01 -0.42902921870E+00  0.21380005301E+00  0.11803029773E+01  0.00000000000E+00 0. -1.
         11    1    3    3    0    0 -0.14533537427E+02 -0.18202408780E+02  0.28316945300E+02  0.36666071332E+02  0.51100000000E-03 0. -1.
        -11    1    3    3    0    0 -0.81246279120E+01 -0.69841113449E+00  0.45743178255E+01  0.93499593930E+01  0.51100000000E-03 0.  1.
        -12    1    3    3    0    0  0.21579583592E+02  0.19329849134E+02 -0.33105063179E+02  0.43991666297E+02  0.00000000000E+00 0.  1.
</event>
<event>
 7    1  0.2682188E-015  0.9000773E+02  0.7816164E-02  0.1186339E+00
        -11   -1    0    0    0    0  0.00000000000E+00  0.00000000000E+00  0.45593999997E+02  0.45594000000E+02  0.51100000000E-03 0.  1.
         11   -1    0    0    0    0 -0.00000000000E+00 -0.00000000000E+00 -0.45593999997E+02  0.45594000000E+02  0.51100000000E-03 0. -1.
    9900012    2    1    2    0    0 -0.34112434168E+00  0.14852275709E+00  0.11200954011E+01  0.90007729466E+02  0.89999990695E+02 0.  0.
         12    1    1    2    0    0  0.34112434168E+00 -0.14852275709E+00 -0.11200954011E+01  0.11802705340E+01  0.00000000000E+00 0. -1.
         11    1    3    3    0    0  0.50269011281E+01 -0.38477446447E+00  0.79000971852E+01  0.93717299436E+01  0.51100000000E-03 0. -1.
        -11    1    3    3    0    0 -0.26156847838E+02  0.27450594466E+02  0.14411499077E+02  0.40563618321E+02  0.51100000000E-03 0.  1.
         12    1    3    3    0    0  0.20788822369E+02 -0.26917297245E+02 -0.21191500861E+02  0.40072381202E+02  0.00000000000E+00 0. -1.
</event>
<event>
 7    1  0.2682188E-015  0.9000745E+02  0.7816164E-02  0.1186340E+00
        -11   -1    0    0    0    0  0.00000000000E+00  0.00000000000E+00  0.45593999997E+02  0.45594000000E+02  0.51100000000E-03 0.  1.
         11   -1    0    0    0    0 -0.00000000000E+00 -0.00000000000E+00 -0.45593999997E+02  0.45594000000E+02  0.51100000000E-03 0. -1.
    9900012    2    1    2    0    0 -0.48076430846E+00  0.14079881244E+00  0.10689908699E+01  0.90007449236E+02  0.89999706766E+02 0.  0.
         12    1    1    2    0    0  0.48076430846E+00 -0.14079881244E+00 -0.10689908699E+01  0.11805507637E+01  0.00000000000E+00 0. -1.
         11    1    3    3    0    0 -0.55469495442E+01 -0.20230197947E+02 -0.28793605668E+02  0.35624447867E+02  0.51100000000E-03 0. -1.
        -11    1    3    3    0    0 -0.76943546887E+01 -0.66527570087E+01 -0.23530693497E+01  0.10440268460E+02  0.51100000000E-03 0.  1.
        -12    1    3    3    0    0  0.12760539924E+02  0.27023753769E+02  0.32215665888E+02  0.43942732909E+02  0.00000000000E+00 0.  1.
</event>
<event>
 7    1  0.2682188E-015  0.9000767E+02  0.7816164E-02  0.1186339E+00
        -11   -1    0    0    0    0  0.00000000000E+00  0.00000000000E+00  0.45593999997E+02  0.45594000000E+02  0.51100000000E-03 0. -1.
         11   -1    0    0    0    0 -0.00000000000E+00 -0.00000000000E+00 -0.45593999997E+02  0.45594000000E+02  0.51100000000E-03 0.  1.
    9900012    2    1    2    0    0 -0.54294117748E+00 -0.60067554881E+00 -0.85882016521E+00  0.90007674488E+02  0.89999934992E+02 0.  0.
         12    1    1    2    0    0  0.54294117748E+00  0.60067554881E+00  0.85882016521E+00  0.11803255116E+01  0.00000000000E+00 0. -1.
         11    1    3    3    0    0  0.31209300968E+02 -0.20896638032E+02  0.11529342150E+02  0.39288874744E+02  0.51100000000E-03 0. -1.
        -11    1    3    3    0    0  0.62830085464E+00 -0.60617260598E+01 -0.58693334992E+01  0.84609905315E+01  0.51100000000E-03 0.  1.
        -12    1    3    3    0    0 -0.32380543000E+02  0.26357688543E+02 -0.65188288162E+01  0.42257809213E+02  0.00000000000E+00 0.  1.
</event>
<event>
 7    1  0.2682188E-015  0.9000772E+02  0.7816164E-02  0.1186339E+00
        -11   -1    0    0    0    0  0.00000000000E+00  0.00000000000E+00  0.45593999997E+02  0.45594000000E+02  0.51100000000E-03 0.  1.
         11   -1    0    0    0    0 -0.00000000000E+00 -0.00000000000E+00 -0.45593999997E+02  0.45594000000E+02  0.51100000000E-03 0. -1.
    9900012    2    1    2    0    0 -0.53331682848E+00  0.12391973183E+00  0.10456036975E+01  0.90007716122E+02  0.89999977175E+02 0.  0.
         12    1    1    2    0    0  0.53331682848E+00 -0.12391973183E+00 -0.10456036975E+01  0.11802838776E+01  0.00000000000E+00 0. -1.
         11    1    3    3    0    0  0.21736844380E+02  0.17509138619E+02 -0.27393069807E+02  0.39108063267E+02  0.51100000000E-03 0. -1.
        -11    1    3    3    0    0 -0.67140472399E+01  0.73268093633E+01 -0.28181103120E+00  0.99418299877E+01  0.51100000000E-03 0.  1.
        -12    1    3    3    0    0 -0.15556113968E+02 -0.24712028251E+02  0.28720484536E+02  0.40957822868E+02  0.00000000000E+00 0.  1.
</event>
<event>
 7    1  0.2682188E-015  0.9000790E+02  0.7816164E-02  0.1186339E+00
        -11   -1    0    0    0    0  0.00000000000E+00  0.00000000000E+00  0.45593999997E+02  0.45594000000E+02  0.51100000000E-03 0. -1.
         11   -1    0    0    0    0 -0.00000000000E+00 -0.00000000000E+00 -0.45593999997E+02  0.45594000000E+02  0.51100000000E-03 0.  1.
    9900012    2    1    2    0    0 -0.99182423953E+00  0.11778864700E+00  0.62852696417E+00  0.90007900160E+02  0.90000163642E+02 0.  0.
         12    1    1    2    0    0  0.99182423953E+00 -0.11778864700E+00 -0.62852696417E+00  0.11800998399E+01  0.00000000000E+00 0. -1.
         11    1    3    3    0    0  0.51697345196E+01  0.29492244261E+01  0.74603792554E+01  0.95436543637E+01  0.51100000000E-03 0. -1.
        -11    1    3    3    0    0 -0.79914398150E+01  0.32445783860E+02 -0.24046490120E+02  0.41168260687E+02  0.51100000000E-03 0.  1.
         12    1    3    3    0    0  0.18298810558E+01 -0.35277219639E+02  0.17214637829E+02  0.39295985110E+02  0.00000000000E+00 0. -1.
</event>
<event>
 7    1  0.2682188E-015  0.9000766E+02  0.7816164E-02  0.1186339E+00
        -11   -1    0    0    0    0  0.00000000000E+00  0.00000000000E+00  0.45593999997E+02  0.45594000000E+02  0.51100000000E-03 0.  1.
         11   -1    0    0    0    0 -0.00000000000E+00 -0.00000000000E+00 -0.45593999997E+02  0.45594000000E+02  0.51100000000E-03 0. -1.
    9900012    2    1    2    0    0  0.85514341092E+00 -0.17124936494E+00  0.79537029307E+00  0.90007656617E+02  0.89999916885E+02 0.  0.
         12    1    1    2    0    0 -0.85514341092E+00  0.17124936494E+00 -0.79537029307E+00  0.11803433828E+01  0.00000000000E+00 0. -1.
         11    1    3    3    0    0 -0.12398110238E+02  0.92699810829E+01 -0.96109458836E+01  0.18221305326E+02  0.51100000000E-03 0. -1.
        -11    1    3    3    0    0  0.12889481340E+02  0.79487524357E-01  0.39301316429E+02  0.41361074947E+02  0.51100000000E-03 0.  1.
         12    1    3    3    0    0  0.36377230885E+00 -0.95207179722E+01 -0.28895000252E+02  0.30425276344E+02  0.00000000000E+00 0. -1.
</event>
<event>
 7    1  0.2682188E-015  0.9000772E+02  0.7816164E-02  0.1186339E+00
        -11   -1    0    0    0    0  0.00000000000E+00  0.00000000000E+00  0.45593999997E+02  0.45594000000E+02  0.51100000000E-03 0.  1.
         11   -1    0    0    0    0 -0.00000000000E+00 -0.00000000000E+00 -0.45593999997E+02  0.45594000000E+02  0.51100000000E-03 0. -1.
    9900012    2    1    2    0    0  0.19243705988E+00 -0.10510605140E+01  0.50130926817E+00  0.90007715624E+02  0.89999976670E+02 0.  0.
         12    1    1    2    0    0 -0.19243705988E+00  0.10510605140E+01 -0.50130926817E+00  0.11802843761E+01  0.00000000000E+00 0. -1.
         11    1    3    3    0    0 -0.47794011891E+01 -0.71405245045E+01  0.76997818005E+00  0.86268553126E+01  0.51100000000E-03 0. -1.
        -11    1    3    3    0    0 -0.24064880862E+02  0.31143843878E+02  0.11945894689E+02  0.41131033327E+02  0.51100000000E-03 0.  1.
         12    1    3    3    0    0  0.29036719111E+02 -0.25054379887E+02 -0.12214563601E+02  0.40249826984E+02  0.00000000000E+00 0. -1.
</event>
<event>
 7    1  0.2682188E-015  0.9000770E+02  0.7816164E-02  0.1186339E+00
        -11   -1    0    0    0    0  0.00000000000E+00  0.00000000000E+00  0.45593999997E+02  0.45594000000E+02  0.51100000000E-03 0. -1.
         11   -1    0    0    0    0 -0.00000000000E+00 -0.00000000000E+00 -0.45593999997E+02  0.45594000000E+02  0.51100000000E-03 0.  1.
    9900012    2    1    2    0    0  0.53463511969E+00  0.98708050875E+00 -0.36461866032E+00  0.90007699441E+02  0.89999960274E+02 0.  0.
         12    1    1    2    0    0 -0.53463511969E+00 -0.98708050875E+00  0.36461866032E+00  0.11803005589E+01  0.00000000000E+00 0. -1.
         11    1    3    3    0    0  0.37848413510E+01  0.28008246465E+01  0.74813958334E+01  0.88397356651E+01  0.51100000000E-03 0. -1.
        -11    1    3    3    0    0 -0.22198226771E+02 -0.35637255656E+02 -0.52408513844E+01  0.42311248930E+02  0.51100000000E-03 0.  1.
         12    1    3    3    0    0  0.18948020540E+02  0.33823511519E+02 -0.26051631093E+01  0.38856714846E+02  0.00000000000E+00 0. -1.
</event>
<event>
 7    1  0.2682188E-015  0.9000774E+02  0.7816164E-02  0.1186339E+00
        -11   -1    0    0    0    0  0.00000000000E+00  0.00000000000E+00  0.45593999997E+02  0.45594000000E+02  0.51100000000E-03 0. -1.
         11   -1    0    0    0    0 -0.00000000000E+00 -0.00000000000E+00 -0.45593999997E+02  0.45594000000E+02  0.51100000000E-03 0.  1.
    9900012    2    1    2    0    0 -0.32605434139E-01 -0.85500918376E+00 -0.81296495521E+00  0.90007739081E+02  0.90000000437E+02 0.  0.
         12    1    1    2    0    0  0.32605434139E-01  0.85500918376E+00  0.81296495521E+00  0.11802609191E+01  0.00000000000E+00 0. -1.
         11    1    3    3    0    0  0.40515676055E+01 -0.99677026453E+01  0.65655064428E+01  0.12604609125E+02  0.51100000000E-03 0. -1.
        -11    1    3    3    0    0  0.34131517518E+02  0.94190755386E+00 -0.15485000193E+02  0.37491771219E+02  0.51100000000E-03 0.  1.
         12    1    3    3    0    0 -0.38215690557E+02  0.81707859077E+01  0.81065287949E+01  0.39911358737E+02  0.00000000000E+00 0. -1.
</event>
<event>
 7    1  0.2682188E-015  0.9000757E+02  0.7816164E-02  0.1186339E+00
        -11   -1    0    0    0    0  0.00000000000E+00  0.00000000000E+00  0.45593999997E+02  0.45594000000E+02  0.51100000000E-03 0.  1.
         11   -1    0    0    0    0 -0.00000000000E+00 -0.00000000000E+00 -0.45593999997E+02  0.45594000000E+02  0.51100000000E-03 0. -1.
    9900012    2    1    2    0    0  0.45208026366E+00 -0.89045115399E+00  0.62938815594E+00  0.90007572419E+02  0.89999831575E+02 0.  0.
         12    1    1    2    0    0 -0.45208026366E+00  0.89045115399E+00 -0.62938815594E+00  0.11804275807E+01  0.00000000000E+00 0. -1.
         11    1    3    3    0    0 -0.38851997252E+02 -0.12513037414E+02 -0.29470648575E+01  0.40923574957E+02  0.51100000000E-03 0. -1.
        -11    1    3    3    0    0  0.11343938696E+01  0.79227379176E+01 -0.54556653724E+01  0.96861194748E+01  0.51100000000E-03 0.  1.
        -12    1    3    3    0    0  0.38169683646E+02  0.36998483424E+01  0.90321183858E+01  0.39397877987E+02  0.00000000000E+00 0.  1.
</event>
<event>
 7    1  0.2682188E-015  0.9000875E+02  0.7816164E-02  0.1186337E+00
        -11   -1    0    0    0    0  0.00000000000E+00  0.00000000000E+00  0.45593999997E+02  0.45594000000E+02  0.51100000000E-03 0.  1.
         11   -1    0    0    0    0 -0.00000000000E+00 -0.00000000000E+00 -0.45593999997E+02  0.45594000000E+02  0.51100000000E-03 0. -1.
    9900012    2    1    2    0    0  0.11602902397E+01  0.10557862285E+00  0.18223746380E+00  0.90008749908E+02  0.90001024601E+02 0.  0.
         12    1    1    2    0    0 -0.11602902397E+01 -0.10557862285E+00 -0.18223746380E+00  0.11792500919E+01  0.00000000000E+00 0. -1.
         11    1    3    3    0    0 -0.35174490164E+02  0.84022404481E+01 -0.92576692719E+01  0.37330240335E+02  0.51100000000E-03 0. -1.
        -11    1    3    3    0    0 -0.46876007970E+01 -0.79941426055E+01 -0.31152948634E+01  0.97767571094E+01  0.51100000000E-03 0.  1.
        -12    1    3    3    0    0  0.41022381201E+02 -0.30251921976E+00  0.12555201599E+02  0.42901752464E+02  0.00000000000E+00 0.  1.
</event>
<event>
 7    1  0.2682188E-015  0.9000772E+02  0.7816164E-02  0.1186339E+00
        -11   -1    0    0    0    0  0.00000000000E+00  0.00000000000E+00  0.45593999997E+02  0.45594000000E+02  0.51100000000E-03 0.  1.
         11   -1    0    0    0    0 -0.00000000000E+00 -0.00000000000E+00 -0.45593999997E+02  0.45594000000E+02  0.51100000000E-03 0. -1.
    9900012    2    1    2    0    0  0.75620180509E+00 -0.51117369688E+00  0.74828039951E+00  0.90007718985E+02  0.89999980075E+02 0.  0.
         12    1    1    2    0    0 -0.75620180509E+00  0.51117369688E+00 -0.74828039951E+00  0.11802810151E+01  0.00000000000E+00 0. -1.
         11    1    3    3    0    0 -0.26831367104E+02  0.23041337043E+02  0.10353878744E+02  0.36851435233E+02  0.51100000000E-03 0. -1.
        -11    1    3    3    0    0  0.14899163459E+01  0.88315308024E+01  0.33988775012E+01  0.95795696960E+01  0.51100000000E-03 0.  1.
        -12    1    3    3    0    0  0.26097652563E+02 -0.32384041542E+02 -0.13004475846E+02  0.43576714056E+02  0.00000000000E+00 0.  1.
</event>
<event>
 7    1  0.2682188E-015  0.9000791E+02  0.7816164E-02  0.1186339E+00
        -11   -1    0    0    0    0  0.00000000000E+00  0.00000000000E+00  0.45593999997E+02  0.45594000000E+02  0.51100000000E-03 0.  1.
         11   -1    0    0    0    0 -0.00000000000E+00 -0.00000000000E+00 -0.45593999997E+02  0.45594000000E+02  0.51100000000E-03 0. -1.
    9900012    2    1    2    0    0 -0.73315385321E+00  0.83588297122E+00  0.39545882975E+00  0.90007914156E+02  0.90000177822E+02 0.  0.
         12    1    1    2    0    0  0.73315385321E+00 -0.83588297122E+00 -0.39545882975E+00  0.11800858444E+01  0.00000000000E+00 0. -1.
         11    1    3    3    0    0  0.94852693500E+01 -0.24755611395E+01  0.16608460162E+00  0.98044031921E+01  0.51100000000E-03 0. -1.
        -11    1    3    3    0    0  0.11117381464E+02  0.21282495107E+02 -0.30423599120E+02  0.38757401258E+02  0.51100000000E-03 0.  1.
         12    1    3    3    0    0 -0.21335804667E+02 -0.17971050996E+02  0.30652973348E+02  0.41446109706E+02  0.00000000000E+00 0. -1.
</event>
<event>
 7    1  0.2682188E-015  0.9000774E+02  0.7816164E-02  0.1186339E+00
        -11   -1    0    0    0    0  0.00000000000E+00  0.00000000000E+00  0.45593999997E+02  0.45594000000E+02  0.51100000000E-03 0.  1.
         11   -1    0    0    0    0 -0.00000000000E+00 -0.00000000000E+00 -0.45593999997E+02  0.45594000000E+02  0.51100000000E-03 0. -1.
    9900012    2    1    2    0    0  0.83673848375E-01  0.36089036070E+00  0.11206107067E+01  0.90007740909E+02  0.90000002289E+02 0.  0.
         12    1    1    2    0    0 -0.83673848375E-01 -0.36089036070E+00 -0.11206107067E+01  0.11802590908E+01  0.00000000000E+00 0. -1.
         11    1    3    3    0    0  0.89420714749E+01  0.12701333045E+02  0.57448318065E+01  0.16561630237E+02  0.51100000000E-03 0. -1.
        -11    1    3    3    0    0  0.29038886094E+02 -0.17498766297E+02 -0.86451353628E+01  0.34988599475E+02  0.51100000000E-03 0.  1.
         12    1    3    3    0    0 -0.37897283721E+02  0.51583236132E+01  0.40209142630E+01  0.38457511197E+02  0.00000000000E+00 0. -1.
</event>
<event>
 7    1  0.2682188E-015  0.9000765E+02  0.7816164E-02  0.1186339E+00
        -11   -1    0    0    0    0  0.00000000000E+00  0.00000000000E+00  0.45593999997E+02  0.45594000000E+02  0.51100000000E-03 0.  1.
         11   -1    0    0    0    0 -0.00000000000E+00 -0.00000000000E+00 -0.45593999997E+02  0.45594000000E+02  0.51100000000E-03 0. -1.
    9900012    2    1    2    0    0  0.85711962089E+00  0.57031035612E+00  0.57734182214E+00  0.90007647711E+02  0.89999907861E+02 0.  0.
         12    1    1    2    0    0 -0.85711962089E+00 -0.57031035612E+00 -0.57734182214E+00  0.11803522891E+01  0.00000000000E+00 0. -1.
         11    1    3    3    0    0 -0.19708859403E+01  0.12531123677E+02  0.61341700096E+01  0.14090475293E+02  0.51100000000E-03 0. -1.
        -11    1    3    3    0    0  0.16607902993E+02  0.25064167335E+02 -0.17317443194E+02  0.34697676652E+02  0.51100000000E-03 0.  1.
         12    1    3    3    0    0 -0.13779897432E+02 -0.37024980657E+02  0.11760615006E+02  0.41219495766E+02  0.00000000000E+00 0. -1.
</event>
<event>
 7    1  0.2682188E-015  0.9000723E+02  0.7816164E-02  0.1186340E+00
        -11   -1    0    0    0    0  0.00000000000E+00  0.00000000000E+00  0.45593999997E+02  0.45594000000E+02  0.51100000000E-03 0.  1.
         11   -1    0    0    0    0 -0.00000000000E+00 -0.00000000000E+00 -0.45593999997E+02  0.45594000000E+02  0.51100000000E-03 0. -1.
    9900012    2    1    2    0    0  0.46894860572E+00 -0.10825482772E+01 -0.48887911719E-01  0.90007231778E+02  0.89999486436E+02 0.  0.
         12    1    1    2    0    0 -0.46894860572E+00  0.10825482772E+01  0.48887911719E-01  0.11807682225E+01  0.00000000000E+00 0. -1.
         11    1    3    3    0    0  0.57289002910E+00 -0.30051424896E+01 -0.76025962829E+01  0.81950323289E+01  0.51100000000E-03 0. -1.
        -11    1    3    3    0    0  0.36640578780E+02 -0.37729203836E+01  0.20846498724E+02  0.42324265509E+02  0.51100000000E-03 0.  1.
         12    1    3    3    0    0 -0.36744520203E+02  0.56955145961E+01 -0.13292790353E+02  0.39487933940E+02  0.00000000000E+00 0. -1.
</event>
<event>
 7    1  0.2981492E-015  0.9000780E+02  0.7816164E-02  0.1186339E+00
        -11   -1    0    0    0    0  0.00000000000E+00  0.00000000000E+00  0.45593999997E+02  0.45594000000E+02  0.51100000000E-03 0.  1.
         11   -1    0    0    0    0 -0.00000000000E+00 -0.00000000000E+00 -0.45593999997E+02  0.45594000000E+02  0.51100000000E-03 0. -1.
    9900012    2    1    2    0    0 -0.74186235724E-01  0.60121123695E+00  0.10128733148E+01  0.90007800483E+02  0.90000062649E+02 0.  0.
         12    1    1    2    0    0  0.74186235724E-01 -0.60121123695E+00 -0.10128733148E+01  0.11801995174E+01  0.00000000000E+00 0. -1.
         11    1    3    3    0    0  0.94711818182E+00 -0.81540989406E+01  0.32740032751E+01  0.88377293515E+01  0.51100000000E-03 0. -1.
        -11    1    3    3    0    0  0.42152711682E+01  0.86435075603E+01  0.38699234620E+02  0.39876177028E+02  0.51100000000E-03 0.  1.
         12    1    3    3    0    0 -0.52365755858E+01  0.11180261724E+00 -0.40960364580E+02  0.41293894103E+02  0.00000000000E+00 0. -1.
</event>
<event>
 7    1  0.2682188E-015  0.9000772E+02  0.7816164E-02  0.1186339E+00
        -11   -1    0    0    0    0  0.00000000000E+00  0.00000000000E+00  0.45593999997E+02  0.45594000000E+02  0.51100000000E-03 0.  1.
         11   -1    0    0    0    0 -0.00000000000E+00 -0.00000000000E+00 -0.45593999997E+02  0.45594000000E+02  0.51100000000E-03 0. -1.
    9900012    2    1    2    0    0 -0.62832616024E+00 -0.89702560556E+00  0.44000632902E+00  0.90007722799E+02  0.89999983940E+02 0.  0.
         12    1    1    2    0    0  0.62832616024E+00  0.89702560556E+00 -0.44000632902E+00  0.11802772006E+01  0.00000000000E+00 0. -1.
         11    1    3    3    0    0  0.23372005172E+02  0.22848286946E+02 -0.11332370430E+02  0.34593604351E+02  0.51100000000E-03 0. -1.
        -11    1    3    3    0    0  0.76792163724E+01  0.15972493976E+01 -0.71826514582E+01  0.10635414988E+02  0.51100000000E-03 0.  1.
        -12    1    3    3    0    0 -0.31679547705E+02 -0.25342561950E+02  0.18955028217E+02  0.44778703461E+02  0.00000000000E+00 0.  1.
</event>
<event>
 7    1  0.2682188E-015  0.9000860E+02  0.7816164E-02  0.1186337E+00
        -11   -1    0    0    0    0  0.00000000000E+00  0.00000000000E+00  0.45593999997E+02  0.45594000000E+02  0.51100000000E-03 0.  1.
         11   -1    0    0    0    0 -0.00000000000E+00 -0.00000000000E+00 -0.45593999997E+02  0.45594000000E+02  0.51100000000E-03 0. -1.
    9900012    2    1    2    0    0 -0.69542941781E+00 -0.23597353825E+00  0.92286591728E+00  0.90008598844E+02  0.90000871544E+02 0.  0.
         12    1    1    2    0    0  0.69542941781E+00  0.23597353825E+00 -0.92286591728E+00  0.11794011562E+01  0.00000000000E+00 0. -1.
         11    1    3    3    0    0  0.46807858206E+01  0.56807727168E+01 -0.65191185339E+01  0.98325907714E+01  0.51100000000E-03 0. -1.
        -11    1    3    3    0    0  0.33788605017E+02  0.10475432971E+02 -0.54779695216E+01  0.35796824933E+02  0.51100000000E-03 0.  1.
         12    1    3    3    0    0 -0.39164820256E+02 -0.16392179226E+02  0.12919953973E+02  0.44379183139E+02  0.00000000000E+00 0. -1.
</event>
<event>
 7    1  0.2682188E-015  0.9000773E+02  0.7816164E-02  0.1186339E+00
        -11   -1    0    0    0    0  0.00000000000E+00  0.00000000000E+00  0.45593999997E+02  0.45594000000E+02  0.51100000000E-03 0. -1.
         11   -1    0    0    0    0 -0.00000000000E+00 -0.00000000000E+00 -0.45593999997E+02  0.45594000000E+02  0.51100000000E-03 0.  1.
    9900012    2    1    2    0    0 -0.43652784095E+00 -0.98330676901E+00 -0.48537631380E+00  0.90007729301E+02  0.89999990527E+02 0.  0.
         12    1    1    2    0    0  0.43652784095E+00  0.98330676901E+00  0.48537631380E+00  0.11802706994E+01  0.00000000000E+00 0. -1.
         11    1    3    3    0    0 -0.45851620763E+01  0.25468490501E+01 -0.94118961669E+01  0.10774689836E+02  0.51100000000E-03 0. -1.
        -11    1    3    3    0    0 -0.21780004071E+02 -0.32446283074E+02  0.10150106017E+02  0.40375172012E+02  0.51100000000E-03 0.  1.
         12    1    3    3    0    0  0.25928638306E+02  0.28916127255E+02 -0.12235861635E+01  0.38857867452E+02  0.00000000000E+00 0. -1.
</event>
<event>
 7    1  0.2682188E-015  0.9000782E+02  0.7816164E-02  0.1186339E+00
        -11   -1    0    0    0    0  0.00000000000E+00  0.00000000000E+00  0.45593999997E+02  0.45594000000E+02  0.51100000000E-03 0. -1.
         11   -1    0    0    0    0 -0.00000000000E+00 -0.00000000000E+00 -0.45593999997E+02  0.45594000000E+02  0.51100000000E-03 0.  1.
    9900012    2    1    2    0    0 -0.32745664858E+00  0.14850728879E+00 -0.11240783470E+01  0.90007815946E+02  0.90000078316E+02 0.  0.
         12    1    1    2    0    0  0.32745664858E+00 -0.14850728879E+00  0.11240783470E+01  0.11801840542E+01  0.00000000000E+00 0. -1.
         11    1    3    3    0    0  0.11211722675E+02 -0.38615615207E+02  0.14218761501E+02  0.42650224407E+02  0.51100000000E-03 0. -1.
        -11    1    3    3    0    0  0.53975394203E+01  0.79105335723E+01 -0.40014630515E+01  0.10378905530E+02  0.51100000000E-03 0.  1.
        -12    1    3    3    0    0 -0.16936718744E+02  0.30853588923E+02 -0.11341376796E+02  0.36978686008E+02  0.00000000000E+00 0.  1.
</event>
<event>
 7    1  0.2682188E-015  0.9000776E+02  0.7816164E-02  0.1186339E+00
        -11   -1    0    0    0    0  0.00000000000E+00  0.00000000000E+00  0.45593999997E+02  0.45594000000E+02  0.51100000000E-03 0.  1.
         11   -1    0    0    0    0 -0.00000000000E+00 -0.00000000000E+00 -0.45593999997E+02  0.45594000000E+02  0.51100000000E-03 0. -1.
    9900012    2    1    2    0    0 -0.63552914488E+00  0.81002666981E+00 -0.57700100048E+00  0.90007758222E+02  0.90000019831E+02 0.  0.
         12    1    1    2    0    0  0.63552914488E+00 -0.81002666981E+00  0.57700100048E+00  0.11802417779E+01  0.00000000000E+00 0. -1.
         11    1    3    3    0    0 -0.25787794688E+02  0.21158797017E+02 -0.17928336995E+02  0.37869913041E+02  0.51100000000E-03 0. -1.
        -11    1    3    3    0    0  0.74972655574E+00  0.10012270776E+02  0.18228181406E+01  0.10204426600E+02  0.51100000000E-03 0.  1.
        -12    1    3    3    0    0  0.24402538988E+02 -0.30361041123E+02  0.15528517854E+02  0.41933418581E+02  0.00000000000E+00 0.  1.
</event>
<event>
 7    1  0.2682188E-015  0.9000781E+02  0.7816164E-02  0.1186339E+00
        -11   -1    0    0    0    0  0.00000000000E+00  0.00000000000E+00  0.45593999997E+02  0.45594000000E+02  0.51100000000E-03 0.  1.
         11   -1    0    0    0    0 -0.00000000000E+00 -0.00000000000E+00 -0.45593999997E+02  0.45594000000E+02  0.51100000000E-03 0. -1.
    9900012    2    1    2    0    0 -0.87285285796E+00  0.55472209382E+00  0.56855408551E+00  0.90007812531E+02  0.90000074857E+02 0.  0.
         12    1    1    2    0    0  0.87285285796E+00 -0.55472209382E+00 -0.56855408551E+00  0.11801874687E+01  0.00000000000E+00 0. -1.
         11    1    3    3    0    0 -0.38351691954E+02  0.11382212657E+02  0.11787805642E+02  0.41705627952E+02  0.51100000000E-03 0. -1.
        -11    1    3    3    0    0  0.68627542157E+01 -0.63321969034E+01  0.76389402557E+01  0.12064307752E+02  0.51100000000E-03 0.  1.
        -12    1    3    3    0    0  0.30616084881E+02 -0.44952936596E+01 -0.18858191813E+02  0.36237876827E+02  0.00000000000E+00 0.  1.
</event>
<event>
 7    1  0.2682188E-015  0.9000767E+02  0.7816164E-02  0.1186339E+00
        -11   -1    0    0    0    0  0.00000000000E+00  0.00000000000E+00  0.45593999997E+02  0.45594000000E+02  0.51100000000E-03 0. -1.
         11   -1    0    0    0    0 -0.00000000000E+00 -0.00000000000E+00 -0.45593999997E+02  0.45594000000E+02  0.51100000000E-03 0.  1.
    9900012    2    1    2    0    0  0.44426369847E+00 -0.92638220574E+00 -0.58105227348E+00  0.90007671245E+02  0.89999931706E+02 0.  0.
         12    1    1    2    0    0 -0.44426369847E+00  0.92638220574E+00  0.58105227348E+00  0.11803287548E+01  0.00000000000E+00 0. -1.
         11    1    3    3    0    0 -0.44378156749E+01  0.58476962002E+01 -0.82640661068E+01  0.11053711942E+02  0.51100000000E-03 0. -1.
        -11    1    3    3    0    0 -0.21969591571E+02  0.13884870874E+02  0.28987928477E+02  0.38932667397E+02  0.51100000000E-03 0.  1.
         12    1    3    3    0    0  0.26851670944E+02 -0.20658949280E+02 -0.21304914644E+02  0.40021291906E+02  0.00000000000E+00 0. -1.
</event>
<event>
 7    1  0.2682188E-015  0.9000776E+02  0.7816164E-02  0.1186339E+00
        -11   -1    0    0    0    0  0.00000000000E+00  0.00000000000E+00  0.45593999997E+02  0.45594000000E+02  0.51100000000E-03 0.  1.
         11   -1    0    0    0    0 -0.00000000000E+00 -0.00000000000E+00 -0.45593999997E+02  0.45594000000E+02  0.51100000000E-03 0. -1.
    9900012    2    1    2    0    0  0.64786757463E+00  0.96219684517E+00  0.21776231983E+00  0.90007756131E+02  0.90000017712E+02 0.  0.
         12    1    1    2    0    0 -0.64786757463E+00 -0.96219684517E+00 -0.21776231983E+00  0.11802438693E+01  0.00000000000E+00 0. -1.
         11    1    3    3    0    0  0.19003962201E+02  0.27503831103E+02  0.38062252298E+01  0.33646673765E+02  0.51100000000E-03 0. -1.
        -11    1    3    3    0    0  0.21994043111E+01  0.53097660427E+01 -0.15576042119E+02  0.16602532431E+02  0.51100000000E-03 0.  1.
        -12    1    3    3    0    0 -0.20555498938E+02 -0.31851400300E+02  0.11987579209E+02  0.39758549935E+02  0.00000000000E+00 0.  1.
</event>
<event>
 7    1  0.2682188E-015  0.9000779E+02  0.7816164E-02  0.1186339E+00
        -11   -1    0    0    0    0  0.00000000000E+00  0.00000000000E+00  0.45593999997E+02  0.45594000000E+02  0.51100000000E-03 0. -1.
         11   -1    0    0    0    0 -0.00000000000E+00 -0.00000000000E+00 -0.45593999997E+02  0.45594000000E+02  0.51100000000E-03 0.  1.
    9900012    2    1    2    0    0  0.28324381833E+00 -0.99975876330E+00 -0.55960689831E+00  0.90007786237E+02  0.90000048215E+02 0.  0.
         12    1    1    2    0    0 -0.28324381833E+00  0.99975876330E+00  0.55960689831E+00  0.11802137629E+01  0.00000000000E+00 0. -1.
         11    1    3    3    0    0 -0.19649395591E+01  0.21466648884E+01  0.11696199458E+02  0.12052810445E+02  0.51100000000E-03 0. -1.
        -11    1    3    3    0    0 -0.13727958250E+02 -0.35267612449E+02 -0.17505938722E+02  0.41697952184E+02  0.51100000000E-03 0.  1.
         12    1    3    3    0    0  0.15976141627E+02  0.32121188797E+02  0.52501323657E+01  0.36257023608E+02  0.00000000000E+00 0. -1.
</event>
<event>
 7    1  0.2682188E-015  0.9000775E+02  0.7816164E-02  0.1186339E+00
        -11   -1    0    0    0    0  0.00000000000E+00  0.00000000000E+00  0.45593999997E+02  0.45594000000E+02  0.51100000000E-03 0. -1.
         11   -1    0    0    0    0 -0.00000000000E+00 -0.00000000000E+00 -0.45593999997E+02  0.45594000000E+02  0.51100000000E-03 0.  1.
    9900012    2    1    2    0    0  0.64622695803E+00  0.69749166285E+00 -0.69919609367E+00  0.90007754653E+02  0.90000016215E+02 0.  0.
         12    1    1    2    0    0 -0.64622695803E+00 -0.69749166285E+00  0.69919609367E+00  0.11802453467E+01  0.00000000000E+00 0. -1.
         11    1    3    3    0    0  0.27167498811E+02  0.17659516046E+02  0.22314478334E+02  0.39342946537E+02  0.51100000000E-03 0. -1.
        -11    1    3    3    0    0  0.19882780158E+01 -0.75923414470E+01  0.52486728310E+01  0.94416876068E+01  0.51100000000E-03 0.  1.
        -12    1    3    3    0    0 -0.28509549868E+02 -0.93696829361E+01 -0.28262347259E+02  0.41223120510E+02  0.00000000000E+00 0.  1.
</event>
<event>
 7    1  0.2682188E-015  0.9000775E+02  0.7816164E-02  0.1186339E+00
        -11   -1    0    0    0    0  0.00000000000E+00  0.00000000000E+00  0.45593999997E+02  0.45594000000E+02  0.51100000000E-03 0.  1.
         11   -1    0    0    0    0 -0.00000000000E+00 -0.00000000000E+00 -0.45593999997E+02  0.45594000000E+02  0.51100000000E-03 0. -1.
    9900012    2    1    2    0    0 -0.42829467774E+00  0.10648359694E+01  0.27509324310E+00  0.90007750761E+02  0.90000012271E+02 0.  0.
         12    1    1    2    0    0  0.42829467774E+00 -0.10648359694E+01 -0.27509324310E+00  0.11802492386E+01  0.00000000000E+00 0. -1.
         11    1    3    3    0    0 -0.71452566244E+01  0.12355181872E+01  0.66178896239E+01  0.98172124737E+01  0.51100000000E-03 0. -1.
        -11    1    3    3    0    0  0.16465391961E+02  0.26965315996E+02  0.22978437892E+02  0.39067198612E+02  0.51100000000E-03 0.  1.
         12    1    3    3    0    0 -0.97484300141E+01 -0.27135998214E+02 -0.29321234273E+02  0.41123339676E+02  0.00000000000E+00 0. -1.
</event>
<event>
 7    1  0.2682188E-015  0.9000773E+02  0.7816164E-02  0.1186339E+00
        -11   -1    0    0    0    0  0.00000000000E+00  0.00000000000E+00  0.45593999997E+02  0.45594000000E+02  0.51100000000E-03 0. -1.
         11   -1    0    0    0    0 -0.00000000000E+00 -0.00000000000E+00 -0.45593999997E+02  0.45594000000E+02  0.51100000000E-03 0.  1.
    9900012    2    1    2    0    0  0.54986934567E+00 -0.71310542836E+00  0.76299884760E+00  0.90007727620E+02  0.89999988825E+02 0.  0.
         12    1    1    2    0    0 -0.54986934567E+00  0.71310542836E+00 -0.76299884760E+00  0.11802723799E+01  0.00000000000E+00 0. -1.
         11    1    3    3    0    0 -0.31052876305E+02 -0.12913073037E+02 -0.62393830819E+01  0.34204655876E+02  0.51100000000E-03 0. -1.
        -11    1    3    3    0    0 -0.94209668427E+01 -0.22357903198E+01  0.76006255030E+01  0.12309463144E+02  0.51100000000E-03 0.  1.
        -12    1    3    3    0    0  0.41023712493E+02  0.14435757929E+02 -0.59824357344E+00  0.43493608600E+02  0.00000000000E+00 0.  1.
</event>
<event>
 7    1  0.2682188E-015  0.9000792E+02  0.7816164E-02  0.1186339E+00
        -11   -1    0    0    0    0  0.00000000000E+00  0.00000000000E+00  0.45593999997E+02  0.45594000000E+02  0.51100000000E-03 0. -1.
         11   -1    0    0    0    0 -0.00000000000E+00 -0.00000000000E+00 -0.45593999997E+02  0.45594000000E+02  0.51100000000E-03 0.  1.
    9900012    2    1    2    0    0 -0.58330817297E+00  0.10101318538E+01  0.17884007400E+00  0.90007915868E+02  0.90000179557E+02 0.  0.
         12    1    1    2    0    0  0.58330817297E+00 -0.10101318538E+01 -0.17884007400E+00  0.11800841321E+01  0.00000000000E+00 0. -1.
         11    1    3    3    0    0  0.70518910199E+01  0.41462407899E+01  0.33932859094E+01  0.88563462652E+01  0.51100000000E-03 0. -1.
        -11    1    3    3    0    0  0.32966337211E+02 -0.75026220699E+01  0.14311843987E+02  0.36713725030E+02  0.51100000000E-03 0.  1.
         12    1    3    3    0    0 -0.40601536404E+02  0.43665131337E+01 -0.17526289822E+02  0.44437844572E+02  0.00000000000E+00 0. -1.
</event>
<event>
 7    1  0.2682188E-015  0.9000778E+02  0.7816164E-02  0.1186339E+00
        -11   -1    0    0    0    0  0.00000000000E+00  0.00000000000E+00  0.45593999997E+02  0.45594000000E+02  0.51100000000E-03 0. -1.
         11   -1    0    0    0    0 -0.00000000000E+00 -0.00000000000E+00 -0.45593999997E+02  0.45594000000E+02  0.51100000000E-03 0.  1.
    9900012    2    1    2    0    0 -0.10863343130E+01 -0.43304638165E+00  0.15892583763E+00  0.90007784414E+02  0.90000046368E+02 0.  0.
         12    1    1    2    0    0  0.10863343130E+01  0.43304638165E+00 -0.15892583763E+00  0.11802155863E+01  0.00000000000E+00 0. -1.
         11    1    3    3    0    0 -0.11708880639E+00 -0.92003209995E+01  0.34853424344E+01  0.98390664409E+01  0.51100000000E-03 0. -1.
        -11    1    3    3    0    0  0.19574137358E+02 -0.86809660246E+01 -0.33469250217E+02  0.39732816849E+02  0.51100000000E-03 0.  1.
         12    1    3    3    0    0 -0.20543382864E+02  0.17448240642E+02  0.30142833620E+02  0.40435901124E+02  0.00000000000E+00 0. -1.
</event>
<event>
 7    1  0.3543733E-015  0.9000785E+02  0.7816164E-02  0.1186339E+00
        -11   -1    0    0    0    0  0.00000000000E+00  0.00000000000E+00  0.45593999997E+02  0.45594000000E+02  0.51100000000E-03 0. -1.
         11   -1    0    0    0    0 -0.00000000000E+00 -0.00000000000E+00 -0.45593999997E+02  0.45594000000E+02  0.51100000000E-03 0.  1.
    9900012    2    1    2    0    0 -0.68562820321E+00 -0.79566683177E+00 -0.53813810316E+00  0.90007845621E+02  0.90000108383E+02 0.  0.
         12    1    1    2    0    0  0.68562820321E+00  0.79566683177E+00  0.53813810316E+00  0.11801543790E+01  0.00000000000E+00 0. -1.
         11    1    3    3    0    0 -0.77120592139E+01  0.36335094182E+01 -0.42477287217E+01  0.95247807096E+01  0.51100000000E-03 0. -1.
        -11    1    3    3    0    0  0.27760334927E+02 -0.12309808726E+00 -0.29873541318E+02  0.40780875659E+02  0.51100000000E-03 0.  1.
         12    1    3    3    0    0 -0.20733903917E+02 -0.43060781627E+01  0.33583131936E+02  0.39702189252E+02  0.00000000000E+00 0. -1.
</event>
<event>
 7    1  0.2682188E-015  0.9000775E+02  0.7816164E-02  0.1186339E+00
        -11   -1    0    0    0    0  0.00000000000E+00  0.00000000000E+00  0.45593999997E+02  0.45594000000E+02  0.51100000000E-03 0.  1.
         11   -1    0    0    0    0 -0.00000000000E+00 -0.00000000000E+00 -0.45593999997E+02  0.45594000000E+02  0.51100000000E-03 0. -1.
    9900012    2    1    2    0    0 -0.49199760557E-01 -0.34625602686E+00  0.11272422511E+01  0.90007750473E+02  0.90000011980E+02 0.  0.
         12    1    1    2    0    0  0.49199760557E-01  0.34625602686E+00 -0.11272422511E+01  0.11802495267E+01  0.00000000000E+00 0. -1.
         11    1    3    3    0    0 -0.16852801798E+02  0.36523146239E+02 -0.46324958419E+01  0.40489716690E+02  0.51100000000E-03 0. -1.
        -11    1    3    3    0    0  0.12343045605E+01 -0.49387903050E+01 -0.95603198558E+01  0.10831199076E+02  0.51100000000E-03 0.  1.
        -12    1    3    3    0    0  0.15569297477E+02 -0.31930611961E+02  0.15320057949E+02  0.38686834707E+02  0.00000000000E+00 0.  1.
</event>
<event>
 7    1  0.2682188E-015  0.9000772E+02  0.7816164E-02  0.1186339E+00
        -11   -1    0    0    0    0  0.00000000000E+00  0.00000000000E+00  0.45593999997E+02  0.45594000000E+02  0.51100000000E-03 0. -1.
         11   -1    0    0    0    0 -0.00000000000E+00 -0.00000000000E+00 -0.45593999997E+02  0.45594000000E+02  0.51100000000E-03 0.  1.
    9900012    2    1    2    0    0  0.12318322776E+00 -0.10629963594E+01  0.49792581957E+00  0.90007718047E+02  0.89999979125E+02 0.  0.
         12    1    1    2    0    0 -0.12318322776E+00  0.10629963594E+01 -0.49792581957E+00  0.11802819534E+01  0.00000000000E+00 0. -1.
         11    1    3    3    0    0  0.32124000312E+01 -0.70797588495E+01  0.59535959060E+01  0.97922318090E+01  0.51100000000E-03 0. -1.
        -11    1    3    3    0    0  0.16554451150E+02 -0.27968545592E+02 -0.20219544939E+02  0.38276878049E+02  0.51100000000E-03 0.  1.
         12    1    3    3    0    0 -0.19643667953E+02  0.33985308082E+02  0.14763874853E+02  0.41938608188E+02  0.00000000000E+00 0. -1.
</event>
<event>
 7    1  0.2682188E-015  0.9000775E+02  0.7816164E-02  0.1186339E+00
        -11   -1    0    0    0    0  0.00000000000E+00  0.00000000000E+00  0.45593999997E+02  0.45594000000E+02  0.51100000000E-03 0.  1.
         11   -1    0    0    0    0 -0.00000000000E+00 -0.00000000000E+00 -0.45593999997E+02  0.45594000000E+02  0.51100000000E-03 0. -1.
    9900012    2    1    2    0    0 -0.25675947516E+00  0.11494578917E+01 -0.76186047830E-01  0.90007752913E+02  0.90000014451E+02 0.  0.
         12    1    1    2    0    0  0.25675947516E+00 -0.11494578917E+01  0.76186047830E-01  0.11802470872E+01  0.00000000000E+00 0. -1.
         11    1    3    3    0    0 -0.19594867409E+02 -0.28455823855E+02 -0.49910837794E+01  0.34908504087E+02  0.51100000000E-03 0. -1.
        -11    1    3    3    0    0 -0.82597889657E+01 -0.48088550422E+01  0.54112970335E+01  0.10983229781E+02  0.51100000000E-03 0.  1.
        -12    1    3    3    0    0  0.27597896899E+02  0.34414136788E+02 -0.49639930198E+00  0.44116019045E+02  0.00000000000E+00 0.  1.
</event>
<event>
 7    1  0.2682188E-015  0.9000737E+02  0.7816164E-02  0.1186340E+00
        -11   -1    0    0    0    0  0.00000000000E+00  0.00000000000E+00  0.45593999997E+02  0.45594000000E+02  0.51100000000E-03 0.  1.
         11   -1    0    0    0    0 -0.00000000000E+00 -0.00000000000E+00 -0.45593999997E+02  0.45594000000E+02  0.51100000000E-03 0. -1.
    9900012    2    1    2    0    0 -0.56654002691E+00 -0.79092629107E+00  0.66885007661E+00  0.90007367786E+02  0.89999624240E+02 0.  0.
         12    1    1    2    0    0  0.56654002691E+00  0.79092629107E+00 -0.66885007661E+00  0.11806322141E+01  0.00000000000E+00 0. -1.
         11    1    3    3    0    0  0.23127821804E+02  0.27843266628E+02 -0.95154165421E+01  0.37425750362E+02  0.51100000000E-03 0. -1.
        -11    1    3    3    0    0  0.19706265610E+01  0.49716117685E+01  0.87709377419E+01  0.10272762129E+02  0.51100000000E-03 0.  1.
        -12    1    3    3    0    0 -0.25664988392E+02 -0.33605804688E+02  0.14133288768E+01  0.42308855295E+02  0.00000000000E+00 0.  1.
</event>
<event>
 7    1  0.2682188E-015  0.9000776E+02  0.7816164E-02  0.1186339E+00
        -11   -1    0    0    0    0  0.00000000000E+00  0.00000000000E+00  0.45593999997E+02  0.45594000000E+02  0.51100000000E-03 0.  1.
         11   -1    0    0    0    0 -0.00000000000E+00 -0.00000000000E+00 -0.45593999997E+02  0.45594000000E+02  0.51100000000E-03 0. -1.
    9900012    2    1    2    0    0  0.97536149889E+00  0.17472558059E+00  0.64116792708E+00  0.90007764688E+02  0.90000026381E+02 0.  0.
         12    1    1    2    0    0 -0.97536149889E+00 -0.17472558059E+00 -0.64116792708E+00  0.11802353124E+01  0.00000000000E+00 0. -1.
         11    1    3    3    0    0 -0.10860091256E+02  0.32086523161E+01 -0.63357693665E+00  0.11341889250E+02  0.51100000000E-03 0. -1.
        -11    1    3    3    0    0  0.83391456044E+01  0.36061752299E+02 -0.89995577679E+01  0.38091775602E+02  0.51100000000E-03 0.  1.
         12    1    3    3    0    0  0.34963071503E+01 -0.39095679034E+02  0.10274302632E+02  0.40574099835E+02  0.00000000000E+00 0. -1.
</event>
<event>
 7    1  0.2682188E-015  0.9000802E+02  0.7816164E-02  0.1186338E+00
        -11   -1    0    0    0    0  0.00000000000E+00  0.00000000000E+00  0.45593999997E+02  0.45594000000E+02  0.51100000000E-03 0.  1.
         11   -1    0    0    0    0 -0.00000000000E+00 -0.00000000000E+00 -0.45593999997E+02  0.45594000000E+02  0.51100000000E-03 0. -1.
    9900012    2    1    2    0    0 -0.41667865152E-01  0.77009547244E-01  0.11767224158E+01  0.90008024439E+02  0.90000289561E+02 0.  0.
         12    1    1    2    0    0  0.41667865152E-01 -0.77009547244E-01 -0.11767224158E+01  0.11799755613E+01  0.00000000000E+00 0. -1.
         11    1    3    3    0    0  0.16171655977E+02  0.31643815786E+02 -0.17710659220E+02  0.39705427650E+02  0.51100000000E-03 0. -1.
        -11    1    3    3    0    0  0.55065686633E+01 -0.12155138390E+01 -0.36368882756E+01  0.67101958934E+01  0.51100000000E-03 0.  1.
        -12    1    3    3    0    0 -0.21719892506E+02 -0.30351292400E+02  0.22524269911E+02  0.43592400896E+02  0.00000000000E+00 0.  1.
</event>
<event>
 7    1  0.2682188E-015  0.9000768E+02  0.7816164E-02  0.1186339E+00
        -11   -1    0    0    0    0  0.00000000000E+00  0.00000000000E+00  0.45593999997E+02  0.45594000000E+02  0.51100000000E-03 0. -1.
         11   -1    0    0    0    0 -0.00000000000E+00 -0.00000000000E+00 -0.45593999997E+02  0.45594000000E+02  0.51100000000E-03 0.  1.
    9900012    2    1    2    0    0  0.31337703546E+00 -0.10244334587E+01 -0.49545389919E+00  0.90007684939E+02  0.89999945580E+02 0.  0.
         12    1    1    2    0    0 -0.31337703546E+00  0.10244334587E+01  0.49545389919E+00  0.11803150613E+01  0.00000000000E+00 0. -1.
         11    1    3    3    0    0 -0.84261188339E+01 -0.29909539636E+01 -0.59580836136E+01  0.10744489044E+02  0.51100000000E-03 0. -1.
        -11    1    3    3    0    0 -0.49912140429E+01  0.10572895534E+02 -0.34346611847E+02  0.36282062830E+02  0.51100000000E-03 0.  1.
         12    1    3    3    0    0  0.13730709912E+02 -0.86063750295E+01  0.39809241561E+02  0.42981133064E+02  0.00000000000E+00 0. -1.
</event>
<event>
 7    1  0.2682188E-015  0.9000791E+02  0.7816164E-02  0.1186339E+00
        -11   -1    0    0    0    0  0.00000000000E+00  0.00000000000E+00  0.45593999997E+02  0.45594000000E+02  0.51100000000E-03 0.  1.
         11   -1    0    0    0    0 -0.00000000000E+00 -0.00000000000E+00 -0.45593999997E+02  0.45594000000E+02  0.51100000000E-03 0. -1.
    9900012    2    1    2    0    0 -0.32501555591E+00 -0.18768505446E+00  0.11188159184E+01  0.90007911084E+02  0.90000174710E+02 0.  0.
         12    1    1    2    0    0  0.32501555591E+00  0.18768505446E+00 -0.11188159184E+01  0.11800889164E+01  0.00000000000E+00 0. -1.
         11    1    3    3    0    0  0.34678683760E+02  0.90322936357E+01  0.87949185984E+01  0.36899106074E+02  0.51100000000E-03 0. -1.
        -11    1    3    3    0    0  0.45528121366E+01  0.42208738734E+01  0.65028389254E+01  0.89905944719E+01  0.51100000000E-03 0.  1.
        -12    1    3    3    0    0 -0.39556511453E+02 -0.13440852564E+02 -0.14178941605E+02  0.44118210537E+02  0.00000000000E+00 0.  1.
</event>
<event>
 7    1  0.2682188E-015  0.9000775E+02  0.7816164E-02  0.1186339E+00
        -11   -1    0    0    0    0  0.00000000000E+00  0.00000000000E+00  0.45593999997E+02  0.45594000000E+02  0.51100000000E-03 0. -1.
         11   -1    0    0    0    0 -0.00000000000E+00 -0.00000000000E+00 -0.45593999997E+02  0.45594000000E+02  0.51100000000E-03 0.  1.
    9900012    2    1    2    0    0  0.75863556932E+00  0.89552594064E+00 -0.12447269674E+00  0.90007750836E+02  0.90000012347E+02 0.  0.
         12    1    1    2    0    0 -0.75863556932E+00 -0.89552594064E+00  0.12447269674E+00  0.11802491642E+01  0.00000000000E+00 0. -1.
         11    1    3    3    0    0 -0.14462062871E+02  0.33174890038E+02  0.15082311823E+02  0.39207151410E+02  0.51100000000E-03 0. -1.
        -11    1    3    3    0    0  0.35726680318E+01  0.64386629265E+01 -0.55780629441E+01  0.92377012084E+01  0.51100000000E-03 0.  1.
        -12    1    3    3    0    0  0.11648030409E+02 -0.38718027024E+02 -0.96287215755E+01  0.41562898217E+02  0.00000000000E+00 0.  1.
</event>
<event>
 7    1  0.2682188E-015  0.9000781E+02  0.7816164E-02  0.1186339E+00
        -11   -1    0    0    0    0  0.00000000000E+00  0.00000000000E+00  0.45593999997E+02  0.45594000000E+02  0.51100000000E-03 0. -1.
         11   -1    0    0    0    0 -0.00000000000E+00 -0.00000000000E+00 -0.45593999997E+02  0.45594000000E+02  0.51100000000E-03 0.  1.
    9900012    2    1    2    0    0 -0.37319937579E+00 -0.83424990890E+00 -0.74672911414E+00  0.90007807196E+02  0.90000069451E+02 0.  0.
         12    1    1    2    0    0  0.37319937579E+00  0.83424990890E+00  0.74672911414E+00  0.11801928040E+01  0.00000000000E+00 0. -1.
         11    1    3    3    0    0  0.16255301787E+02 -0.24904786214E+01 -0.96565790364E+01  0.19070575211E+02  0.51100000000E-03 0. -1.
        -11    1    3    3    0    0 -0.18363705883E+02 -0.31717863907E+02  0.79587107254E+01  0.37504528543E+02  0.51100000000E-03 0.  1.
         12    1    3    3    0    0  0.17352047204E+01  0.33374092620E+02  0.95113919686E+00  0.33432703441E+02  0.00000000000E+00 0. -1.
</event>
<event>
 7    1  0.2682188E-015  0.9000774E+02  0.7816164E-02  0.1186339E+00
        -11   -1    0    0    0    0  0.00000000000E+00  0.00000000000E+00  0.45593999997E+02  0.45594000000E+02  0.51100000000E-03 0.  1.
         11   -1    0    0    0    0 -0.00000000000E+00 -0.00000000000E+00 -0.45593999997E+02  0.45594000000E+02  0.51100000000E-03 0. -1.
    9900012    2    1    2    0    0  0.22824187922E+00 -0.11132852817E+01 -0.31859622475E+00  0.90007744931E+02  0.90000006364E+02 0.  0.
         12    1    1    2    0    0 -0.22824187922E+00  0.11132852817E+01  0.31859622475E+00  0.11802550692E+01  0.00000000000E+00 0. -1.
         11    1    3    3    0    0  0.49550662040E+01  0.81161479697E+00 -0.63205976300E+01  0.80722583163E+01  0.51100000000E-03 0. -1.
        -11    1    3    3    0    0 -0.38678370208E+02 -0.14879289390E+02  0.15714280288E+02  0.44320967723E+02  0.51100000000E-03 0.  1.
         12    1    3    3    0    0  0.33951545884E+02  0.12954389311E+02 -0.97122788827E+01  0.37614518891E+02  0.00000000000E+00 0. -1.
</event>
<event>
 7    1  0.2682188E-015  0.9000774E+02  0.7816164E-02  0.1186339E+00
        -11   -1    0    0    0    0  0.00000000000E+00  0.00000000000E+00  0.45593999997E+02  0.45594000000E+02  0.51100000000E-03 0.  1.
         11   -1    0    0    0    0 -0.00000000000E+00 -0.00000000000E+00 -0.45593999997E+02  0.45594000000E+02  0.51100000000E-03 0. -1.
    9900012    2    1    2    0    0  0.92373909949E+00  0.37276706493E+00 -0.63306551956E+00  0.90007736826E+02  0.89999998152E+02 0.  0.
         12    1    1    2    0    0 -0.92373909949E+00 -0.37276706493E+00  0.63306551956E+00  0.11802631743E+01  0.00000000000E+00 0. -1.
         11    1    3    3    0    0 -0.28498077323E+00 -0.95288368499E+01  0.17456630311E+01  0.96916090219E+01  0.51100000000E-03 0. -1.
        -11    1    3    3    0    0 -0.34586338748E+02 -0.37653035344E+01  0.15436507479E+02  0.38061504202E+02  0.51100000000E-03 0.  1.
         12    1    3    3    0    0  0.35795058621E+02  0.13666907449E+02 -0.17815236030E+02  0.42254623602E+02  0.00000000000E+00 0. -1.
</event>
<event>
 7    1  0.2682188E-015  0.9000775E+02  0.7816164E-02  0.1186339E+00
        -11   -1    0    0    0    0  0.00000000000E+00  0.00000000000E+00  0.45593999997E+02  0.45594000000E+02  0.51100000000E-03 0.  1.
         11   -1    0    0    0    0 -0.00000000000E+00 -0.00000000000E+00 -0.45593999997E+02  0.45594000000E+02  0.51100000000E-03 0. -1.
    9900012    2    1    2    0    0 -0.56097880675E+00 -0.53249959065E+00  0.89148677107E+00  0.90007745070E+02  0.90000006505E+02 0.  0.
         12    1    1    2    0    0  0.56097880675E+00  0.53249959065E+00 -0.89148677107E+00  0.11802549295E+01  0.00000000000E+00 0. -1.
         11    1    3    3    0    0 -0.40668548981E+02  0.36173116570E+01 -0.40669489097E+01  0.41031157595E+02  0.51100000000E-03 0. -1.
        -11    1    3    3    0    0  0.13054352160E+01 -0.79004573378E+01  0.59577614176E+01  0.99807969932E+01  0.51100000000E-03 0.  1.
        -12    1    3    3    0    0  0.38802134958E+02  0.37506460901E+01 -0.99932573678E+00  0.38995790483E+02  0.00000000000E+00 0.  1.
</event>
<event>
 7    1  0.2682188E-015  0.9000771E+02  0.7816164E-02  0.1186339E+00
        -11   -1    0    0    0    0  0.00000000000E+00  0.00000000000E+00  0.45593999997E+02  0.45594000000E+02  0.51100000000E-03 0.  1.
         11   -1    0    0    0    0 -0.00000000000E+00 -0.00000000000E+00 -0.45593999997E+02  0.45594000000E+02  0.51100000000E-03 0. -1.
    9900012    2    1    2    0    0 -0.83066318378E+00  0.29074612021E-02  0.83850183618E+00  0.90007705500E+02  0.89999966412E+02 0.  0.
         12    1    1    2    0    0  0.83066318378E+00 -0.29074612021E-02 -0.83850183618E+00  0.11802945003E+01  0.00000000000E+00 0. -1.
         11    1    3    3    0    0 -0.26399235757E+02 -0.48568836501E+01 -0.35397535208E+02  0.44424030281E+02  0.51100000000E-03 0. -1.
        -11    1    3    3    0    0  0.90314503823E+01 -0.44859473505E+00  0.64622554469E+01  0.11114363633E+02  0.51100000000E-03 0.  1.
        -12    1    3    3    0    0  0.16537122191E+02  0.53083858464E+01  0.29773781597E+02  0.34469311586E+02  0.00000000000E+00 0.  1.
</event>
<event>
 7    1  0.2682188E-015  0.9000829E+02  0.7816164E-02  0.1186338E+00
        -11   -1    0    0    0    0  0.00000000000E+00  0.00000000000E+00  0.45593999997E+02  0.45594000000E+02  0.51100000000E-03 0.  1.
         11   -1    0    0    0    0 -0.00000000000E+00 -0.00000000000E+00 -0.45593999997E+02  0.45594000000E+02  0.51100000000E-03 0. -1.
    9900012    2    1    2    0    0 -0.10612531102E+01  0.23064010807E+00  0.46070742566E+00  0.90008294801E+02  0.90000563491E+02 0.  0.
         12    1    1    2    0    0  0.10612531102E+01 -0.23064010807E+00 -0.46070742566E+00  0.11797051986E+01  0.00000000000E+00 0. -1.
         11    1    3    3    0    0  0.39133607794E+02  0.54585967079E+01 -0.34992148279E+01  0.39667115369E+02  0.51100000000E-03 0. -1.
        -11    1    3    3    0    0 -0.13107093200E+01  0.34850284442E+01 -0.79267711685E+01  0.87576871146E+01  0.51100000000E-03 0.  1.
        -12    1    3    3    0    0 -0.38884151585E+02 -0.87129850440E+01  0.11886693422E+02  0.41583492318E+02  0.00000000000E+00 0.  1.
</event>
<event>
 7    1  0.2682188E-015  0.9000775E+02  0.7816164E-02  0.1186339E+00
        -11   -1    0    0    0    0  0.00000000000E+00  0.00000000000E+00  0.45593999997E+02  0.45594000000E+02  0.51100000000E-03 0.  1.
         11   -1    0    0    0    0 -0.00000000000E+00 -0.00000000000E+00 -0.45593999997E+02  0.45594000000E+02  0.51100000000E-03 0. -1.
    9900012    2    1    2    0    0 -0.10115330469E+01  0.53955117409E+00  0.28050538011E+00  0.90007746704E+02  0.90000008160E+02 0.  0.
         12    1    1    2    0    0  0.10115330469E+01 -0.53955117409E+00 -0.28050538011E+00  0.11802532960E+01  0.00000000000E+00 0. -1.
         11    1    3    3    0    0 -0.50650534172E+01  0.67472091571E+01  0.47875468757E+01  0.97005259072E+01  0.51100000000E-03 0. -1.
        -11    1    3    3    0    0  0.10859534429E+01  0.33877260619E+02  0.13214214335E+02  0.36379438460E+02  0.51100000000E-03 0.  1.
         12    1    3    3    0    0  0.29675669273E+01 -0.40084918602E+02 -0.17721255831E+02  0.43927782337E+02  0.00000000000E+00 0. -1.
</event>
<event>
 7    1  0.2682188E-015  0.9000775E+02  0.7816164E-02  0.1186339E+00
        -11   -1    0    0    0    0  0.00000000000E+00  0.00000000000E+00  0.45593999997E+02  0.45594000000E+02  0.51100000000E-03 0.  1.
         11   -1    0    0    0    0 -0.00000000000E+00 -0.00000000000E+00 -0.45593999997E+02  0.45594000000E+02  0.51100000000E-03 0. -1.
    9900012    2    1    2    0    0 -0.84298526559E+00 -0.78028647142E+00  0.27113570342E+00  0.90007751846E+02  0.90000013370E+02 0.  0.
         12    1    1    2    0    0  0.84298526559E+00  0.78028647142E+00 -0.27113570342E+00  0.11802481541E+01  0.00000000000E+00 0. -1.
         11    1    3    3    0    0  0.86993292759E+01 -0.26862024667E+00 -0.32517890529E+01  0.92911042935E+01  0.51100000000E-03 0. -1.
        -11    1    3    3    0    0  0.33986631444E+02 -0.43479397661E+01 -0.86821465499E+01  0.35346504298E+02  0.51100000000E-03 0.  1.
         12    1    3    3    0    0 -0.43528945986E+02  0.38362735414E+01  0.12205071306E+02  0.45370143254E+02  0.00000000000E+00 0. -1.
</event>
<event>
 7    1  0.2682188E-015  0.9000770E+02  0.7816164E-02  0.1186339E+00
        -11   -1    0    0    0    0  0.00000000000E+00  0.00000000000E+00  0.45593999997E+02  0.45594000000E+02  0.51100000000E-03 0. -1.
         11   -1    0    0    0    0 -0.00000000000E+00 -0.00000000000E+00 -0.45593999997E+02  0.45594000000E+02  0.51100000000E-03 0.  1.
    9900012    2    1    2    0    0 -0.41512534864E+00  0.89985264441E+00 -0.64112987828E+00  0.90007698616E+02  0.89999959438E+02 0.  0.
         12    1    1    2    0    0  0.41512534864E+00 -0.89985264441E+00  0.64112987828E+00  0.11803013842E+01  0.00000000000E+00 0. -1.
         11    1    3    3    0    0  0.21749184026E+02  0.22099019346E+02 -0.22375596925E+02  0.38236906254E+02  0.51100000000E-03 0. -1.
        -11    1    3    3    0    0  0.88621029608E+01 -0.17875040479E+01 -0.31016544680E+00  0.90458964439E+01  0.51100000000E-03 0.  1.
        -12    1    3    3    0    0 -0.31026412336E+02 -0.19411662654E+02  0.22044632494E+02  0.42724895918E+02  0.00000000000E+00 0.  1.
</event>
<event>
 7    1  0.2682188E-015  0.9000773E+02  0.7816164E-02  0.1186339E+00
        -11   -1    0    0    0    0  0.00000000000E+00  0.00000000000E+00  0.45593999997E+02  0.45594000000E+02  0.51100000000E-03 0.  1.
         11   -1    0    0    0    0 -0.00000000000E+00 -0.00000000000E+00 -0.45593999997E+02  0.45594000000E+02  0.51100000000E-03 0. -1.
    9900012    2    1    2    0    0 -0.87059491691E+00 -0.77445589112E+00 -0.18794980181E+00  0.90007727758E+02  0.89999988965E+02 0.  0.
         12    1    1    2    0    0  0.87059491691E+00  0.77445589112E+00  0.18794980181E+00  0.11802722418E+01  0.00000000000E+00 0. -1.
         11    1    3    3    0    0 -0.84582244299E+00 -0.33630725663E+02 -0.16952222523E+02  0.37671195534E+02  0.51100000000E-03 0. -1.
        -11    1    3    3    0    0 -0.56549256281E+01 -0.48773618957E+01 -0.44405989796E+01  0.86882542826E+01  0.51100000000E-03 0.  1.
        -12    1    3    3    0    0  0.56301531542E+01  0.37733631668E+02  0.21204871701E+02  0.43648277941E+02  0.00000000000E+00 0.  1.
</event>
<event>
 7    1  0.2682188E-015  0.9000774E+02  0.7816164E-02  0.1186339E+00
        -11   -1    0    0    0    0  0.00000000000E+00  0.00000000000E+00  0.45593999997E+02  0.45594000000E+02  0.51100000000E-03 0. -1.
         11   -1    0    0    0    0 -0.00000000000E+00 -0.00000000000E+00 -0.45593999997E+02  0.45594000000E+02  0.51100000000E-03 0.  1.
    9900012    2    1    2    0    0 -0.11010509795E+01 -0.32456004674E+00  0.27453527798E+00  0.90007736427E+02  0.89999997748E+02 0.  0.
         12    1    1    2    0    0  0.11010509795E+01  0.32456004674E+00 -0.27453527798E+00  0.11802635732E+01  0.00000000000E+00 0. -1.
         11    1    3    3    0    0 -0.88434911808E+01  0.77130241408E+01 -0.19304317803E+01  0.11892209416E+02  0.51100000000E-03 0. -1.
        -11    1    3    3    0    0 -0.15306872069E+02  0.21316482067E+02 -0.21479658621E+02  0.33912659509E+02  0.51100000000E-03 0.  1.
         12    1    3    3    0    0  0.23049312270E+02 -0.29354066255E+02  0.23684625680E+02  0.44202867502E+02  0.00000000000E+00 0. -1.
</event>
<event>
 7    1  0.2682188E-015  0.9000873E+02  0.7816164E-02  0.1186337E+00
        -11   -1    0    0    0    0  0.00000000000E+00  0.00000000000E+00  0.45593999997E+02  0.45594000000E+02  0.51100000000E-03 0.  1.
         11   -1    0    0    0    0 -0.00000000000E+00 -0.00000000000E+00 -0.45593999997E+02  0.45594000000E+02  0.51100000000E-03 0. -1.
    9900012    2    1    2    0    0 -0.21090109323E+00  0.10253479385E+01  0.54300404954E+00  0.90008732828E+02  0.90001007295E+02 0.  0.
         12    1    1    2    0    0  0.21090109323E+00 -0.10253479385E+01 -0.54300404954E+00  0.11792671724E+01  0.00000000000E+00 0. -1.
         11    1    3    3    0    0 -0.31988825047E+01 -0.70291598862E+01 -0.47291315854E+01  0.90557508688E+01  0.51100000000E-03 0. -1.
        -11    1    3    3    0    0 -0.12450018264E+02 -0.20220379482E+02  0.31474655610E+02  0.39427409847E+02  0.51100000000E-03 0.  1.
         12    1    3    3    0    0  0.15437999676E+02  0.28274887307E+02 -0.26202519975E+02  0.41525572112E+02  0.00000000000E+00 0. -1.
</event>
<event>
 7    1  0.2682188E-015  0.9000775E+02  0.7816164E-02  0.1186339E+00
        -11   -1    0    0    0    0  0.00000000000E+00  0.00000000000E+00  0.45593999997E+02  0.45594000000E+02  0.51100000000E-03 0.  1.
         11   -1    0    0    0    0 -0.00000000000E+00 -0.00000000000E+00 -0.45593999997E+02  0.45594000000E+02  0.51100000000E-03 0. -1.
    9900012    2    1    2    0    0 -0.42211632514E+00 -0.87815607926E+00  0.66606443303E+00  0.90007753365E+02  0.90000014909E+02 0.  0.
         12    1    1    2    0    0  0.42211632514E+00  0.87815607926E+00 -0.66606443303E+00  0.11802466354E+01  0.00000000000E+00 0. -1.
         11    1    3    3    0    0  0.14268118116E+02 -0.31217807158E+02  0.29778317832E+01  0.34452839661E+02  0.51100000000E-03 0. -1.
        -11    1    3    3    0    0  0.14138924827E+02  0.25744606745E+01  0.42693756020E+01  0.14992151657E+02  0.51100000000E-03 0.  1.
        -12    1    3    3    0    0 -0.28829159268E+02  0.27765190404E+02 -0.65811429522E+01  0.40562762046E+02  0.00000000000E+00 0.  1.
</event>
<event>
 7    1  0.4340158E-015  0.9000779E+02  0.7816164E-02  0.1186339E+00
        -11   -1    0    0    0    0  0.00000000000E+00  0.00000000000E+00  0.45593999997E+02  0.45594000000E+02  0.51100000000E-03 0. -1.
         11   -1    0    0    0    0 -0.00000000000E+00 -0.00000000000E+00 -0.45593999997E+02  0.45594000000E+02  0.51100000000E-03 0.  1.
    9900012    2    1    2    0    0 -0.47779279043E+00 -0.45681685063E+00 -0.97771578203E+00  0.90007789961E+02  0.90000051989E+02 0.  0.
         12    1    1    2    0    0  0.47779279043E+00  0.45681685063E+00  0.97771578203E+00  0.11802100390E+01  0.00000000000E+00 0. -1.
         11    1    3    3    0    0 -0.34830222511E+01 -0.48466307418E+00 -0.87063888948E+01  0.93897577256E+01  0.51100000000E-03 0. -1.
        -11    1    3    3    0    0  0.11246568981E+01  0.19934076210E+02 -0.31092052585E+02  0.36950615445E+02  0.51100000000E-03 0.  1.
         12    1    3    3    0    0  0.18805725626E+01 -0.19906229987E+02  0.38820725698E+02  0.43667416791E+02  0.00000000000E+00 0. -1.
</event>
<event>
 7    1  0.2682188E-015  0.9000770E+02  0.7816164E-02  0.1186339E+00
        -11   -1    0    0    0    0  0.00000000000E+00  0.00000000000E+00  0.45593999997E+02  0.45594000000E+02  0.51100000000E-03 0.  1.
         11   -1    0    0    0    0 -0.00000000000E+00 -0.00000000000E+00 -0.45593999997E+02  0.45594000000E+02  0.51100000000E-03 0. -1.
    9900012    2    1    2    0    0  0.29283006434E+00  0.10234552765E+01 -0.50980828628E+00  0.90007697226E+02  0.89999958029E+02 0.  0.
         12    1    1    2    0    0 -0.29283006434E+00 -0.10234552765E+01  0.50980828628E+00  0.11803027740E+01  0.00000000000E+00 0. -1.
         11    1    3    3    0    0  0.19762425510E+02 -0.13733906492E+02 -0.31215725139E+02  0.39415671322E+02  0.51100000000E-03 0. -1.
        -11    1    3    3    0    0 -0.69518033364E+01 -0.59595619742E+01 -0.25080700011E+01  0.94939119410E+01  0.51100000000E-03 0.  1.
        -12    1    3    3    0    0 -0.12517792109E+02  0.20716923743E+02  0.33213986854E+02  0.41098113963E+02  0.00000000000E+00 0.  1.
</event>
<event>
 7    1  0.2682188E-015  0.9000782E+02  0.7816164E-02  0.1186339E+00
        -11   -1    0    0    0    0  0.00000000000E+00  0.00000000000E+00  0.45593999997E+02  0.45594000000E+02  0.51100000000E-03 0.  1.
         11   -1    0    0    0    0 -0.00000000000E+00 -0.00000000000E+00 -0.45593999997E+02  0.45594000000E+02  0.51100000000E-03 0. -1.
    9900012    2    1    2    0    0  0.20789607630E+00  0.15865821820E+00  0.11508405608E+01  0.90007818995E+02  0.90000081405E+02 0.  0.
         12    1    1    2    0    0 -0.20789607630E+00 -0.15865821820E+00 -0.11508405608E+01  0.11801810053E+01  0.00000000000E+00 0. -1.
         11    1    3    3    0    0 -0.21687642571E+02 -0.31647352379E+02  0.39583165202E+01  0.38569120068E+02  0.51100000000E-03 0. -1.
        -11    1    3    3    0    0  0.19936390012E+01 -0.28524054651E+01 -0.10215324969E+02  0.10791833852E+02  0.51100000000E-03 0.  1.
        -12    1    3    3    0    0  0.19901899646E+02  0.34658416062E+02  0.74078490099E+01  0.40646865075E+02  0.00000000000E+00 0.  1.
</event>
<event>
 7    1  0.2682188E-015  0.9000864E+02  0.7816164E-02  0.1186337E+00
        -11   -1    0    0    0    0  0.00000000000E+00  0.00000000000E+00  0.45593999997E+02  0.45594000000E+02  0.51100000000E-03 0.  1.
         11   -1    0    0    0    0 -0.00000000000E+00 -0.00000000000E+00 -0.45593999997E+02  0.45594000000E+02  0.51100000000E-03 0. -1.
    9900012    2    1    2    0    0 -0.97552224053E+00 -0.61005710832E-01  0.65993875605E+00  0.90008642336E+02  0.90000915610E+02 0.  0.
         12    1    1    2    0    0  0.97552224053E+00  0.61005710832E-01 -0.65993875605E+00  0.11793576643E+01  0.00000000000E+00 0. -1.
         11    1    3    3    0    0  0.11721124657E+02  0.12146810932E+01  0.11284433708E+01  0.11837803770E+02  0.51100000000E-03 0. -1.
        -11    1    3    3    0    0  0.29014364705E+02  0.10737798852E+01 -0.16533057749E+02  0.33411500434E+02  0.51100000000E-03 0.  1.
         12    1    3    3    0    0 -0.41711011602E+02 -0.23494666892E+01  0.16064553134E+02  0.44759338132E+02  0.00000000000E+00 0. -1.
</event>
<event>
 7    1  0.2682188E-015  0.9000779E+02  0.7816164E-02  0.1186339E+00
        -11   -1    0    0    0    0  0.00000000000E+00  0.00000000000E+00  0.45593999997E+02  0.45594000000E+02  0.51100000000E-03 0. -1.
         11   -1    0    0    0    0 -0.00000000000E+00 -0.00000000000E+00 -0.45593999997E+02  0.45594000000E+02  0.51100000000E-03 0.  1.
    9900012    2    1    2    0    0 -0.77246316584E+00  0.16104125526E+00 -0.87764003410E+00  0.90007794231E+02  0.90000056315E+02 0.  0.
         12    1    1    2    0    0  0.77246316584E+00 -0.16104125526E+00  0.87764003410E+00  0.11802057693E+01  0.00000000000E+00 0. -1.
         11    1    3    3    0    0  0.16681269625E+02  0.35482761896E+02 -0.34430604238E+01  0.39359189695E+02  0.51100000000E-03 0. -1.
        -11    1    3    3    0    0  0.78223468847E+01 -0.55751528613E+01 -0.50882983413E+01  0.10870244730E+02  0.51100000000E-03 0.  1.
        -12    1    3    3    0    0 -0.25276079676E+02 -0.29746567780E+02  0.76537187310E+01  0.39778359806E+02  0.00000000000E+00 0.  1.
</event>
<event>
 7    1  0.2682188E-015  0.9000783E+02  0.7816164E-02  0.1186339E+00
        -11   -1    0    0    0    0  0.00000000000E+00  0.00000000000E+00  0.45593999997E+02  0.45594000000E+02  0.51100000000E-03 0.  1.
         11   -1    0    0    0    0 -0.00000000000E+00 -0.00000000000E+00 -0.45593999997E+02  0.45594000000E+02  0.51100000000E-03 0. -1.
    9900012    2    1    2    0    0 -0.89680460880E-01  0.69958258114E+00  0.94622941397E+00  0.90007826929E+02  0.90000089445E+02 0.  0.
         12    1    1    2    0    0  0.89680460880E-01 -0.69958258114E+00 -0.94622941397E+00  0.11801730707E+01  0.00000000000E+00 0. -1.
         11    1    3    3    0    0  0.45064215688E+01  0.59299836429E+01 -0.53447894263E+01  0.91672959827E+01  0.51100000000E-03 0. -1.
        -11    1    3    3    0    0  0.33619693806E+02  0.83411831333E+01 -0.11580058181E+02  0.36523374644E+02  0.51100000000E-03 0.  1.
         12    1    3    3    0    0 -0.38215795835E+02 -0.13571584195E+02  0.17871077021E+02  0.44317156303E+02  0.00000000000E+00 0. -1.
</event>
<event>
 7    1  0.2682188E-015  0.9000755E+02  0.7816164E-02  0.1186339E+00
        -11   -1    0    0    0    0  0.00000000000E+00  0.00000000000E+00  0.45593999997E+02  0.45594000000E+02  0.51100000000E-03 0.  1.
         11   -1    0    0    0    0 -0.00000000000E+00 -0.00000000000E+00 -0.45593999997E+02  0.45594000000E+02  0.51100000000E-03 0. -1.
    9900012    2    1    2    0    0 -0.52984923501E+00 -0.64434166787E+00  0.83519594368E+00  0.90007547264E+02  0.89999806088E+02 0.  0.
         12    1    1    2    0    0  0.52984923501E+00  0.64434166787E+00 -0.83519594368E+00  0.11804527357E+01  0.00000000000E+00 0. -1.
         11    1    3    3    0    0  0.70172028418E+01  0.15713984253E+01 -0.67011566142E+01  0.98293402099E+01  0.51100000000E-03 0. -1.
        -11    1    3    3    0    0  0.48366529670E+01 -0.35223673892E+02 -0.14725773906E+02  0.38483098001E+02  0.51100000000E-03 0.  1.
         12    1    3    3    0    0 -0.12383705044E+02  0.33007933799E+02  0.22262126463E+02  0.41695109053E+02  0.00000000000E+00 0. -1.
</event>
<event>
 7    1  0.2682188E-015  0.9000771E+02  0.7816164E-02  0.1186339E+00
        -11   -1    0    0    0    0  0.00000000000E+00  0.00000000000E+00  0.45593999997E+02  0.45594000000E+02  0.51100000000E-03 0. -1.
         11   -1    0    0    0    0 -0.00000000000E+00 -0.00000000000E+00 -0.45593999997E+02  0.45594000000E+02  0.51100000000E-03 0.  1.
    9900012    2    1    2    0    0  0.38784366662E+00 -0.80337976746E-01 -0.11118533951E+01  0.90007705599E+02  0.89999966513E+02 0.  0.
         12    1    1    2    0    0 -0.38784366662E+00  0.80337976746E-01  0.11118533951E+01  0.11802944007E+01  0.00000000000E+00 0. -1.
         11    1    3    3    0    0 -0.21871195599E+02  0.29471976605E+02 -0.11743791682E+02  0.38533923305E+02  0.51100000000E-03 0. -1.
        -11    1    3    3    0    0  0.55355076375E+01  0.76025986556E+01  0.38787897246E+01  0.10172824638E+02  0.51100000000E-03 0.  1.
        -12    1    3    3    0    0  0.16723531628E+02 -0.37154913238E+02  0.67531485627E+01  0.41300957656E+02  0.00000000000E+00 0.  1.
</event>
<event>
 7    1  0.2682188E-015  0.9000759E+02  0.7816164E-02  0.1186339E+00
        -11   -1    0    0    0    0  0.00000000000E+00  0.00000000000E+00  0.45593999997E+02  0.45594000000E+02  0.51100000000E-03 0. -1.
         11   -1    0    0    0    0 -0.00000000000E+00 -0.00000000000E+00 -0.45593999997E+02  0.45594000000E+02  0.51100000000E-03 0.  1.
    9900012    2    1    2    0    0  0.29611582528E+00 -0.39522303495E+00  0.10721431162E+01  0.90007586220E+02  0.89999845558E+02 0.  0.
         12    1    1    2    0    0 -0.29611582528E+00  0.39522303495E+00 -0.10721431162E+01  0.11804137795E+01  0.00000000000E+00 0. -1.
         11    1    3    3    0    0 -0.33416855792E+02  0.11800585142E+02  0.89547082537E+01  0.36553069104E+02  0.51100000000E-03 0. -1.
        -11    1    3    3    0    0 -0.72130250186E+01 -0.27437878879E+01  0.53795941532E+01  0.94072384581E+01  0.51100000000E-03 0.  1.
        -12    1    3    3    0    0  0.40925996636E+02 -0.94520202888E+01 -0.13262159291E+02  0.44047278659E+02  0.00000000000E+00 0.  1.
</event>
<event>
 7    1  0.2682188E-015  0.9000769E+02  0.7816164E-02  0.1186339E+00
        -11   -1    0    0    0    0  0.00000000000E+00  0.00000000000E+00  0.45593999997E+02  0.45594000000E+02  0.51100000000E-03 0.  1.
         11   -1    0    0    0    0 -0.00000000000E+00 -0.00000000000E+00 -0.45593999997E+02  0.45594000000E+02  0.51100000000E-03 0. -1.
    9900012    2    1    2    0    0  0.10098364033E+01  0.46615390968E+00  0.39504785312E+00  0.90007689941E+02  0.89999950648E+02 0.  0.
         12    1    1    2    0    0 -0.10098364033E+01 -0.46615390968E+00 -0.39504785312E+00  0.11803100589E+01  0.00000000000E+00 0. -1.
         11    1    3    3    0    0  0.41489510717E+02  0.40020409417E+01  0.12372110287E+02  0.43479477279E+02  0.51100000000E-03 0. -1.
        -11    1    3    3    0    0 -0.76467248472E+01 -0.63007270438E+01  0.29750539397E+01  0.10345168359E+02  0.51100000000E-03 0.  1.
        -12    1    3    3    0    0 -0.32832949467E+02  0.27648400118E+01 -0.14952116373E+02  0.36183044303E+02  0.00000000000E+00 0.  1.
</event>
<event>
 7    1  0.2682188E-015  0.9000773E+02  0.7816164E-02  0.1186339E+00
        -11   -1    0    0    0    0  0.00000000000E+00  0.00000000000E+00  0.45593999997E+02  0.45594000000E+02  0.51100000000E-03 0. -1.
         11   -1    0    0    0    0 -0.00000000000E+00 -0.00000000000E+00 -0.45593999997E+02  0.45594000000E+02  0.51100000000E-03 0.  1.
    9900012    2    1    2    0    0 -0.68074511517E+00 -0.23259948042E+00 -0.93569168138E+00  0.90007730813E+02  0.89999992060E+02 0.  0.
         12    1    1    2    0    0  0.68074511517E+00  0.23259948042E+00  0.93569168138E+00  0.11802691866E+01  0.00000000000E+00 0. -1.
         11    1    3    3    0    0  0.74885039710E+01  0.53509024714E+01 -0.57879599673E+01  0.10872457396E+02  0.51100000000E-03 0. -1.
        -11    1    3    3    0    0 -0.30489288581E+02 -0.29538004184E+02 -0.93136025846E+01  0.43460713325E+02  0.51100000000E-03 0.  1.
         12    1    3    3    0    0  0.22320039495E+02  0.23954502233E+02  0.14165870871E+02  0.35674560092E+02  0.00000000000E+00 0. -1.
</event>
<event>
 7    1  0.2682188E-015  0.9000852E+02  0.7816164E-02  0.1186337E+00
        -11   -1    0    0    0    0  0.00000000000E+00  0.00000000000E+00  0.45593999997E+02  0.45594000000E+02  0.51100000000E-03 0.  1.
         11   -1    0    0    0    0 -0.00000000000E+00 -0.00000000000E+00 -0.45593999997E+02  0.45594000000E+02  0.51100000000E-03 0. -1.
    9900012    2    1    2    0    0 -0.11682417766E+01 -0.16102420323E+00 -0.21155935968E-01  0.90008523329E+02  0.90000795034E+02 0.  0.
         12    1    1    2    0    0  0.11682417766E+01  0.16102420323E+00  0.21155935968E-01  0.11794766705E+01  0.00000000000E+00 0. -1.
         11    1    3    3    0    0 -0.74390014946E+01  0.31867712836E+02 -0.23216766954E+02  0.40123660510E+02  0.51100000000E-03 0. -1.
        -11    1    3    3    0    0  0.27996531838E+01  0.47755433036E+01  0.84136691991E+01  0.10071429960E+02  0.51100000000E-03 0.  1.
        -12    1    3    3    0    0  0.34711065341E+01 -0.36804280343E+02  0.14781941819E+02  0.39813432859E+02  0.00000000000E+00 0.  1.
</event>
<event>
 7    1  0.2682188E-015  0.9000829E+02  0.7816164E-02  0.1186338E+00
        -11   -1    0    0    0    0  0.00000000000E+00  0.00000000000E+00  0.45593999997E+02  0.45594000000E+02  0.51100000000E-03 0.  1.
         11   -1    0    0    0    0 -0.00000000000E+00 -0.00000000000E+00 -0.45593999997E+02  0.45594000000E+02  0.51100000000E-03 0. -1.
    9900012    2    1    2    0    0  0.10999106962E+01 -0.33163624134E+00  0.26819813427E+00  0.90008289707E+02  0.90000558329E+02 0.  0.
         12    1    1    2    0    0 -0.10999106962E+01  0.33163624134E+00 -0.26819813427E+00  0.11797102930E+01  0.00000000000E+00 0. -1.
         11    1    3    3    0    0  0.15237413331E+02  0.20315643095E+02 -0.25729055004E+02  0.36150911345E+02  0.51100000000E-03 0. -1.
        -11    1    3    3    0    0 -0.98327447838E+00  0.97896186839E+01 -0.24830396827E+01  0.10147361677E+02  0.51100000000E-03 0.  1.
        -12    1    3    3    0    0 -0.13154228157E+02 -0.30436898020E+02  0.28480292821E+02  0.43710016686E+02  0.00000000000E+00 0.  1.
</event>
<event>
 7    1  0.2682188E-015  0.9000778E+02  0.7816164E-02  0.1186339E+00
        -11   -1    0    0    0    0  0.00000000000E+00  0.00000000000E+00  0.45593999997E+02  0.45594000000E+02  0.51100000000E-03 0. -1.
         11   -1    0    0    0    0 -0.00000000000E+00 -0.00000000000E+00 -0.45593999997E+02  0.45594000000E+02  0.51100000000E-03 0.  1.
    9900012    2    1    2    0    0  0.12075116914E+00  0.41168126027E+00 -0.10994792363E+01  0.90007780997E+02  0.90000042906E+02 0.  0.
         12    1    1    2    0    0 -0.12075116914E+00 -0.41168126027E+00  0.10994792363E+01  0.11802190034E+01  0.00000000000E+00 0. -1.
         11    1    3    3    0    0 -0.88222411583E+01 -0.18545727112E+01 -0.62741683522E+01  0.10983467930E+02  0.51100000000E-03 0. -1.
        -11    1    3    3    0    0  0.85487249280E+01  0.14038056411E+02 -0.34189864041E+02  0.37935399419E+02  0.51100000000E-03 0.  1.
         12    1    3    3    0    0  0.39426739946E+00 -0.11771802440E+02  0.39364553157E+02  0.41088913647E+02  0.00000000000E+00 0. -1.
</event>
<event>
 7    1  0.2682188E-015  0.9000775E+02  0.7816164E-02  0.1186339E+00
        -11   -1    0    0    0    0  0.00000000000E+00  0.00000000000E+00  0.45593999997E+02  0.45594000000E+02  0.51100000000E-03 0.  1.
         11   -1    0    0    0    0 -0.00000000000E+00 -0.00000000000E+00 -0.45593999997E+02  0.45594000000E+02  0.51100000000E-03 0. -1.
    9900012    2    1    2    0    0 -0.38080898098E+00 -0.39446300838E+00  0.10451691445E+01  0.90007747872E+02  0.90000009344E+02 0.  0.
         12    1    1    2    0    0  0.38080898098E+00  0.39446300838E+00 -0.10451691445E+01  0.11802521279E+01  0.00000000000E+00 0. -1.
         11    1    3    3    0    0 -0.30646310711E+01  0.24680087901E+01 -0.41310371690E+02  0.41497347390E+02  0.51100000000E-03 0. -1.
        -11    1    3    3    0    0 -0.36482977782E+01  0.35689240805E+01 -0.10148864759E+00  0.51046641395E+01  0.51100000000E-03 0.  1.
        -12    1    3    3    0    0  0.63321198683E+01 -0.64313958790E+01  0.42457029482E+02  0.43405736342E+02  0.00000000000E+00 0.  1.
</event>
<event>
 7    1  0.2682188E-015  0.9000769E+02  0.7816164E-02  0.1186339E+00
        -11   -1    0    0    0    0  0.00000000000E+00  0.00000000000E+00  0.45593999997E+02  0.45594000000E+02  0.51100000000E-03 0.  1.
         11   -1    0    0    0    0 -0.00000000000E+00 -0.00000000000E+00 -0.45593999997E+02  0.45594000000E+02  0.51100000000E-03 0. -1.
    9900012    2    1    2    0    0  0.42540940064E-01  0.87717799036E+00  0.78858698642E+00  0.90007694788E+02  0.89999955559E+02 0.  0.
         12    1    1    2    0    0 -0.42540940064E-01 -0.87717799036E+00 -0.78858698642E+00  0.11803052120E+01  0.00000000000E+00 0. -1.
         11    1    3    3    0    0 -0.42040049173E+01 -0.58018645278E+01  0.67519996459E+01  0.98450387924E+01  0.51100000000E-03 0. -1.
        -11    1    3    3    0    0  0.94776815395E-01 -0.24825707972E+02  0.25398024379E+02  0.35515973893E+02  0.51100000000E-03 0.  1.
         12    1    3    3    0    0  0.41517690420E+01  0.31504750490E+02 -0.31361437039E+02  0.44646682102E+02  0.00000000000E+00 0. -1.
</event>
<event>
 7    1  0.2682188E-015  0.9000874E+02  0.7816164E-02  0.1186337E+00
        -11   -1    0    0    0    0  0.00000000000E+00  0.00000000000E+00  0.45593999997E+02  0.45594000000E+02  0.51100000000E-03 0.  1.
         11   -1    0    0    0    0 -0.00000000000E+00 -0.00000000000E+00 -0.45593999997E+02  0.45594000000E+02  0.51100000000E-03 0. -1.
    9900012    2    1    2    0    0  0.93846175977E+00  0.16396705352E+00  0.69503070094E+00  0.90008736101E+02  0.90001010611E+02 0.  0.
         12    1    1    2    0    0 -0.93846175977E+00 -0.16396705352E+00 -0.69503070094E+00  0.11792638994E+01  0.00000000000E+00 0. -1.
         11    1    3    3    0    0  0.86567811650E+01  0.93787141077E+01 -0.29381067078E+01  0.13097045840E+02  0.51100000000E-03 0. -1.
        -11    1    3    3    0    0  0.18345570891E+02  0.15815211711E+01  0.31990463898E+02  0.36911393379E+02  0.51100000000E-03 0.  1.
         12    1    3    3    0    0 -0.26063890296E+02 -0.10796268225E+02 -0.28357326489E+02  0.40000296881E+02  0.00000000000E+00 0. -1.
</event>
<event>
 7    1  0.2682188E-015  0.9000780E+02  0.7816164E-02  0.1186339E+00
        -11   -1    0    0    0    0  0.00000000000E+00  0.00000000000E+00  0.45593999997E+02  0.45594000000E+02  0.51100000000E-03 0. -1.
         11   -1    0    0    0    0 -0.00000000000E+00 -0.00000000000E+00 -0.45593999997E+02  0.45594000000E+02  0.51100000000E-03 0.  1.
    9900012    2    1    2    0    0  0.14554693351E+00 -0.75372365955E+00 -0.89643048902E+00  0.90007800489E+02  0.90000062655E+02 0.  0.
         12    1    1    2    0    0 -0.14554693351E+00  0.75372365955E+00  0.89643048902E+00  0.11801995113E+01  0.00000000000E+00 0. -1.
         11    1    3    3    0    0 -0.31801441732E+02  0.67221528243E+01  0.15060821148E+02  0.35823837996E+02  0.51100000000E-03 0. -1.
        -11    1    3    3    0    0 -0.57419184538E+01 -0.42212829855E+01  0.69542778674E+01  0.99574514054E+01  0.51100000000E-03 0.  1.
        -12    1    3    3    0    0  0.37688907120E+02 -0.32545934983E+01 -0.22911529504E+02  0.44226511087E+02  0.00000000000E+00 0.  1.
</event>
<event>
 7    1  0.2682188E-015  0.9000771E+02  0.7816164E-02  0.1186339E+00
        -11   -1    0    0    0    0  0.00000000000E+00  0.00000000000E+00  0.45593999997E+02  0.45594000000E+02  0.51100000000E-03 0.  1.
         11   -1    0    0    0    0 -0.00000000000E+00 -0.00000000000E+00 -0.45593999997E+02  0.45594000000E+02  0.51100000000E-03 0. -1.
    9900012    2    1    2    0    0  0.40452940140E+00 -0.93500840542E+00  0.59598334582E+00  0.90007711517E+02  0.89999972509E+02 0.  0.
         12    1    1    2    0    0 -0.40452940140E+00  0.93500840542E+00 -0.59598334582E+00  0.11802884831E+01  0.00000000000E+00 0. -1.
         11    1    3    3    0    0 -0.21180695293E+02 -0.31536434185E+02 -0.19249143239E+02  0.42587533973E+02  0.51100000000E-03 0. -1.
        -11    1    3    3    0    0 -0.34044747837E+01  0.97671753119E+01  0.29304832333E+01  0.10750622976E+02  0.51100000000E-03 0.  1.
        -12    1    3    3    0    0  0.24989699478E+02  0.20834250468E+02  0.16914643351E+02  0.36669554568E+02  0.00000000000E+00 0.  1.
</event>
<event>
 7    1  0.2682188E-015  0.9000774E+02  0.7816164E-02  0.1186339E+00
        -11   -1    0    0    0    0  0.00000000000E+00  0.00000000000E+00  0.45593999997E+02  0.45594000000E+02  0.51100000000E-03 0. -1.
         11   -1    0    0    0    0 -0.00000000000E+00 -0.00000000000E+00 -0.45593999997E+02  0.45594000000E+02  0.51100000000E-03 0.  1.
    9900012    2    1    2    0    0  0.44826972947E+00  0.43253882889E+00  0.10024841999E+01  0.90007741486E+02  0.90000002874E+02 0.  0.
         12    1    1    2    0    0 -0.44826972947E+00 -0.43253882889E+00 -0.10024841999E+01  0.11802585140E+01  0.00000000000E+00 0. -1.
         11    1    3    3    0    0  0.72010928839E-01  0.41038843604E+02  0.28075654929E+01  0.41134830670E+02  0.51100000000E-03 0. -1.
        -11    1    3    3    0    0 -0.91097879662E+01 -0.23687348588E+01  0.32936640616E+00  0.94184724936E+01  0.51100000000E-03 0.  1.
        -12    1    3    3    0    0  0.94860467669E+01 -0.38237569917E+02 -0.21344476992E+01  0.39454438323E+02  0.00000000000E+00 0.  1.
</event>
<event>
 7    1  0.2682188E-015  0.9000794E+02  0.7816164E-02  0.1186339E+00
        -11   -1    0    0    0    0  0.00000000000E+00  0.00000000000E+00  0.45593999997E+02  0.45594000000E+02  0.51100000000E-03 0.  1.
         11   -1    0    0    0    0 -0.00000000000E+00 -0.00000000000E+00 -0.45593999997E+02  0.45594000000E+02  0.51100000000E-03 0. -1.
    9900012    2    1    2    0    0 -0.10050826954E+01 -0.25337626096E+00  0.56404303402E+00  0.90007942672E+02  0.90000206715E+02 0.  0.
         12    1    1    2    0    0  0.10050826954E+01  0.25337626096E+00 -0.56404303402E+00  0.11800573285E+01  0.00000000000E+00 0. -1.
         11    1    3    3    0    0  0.21108514257E+01  0.14997515962E+02 -0.33337846311E+02  0.36616842787E+02  0.51100000000E-03 0. -1.
        -11    1    3    3    0    0  0.22545471323E+01 -0.27391125939E+01 -0.83110919673E+01  0.90365906472E+01  0.51100000000E-03 0.  1.
        -12    1    3    3    0    0 -0.53704812535E+01 -0.12511779629E+02  0.42212981312E+02  0.44354509237E+02  0.00000000000E+00 0.  1.
</event>
<event>
 7    1  0.2682188E-015  0.9000774E+02  0.7816164E-02  0.1186339E+00
        -11   -1    0    0    0    0  0.00000000000E+00  0.00000000000E+00  0.45593999997E+02  0.45594000000E+02  0.51100000000E-03 0. -1.
         11   -1    0    0    0    0 -0.00000000000E+00 -0.00000000000E+00 -0.45593999997E+02  0.45594000000E+02  0.51100000000E-03 0.  1.
    9900012    2    1    2    0    0 -0.45566927011E+00  0.88795795980E+00  0.63000868943E+00  0.90007739533E+02  0.90000000894E+02 0.  0.
         12    1    1    2    0    0  0.45566927011E+00 -0.88795795980E+00 -0.63000868943E+00  0.11802604674E+01  0.00000000000E+00 0. -1.
         11    1    3    3    0    0 -0.49856672219E+01 -0.28571962170E+02 -0.22877450539E+02  0.36940379577E+02  0.51100000000E-03 0. -1.
        -11    1    3    3    0    0 -0.89338229974E+00  0.35830740946E+01 -0.98402959750E+01  0.10510374733E+02  0.51100000000E-03 0.  1.
        -12    1    3    3    0    0  0.54233802516E+01  0.25876846035E+02  0.33347755203E+02  0.42556985222E+02  0.00000000000E+00 0.  1.
</event>
<event>
 7    1  0.2682188E-015  0.9000763E+02  0.7816164E-02  0.1186339E+00
        -11   -1    0    0    0    0  0.00000000000E+00  0.00000000000E+00  0.45593999997E+02  0.45594000000E+02  0.51100000000E-03 0. -1.
         11   -1    0    0    0    0 -0.00000000000E+00 -0.00000000000E+00 -0.45593999997E+02  0.45594000000E+02  0.51100000000E-03 0.  1.
    9900012    2    1    2    0    0 -0.62518315018E+00 -0.28808847163E+00 -0.95886144098E+00  0.90007633870E+02  0.89999893837E+02 0.  0.
         12    1    1    2    0    0  0.62518315018E+00  0.28808847163E+00  0.95886144098E+00  0.11803661304E+01  0.00000000000E+00 0. -1.
         11    1    3    3    0    0 -0.59266802675E+01 -0.56954836633E+01 -0.21240035365E+01  0.84897269942E+01  0.51100000000E-03 0. -1.
        -11    1    3    3    0    0 -0.17419003954E+02 -0.22448253187E+01 -0.34401503813E+02  0.38625437270E+02  0.51100000000E-03 0.  1.
         12    1    3    3    0    0  0.22720501072E+02  0.76522205104E+01  0.35566645908E+02  0.42892469605E+02  0.00000000000E+00 0. -1.
</event>
<event>
 7    1  0.2682188E-015  0.9000766E+02  0.7816164E-02  0.1186339E+00
        -11   -1    0    0    0    0  0.00000000000E+00  0.00000000000E+00  0.45593999997E+02  0.45594000000E+02  0.51100000000E-03 0.  1.
         11   -1    0    0    0    0 -0.00000000000E+00 -0.00000000000E+00 -0.45593999997E+02  0.45594000000E+02  0.51100000000E-03 0. -1.
    9900012    2    1    2    0    0 -0.99101478108E+00  0.62984083231E+00  0.11994867834E+00  0.90007662143E+02  0.89999922484E+02 0.  0.
         12    1    1    2    0    0  0.99101478108E+00 -0.62984083231E+00 -0.11994867834E+00  0.11803378566E+01  0.00000000000E+00 0. -1.
         11    1    3    3    0    0  0.57356052156E+01  0.68376746413E+01  0.44266203809E+01  0.99622251504E+01  0.51100000000E-03 0. -1.
        -11    1    3    3    0    0  0.36048581829E+02  0.29414827839E+01 -0.10954254933E+01  0.36184976581E+02  0.51100000000E-03 0.  1.
         12    1    3    3    0    0 -0.42775201826E+02 -0.91493165929E+01 -0.32112462093E+01  0.43860460412E+02  0.00000000000E+00 0. -1.
</event>
<event>
 7    1  0.2682188E-015  0.9000773E+02  0.7816164E-02  0.1186339E+00
        -11   -1    0    0    0    0  0.00000000000E+00  0.00000000000E+00  0.45593999997E+02  0.45594000000E+02  0.51100000000E-03 0.  1.
         11   -1    0    0    0    0 -0.00000000000E+00 -0.00000000000E+00 -0.45593999997E+02  0.45594000000E+02  0.51100000000E-03 0. -1.
    9900012    2    1    2    0    0  0.72820915783E-01  0.97350827970E+00  0.66333878457E+00  0.90007729014E+02  0.89999990237E+02 0.  0.
         12    1    1    2    0    0 -0.72820915783E-01 -0.97350827970E+00 -0.66333878457E+00  0.11802709856E+01  0.00000000000E+00 0. -1.
         11    1    3    3    0    0  0.68975643255E+01  0.15825912963E+02 -0.20265976602E+02  0.26622278690E+02  0.51100000000E-03 0. -1.
        -11    1    3    3    0    0 -0.28308251624E+02 -0.12268118678E+02 -0.31493266125E+01  0.31012612020E+02  0.51100000000E-03 0.  1.
         12    1    3    3    0    0  0.21483508214E+02 -0.25842860055E+01  0.24078641999E+02  0.32372838305E+02  0.00000000000E+00 0. -1.
</event>
<event>
 7    1  0.2682188E-015  0.9000765E+02  0.7816164E-02  0.1186339E+00
        -11   -1    0    0    0    0  0.00000000000E+00  0.00000000000E+00  0.45593999997E+02  0.45594000000E+02  0.51100000000E-03 0. -1.
         11   -1    0    0    0    0 -0.00000000000E+00 -0.00000000000E+00 -0.45593999997E+02  0.45594000000E+02  0.51100000000E-03 0.  1.
    9900012    2    1    2    0    0  0.92432954854E+00  0.71340699153E+00 -0.17286067311E+00  0.90007654516E+02  0.89999914755E+02 0.  0.
         12    1    1    2    0    0 -0.92432954854E+00 -0.71340699153E+00  0.17286067311E+00  0.11803454842E+01  0.00000000000E+00 0. -1.
         11    1    3    3    0    0 -0.24837556796E+01  0.10239237880E+02  0.61068566342E+00  0.10553860521E+02  0.51100000000E-03 0. -1.
        -11    1    3    3    0    0  0.21078789631E+02  0.28270290940E+02 -0.10144222948E+02  0.36693732185E+02  0.51100000000E-03 0.  1.
         12    1    3    3    0    0 -0.17670704403E+02 -0.37796121829E+02  0.93606766120E+01  0.42760061811E+02  0.00000000000E+00 0. -1.
</event>
<event>
 7    1  0.2682188E-015  0.9000775E+02  0.7816164E-02  0.1186339E+00
        -11   -1    0    0    0    0  0.00000000000E+00  0.00000000000E+00  0.45593999997E+02  0.45594000000E+02  0.51100000000E-03 0. -1.
         11   -1    0    0    0    0 -0.00000000000E+00 -0.00000000000E+00 -0.45593999997E+02  0.45594000000E+02  0.51100000000E-03 0.  1.
    9900012    2    1    2    0    0  0.11754167160E+01 -0.41598936535E-01  0.98308870460E-01  0.90007745976E+02  0.90000007423E+02 0.  0.
         12    1    1    2    0    0 -0.11754167160E+01  0.41598936535E-01 -0.98308870460E-01  0.11802540243E+01  0.00000000000E+00 0. -1.
         11    1    3    3    0    0 -0.38585076543E+02  0.19376172047E+02 -0.38960768593E+01  0.43352319318E+02  0.51100000000E-03 0. -1.
        -11    1    3    3    0    0  0.89446880740E+01 -0.77794757560E+00 -0.38947341143E+01  0.97868075109E+01  0.51100000000E-03 0.  1.
        -12    1    3    3    0    0  0.30815805185E+02 -0.18639823408E+02  0.78891198441E+01  0.36868619147E+02  0.00000000000E+00 0.  1.
</event>
<event>
 7    1  0.2682188E-015  0.9000771E+02  0.7816164E-02  0.1186339E+00
        -11   -1    0    0    0    0  0.00000000000E+00  0.00000000000E+00  0.45593999997E+02  0.45594000000E+02  0.51100000000E-03 0.  1.
         11   -1    0    0    0    0 -0.00000000000E+00 -0.00000000000E+00 -0.45593999997E+02  0.45594000000E+02  0.51100000000E-03 0. -1.
    9900012    2    1    2    0    0 -0.82705951183E+00 -0.49006535816E+00  0.68475075169E+00  0.90007713982E+02  0.89999975007E+02 0.  0.
         12    1    1    2    0    0  0.82705951183E+00  0.49006535816E+00 -0.68475075169E+00  0.11802860176E+01  0.00000000000E+00 0. -1.
         11    1    3    3    0    0  0.36263425037E+01 -0.57261322755E+01 -0.31924822092E+02  0.32636378730E+02  0.51100000000E-03 0. -1.
        -11    1    3    3    0    0 -0.35594673922E+01 -0.20103926663E+02  0.76809732867E+01  0.21813643122E+02  0.51100000000E-03 0.  1.
        -12    1    3    3    0    0 -0.89393462339E+00  0.25339993580E+02  0.24928599557E+02  0.35557692130E+02  0.00000000000E+00 0.  1.
</event>
<event>
 7    1  0.2682188E-015  0.9000736E+02  0.7816164E-02  0.1186340E+00
        -11   -1    0    0    0    0  0.00000000000E+00  0.00000000000E+00  0.45593999997E+02  0.45594000000E+02  0.51100000000E-03 0.  1.
         11   -1    0    0    0    0 -0.00000000000E+00 -0.00000000000E+00 -0.45593999997E+02  0.45594000000E+02  0.51100000000E-03 0. -1.
    9900012    2    1    2    0    0 -0.66292410807E+00  0.78232161223E+00  0.58516239325E+00  0.90007360129E+02  0.89999616482E+02 0.  0.
         12    1    1    2    0    0  0.66292410807E+00 -0.78232161223E+00 -0.58516239325E+00  0.11806398708E+01  0.00000000000E+00 0. -1.
         11    1    3    3    0    0  0.88327616706E+01  0.93697319639E+01  0.58295498923E+01  0.14134822532E+02  0.51100000000E-03 0. -1.
        -11    1    3    3    0    0  0.11733135223E+02 -0.36752980331E+02 -0.11041773146E+02  0.40129400442E+02  0.51100000000E-03 0.  1.
         12    1    3    3    0    0 -0.21228821001E+02  0.28165569979E+02  0.57973856470E+01  0.35743137155E+02  0.00000000000E+00 0. -1.
</event>
<event>
 7    1  0.2682188E-015  0.9000766E+02  0.7816164E-02  0.1186339E+00
        -11   -1    0    0    0    0  0.00000000000E+00  0.00000000000E+00  0.45593999997E+02  0.45594000000E+02  0.51100000000E-03 0. -1.
         11   -1    0    0    0    0 -0.00000000000E+00 -0.00000000000E+00 -0.45593999997E+02  0.45594000000E+02  0.51100000000E-03 0.  1.
    9900012    2    1    2    0    0 -0.78786488358E+00 -0.86609068751E+00 -0.14950423399E+00  0.90007662900E+02  0.89999923250E+02 0.  0.
         12    1    1    2    0    0  0.78786488358E+00  0.86609068751E+00  0.14950423399E+00  0.11803371000E+01  0.00000000000E+00 0. -1.
         11    1    3    3    0    0 -0.93035309237E+01 -0.22771747303E+02  0.35028807940E+02  0.42803335721E+02  0.51100000000E-03 0. -1.
        -11    1    3    3    0    0  0.46772250515E+01  0.86533662446E+01 -0.46255585486E+00  0.98473925343E+01  0.51100000000E-03 0.  1.
        -12    1    3    3    0    0  0.38384409887E+01  0.13252290371E+02 -0.34715756319E+02  0.37356934645E+02  0.00000000000E+00 0.  1.
</event>
<event>
 7    1  0.2682188E-015  0.9000773E+02  0.7816164E-02  0.1186339E+00
        -11   -1    0    0    0    0  0.00000000000E+00  0.00000000000E+00  0.45593999997E+02  0.45594000000E+02  0.51100000000E-03 0.  1.
         11   -1    0    0    0    0 -0.00000000000E+00 -0.00000000000E+00 -0.45593999997E+02  0.45594000000E+02  0.51100000000E-03 0. -1.
    9900012    2    1    2    0    0 -0.95024221067E+00  0.45001653353E+00  0.53623867022E+00  0.90007734330E+02  0.89999995624E+02 0.  0.
         12    1    1    2    0    0  0.95024221067E+00 -0.45001653353E+00 -0.53623867022E+00  0.11802656696E+01  0.00000000000E+00 0. -1.
         11    1    3    3    0    0  0.23760949819E+01  0.70009490741E+01  0.66219671256E+01  0.99251984451E+01  0.51100000000E-03 0. -1.
        -11    1    3    3    0    0 -0.78861610176E+01  0.36094629426E+02 -0.20115525629E+01  0.37000812870E+02  0.51100000000E-03 0.  1.
         12    1    3    3    0    0  0.45598238251E+01 -0.42645561967E+02 -0.40741758925E+01  0.43081723016E+02  0.00000000000E+00 0. -1.
</event>
<event>
 7    1  0.2682188E-015  0.9000775E+02  0.7816164E-02  0.1186339E+00
        -11   -1    0    0    0    0  0.00000000000E+00  0.00000000000E+00  0.45593999997E+02  0.45594000000E+02  0.51100000000E-03 0.  1.
         11   -1    0    0    0    0 -0.00000000000E+00 -0.00000000000E+00 -0.45593999997E+02  0.45594000000E+02  0.51100000000E-03 0. -1.
    9900012    2    1    2    0    0  0.10793103123E+01 -0.24999334484E+00  0.40692533240E+00  0.90007747633E+02  0.90000009102E+02 0.  0.
         12    1    1    2    0    0 -0.10793103123E+01  0.24999334484E+00 -0.40692533240E+00  0.11802523666E+01  0.00000000000E+00 0. -1.
         11    1    3    3    0    0  0.87789246632E+01  0.30861832773E+01 -0.39889190521E+01  0.10124501021E+02  0.51100000000E-03 0. -1.
        -11    1    3    3    0    0 -0.22915794514E+02 -0.36598740084E+02  0.20098199173E+01  0.43227777994E+02  0.51100000000E-03 0.  1.
         12    1    3    3    0    0  0.15216180164E+02  0.33262563462E+02  0.23860244672E+01  0.36655468618E+02  0.00000000000E+00 0. -1.
</event>
<event>
 7    1  0.2682188E-015  0.9000774E+02  0.7816164E-02  0.1186339E+00
        -11   -1    0    0    0    0  0.00000000000E+00  0.00000000000E+00  0.45593999997E+02  0.45594000000E+02  0.51100000000E-03 0. -1.
         11   -1    0    0    0    0 -0.00000000000E+00 -0.00000000000E+00 -0.45593999997E+02  0.45594000000E+02  0.51100000000E-03 0.  1.
    9900012    2    1    2    0    0  0.26241143669E+00  0.45402903621E+00 -0.10573589245E+01  0.90007741544E+02  0.90000002932E+02 0.  0.
         12    1    1    2    0    0 -0.26241143669E+00 -0.45402903621E+00  0.10573589245E+01  0.11802584561E+01  0.00000000000E+00 0. -1.
         11    1    3    3    0    0 -0.22440282642E+01 -0.68893277069E+01  0.49282453364E+01  0.87627679109E+01  0.51100000000E-03 0. -1.
        -11    1    3    3    0    0 -0.32069275653E+02 -0.17464841959E+02 -0.11614948853E+02  0.38319266468E+02  0.51100000000E-03 0.  1.
         12    1    3    3    0    0  0.34575715354E+02  0.24808198702E+02  0.56293445916E+01  0.42925707165E+02  0.00000000000E+00 0. -1.
</event>
<event>
 7    1  0.2682188E-015  0.9000751E+02  0.7816164E-02  0.1186339E+00
        -11   -1    0    0    0    0  0.00000000000E+00  0.00000000000E+00  0.45593999997E+02  0.45594000000E+02  0.51100000000E-03 0.  1.
         11   -1    0    0    0    0 -0.00000000000E+00 -0.00000000000E+00 -0.45593999997E+02  0.45594000000E+02  0.51100000000E-03 0. -1.
    9900012    2    1    2    0    0  0.78755199284E+00  0.65391777373E+00  0.58796381269E+00  0.90007513642E+02  0.89999772022E+02 0.  0.
         12    1    1    2    0    0 -0.78755199284E+00 -0.65391777373E+00 -0.58796381269E+00  0.11804863579E+01  0.00000000000E+00 0. -1.
         11    1    3    3    0    0 -0.12137981425E+01  0.89298186875E+01  0.18509971655E+01  0.92000629612E+01  0.51100000000E-03 0. -1.
        -11    1    3    3    0    0 -0.31442347352E+02  0.15025469900E+02 -0.14795822918E+02  0.37858979500E+02  0.51100000000E-03 0.  1.
         12    1    3    3    0    0  0.33443697487E+02 -0.23301370814E+02  0.13532789565E+02  0.42948471181E+02  0.00000000000E+00 0. -1.
</event>
<event>
 7    1  0.2682188E-015  0.9000773E+02  0.7816164E-02  0.1186339E+00
        -11   -1    0    0    0    0  0.00000000000E+00  0.00000000000E+00  0.45593999997E+02  0.45594000000E+02  0.51100000000E-03 0. -1.
         11   -1    0    0    0    0 -0.00000000000E+00 -0.00000000000E+00 -0.45593999997E+02  0.45594000000E+02  0.51100000000E-03 0.  1.
    9900012    2    1    2    0    0  0.31289177067E+00 -0.44747505900E+00 -0.10463767438E+01  0.90007729066E+02  0.89999990289E+02 0.  0.
         12    1    1    2    0    0 -0.31289177067E+00  0.44747505900E+00  0.10463767438E+01  0.11802709344E+01  0.00000000000E+00 0. -1.
         11    1    3    3    0    0 -0.62340825799E+01 -0.37454534272E+02 -0.97434333984E+00  0.37982302042E+02  0.51100000000E-03 0. -1.
        -11    1    3    3    0    0 -0.30272248790E+01 -0.47916075437E+01  0.65215876717E+01  0.86402950957E+01  0.51100000000E-03 0.  1.
        -12    1    3    3    0    0  0.95741992296E+01  0.41798666757E+02 -0.65936210756E+01  0.43385131928E+02  0.00000000000E+00 0.  1.
</event>
<event>
 7    1  0.2682188E-015  0.9000776E+02  0.7816164E-02  0.1186339E+00
        -11   -1    0    0    0    0  0.00000000000E+00  0.00000000000E+00  0.45593999997E+02  0.45594000000E+02  0.51100000000E-03 0.  1.
         11   -1    0    0    0    0 -0.00000000000E+00 -0.00000000000E+00 -0.45593999997E+02  0.45594000000E+02  0.51100000000E-03 0. -1.
    9900012    2    1    2    0    0 -0.85331723613E-01  0.15724050946E+00  0.11665994805E+01  0.90007762554E+02  0.90000024220E+02 0.  0.
         12    1    1    2    0    0  0.85331723613E-01 -0.15724050946E+00 -0.11665994805E+01  0.11802374459E+01  0.00000000000E+00 0. -1.
         11    1    3    3    0    0 -0.54490091343E+01 -0.72932606166E+01  0.32586637453E+01  0.96696556626E+01  0.51100000000E-03 0. -1.
        -11    1    3    3    0    0 -0.14003302321E+02 -0.65667009157E+01  0.33824157777E+02  0.37192575689E+02  0.51100000000E-03 0.  1.
         12    1    3    3    0    0  0.19366979732E+02  0.14017202042E+02 -0.35916222042E+02  0.43145531203E+02  0.00000000000E+00 0. -1.
</event>
<event>
 7    1  0.2682188E-015  0.9000771E+02  0.7816164E-02  0.1186339E+00
        -11   -1    0    0    0    0  0.00000000000E+00  0.00000000000E+00  0.45593999997E+02  0.45594000000E+02  0.51100000000E-03 0.  1.
         11   -1    0    0    0    0 -0.00000000000E+00 -0.00000000000E+00 -0.45593999997E+02  0.45594000000E+02  0.51100000000E-03 0. -1.
    9900012    2    1    2    0    0 -0.17872648306E+00  0.11630730121E+01  0.91610693471E-01  0.90007714227E+02  0.89999975255E+02 0.  0.
         12    1    1    2    0    0  0.17872648306E+00 -0.11630730121E+01 -0.91610693471E-01  0.11802857732E+01  0.00000000000E+00 0. -1.
         11    1    3    3    0    0 -0.32029566152E+01  0.40888381860E+00  0.89822627828E+01  0.95450071774E+01  0.51100000000E-03 0. -1.
        -11    1    3    3    0    0 -0.32832710604E+02 -0.45463496279E+01  0.15685447028E+02  0.36670007217E+02  0.51100000000E-03 0.  1.
         12    1    3    3    0    0  0.35856940736E+02  0.53005388214E+01 -0.24576099118E+02  0.43792699832E+02  0.00000000000E+00 0. -1.
</event>
<event>
 7    1  0.2682188E-015  0.9000767E+02  0.7816164E-02  0.1186339E+00
        -11   -1    0    0    0    0  0.00000000000E+00  0.00000000000E+00  0.45593999997E+02  0.45594000000E+02  0.51100000000E-03 0.  1.
         11   -1    0    0    0    0 -0.00000000000E+00 -0.00000000000E+00 -0.45593999997E+02  0.45594000000E+02  0.51100000000E-03 0. -1.
    9900012    2    1    2    0    0  0.48754235111E+00 -0.50214686514E+00  0.95043217612E+00  0.90007673630E+02  0.89999934122E+02 0.  0.
         12    1    1    2    0    0 -0.48754235111E+00  0.50214686514E+00 -0.95043217612E+00  0.11803263700E+01  0.00000000000E+00 0. -1.
         11    1    3    3    0    0  0.11908547730E+02 -0.13724999789E+02 -0.22534271769E+02  0.28947927951E+02  0.51100000000E-03 0. -1.
        -11    1    3    3    0    0  0.14340294726E+02 -0.48105364472E+01  0.25392342611E+02  0.29555987164E+02  0.51100000000E-03 0.  1.
         12    1    3    3    0    0 -0.25761300105E+02  0.18033389371E+02 -0.19076386660E+01  0.31503758515E+02  0.00000000000E+00 0. -1.
</event>
<event>
 7    1  0.2682188E-015  0.9000768E+02  0.7816164E-02  0.1186339E+00
        -11   -1    0    0    0    0  0.00000000000E+00  0.00000000000E+00  0.45593999997E+02  0.45594000000E+02  0.51100000000E-03 0. -1.
         11   -1    0    0    0    0 -0.00000000000E+00 -0.00000000000E+00 -0.45593999997E+02  0.45594000000E+02  0.51100000000E-03 0.  1.
    9900012    2    1    2    0    0  0.10534852335E+01 -0.18530672946E+00 -0.49899370608E+00  0.90007676129E+02  0.89999936654E+02 0.  0.
         12    1    1    2    0    0 -0.10534852335E+01  0.18530672946E+00  0.49899370608E+00  0.11803238707E+01  0.00000000000E+00 0. -1.
         11    1    3    3    0    0  0.81920214520E+01  0.11794930746E+02  0.97086008845E+01  0.17334547533E+02  0.51100000000E-03 0. -1.
        -11    1    3    3    0    0 -0.24739643698E+02  0.24505281926E-01  0.22630617113E+02  0.33529023279E+02  0.51100000000E-03 0.  1.
         12    1    3    3    0    0  0.17601107480E+02 -0.12004742758E+02 -0.32838211704E+02  0.39144105318E+02  0.00000000000E+00 0. -1.
</event>
<event>
 7    1  0.2682188E-015  0.9000774E+02  0.7816164E-02  0.1186339E+00
        -11   -1    0    0    0    0  0.00000000000E+00  0.00000000000E+00  0.45593999997E+02  0.45594000000E+02  0.51100000000E-03 0.  1.
         11   -1    0    0    0    0 -0.00000000000E+00 -0.00000000000E+00 -0.45593999997E+02  0.45594000000E+02  0.51100000000E-03 0. -1.
    9900012    2    1    2    0    0 -0.87771660101E+00 -0.56758127025E+00  0.54816620574E+00  0.90007736843E+02  0.89999998170E+02 0.  0.
         12    1    1    2    0    0  0.87771660101E+00  0.56758127025E+00 -0.54816620574E+00  0.11802631567E+01  0.00000000000E+00 0. -1.
         11    1    3    3    0    0  0.66500240469E+01  0.37385349852E+02  0.46757613735E+01  0.38258985194E+02  0.51100000000E-03 0. -1.
        -11    1    3    3    0    0  0.34717360766E+01  0.31858453771E+01 -0.76871377403E+01  0.90163545323E+01  0.51100000000E-03 0.  1.
        -12    1    3    3    0    0 -0.10999476725E+02 -0.41138776499E+02  0.35595425725E+01  0.42732397117E+02  0.00000000000E+00 0.  1.
</event>
<event>
 7    1  0.2682188E-015  0.9000774E+02  0.7816164E-02  0.1186339E+00
        -11   -1    0    0    0    0  0.00000000000E+00  0.00000000000E+00  0.45593999997E+02  0.45594000000E+02  0.51100000000E-03 0.  1.
         11   -1    0    0    0    0 -0.00000000000E+00 -0.00000000000E+00 -0.45593999997E+02  0.45594000000E+02  0.51100000000E-03 0. -1.
    9900012    2    1    2    0    0  0.25532656370E+00 -0.11180433430E+01 -0.27894215852E+00  0.90007736767E+02  0.89999998093E+02 0.  0.
         12    1    1    2    0    0 -0.25532656370E+00  0.11180433430E+01  0.27894215852E+00  0.11802632328E+01  0.00000000000E+00 0. -1.
         11    1    3    3    0    0 -0.27821683357E+01 -0.10617567539E+02 -0.38544562486E+02  0.40076882346E+02  0.51100000000E-03 0. -1.
        -11    1    3    3    0    0 -0.46121393488E+00  0.64521270238E+01 -0.38717729390E+01  0.75387855372E+01  0.51100000000E-03 0.  1.
        -12    1    3    3    0    0  0.34987088342E+01  0.30473971722E+01  0.42137393266E+02  0.42392068884E+02  0.00000000000E+00 0.  1.
</event>
<event>
 7    1  0.2682188E-015  0.9000778E+02  0.7816164E-02  0.1186339E+00
        -11   -1    0    0    0    0  0.00000000000E+00  0.00000000000E+00  0.45593999997E+02  0.45594000000E+02  0.51100000000E-03 0. -1.
         11   -1    0    0    0    0 -0.00000000000E+00 -0.00000000000E+00 -0.45593999997E+02  0.45594000000E+02  0.51100000000E-03 0.  1.
    9900012    2    1    2    0    0 -0.89475718488E+00  0.42028142539E+00 -0.64474207663E+00  0.90007780003E+02  0.90000041899E+02 0.  0.
         12    1    1    2    0    0  0.89475718488E+00 -0.42028142539E+00  0.64474207663E+00  0.11802199972E+01  0.00000000000E+00 0. -1.
         11    1    3    3    0    0 -0.37947574394E+01  0.10112332481E+02 -0.37219346114E+01  0.11424195803E+02  0.51100000000E-03 0. -1.
        -11    1    3    3    0    0 -0.15016662506E+02 -0.40088664041E+02 -0.24042057619E+01  0.42876349460E+02  0.51100000000E-03 0.  1.
         12    1    3    3    0    0  0.17916662760E+02  0.30396612986E+02  0.54813982966E+01  0.35707234740E+02  0.00000000000E+00 0. -1.
</event>
<event>
 7    1  0.2682188E-015  0.9000768E+02  0.7816164E-02  0.1186339E+00
        -11   -1    0    0    0    0  0.00000000000E+00  0.00000000000E+00  0.45593999997E+02  0.45594000000E+02  0.51100000000E-03 0.  1.
         11   -1    0    0    0    0 -0.00000000000E+00 -0.00000000000E+00 -0.45593999997E+02  0.45594000000E+02  0.51100000000E-03 0. -1.
    9900012    2    1    2    0    0 -0.73142954630E+00 -0.48720531356E+00 -0.78790398583E+00  0.90007681869E+02  0.89999942470E+02 0.  0.
         12    1    1    2    0    0  0.73142954630E+00  0.48720531356E+00  0.78790398583E+00  0.11803181307E+01  0.00000000000E+00 0. -1.
         11    1    3    3    0    0  0.11659647643E+02  0.35203787444E+01  0.27767948768E+01  0.12492039053E+02  0.51100000000E-03 0. -1.
        -11    1    3    3    0    0 -0.18106187245E+01 -0.19879014352E+02  0.31677649504E+02  0.37442316035E+02  0.51100000000E-03 0.  1.
         12    1    3    3    0    0 -0.10580458465E+02  0.15871430294E+02 -0.35242348366E+02  0.40073326781E+02  0.00000000000E+00 0. -1.
</event>
<event>
 7    1  0.2682188E-015  0.9000774E+02  0.7816164E-02  0.1186339E+00
        -11   -1    0    0    0    0  0.00000000000E+00  0.00000000000E+00  0.45593999997E+02  0.45594000000E+02  0.51100000000E-03 0.  1.
         11   -1    0    0    0    0 -0.00000000000E+00 -0.00000000000E+00 -0.45593999997E+02  0.45594000000E+02  0.51100000000E-03 0. -1.
    9900012    2    1    2    0    0 -0.64183831991E-01  0.11302948482E+01 -0.33364730293E+00  0.90007743023E+02  0.90000004431E+02 0.  0.
         12    1    1    2    0    0  0.64183831991E-01 -0.11302948482E+01  0.33364730293E+00  0.11802569766E+01  0.00000000000E+00 0. -1.
         11    1    3    3    0    0 -0.60314825951E+01  0.65459922064E+01 -0.68211380297E+01  0.11214130396E+02  0.51100000000E-03 0. -1.
        -11    1    3    3    0    0  0.10126833193E+01  0.26069895137E+02 -0.23439724600E+02  0.35072576887E+02  0.51100000000E-03 0.  1.
         12    1    3    3    0    0  0.49546154439E+01 -0.31485592495E+02  0.29927215327E+02  0.43721035740E+02  0.00000000000E+00 0. -1.
</event>
<event>
 7    1  0.2682188E-015  0.9000787E+02  0.7816164E-02  0.1186339E+00
        -11   -1    0    0    0    0  0.00000000000E+00  0.00000000000E+00  0.45593999997E+02  0.45594000000E+02  0.51100000000E-03 0.  1.
         11   -1    0    0    0    0 -0.00000000000E+00 -0.00000000000E+00 -0.45593999997E+02  0.45594000000E+02  0.51100000000E-03 0. -1.
    9900012    2    1    2    0    0 -0.11712317826E-01 -0.66087103136E-01  0.11782238784E+01  0.90007866028E+02  0.90000129060E+02 0.  0.
         12    1    1    2    0    0  0.11712317826E-01  0.66087103136E-01 -0.11782238784E+01  0.11801339718E+01  0.00000000000E+00 0. -1.
         11    1    3    3    0    0  0.58925819642E+01 -0.91397568504E+01 -0.25857159794E+02  0.28050853647E+02  0.51100000000E-03 0. -1.
        -11    1    3    3    0    0 -0.37578140363E+01 -0.10489208810E+02 -0.13135347537E+02  0.17224460020E+02  0.51100000000E-03 0.  1.
        -12    1    3    3    0    0 -0.21464802457E+01  0.19562878557E+02  0.40170731209E+02  0.44732552361E+02  0.00000000000E+00 0.  1.
</event>
<event>
 7    1  0.2682188E-015  0.9000749E+02  0.7816164E-02  0.1186340E+00
        -11   -1    0    0    0    0  0.00000000000E+00  0.00000000000E+00  0.45593999997E+02  0.45594000000E+02  0.51100000000E-03 0.  1.
         11   -1    0    0    0    0 -0.00000000000E+00 -0.00000000000E+00 -0.45593999997E+02  0.45594000000E+02  0.51100000000E-03 0. -1.
    9900012    2    1    2    0    0  0.18239140346E+00 -0.46198370669E+00  0.10709421996E+01  0.90007486229E+02  0.89999744247E+02 0.  0.
         12    1    1    2    0    0 -0.18239140346E+00  0.46198370669E+00 -0.10709421996E+01  0.11805137713E+01  0.00000000000E+00 0. -1.
         11    1    3    3    0    0 -0.67550834238E+01 -0.24580829816E+01 -0.70767127479E+01  0.10087278502E+02  0.51100000000E-03 0. -1.
        -11    1    3    3    0    0 -0.24589243579E+02 -0.12573203292E+02  0.28483624483E+02  0.39674087321E+02  0.51100000000E-03 0.  1.
         12    1    3    3    0    0  0.31526718406E+02  0.14569302567E+02 -0.20335969536E+02  0.40246120405E+02  0.00000000000E+00 0. -1.
</event>
<event>
 7    1  0.2682188E-015  0.9000729E+02  0.7816164E-02  0.1186340E+00
        -11   -1    0    0    0    0  0.00000000000E+00  0.00000000000E+00  0.45593999997E+02  0.45594000000E+02  0.51100000000E-03 0.  1.
         11   -1    0    0    0    0 -0.00000000000E+00 -0.00000000000E+00 -0.45593999997E+02  0.45594000000E+02  0.51100000000E-03 0. -1.
    9900012    2    1    2    0    0  0.24926521776E+00 -0.95052912593E+00  0.65454371213E+00  0.90007294178E+02  0.89999549660E+02 0.  0.
         12    1    1    2    0    0 -0.24926521776E+00  0.95052912593E+00 -0.65454371213E+00  0.11807058224E+01  0.00000000000E+00 0. -1.
         11    1    3    3    0    0  0.10945509698E+02  0.20831726841E+02 -0.25987680236E+02  0.35058872629E+02  0.51100000000E-03 0. -1.
        -11    1    3    3    0    0  0.19487266212E+01 -0.10804409836E+01 -0.10418677042E+02  0.10654281756E+02  0.51100000000E-03 0.  1.
        -12    1    3    3    0    0 -0.12644971102E+02 -0.20701814983E+02  0.37060900990E+02  0.44294139793E+02  0.00000000000E+00 0.  1.
</event>
<event>
 7    1  0.2682188E-015  0.9000779E+02  0.7816164E-02  0.1186339E+00
        -11   -1    0    0    0    0  0.00000000000E+00  0.00000000000E+00  0.45593999997E+02  0.45594000000E+02  0.51100000000E-03 0. -1.
         11   -1    0    0    0    0 -0.00000000000E+00 -0.00000000000E+00 -0.45593999997E+02  0.45594000000E+02  0.51100000000E-03 0.  1.
    9900012    2    1    2    0    0 -0.40031337275E+00 -0.72490530147E+00 -0.84092618228E+00  0.90007790130E+02  0.90000052160E+02 0.  0.
         12    1    1    2    0    0  0.40031337275E+00  0.72490530147E+00  0.84092618228E+00  0.11802098697E+01  0.00000000000E+00 0. -1.
         11    1    3    3    0    0 -0.35181591686E+02  0.59973656556E+01 -0.99616831579E+01  0.37053311862E+02  0.51100000000E-03 0. -1.
        -11    1    3    3    0    0 -0.55294391724E+01 -0.41100913479E+01 -0.66635273125E+01  0.95848914942E+01  0.51100000000E-03 0.  1.
        -12    1    3    3    0    0  0.40310717485E+02 -0.26121796091E+01  0.15784284288E+02  0.43369586774E+02  0.00000000000E+00 0.  1.
</event>
<event>
 7    1  0.2682188E-015  0.9000765E+02  0.7816164E-02  0.1186339E+00
        -11   -1    0    0    0    0  0.00000000000E+00  0.00000000000E+00  0.45593999997E+02  0.45594000000E+02  0.51100000000E-03 0.  1.
         11   -1    0    0    0    0 -0.00000000000E+00 -0.00000000000E+00 -0.45593999997E+02  0.45594000000E+02  0.51100000000E-03 0. -1.
    9900012    2    1    2    0    0 -0.82517188769E+00  0.48178356400E+00  0.69297314106E+00  0.90007645892E+02  0.89999906017E+02 0.  0.
         12    1    1    2    0    0  0.82517188769E+00 -0.48178356400E+00 -0.69297314106E+00  0.11803541083E+01  0.00000000000E+00 0. -1.
         11    1    3    3    0    0 -0.75098293460E+01  0.37176169696E+02  0.17109135796E+01  0.37965673385E+02  0.51100000000E-03 0. -1.
        -11    1    3    3    0    0 -0.49229453606E+01  0.25809549203E+01 -0.87475752826E+01  0.10364207298E+02  0.51100000000E-03 0.  1.
        -12    1    3    3    0    0  0.11607602819E+02 -0.39275341052E+02  0.77296348440E+01  0.41677765209E+02  0.00000000000E+00 0.  1.
</event>
<event>
 7    1  0.2682188E-015  0.9000775E+02  0.7816164E-02  0.1186339E+00
        -11   -1    0    0    0    0  0.00000000000E+00  0.00000000000E+00  0.45593999997E+02  0.45594000000E+02  0.51100000000E-03 0.  1.
         11   -1    0    0    0    0 -0.00000000000E+00 -0.00000000000E+00 -0.45593999997E+02  0.45594000000E+02  0.51100000000E-03 0. -1.
    9900012    2    1    2    0    0  0.61728506123E+00  0.73508680467E+00  0.68672700245E+00  0.90007751114E+02  0.90000012629E+02 0.  0.
         12    1    1    2    0    0 -0.61728506123E+00 -0.73508680467E+00 -0.68672700245E+00  0.11802488861E+01  0.00000000000E+00 0. -1.
         11    1    3    3    0    0 -0.39174925467E+01  0.42610972030E+01 -0.65296635673E+01  0.87258354208E+01  0.51100000000E-03 0. -1.
        -11    1    3    3    0    0  0.41469043424E+02  0.76292813532E+01  0.81868432403E+00  0.42172950344E+02  0.51100000000E-03 0.  1.
         12    1    3    3    0    0 -0.36934265816E+02 -0.11155291752E+02  0.63977062457E+01  0.39108965349E+02  0.00000000000E+00 0. -1.
</event>
<event>
 7    1  0.2682188E-015  0.9000746E+02  0.7816164E-02  0.1186340E+00
        -11   -1    0    0    0    0  0.00000000000E+00  0.00000000000E+00  0.45593999997E+02  0.45594000000E+02  0.51100000000E-03 0. -1.
         11   -1    0    0    0    0 -0.00000000000E+00 -0.00000000000E+00 -0.45593999997E+02  0.45594000000E+02  0.51100000000E-03 0.  1.
    9900012    2    1    2    0    0 -0.28115060683E+00 -0.76203225750E+00  0.85669759694E+00  0.90007462157E+02  0.89999719857E+02 0.  0.
         12    1    1    2    0    0  0.28115060683E+00  0.76203225750E+00 -0.85669759694E+00  0.11805378426E+01  0.00000000000E+00 0. -1.
         11    1    3    3    0    0 -0.37701745190E+02  0.14821122111E+02 -0.26485709229E+00  0.40511200927E+02  0.51100000000E-03 0. -1.
        -11    1    3    3    0    0 -0.56216128056E+00 -0.76624260610E+01 -0.63694321667E+01  0.99799030473E+01  0.51100000000E-03 0.  1.
        -12    1    3    3    0    0  0.37982755864E+02 -0.79207283072E+01  0.74909868560E+01  0.39516358183E+02  0.00000000000E+00 0.  1.
</event>
<event>
 7    1  0.2682188E-015  0.9000768E+02  0.7816164E-02  0.1186339E+00
        -11   -1    0    0    0    0  0.00000000000E+00  0.00000000000E+00  0.45593999997E+02  0.45594000000E+02  0.51100000000E-03 0.  1.
         11   -1    0    0    0    0 -0.00000000000E+00 -0.00000000000E+00 -0.45593999997E+02  0.45594000000E+02  0.51100000000E-03 0. -1.
    9900012    2    1    2    0    0 -0.77195742413E+00  0.85665254903E+00 -0.25178083335E+00  0.90007675705E+02  0.89999936224E+02 0.  0.
         12    1    1    2    0    0  0.77195742413E+00 -0.85665254903E+00  0.25178083335E+00  0.11803242955E+01  0.00000000000E+00 0. -1.
         11    1    3    3    0    0 -0.51718527165E+01  0.20960265559E+01  0.99072393557E+01  0.11370786242E+02  0.51100000000E-03 0. -1.
        -11    1    3    3    0    0 -0.25276980869E+02 -0.82221325917E+01  0.21867372113E+02  0.34419633781E+02  0.51100000000E-03 0.  1.
         12    1    3    3    0    0  0.29676876162E+02  0.69827585849E+01 -0.32026392302E+02  0.44217255682E+02  0.00000000000E+00 0. -1.
</event>
<event>
 7    1  0.2682188E-015  0.9000777E+02  0.7816164E-02  0.1186339E+00
        -11   -1    0    0    0    0  0.00000000000E+00  0.00000000000E+00  0.45593999997E+02  0.45594000000E+02  0.51100000000E-03 0.  1.
         11   -1    0    0    0    0 -0.00000000000E+00 -0.00000000000E+00 -0.45593999997E+02  0.45594000000E+02  0.51100000000E-03 0. -1.
    9900012    2    1    2    0    0  0.10592559260E+01 -0.51061900517E+00  0.10088297049E+00  0.90007774488E+02  0.90000036311E+02 0.  0.
         12    1    1    2    0    0 -0.10592559260E+01  0.51061900517E+00 -0.10088297049E+00  0.11802255119E+01  0.00000000000E+00 0. -1.
         11    1    3    3    0    0  0.71256567720E+01 -0.17452834691E+02 -0.32019677549E+02  0.37156912866E+02  0.51100000000E-03 0. -1.
        -11    1    3    3    0    0 -0.49324840904E+01 -0.75441827117E+01 -0.34507090906E+01  0.96515017266E+01  0.51100000000E-03 0.  1.
        -12    1    3    3    0    0 -0.11339167556E+01  0.24486398397E+02  0.35571269610E+02  0.43199359895E+02  0.00000000000E+00 0.  1.
</event>
<event>
 7    1  0.2682188E-015  0.9000777E+02  0.7816164E-02  0.1186339E+00
        -11   -1    0    0    0    0  0.00000000000E+00  0.00000000000E+00  0.45593999997E+02  0.45594000000E+02  0.51100000000E-03 0.  1.
         11   -1    0    0    0    0 -0.00000000000E+00 -0.00000000000E+00 -0.45593999997E+02  0.45594000000E+02  0.51100000000E-03 0. -1.
    9900012    2    1    2    0    0 -0.26037011273E+00  0.21222938690E+00  0.11314161154E+01  0.90007772761E+02  0.90000034562E+02 0.  0.
         12    1    1    2    0    0  0.26037011273E+00 -0.21222938690E+00 -0.11314161154E+01  0.11802272385E+01  0.00000000000E+00 0. -1.
         11    1    3    3    0    0 -0.21117035571E+00 -0.23476341615E+01 -0.89057290326E+01  0.92123823704E+01  0.51100000000E-03 0. -1.
        -11    1    3    3    0    0  0.16123276578E+02 -0.35285532859E+02  0.78519793720E+01  0.39581339759E+02  0.51100000000E-03 0.  1.
         12    1    3    3    0    0 -0.16172476335E+02  0.37845396408E+02  0.21851657760E+01  0.41214050632E+02  0.00000000000E+00 0. -1.
</event>
<event>
 7    1  0.2682188E-015  0.9000769E+02  0.7816164E-02  0.1186339E+00
        -11   -1    0    0    0    0  0.00000000000E+00  0.00000000000E+00  0.45593999997E+02  0.45594000000E+02  0.51100000000E-03 0.  1.
         11   -1    0    0    0    0 -0.00000000000E+00 -0.00000000000E+00 -0.45593999997E+02  0.45594000000E+02  0.51100000000E-03 0. -1.
    9900012    2    1    2    0    0 -0.34989585907E+00  0.10003079517E+01  0.51970617158E+00  0.90007687493E+02  0.89999948167E+02 0.  0.
         12    1    1    2    0    0  0.34989585907E+00 -0.10003079517E+01 -0.51970617158E+00  0.11803125074E+01  0.00000000000E+00 0. -1.
         11    1    3    3    0    0  0.61928223334E+01  0.69038902145E+00  0.66285011565E+01  0.90975113793E+01  0.51100000000E-03 0. -1.
        -11    1    3    3    0    0 -0.33123363326E+02 -0.36709085758E+01  0.23608849267E+02  0.40841284649E+02  0.51100000000E-03 0.  1.
         12    1    3    3    0    0  0.26580645133E+02  0.39808275060E+01 -0.29717644252E+02  0.40068891465E+02  0.00000000000E+00 0. -1.
</event>
<event>
 7    1  0.2682188E-015  0.9000775E+02  0.7816164E-02  0.1186339E+00
        -11   -1    0    0    0    0  0.00000000000E+00  0.00000000000E+00  0.45593999997E+02  0.45594000000E+02  0.51100000000E-03 0.  1.
         11   -1    0    0    0    0 -0.00000000000E+00 -0.00000000000E+00 -0.45593999997E+02  0.45594000000E+02  0.51100000000E-03 0. -1.
    9900012    2    1    2    0    0 -0.49861053461E+00  0.10682754447E+01  0.56227707958E-01  0.90007751532E+02  0.90000013052E+02 0.  0.
         12    1    1    2    0    0  0.49861053461E+00 -0.10682754447E+01 -0.56227707958E-01  0.11802484679E+01  0.00000000000E+00 0. -1.
         11    1    3    3    0    0  0.14424656412E+02  0.11499726393E+02 -0.32659231760E+02  0.37509196727E+02  0.51100000000E-03 0. -1.
        -11    1    3    3    0    0 -0.47452579348E+01 -0.49565683646E+01 -0.77873221356E+01  0.10379182488E+02  0.51100000000E-03 0.  1.
        -12    1    3    3    0    0 -0.10178009012E+02 -0.54748825838E+01  0.40502781603E+02  0.42119372317E+02  0.00000000000E+00 0.  1.
</event>
<event>
 7    1  0.2682188E-015  0.9000776E+02  0.7816164E-02  0.1186339E+00
        -11   -1    0    0    0    0  0.00000000000E+00  0.00000000000E+00  0.45593999997E+02  0.45594000000E+02  0.51100000000E-03 0. -1.
         11   -1    0    0    0    0 -0.00000000000E+00 -0.00000000000E+00 -0.45593999997E+02  0.45594000000E+02  0.51100000000E-03 0.  1.
    9900012    2    1    2    0    0 -0.80535501977E+00  0.86101752866E+00  0.54945202746E-01  0.90007759826E+02  0.90000021456E+02 0.  0.
         12    1    1    2    0    0  0.80535501977E+00 -0.86101752866E+00 -0.54945202746E-01  0.11802401738E+01  0.00000000000E+00 0. -1.
         11    1    3    3    0    0 -0.16672511651E+01  0.91081623763E+01 -0.54731603515E+01  0.10756106768E+02  0.51100000000E-03 0. -1.
        -11    1    3    3    0    0  0.22796859131E+01 -0.26401319380E+02 -0.29572731001E+02  0.39708601738E+02  0.51100000000E-03 0.  1.
         12    1    3    3    0    0 -0.14177897677E+01  0.18154174532E+02  0.35100836555E+02  0.39543051320E+02  0.00000000000E+00 0. -1.
</event>
<event>
 7    1  0.2682188E-015  0.9000750E+02  0.7816164E-02  0.1186340E+00
        -11   -1    0    0    0    0  0.00000000000E+00  0.00000000000E+00  0.45593999997E+02  0.45594000000E+02  0.51100000000E-03 0.  1.
         11   -1    0    0    0    0 -0.00000000000E+00 -0.00000000000E+00 -0.45593999997E+02  0.45594000000E+02  0.51100000000E-03 0. -1.
    9900012    2    1    2    0    0 -0.70447015890E+00 -0.38610710028E+00  0.86499399086E+00  0.90007503705E+02  0.89999761954E+02 0.  0.
         12    1    1    2    0    0  0.70447015890E+00  0.38610710028E+00 -0.86499399086E+00  0.11804962947E+01  0.00000000000E+00 0. -1.
         11    1    3    3    0    0 -0.26426985100E+01  0.25202092652E+00  0.96030732811E+01  0.99632518118E+01  0.51100000000E-03 0. -1.
        -11    1    3    3    0    0  0.17113383329E+02 -0.30247848164E+02 -0.25194471406E+02  0.42925069566E+02  0.51100000000E-03 0.  1.
         12    1    3    3    0    0 -0.15175154978E+02  0.29609720138E+02  0.16456392115E+02  0.37119182328E+02  0.00000000000E+00 0. -1.
</event>
<event>
 7    1  0.2682188E-015  0.9000773E+02  0.7816164E-02  0.1186339E+00
        -11   -1    0    0    0    0  0.00000000000E+00  0.00000000000E+00  0.45593999997E+02  0.45594000000E+02  0.51100000000E-03 0. -1.
         11   -1    0    0    0    0 -0.00000000000E+00 -0.00000000000E+00 -0.45593999997E+02  0.45594000000E+02  0.51100000000E-03 0.  1.
    9900012    2    1    2    0    0 -0.35349036664E+00  0.70458272741E+00 -0.87843380547E+00  0.90007729603E+02  0.89999990834E+02 0.  0.
         12    1    1    2    0    0  0.35349036664E+00 -0.70458272741E+00  0.87843380547E+00  0.11802703968E+01  0.00000000000E+00 0. -1.
         11    1    3    3    0    0  0.26205008601E+01 -0.34762572774E+02 -0.75590997765E+01  0.35671325744E+02  0.51100000000E-03 0. -1.
        -11    1    3    3    0    0 -0.17049976547E+02  0.48422706391E+01  0.10197737828E+02  0.20448548659E+02  0.51100000000E-03 0.  1.
        -12    1    3    3    0    0  0.14075985321E+02  0.30624884863E+02 -0.35170718567E+01  0.33887855200E+02  0.00000000000E+00 0.  1.
</event>
<event>
 7    1  0.2682188E-015  0.9000765E+02  0.7816164E-02  0.1186339E+00
        -11   -1    0    0    0    0  0.00000000000E+00  0.00000000000E+00  0.45593999997E+02  0.45594000000E+02  0.51100000000E-03 0.  1.
         11   -1    0    0    0    0 -0.00000000000E+00 -0.00000000000E+00 -0.45593999997E+02  0.45594000000E+02  0.51100000000E-03 0. -1.
    9900012    2    1    2    0    0  0.36112312140E+00  0.64247833685E+00 -0.92198039771E+00  0.90007645741E+02  0.89999905865E+02 0.  0.
         12    1    1    2    0    0 -0.36112312140E+00 -0.64247833685E+00  0.92198039771E+00  0.11803542586E+01  0.00000000000E+00 0. -1.
         11    1    3    3    0    0  0.71993841663E+01 -0.50636608114E+01  0.19626824790E+02  0.21510091696E+02  0.51100000000E-03 0. -1.
        -11    1    3    3    0    0  0.16886913290E+02  0.19087614588E+01  0.16923564724E+02  0.23983708095E+02  0.51100000000E-03 0.  1.
         12    1    3    3    0    0 -0.23725174335E+02  0.37973776894E+01 -0.37472369911E+02  0.44513845950E+02  0.00000000000E+00 0. -1.
</event>
<event>
 7    1  0.2682188E-015  0.9000765E+02  0.7816164E-02  0.1186339E+00
        -11   -1    0    0    0    0  0.00000000000E+00  0.00000000000E+00  0.45593999997E+02  0.45594000000E+02  0.51100000000E-03 0.  1.
         11   -1    0    0    0    0 -0.00000000000E+00 -0.00000000000E+00 -0.45593999997E+02  0.45594000000E+02  0.51100000000E-03 0. -1.
    9900012    2    1    2    0    0 -0.88735348006E+00 -0.20871825328E+00 -0.74985075658E+00  0.90007645958E+02  0.89999906084E+02 0.  0.
         12    1    1    2    0    0  0.88735348006E+00  0.20871825328E+00  0.74985075658E+00  0.11803540422E+01  0.00000000000E+00 0. -1.
         11    1    3    3    0    0  0.89044212886E+01 -0.61835959165E+01  0.39759825425E+01  0.11547034874E+02  0.51100000000E-03 0. -1.
        -11    1    3    3    0    0  0.30125996837E+02  0.10969554224E+02  0.12875226200E+02  0.34549649134E+02  0.51100000000E-03 0.  1.
         12    1    3    3    0    0 -0.39917771606E+02 -0.49946765610E+01 -0.17601059499E+02  0.43910961950E+02  0.00000000000E+00 0. -1.
</event>
<event>
 7    1  0.2682188E-015  0.9000776E+02  0.7816164E-02  0.1186339E+00
        -11   -1    0    0    0    0  0.00000000000E+00  0.00000000000E+00  0.45593999997E+02  0.45594000000E+02  0.51100000000E-03 0. -1.
         11   -1    0    0    0    0 -0.00000000000E+00 -0.00000000000E+00 -0.45593999997E+02  0.45594000000E+02  0.51100000000E-03 0.  1.
    9900012    2    1    2    0    0  0.81251329314E+00 -0.29620853694E+00 -0.80315285262E+00  0.90007757714E+02  0.90000019316E+02 0.  0.
         12    1    1    2    0    0 -0.81251329314E+00  0.29620853694E+00  0.80315285262E+00  0.11802422860E+01  0.00000000000E+00 0. -1.
         11    1    3    3    0    0  0.17623468471E+02 -0.27079673338E+02  0.11849965268E+02  0.34413907453E+02  0.51100000000E-03 0. -1.
        -11    1    3    3    0    0  0.59054097919E+01 -0.56684459512E+01  0.75419150735E+01  0.11130392066E+02  0.51100000000E-03 0.  1.
        -12    1    3    3    0    0 -0.22716364970E+02  0.32451910752E+02 -0.20195033194E+02  0.44463458195E+02  0.00000000000E+00 0.  1.
</event>
<event>
 7    1  0.2682188E-015  0.9000769E+02  0.7816164E-02  0.1186339E+00
        -11   -1    0    0    0    0  0.00000000000E+00  0.00000000000E+00  0.45593999997E+02  0.45594000000E+02  0.51100000000E-03 0.  1.
         11   -1    0    0    0    0 -0.00000000000E+00 -0.00000000000E+00 -0.45593999997E+02  0.45594000000E+02  0.51100000000E-03 0. -1.
    9900012    2    1    2    0    0 -0.45861402907E+00  0.49530069892E+00  0.96823483207E+00  0.90007691439E+02  0.89999952166E+02 0.  0.
         12    1    1    2    0    0  0.45861402907E+00 -0.49530069892E+00 -0.96823483207E+00  0.11803085614E+01  0.00000000000E+00 0. -1.
         11    1    3    3    0    0 -0.28821335655E+02  0.63256415977E+01 -0.26369186881E+02  0.39572934533E+02  0.51100000000E-03 0. -1.
        -11    1    3    3    0    0 -0.23406428576E+00 -0.65798676932E+01 -0.42362942797E+01  0.78291528555E+01  0.51100000000E-03 0.  1.
        -12    1    3    3    0    0  0.28596785912E+02  0.74952679439E+00  0.31573715992E+02  0.42605604050E+02  0.00000000000E+00 0.  1.
</event>
<event>
 7    1  0.2682188E-015  0.9000763E+02  0.7816164E-02  0.1186339E+00
        -11   -1    0    0    0    0  0.00000000000E+00  0.00000000000E+00  0.45593999997E+02  0.45594000000E+02  0.51100000000E-03 0.  1.
         11   -1    0    0    0    0 -0.00000000000E+00 -0.00000000000E+00 -0.45593999997E+02  0.45594000000E+02  0.51100000000E-03 0. -1.
    9900012    2    1    2    0    0  0.60077008048E-01 -0.76650775938E+00  0.89561707918E+00  0.90007629997E+02  0.89999889913E+02 0.  0.
         12    1    1    2    0    0 -0.60077008048E-01  0.76650775938E+00 -0.89561707918E+00  0.11803700033E+01  0.00000000000E+00 0. -1.
         11    1    3    3    0    0 -0.22344469400E+02 -0.24941460147E+02  0.13639641069E+02  0.36157869901E+02  0.51100000000E-03 0. -1.
        -11    1    3    3    0    0 -0.37629702680E+01 -0.38842523551E+01  0.84389221444E+01  0.10023111733E+02  0.51100000000E-03 0.  1.
        -12    1    3    3    0    0  0.26167516676E+02  0.28059204743E+02 -0.21182946135E+02  0.43826648363E+02  0.00000000000E+00 0.  1.
</event>
<event>
 7    1  0.2682188E-015  0.9000763E+02  0.7816164E-02  0.1186339E+00
        -11   -1    0    0    0    0  0.00000000000E+00  0.00000000000E+00  0.45593999997E+02  0.45594000000E+02  0.51100000000E-03 0.  1.
         11   -1    0    0    0    0 -0.00000000000E+00 -0.00000000000E+00 -0.45593999997E+02  0.45594000000E+02  0.51100000000E-03 0. -1.
    9900012    2    1    2    0    0 -0.64160762654E+00 -0.63561193607E+00  0.75999965121E+00  0.90007634654E+02  0.89999894632E+02 0.  0.
         12    1    1    2    0    0  0.64160762654E+00  0.63561193607E+00 -0.75999965121E+00  0.11803653458E+01  0.00000000000E+00 0. -1.
         11    1    3    3    0    0 -0.27999009914E+02  0.15163868892E+02 -0.19332261638E+02  0.37250823027E+02  0.51100000000E-03 0. -1.
        -11    1    3    3    0    0  0.11818728727E+01  0.23385631269E+01 -0.91525189332E+01  0.95202050435E+01  0.51100000000E-03 0.  1.
        -12    1    3    3    0    0  0.26175529414E+02 -0.18138043955E+02  0.29244780222E+02  0.43236606584E+02  0.00000000000E+00 0.  1.
</event>
<event>
 7    1  0.2682188E-015  0.9000774E+02  0.7816164E-02  0.1186339E+00
        -11   -1    0    0    0    0  0.00000000000E+00  0.00000000000E+00  0.45593999997E+02  0.45594000000E+02  0.51100000000E-03 0. -1.
         11   -1    0    0    0    0 -0.00000000000E+00 -0.00000000000E+00 -0.45593999997E+02  0.45594000000E+02  0.51100000000E-03 0.  1.
    9900012    2    1    2    0    0  0.11364423898E+01 -0.11499760106E+00 -0.29711896779E+00  0.90007743488E+02  0.90000004902E+02 0.  0.
         12    1    1    2    0    0 -0.11364423898E+01  0.11499760106E+00  0.29711896779E+00  0.11802565122E+01  0.00000000000E+00 0. -1.
         11    1    3    3    0    0 -0.82071624734E+01 -0.50657231684E+00  0.36638549698E+01  0.90021089128E+01  0.51100000000E-03 0. -1.
        -11    1    3    3    0    0  0.35658894257E+02 -0.22806400329E+02  0.95861233121E+01  0.43400258018E+02  0.51100000000E-03 0.  1.
         12    1    3    3    0    0 -0.26315289394E+02  0.23197975045E+02 -0.13547097250E+02  0.37605376557E+02  0.00000000000E+00 0. -1.
</event>
<event>
 7    1  0.2682188E-015  0.9000811E+02  0.7816164E-02  0.1186338E+00
        -11   -1    0    0    0    0  0.00000000000E+00  0.00000000000E+00  0.45593999997E+02  0.45594000000E+02  0.51100000000E-03 0. -1.
         11   -1    0    0    0    0 -0.00000000000E+00 -0.00000000000E+00 -0.45593999997E+02  0.45594000000E+02  0.51100000000E-03 0.  1.
    9900012    2    1    2    0    0 -0.95273913037E+00 -0.23514241815E+00 -0.65509219179E+00  0.90008106112E+02  0.90000372312E+02 0.  0.
         12    1    1    2    0    0  0.95273913037E+00  0.23514241815E+00  0.65509219179E+00  0.11798938881E+01  0.00000000000E+00 0. -1.
         11    1    3    3    0    0  0.23919748684E+02  0.32677877107E+02  0.95457533039E+01  0.41606723444E+02  0.51100000000E-03 0. -1.
        -11    1    3    3    0    0 -0.93822601306E+01  0.74006504961E+00  0.15441388587E+01  0.95372357899E+01  0.51100000000E-03 0.  1.
        -12    1    3    3    0    0 -0.15490227684E+02 -0.33653084575E+02 -0.11744984354E+02  0.38864146878E+02  0.00000000000E+00 0.  1.
</event>
<event>
 7    1  0.2682188E-015  0.9000776E+02  0.7816164E-02  0.1186339E+00
        -11   -1    0    0    0    0  0.00000000000E+00  0.00000000000E+00  0.45593999997E+02  0.45594000000E+02  0.51100000000E-03 0. -1.
         11   -1    0    0    0    0 -0.00000000000E+00 -0.00000000000E+00 -0.45593999997E+02  0.45594000000E+02  0.51100000000E-03 0.  1.
    9900012    2    1    2    0    0 -0.15001492925E+00 -0.11385816306E+01 -0.27221257867E+00  0.90007757526E+02  0.90000019126E+02 0.  0.
         12    1    1    2    0    0  0.15001492925E+00  0.11385816306E+01  0.27221257867E+00  0.11802424736E+01  0.00000000000E+00 0. -1.
         11    1    3    3    0    0  0.60131019201E+01 -0.70172279743E+01  0.46079524833E+01  0.10326282462E+02  0.51100000000E-03 0. -1.
        -11    1    3    3    0    0  0.20147735033E+02 -0.29322458758E+02 -0.27173720819E+01  0.35680834153E+02  0.51100000000E-03 0.  1.
         12    1    3    3    0    0 -0.26310851882E+02  0.35201105101E+02 -0.21627929800E+01  0.44000640911E+02  0.00000000000E+00 0. -1.
</event>
<event>
 7    1  0.2682188E-015  0.9000755E+02  0.7816164E-02  0.1186339E+00
        -11   -1    0    0    0    0  0.00000000000E+00  0.00000000000E+00  0.45593999997E+02  0.45594000000E+02  0.51100000000E-03 0. -1.
         11   -1    0    0    0    0 -0.00000000000E+00 -0.00000000000E+00 -0.45593999997E+02  0.45594000000E+02  0.51100000000E-03 0.  1.
    9900012    2    1    2    0    0 -0.18004059587E+00 -0.47340230599E+00 -0.10662688809E+01  0.90007553607E+02  0.89999812515E+02 0.  0.
         12    1    1    2    0    0  0.18004059587E+00  0.47340230599E+00  0.10662688809E+01  0.11804463926E+01  0.00000000000E+00 0. -1.
         11    1    3    3    0    0 -0.29119578266E+01  0.47138815134E-01  0.93957898413E+01  0.98367976219E+01  0.51100000000E-03 0. -1.
        -11    1    3    3    0    0 -0.18984115553E+02  0.22256286224E+02  0.20736219047E+02  0.35857073228E+02  0.51100000000E-03 0.  1.
         12    1    3    3    0    0  0.21716032784E+02 -0.22776827345E+02 -0.31198277769E+02  0.44313682758E+02  0.00000000000E+00 0. -1.
</event>
<event>
 7    1  0.2682188E-015  0.9000774E+02  0.7816164E-02  0.1186339E+00
        -11   -1    0    0    0    0  0.00000000000E+00  0.00000000000E+00  0.45593999997E+02  0.45594000000E+02  0.51100000000E-03 0. -1.
         11   -1    0    0    0    0 -0.00000000000E+00 -0.00000000000E+00 -0.45593999997E+02  0.45594000000E+02  0.51100000000E-03 0.  1.
    9900012    2    1    2    0    0  0.93164437791E+00  0.63810779040E+00 -0.34331918154E+00  0.90007741190E+02  0.90000002573E+02 0.  0.
         12    1    1    2    0    0 -0.93164437791E+00 -0.63810779040E+00  0.34331918154E+00  0.11802588104E+01  0.00000000000E+00 0. -1.
         11    1    3    3    0    0 -0.76694322961E+01 -0.18684587007E+02  0.29554649105E+02  0.35796805268E+02  0.51100000000E-03 0. -1.
        -11    1    3    3    0    0  0.11605951709E+01 -0.95008603792E+01  0.28189585678E+01  0.99779685690E+01  0.51100000000E-03 0.  1.
        -12    1    3    3    0    0  0.74404815031E+01  0.28823555177E+02 -0.32716926855E+02  0.44232967353E+02  0.00000000000E+00 0.  1.
</event>
<event>
 7    1  0.2682188E-015  0.9000779E+02  0.7816164E-02  0.1186339E+00
        -11   -1    0    0    0    0  0.00000000000E+00  0.00000000000E+00  0.45593999997E+02  0.45594000000E+02  0.51100000000E-03 0. -1.
         11   -1    0    0    0    0 -0.00000000000E+00 -0.00000000000E+00 -0.45593999997E+02  0.45594000000E+02  0.51100000000E-03 0.  1.
    9900012    2    1    2    0    0 -0.18594317879E+00  0.77616150123E+00 -0.86941821671E+00  0.90007792570E+02  0.90000054632E+02 0.  0.
         12    1    1    2    0    0  0.18594317879E+00 -0.77616150123E+00  0.86941821671E+00  0.11802074298E+01  0.00000000000E+00 0. -1.
         11    1    3    3    0    0 -0.26222826521E+02 -0.22233962728E+02  0.23466649564E+02  0.41625345300E+02  0.51100000000E-03 0. -1.
        -11    1    3    3    0    0  0.91966120031E+01 -0.19472027314E+00  0.20421127203E+01  0.94226224027E+01  0.51100000000E-03 0.  1.
        -12    1    3    3    0    0  0.16840271340E+02  0.23204844502E+02 -0.26378180501E+02  0.38959824867E+02  0.00000000000E+00 0.  1.
</event>
<event>
 7    1  0.2682188E-015  0.9000782E+02  0.7816164E-02  0.1186339E+00
        -11   -1    0    0    0    0  0.00000000000E+00  0.00000000000E+00  0.45593999997E+02  0.45594000000E+02  0.51100000000E-03 0.  1.
         11   -1    0    0    0    0 -0.00000000000E+00 -0.00000000000E+00 -0.45593999997E+02  0.45594000000E+02  0.51100000000E-03 0. -1.
    9900012    2    1    2    0    0  0.69396047178E+00 -0.41092678293E+00  0.86161854071E+00  0.90007818460E+02  0.90000080864E+02 0.  0.
         12    1    1    2    0    0 -0.69396047178E+00  0.41092678293E+00 -0.86161854071E+00  0.11801815399E+01  0.00000000000E+00 0. -1.
         11    1    3    3    0    0 -0.69073805874E+01 -0.59120136467E+01  0.45108078929E+01  0.10149443337E+02  0.51100000000E-03 0. -1.
        -11    1    3    3    0    0  0.19545335648E+02 -0.26673183400E+02 -0.23168212210E+02  0.40376291503E+02  0.51100000000E-03 0.  1.
         12    1    3    3    0    0 -0.11943994589E+02  0.32174270263E+02  0.19519022857E+02  0.39482083621E+02  0.00000000000E+00 0. -1.
</event>
<event>
 7    1  0.2682188E-015  0.9000775E+02  0.7816164E-02  0.1186339E+00
        -11   -1    0    0    0    0  0.00000000000E+00  0.00000000000E+00  0.45593999997E+02  0.45594000000E+02  0.51100000000E-03 0.  1.
         11   -1    0    0    0    0 -0.00000000000E+00 -0.00000000000E+00 -0.45593999997E+02  0.45594000000E+02  0.51100000000E-03 0. -1.
    9900012    2    1    2    0    0  0.80731448907E+00 -0.69764977601E+00 -0.50449741895E+00  0.90007750221E+02  0.90000011724E+02 0.  0.
         12    1    1    2    0    0 -0.80731448907E+00  0.69764977601E+00  0.50449741895E+00  0.11802497786E+01  0.00000000000E+00 0. -1.
         11    1    3    3    0    0  0.29710096379E+01 -0.76344738724E+01  0.42321191274E+01  0.92207875014E+01  0.51100000000E-03 0. -1.
        -11    1    3    3    0    0  0.18170072261E+02  0.15174379571E+02  0.30907719398E+02  0.38931997636E+02  0.51100000000E-03 0.  1.
         12    1    3    3    0    0 -0.20333767410E+02 -0.82375554744E+01 -0.35644335944E+02  0.41854965084E+02  0.00000000000E+00 0. -1.
</event>
<event>
 7    1  0.2682188E-015  0.9000775E+02  0.7816164E-02  0.1186339E+00
        -11   -1    0    0    0    0  0.00000000000E+00  0.00000000000E+00  0.45593999997E+02  0.45594000000E+02  0.51100000000E-03 0.  1.
         11   -1    0    0    0    0 -0.00000000000E+00 -0.00000000000E+00 -0.45593999997E+02  0.45594000000E+02  0.51100000000E-03 0. -1.
    9900012    2    1    2    0    0 -0.57356388379E+00 -0.78290046639E+00 -0.67161766952E+00  0.90007754702E+02  0.90000016264E+02 0.  0.
         12    1    1    2    0    0  0.57356388379E+00  0.78290046639E+00  0.67161766952E+00  0.11802452978E+01  0.00000000000E+00 0. -1.
         11    1    3    3    0    0  0.49428764754E+01  0.32224156919E+01 -0.76111182097E+01  0.96304263356E+01  0.51100000000E-03 0. -1.
        -11    1    3    3    0    0  0.35935484823E+02  0.56598932849E+01  0.99275815169E+01  0.37708756762E+02  0.51100000000E-03 0.  1.
         12    1    3    3    0    0 -0.41451925182E+02 -0.96652094432E+01 -0.29880809767E+01  0.42668571605E+02  0.00000000000E+00 0. -1.
</event>
<event>
 7    1  0.2682188E-015  0.9000782E+02  0.7816164E-02  0.1186339E+00
        -11   -1    0    0    0    0  0.00000000000E+00  0.00000000000E+00  0.45593999997E+02  0.45594000000E+02  0.51100000000E-03 0.  1.
         11   -1    0    0    0    0 -0.00000000000E+00 -0.00000000000E+00 -0.45593999997E+02  0.45594000000E+02  0.51100000000E-03 0. -1.
    9900012    2    1    2    0    0  0.64979397360E+00  0.74344673062E+00  0.64642737206E+00  0.90007824760E+02  0.90000087247E+02 0.  0.
         12    1    1    2    0    0 -0.64979397360E+00 -0.74344673062E+00 -0.64642737206E+00  0.11801752398E+01  0.00000000000E+00 0. -1.
         11    1    3    3    0    0  0.11645232995E+00  0.88431241919E+01 -0.40322084600E+01  0.97197279768E+01  0.51100000000E-03 0. -1.
        -11    1    3    3    0    0 -0.91530646481E+01  0.26040947345E+02  0.26797687386E+02  0.38471100590E+02  0.51100000000E-03 0.  1.
         12    1    3    3    0    0  0.96864062918E+01 -0.34140624806E+02 -0.22119051554E+02  0.41816996194E+02  0.00000000000E+00 0. -1.
</event>
<event>
 7    1  0.2682188E-015  0.9000775E+02  0.7816164E-02  0.1186339E+00
        -11   -1    0    0    0    0  0.00000000000E+00  0.00000000000E+00  0.45593999997E+02  0.45594000000E+02  0.51100000000E-03 0.  1.
         11   -1    0    0    0    0 -0.00000000000E+00 -0.00000000000E+00 -0.45593999997E+02  0.45594000000E+02  0.51100000000E-03 0. -1.
    9900012    2    1    2    0    0 -0.52899213141E+00 -0.28120993990E+00 -0.10169010428E+01  0.90007746029E+02  0.90000007476E+02 0.  0.
         12    1    1    2    0    0  0.52899213141E+00  0.28120993990E+00  0.10169010428E+01  0.11802539711E+01  0.00000000000E+00 0. -1.
         11    1    3    3    0    0 -0.85536649661E+01 -0.23523271251E+01  0.30806160981E+01  0.93908904296E+01  0.51100000000E-03 0. -1.
        -11    1    3    3    0    0 -0.88081740052E+01 -0.35642338549E+02 -0.11883422925E+02  0.38589842798E+02  0.51100000000E-03 0.  1.
         12    1    3    3    0    0  0.16832846840E+02  0.37713455734E+02  0.77859057836E+01  0.42027012801E+02  0.00000000000E+00 0. -1.
</event>
<event>
 7    1  0.2682188E-015  0.9000773E+02  0.7816164E-02  0.1186339E+00
        -11   -1    0    0    0    0  0.00000000000E+00  0.00000000000E+00  0.45593999997E+02  0.45594000000E+02  0.51100000000E-03 0. -1.
         11   -1    0    0    0    0 -0.00000000000E+00 -0.00000000000E+00 -0.45593999997E+02  0.45594000000E+02  0.51100000000E-03 0.  1.
    9900012    2    1    2    0    0 -0.11801426796E+01  0.27968810265E-04 -0.17208939312E-01  0.90007731856E+02  0.89999993116E+02 0.  0.
         12    1    1    2    0    0  0.11801426796E+01 -0.27968810265E-04  0.17208939312E-01  0.11802681443E+01  0.00000000000E+00 0. -1.
         11    1    3    3    0    0  0.30484989172E+01  0.45432116692E+01  0.53397773067E+01  0.76450859947E+01  0.51100000000E-03 0. -1.
        -11    1    3    3    0    0  0.16022955233E+02  0.34197909697E+02  0.28924814438E+01  0.37876094984E+02  0.51100000000E-03 0.  1.
         12    1    3    3    0    0 -0.20251596830E+02 -0.38741093397E+02 -0.82494676898E+01  0.44486550877E+02  0.00000000000E+00 0. -1.
</event>
<event>
 7    1  0.2682188E-015  0.9000784E+02  0.7816164E-02  0.1186339E+00
        -11   -1    0    0    0    0  0.00000000000E+00  0.00000000000E+00  0.45593999997E+02  0.45594000000E+02  0.51100000000E-03 0.  1.
         11   -1    0    0    0    0 -0.00000000000E+00 -0.00000000000E+00 -0.45593999997E+02  0.45594000000E+02  0.51100000000E-03 0. -1.
    9900012    2    1    2    0    0  0.20952080455E+00  0.88781975902E+00  0.74877035266E+00  0.90007839022E+02  0.90000101697E+02 0.  0.
         12    1    1    2    0    0 -0.20952080455E+00 -0.88781975902E+00 -0.74877035266E+00  0.11801609776E+01  0.00000000000E+00 0. -1.
         11    1    3    3    0    0 -0.12659972234E+02  0.99680427299E+01  0.47664334415E+01  0.16803441934E+02  0.51100000000E-03 0. -1.
        -11    1    3    3    0    0  0.92254918763E+01 -0.42552452232E+01  0.33600784646E+02  0.35103127231E+02  0.51100000000E-03 0.  1.
         12    1    3    3    0    0  0.36440011618E+01 -0.48249777477E+01 -0.37618447735E+02  0.38101269857E+02  0.00000000000E+00 0. -1.
</event>
<event>
 7    1  0.2682188E-015  0.9000806E+02  0.7816164E-02  0.1186338E+00
        -11   -1    0    0    0    0  0.00000000000E+00  0.00000000000E+00  0.45593999997E+02  0.45594000000E+02  0.51100000000E-03 0. -1.
         11   -1    0    0    0    0 -0.00000000000E+00 -0.00000000000E+00 -0.45593999997E+02  0.45594000000E+02  0.51100000000E-03 0.  1.
    9900012    2    1    2    0    0  0.94385397240E+00  0.47085744816E+00 -0.52884840155E+00  0.90008064540E+02  0.90000330191E+02 0.  0.
         12    1    1    2    0    0 -0.94385397240E+00 -0.47085744816E+00  0.52884840155E+00  0.11799354599E+01  0.00000000000E+00 0. -1.
         11    1    3    3    0    0 -0.66133940091E+01  0.13835507123E+02  0.88741747039E+01  0.17717483303E+02  0.51100000000E-03 0. -1.
        -11    1    3    3    0    0 -0.50993211615E+01  0.22536530036E+02 -0.22286434062E+02  0.32102700912E+02  0.51100000000E-03 0.  1.
         12    1    3    3    0    0  0.12656569143E+02 -0.35901179711E+02  0.12883410957E+02  0.40187880325E+02  0.00000000000E+00 0. -1.
</event>
<event>
 7    1  0.2682188E-015  0.9000776E+02  0.7816164E-02  0.1186339E+00
        -11   -1    0    0    0    0  0.00000000000E+00  0.00000000000E+00  0.45593999997E+02  0.45594000000E+02  0.51100000000E-03 0. -1.
         11   -1    0    0    0    0 -0.00000000000E+00 -0.00000000000E+00 -0.45593999997E+02  0.45594000000E+02  0.51100000000E-03 0.  1.
    9900012    2    1    2    0    0 -0.40108500537E+00  0.10038384300E+01 -0.47372690719E+00  0.90007755128E+02  0.90000016696E+02 0.  0.
         12    1    1    2    0    0  0.40108500537E+00 -0.10038384300E+01  0.47372690719E+00  0.11802448719E+01  0.00000000000E+00 0. -1.
         11    1    3    3    0    0  0.15244005637E+02  0.12859177979E+02  0.33206391755E+02  0.38735030912E+02  0.51100000000E-03 0. -1.
        -11    1    3    3    0    0  0.56168306888E+01 -0.63659558975E+01  0.25875666919E+01  0.88752286236E+01  0.51100000000E-03 0.  1.
        -12    1    3    3    0    0 -0.21261921332E+02 -0.54893836510E+01 -0.36267685354E+02  0.42397495592E+02  0.00000000000E+00 0.  1.
</event>
<event>
 7    1  0.2682188E-015  0.9000776E+02  0.7816164E-02  0.1186339E+00
        -11   -1    0    0    0    0  0.00000000000E+00  0.00000000000E+00  0.45593999997E+02  0.45594000000E+02  0.51100000000E-03 0. -1.
         11   -1    0    0    0    0 -0.00000000000E+00 -0.00000000000E+00 -0.45593999997E+02  0.45594000000E+02  0.51100000000E-03 0.  1.
    9900012    2    1    2    0    0  0.21553112201E+00 -0.55808029291E+00 -0.10173826967E+01  0.90007756453E+02  0.90000018039E+02 0.  0.
         12    1    1    2    0    0 -0.21553112201E+00  0.55808029291E+00  0.10173826967E+01  0.11802435467E+01  0.00000000000E+00 0. -1.
         11    1    3    3    0    0  0.31920548119E+02  0.11567841579E+02 -0.13251358587E+02  0.36446328425E+02  0.51100000000E-03 0. -1.
        -11    1    3    3    0    0  0.52020599016E+01  0.78499701530E+01 -0.12093613011E+01  0.94945254563E+01  0.51100000000E-03 0.  1.
        -12    1    3    3    0    0 -0.36907076899E+02 -0.19975892025E+02  0.13443337191E+02  0.44066902572E+02  0.00000000000E+00 0.  1.
</event>
<event>
 7    1  0.2682188E-015  0.9000779E+02  0.7816164E-02  0.1186339E+00
        -11   -1    0    0    0    0  0.00000000000E+00  0.00000000000E+00  0.45593999997E+02  0.45594000000E+02  0.51100000000E-03 0. -1.
         11   -1    0    0    0    0 -0.00000000000E+00 -0.00000000000E+00 -0.45593999997E+02  0.45594000000E+02  0.51100000000E-03 0.  1.
    9900012    2    1    2    0    0  0.90364333870E+00 -0.74847762570E+00 -0.12692023832E+00  0.90007788669E+02  0.90000050679E+02 0.  0.
         12    1    1    2    0    0 -0.90364333870E+00  0.74847762570E+00  0.12692023832E+00  0.11802113313E+01  0.00000000000E+00 0. -1.
         11    1    3    3    0    0 -0.86659454417E+01 -0.21567517773E+00  0.24076999218E+01  0.89967852789E+01  0.51100000000E-03 0. -1.
        -11    1    3    3    0    0 -0.32277063496E+02  0.12662606668E+01 -0.17245789764E+02  0.36617338910E+02  0.51100000000E-03 0.  1.
         12    1    3    3    0    0  0.41846652276E+02 -0.17990631147E+01  0.14711169604E+02  0.44393664480E+02  0.00000000000E+00 0. -1.
</event>
<event>
 7    1  0.2682188E-015  0.9000773E+02  0.7816164E-02  0.1186339E+00
        -11   -1    0    0    0    0  0.00000000000E+00  0.00000000000E+00  0.45593999997E+02  0.45594000000E+02  0.51100000000E-03 0. -1.
         11   -1    0    0    0    0 -0.00000000000E+00 -0.00000000000E+00 -0.45593999997E+02  0.45594000000E+02  0.51100000000E-03 0.  1.
    9900012    2    1    2    0    0 -0.48864847115E+00 -0.52190230658E+00 -0.93907947122E+00  0.90007733251E+02  0.89999994530E+02 0.  0.
         12    1    1    2    0    0  0.48864847115E+00  0.52190230658E+00  0.93907947122E+00  0.11802667492E+01  0.00000000000E+00 0. -1.
         11    1    3    3    0    0  0.16112853240E+02 -0.94295059706E+01 -0.29419993409E+01  0.18899602714E+02  0.51100000000E-03 0. -1.
        -11    1    3    3    0    0  0.17007071377E+02 -0.13985490820E+02 -0.15406134782E+02  0.26873470552E+02  0.51100000000E-03 0.  1.
         12    1    3    3    0    0 -0.33608573088E+02  0.22893094485E+02  0.17409054652E+02  0.44234659985E+02  0.00000000000E+00 0. -1.
</event>
<event>
 7    1  0.2682188E-015  0.9000745E+02  0.7816164E-02  0.1186340E+00
        -11   -1    0    0    0    0  0.00000000000E+00  0.00000000000E+00  0.45593999997E+02  0.45594000000E+02  0.51100000000E-03 0.  1.
         11   -1    0    0    0    0 -0.00000000000E+00 -0.00000000000E+00 -0.45593999997E+02  0.45594000000E+02  0.51100000000E-03 0. -1.
    9900012    2    1    2    0    0 -0.64429348645E+00  0.31006290146E+00  0.93939156980E+00  0.90007445206E+02  0.89999702683E+02 0.  0.
         12    1    1    2    0    0  0.64429348645E+00 -0.31006290146E+00 -0.93939156980E+00  0.11805547937E+01  0.00000000000E+00 0. -1.
         11    1    3    3    0    0  0.65818199380E+01  0.59104861687E+01  0.11577031697E+01  0.89215737029E+01  0.51100000000E-03 0. -1.
        -11    1    3    3    0    0  0.31078690397E+02 -0.22787096149E+02 -0.48750591223E+01  0.38844600003E+02  0.51100000000E-03 0.  1.
         12    1    3    3    0    0 -0.38304803821E+02  0.17186672882E+02  0.46567475225E+01  0.42241271501E+02  0.00000000000E+00 0. -1.
</event>
<event>
 7    1  0.2682188E-015  0.9000764E+02  0.7816164E-02  0.1186339E+00
        -11   -1    0    0    0    0  0.00000000000E+00  0.00000000000E+00  0.45593999997E+02  0.45594000000E+02  0.51100000000E-03 0.  1.
         11   -1    0    0    0    0 -0.00000000000E+00 -0.00000000000E+00 -0.45593999997E+02  0.45594000000E+02  0.51100000000E-03 0. -1.
    9900012    2    1    2    0    0  0.90575221951E+00 -0.72536068571E+00  0.21614239915E+00  0.90007638723E+02  0.89999898754E+02 0.  0.
         12    1    1    2    0    0 -0.90575221951E+00  0.72536068571E+00 -0.21614239915E+00  0.11803612770E+01  0.00000000000E+00 0. -1.
         11    1    3    3    0    0 -0.42190311351E+01  0.78387223280E+01 -0.11435139698E+01  0.89751554813E+01  0.51100000000E-03 0. -1.
        -11    1    3    3    0    0  0.66606501160E+01  0.35485591165E+02 -0.51750126710E+01  0.36474267597E+02  0.51100000000E-03 0.  1.
         12    1    3    3    0    0 -0.15358667614E+01 -0.44049674179E+02  0.65346690399E+01  0.44558215645E+02  0.00000000000E+00 0. -1.
</event>
<event>
 7    1  0.2682188E-015  0.9000764E+02  0.7816164E-02  0.1186339E+00
        -11   -1    0    0    0    0  0.00000000000E+00  0.00000000000E+00  0.45593999997E+02  0.45594000000E+02  0.51100000000E-03 0.  1.
         11   -1    0    0    0    0 -0.00000000000E+00 -0.00000000000E+00 -0.45593999997E+02  0.45594000000E+02  0.51100000000E-03 0. -1.
    9900012    2    1    2    0    0  0.10127649478E+01 -0.51965848126E+00 -0.31227209805E+00  0.90007639191E+02  0.89999899228E+02 0.  0.
         12    1    1    2    0    0 -0.10127649478E+01  0.51965848126E+00  0.31227209805E+00  0.11803608092E+01  0.00000000000E+00 0. -1.
         11    1    3    3    0    0  0.30246392288E+02  0.18567489349E+02 -0.42053014890E+01  0.35739060817E+02  0.51100000000E-03 0. -1.
        -11    1    3    3    0    0  0.10214817436E+02 -0.32120696957E+00 -0.11916356330E+01  0.10289104184E+02  0.51100000000E-03 0.  1.
        -12    1    3    3    0    0 -0.39448444776E+02 -0.18765940861E+02  0.50846650239E+01  0.43979474190E+02  0.00000000000E+00 0.  1.
</event>
<event>
 7    1  0.2682188E-015  0.9000818E+02  0.7816164E-02  0.1186338E+00
        -11   -1    0    0    0    0  0.00000000000E+00  0.00000000000E+00  0.45593999997E+02  0.45594000000E+02  0.51100000000E-03 0. -1.
         11   -1    0    0    0    0 -0.00000000000E+00 -0.00000000000E+00 -0.45593999997E+02  0.45594000000E+02  0.51100000000E-03 0.  1.
    9900012    2    1    2    0    0  0.10629732289E+01 -0.16770974090E-01 -0.51163516189E+00  0.90008184807E+02  0.90000452045E+02 0.  0.
         12    1    1    2    0    0 -0.10629732289E+01  0.16770974090E-01  0.51163516189E+00  0.11798151931E+01  0.00000000000E+00 0. -1.
         11    1    3    3    0    0 -0.16303228018E+02 -0.34266499281E+02 -0.70067556011E+01  0.38588636166E+02  0.51100000000E-03 0. -1.
        -11    1    3    3    0    0 -0.80490727666E+01  0.15225124452E+01  0.56916230745E+01  0.99749781971E+01  0.51100000000E-03 0.  1.
        -12    1    3    3    0    0  0.25415274014E+02  0.32727215862E+02  0.80349736471E+00  0.41444570444E+02  0.00000000000E+00 0.  1.
</event>
<event>
 7    1  0.2682188E-015  0.9000773E+02  0.7816164E-02  0.1186339E+00
        -11   -1    0    0    0    0  0.00000000000E+00  0.00000000000E+00  0.45593999997E+02  0.45594000000E+02  0.51100000000E-03 0.  1.
         11   -1    0    0    0    0 -0.00000000000E+00 -0.00000000000E+00 -0.45593999997E+02  0.45594000000E+02  0.51100000000E-03 0. -1.
    9900012    2    1    2    0    0  0.43795576877E+00  0.73445338517E+00  0.81351359169E+00  0.90007732490E+02  0.89999993759E+02 0.  0.
         12    1    1    2    0    0 -0.43795576877E+00 -0.73445338517E+00 -0.81351359169E+00  0.11802675096E+01  0.00000000000E+00 0. -1.
         11    1    3    3    0    0 -0.10348318807E+01 -0.80239186031E+01  0.48506132016E+01  0.94330586483E+01  0.51100000000E-03 0. -1.
        -11    1    3    3    0    0  0.14541518907E+02  0.38527827285E+02  0.13874846807E+02  0.43455271506E+02  0.51100000000E-03 0.  1.
         12    1    3    3    0    0 -0.13068731258E+02 -0.29769455297E+02 -0.17911946417E+02  0.37119402336E+02  0.00000000000E+00 0. -1.
</event>
<event>
 7    1  0.2682188E-015  0.9000771E+02  0.7816164E-02  0.1186339E+00
        -11   -1    0    0    0    0  0.00000000000E+00  0.00000000000E+00  0.45593999997E+02  0.45594000000E+02  0.51100000000E-03 0.  1.
         11   -1    0    0    0    0 -0.00000000000E+00 -0.00000000000E+00 -0.45593999997E+02  0.45594000000E+02  0.51100000000E-03 0. -1.
    9900012    2    1    2    0    0 -0.31880541904E+00  0.10018854028E+01  0.53635338580E+00  0.90007709269E+02  0.89999970231E+02 0.  0.
         12    1    1    2    0    0  0.31880541904E+00 -0.10018854028E+01 -0.53635338580E+00  0.11802907311E+01  0.00000000000E+00 0. -1.
         11    1    3    3    0    0 -0.58800120245E+01 -0.78399407194E+00 -0.74237149382E+01  0.95026697227E+01  0.51100000000E-03 0. -1.
        -11    1    3    3    0    0 -0.18537157031E+02 -0.68127982700E+00  0.37778485822E+02  0.42086866411E+02  0.51100000000E-03 0.  1.
         12    1    3    3    0    0  0.24098363637E+02  0.24671593017E+01 -0.29818417498E+02  0.38418173136E+02  0.00000000000E+00 0. -1.
</event>
<event>
 7    1  0.2682188E-015  0.9000772E+02  0.7816164E-02  0.1186339E+00
        -11   -1    0    0    0    0  0.00000000000E+00  0.00000000000E+00  0.45593999997E+02  0.45594000000E+02  0.51100000000E-03 0.  1.
         11   -1    0    0    0    0 -0.00000000000E+00 -0.00000000000E+00 -0.45593999997E+02  0.45594000000E+02  0.51100000000E-03 0. -1.
    9900012    2    1    2    0    0 -0.70631369171E+00  0.94075491119E+00  0.95762422611E-01  0.90007716443E+02  0.89999977500E+02 0.  0.
         12    1    1    2    0    0  0.70631369171E+00 -0.94075491119E+00 -0.95762422611E-01  0.11802835573E+01  0.00000000000E+00 0. -1.
         11    1    3    3    0    0  0.67709263707E+01 -0.13062075731E+01  0.71877341923E+01  0.99606799578E+01  0.51100000000E-03 0. -1.
        -11    1    3    3    0    0 -0.28850266727E+02  0.31964618554E+02 -0.21853156361E+01  0.43114386627E+02  0.51100000000E-03 0.  1.
         12    1    3    3    0    0  0.21373026665E+02 -0.29717656070E+02 -0.49066561335E+01  0.36932649858E+02  0.00000000000E+00 0. -1.
</event>
<event>
 7    1  0.2682188E-015  0.9000773E+02  0.7816164E-02  0.1186339E+00
        -11   -1    0    0    0    0  0.00000000000E+00  0.00000000000E+00  0.45593999997E+02  0.45594000000E+02  0.51100000000E-03 0.  1.
         11   -1    0    0    0    0 -0.00000000000E+00 -0.00000000000E+00 -0.45593999997E+02  0.45594000000E+02  0.51100000000E-03 0. -1.
    9900012    2    1    2    0    0  0.54822621550E+00 -0.54541078355E+00  0.89163565295E+00  0.90007729250E+02  0.89999990476E+02 0.  0.
         12    1    1    2    0    0 -0.54822621550E+00  0.54541078355E+00 -0.89163565295E+00  0.11802707502E+01  0.00000000000E+00 0. -1.
         11    1    3    3    0    0 -0.13556334893E+01 -0.10198303848E+02 -0.34255761677E+00  0.10293711163E+02  0.51100000000E-03 0. -1.
        -11    1    3    3    0    0  0.78093962240E+01 -0.31209813176E+02  0.15916412432E+02  0.35893889352E+02  0.51100000000E-03 0.  1.
         12    1    3    3    0    0 -0.59055365192E+01  0.40862706240E+02 -0.14682219162E+02  0.43820128735E+02  0.00000000000E+00 0. -1.
</event>
<event>
 7    1  0.2682188E-015  0.9000759E+02  0.7816164E-02  0.1186339E+00
        -11   -1    0    0    0    0  0.00000000000E+00  0.00000000000E+00  0.45593999997E+02  0.45594000000E+02  0.51100000000E-03 0.  1.
         11   -1    0    0    0    0 -0.00000000000E+00 -0.00000000000E+00 -0.45593999997E+02  0.45594000000E+02  0.51100000000E-03 0. -1.
    9900012    2    1    2    0    0  0.76777909316E+00 -0.89421843783E+00  0.65304059207E-01  0.90007586526E+02  0.89999845868E+02 0.  0.
         12    1    1    2    0    0 -0.76777909316E+00  0.89421843783E+00 -0.65304059207E-01  0.11804134744E+01  0.00000000000E+00 0. -1.
         11    1    3    3    0    0 -0.60664816168E+01  0.45191921508E+00  0.77860815306E+01  0.98807639404E+01  0.51100000000E-03 0. -1.
        -11    1    3    3    0    0 -0.28306302140E+02  0.22227353229E+02  0.40173243549E+01  0.36213821500E+02  0.51100000000E-03 0.  1.
         12    1    3    3    0    0  0.35140562850E+02 -0.23573490882E+02 -0.11738101826E+02  0.43913001085E+02  0.00000000000E+00 0. -1.
</event>
<event>
 7    1  0.2682188E-015  0.9000776E+02  0.7816164E-02  0.1186339E+00
        -11   -1    0    0    0    0  0.00000000000E+00  0.00000000000E+00  0.45593999997E+02  0.45594000000E+02  0.51100000000E-03 0.  1.
         11   -1    0    0    0    0 -0.00000000000E+00 -0.00000000000E+00 -0.45593999997E+02  0.45594000000E+02  0.51100000000E-03 0. -1.
    9900012    2    1    2    0    0 -0.44010265132E+00 -0.94578569787E+00 -0.55205779889E+00  0.90007759032E+02  0.90000020651E+02 0.  0.
         12    1    1    2    0    0  0.44010265132E+00  0.94578569787E+00  0.55205779889E+00  0.11802409683E+01  0.00000000000E+00 0. -1.
         11    1    3    3    0    0  0.10984075776E+01  0.31570297604E+02 -0.18500881599E+02  0.36608370767E+02  0.51100000000E-03 0. -1.
        -11    1    3    3    0    0 -0.73049746541E+01  0.57305017107E+01 -0.25446166663E+01  0.96268571608E+01  0.51100000000E-03 0.  1.
        -12    1    3    3    0    0  0.57664644252E+01 -0.38246585013E+02  0.20493440467E+02  0.43772531104E+02  0.00000000000E+00 0.  1.
</event>
<event>
 7    1  0.2682188E-015  0.9000785E+02  0.7816164E-02  0.1186339E+00
        -11   -1    0    0    0    0  0.00000000000E+00  0.00000000000E+00  0.45593999997E+02  0.45594000000E+02  0.51100000000E-03 0. -1.
         11   -1    0    0    0    0 -0.00000000000E+00 -0.00000000000E+00 -0.45593999997E+02  0.45594000000E+02  0.51100000000E-03 0.  1.
    9900012    2    1    2    0    0  0.60112542872E+00  0.24990173649E+00 -0.98435625560E+00  0.90007847511E+02  0.90000110298E+02 0.  0.
         12    1    1    2    0    0 -0.60112542872E+00 -0.24990173649E+00  0.98435625560E+00  0.11801524888E+01  0.00000000000E+00 0. -1.
         11    1    3    3    0    0 -0.32036517363E+02 -0.10858394209E+02  0.20066731586E+02  0.39330864297E+02  0.51100000000E-03 0. -1.
        -11    1    3    3    0    0  0.29774623950E+01 -0.76577397167E+01  0.22860095982E+01  0.85283116751E+01  0.51100000000E-03 0.  1.
        -12    1    3    3    0    0  0.29660180396E+02  0.18766035662E+02 -0.23337097440E+02  0.42148671539E+02  0.00000000000E+00 0.  1.
</event>
<event>
 7    1  0.2682188E-015  0.9000777E+02  0.7816164E-02  0.1186339E+00
        -11   -1    0    0    0    0  0.00000000000E+00  0.00000000000E+00  0.45593999997E+02  0.45594000000E+02  0.51100000000E-03 0.  1.
         11   -1    0    0    0    0 -0.00000000000E+00 -0.00000000000E+00 -0.45593999997E+02  0.45594000000E+02  0.51100000000E-03 0. -1.
    9900012    2    1    2    0    0  0.12206107405E+00  0.43340386799E+00  0.10909602611E+01  0.90007774551E+02  0.90000036375E+02 0.  0.
         12    1    1    2    0    0 -0.12206107405E+00 -0.43340386799E+00 -0.10909602611E+01  0.11802254487E+01  0.00000000000E+00 0. -1.
         11    1    3    3    0    0  0.59363180682E+01  0.13578185548E+02 -0.32075512223E+02  0.35333347982E+02  0.51100000000E-03 0. -1.
        -11    1    3    3    0    0 -0.43003702040E+01  0.12265715831E+02  0.16842867476E+00  0.12998820608E+02  0.51100000000E-03 0.  1.
        -12    1    3    3    0    0 -0.15138867901E+01 -0.25410497511E+02  0.32998043809E+02  0.41675605961E+02  0.00000000000E+00 0.  1.
</event>
<event>
 7    1  0.2682188E-015  0.9000782E+02  0.7816164E-02  0.1186339E+00
        -11   -1    0    0    0    0  0.00000000000E+00  0.00000000000E+00  0.45593999997E+02  0.45594000000E+02  0.51100000000E-03 0.  1.
         11   -1    0    0    0    0 -0.00000000000E+00 -0.00000000000E+00 -0.45593999997E+02  0.45594000000E+02  0.51100000000E-03 0. -1.
    9900012    2    1    2    0    0  0.73152099095E+00 -0.73524906101E+00  0.56313577668E+00  0.90007815250E+02  0.90000077611E+02 0.  0.
         12    1    1    2    0    0 -0.73152099095E+00  0.73524906101E+00 -0.56313577668E+00  0.11801847503E+01  0.00000000000E+00 0. -1.
         11    1    3    3    0    0 -0.15526484186E+02  0.93935396648E+00 -0.34083496964E+02  0.37465168658E+02  0.51100000000E-03 0. -1.
        -11    1    3    3    0    0 -0.21887950255E+01  0.72945357730E+01 -0.41384866104E+01  0.86676494791E+01  0.51100000000E-03 0.  1.
        -12    1    3    3    0    0  0.18446800202E+02 -0.89691388004E+01  0.38785119351E+02  0.43874997112E+02  0.00000000000E+00 0.  1.
</event>
<event>
 7    1  0.2682188E-015  0.9000768E+02  0.7816164E-02  0.1186339E+00
        -11   -1    0    0    0    0  0.00000000000E+00  0.00000000000E+00  0.45593999997E+02  0.45594000000E+02  0.51100000000E-03 0. -1.
         11   -1    0    0    0    0 -0.00000000000E+00 -0.00000000000E+00 -0.45593999997E+02  0.45594000000E+02  0.51100000000E-03 0.  1.
    9900012    2    1    2    0    0 -0.10623395922E+01  0.51028139529E+00 -0.64856937105E-01  0.90007678462E+02  0.89999939017E+02 0.  0.
         12    1    1    2    0    0  0.10623395922E+01 -0.51028139529E+00  0.64856937105E-01  0.11803215384E+01  0.00000000000E+00 0. -1.
         11    1    3    3    0    0 -0.14561480876E+02 -0.19949114940E+02  0.18334206884E+02  0.30759503482E+02  0.51100000000E-03 0. -1.
        -11    1    3    3    0    0 -0.12543106808E+02 -0.68259972286E+01  0.46817951045E+01  0.15028072805E+02  0.51100000000E-03 0.  1.
        -12    1    3    3    0    0  0.26042248092E+02  0.27285393564E+02 -0.23080858925E+02  0.44220102174E+02  0.00000000000E+00 0.  1.
</event>
<event>
 7    1  0.2682188E-015  0.9000765E+02  0.7816164E-02  0.1186339E+00
        -11   -1    0    0    0    0  0.00000000000E+00  0.00000000000E+00  0.45593999997E+02  0.45594000000E+02  0.51100000000E-03 0. -1.
         11   -1    0    0    0    0 -0.00000000000E+00 -0.00000000000E+00 -0.45593999997E+02  0.45594000000E+02  0.51100000000E-03 0.  1.
    9900012    2    1    2    0    0  0.34769071005E+00 -0.27311163446E+00 -0.10944183904E+01  0.90007648185E+02  0.89999908341E+02 0.  0.
         12    1    1    2    0    0 -0.34769071005E+00  0.27311163446E+00  0.10944183904E+01  0.11803518153E+01  0.00000000000E+00 0. -1.
         11    1    3    3    0    0 -0.21168499180E+02 -0.31638973834E+01  0.34343819518E+02  0.40467438065E+02  0.51100000000E-03 0. -1.
        -11    1    3    3    0    0 -0.63561871649E+01  0.60366687166E+00 -0.91564293610E+01  0.11162693576E+02  0.51100000000E-03 0.  1.
        -12    1    3    3    0    0  0.27872377055E+02  0.22871188773E+01 -0.26281808548E+02  0.38377516543E+02  0.00000000000E+00 0.  1.
</event>
<event>
 7    1  0.2682188E-015  0.9000744E+02  0.7816164E-02  0.1186340E+00
        -11   -1    0    0    0    0  0.00000000000E+00  0.00000000000E+00  0.45593999997E+02  0.45594000000E+02  0.51100000000E-03 0.  1.
         11   -1    0    0    0    0 -0.00000000000E+00 -0.00000000000E+00 -0.45593999997E+02  0.45594000000E+02  0.51100000000E-03 0. -1.
    9900012    2    1    2    0    0 -0.77928077600E+00 -0.68058306243E+00  0.56854252673E+00  0.90007444013E+02  0.89999701474E+02 0.  0.
         12    1    1    2    0    0  0.77928077600E+00  0.68058306243E+00 -0.56854252673E+00  0.11805559866E+01  0.00000000000E+00 0. -1.
         11    1    3    3    0    0  0.24538807139E+02  0.11518102771E+02 -0.33840487688E+02  0.43358947802E+02  0.51100000000E-03 0. -1.
        -11    1    3    3    0    0 -0.74457810174E+01 -0.70567311764E+01  0.40149358519E+01  0.11016207152E+02  0.51100000000E-03 0.  1.
        -12    1    3    3    0    0 -0.17872306897E+02 -0.51419546570E+01  0.30394094363E+02  0.35632289060E+02  0.00000000000E+00 0.  1.
</event>
<event>
 7    1  0.2682188E-015  0.9000772E+02  0.7816164E-02  0.1186339E+00
        -11   -1    0    0    0    0  0.00000000000E+00  0.00000000000E+00  0.45593999997E+02  0.45594000000E+02  0.51100000000E-03 0.  1.
         11   -1    0    0    0    0 -0.00000000000E+00 -0.00000000000E+00 -0.45593999997E+02  0.45594000000E+02  0.51100000000E-03 0. -1.
    9900012    2    1    2    0    0  0.94966937824E+00 -0.66231756596E+00 -0.22917932993E+00  0.90007720520E+02  0.89999981631E+02 0.  0.
         12    1    1    2    0    0 -0.94966937824E+00  0.66231756596E+00  0.22917932993E+00  0.11802794802E+01  0.00000000000E+00 0. -1.
         11    1    3    3    0    0 -0.13197817687E+01 -0.90459597449E+01 -0.40670637516E+01  0.10005609399E+02  0.51100000000E-03 0. -1.
        -11    1    3    3    0    0  0.18935790215E+02  0.37229184133E+02  0.15725794014E+02  0.44630448126E+02  0.51100000000E-03 0.  1.
         12    1    3    3    0    0 -0.16666339068E+02 -0.28845541954E+02 -0.11887909592E+02  0.35371662995E+02  0.00000000000E+00 0. -1.
</event>
<event>
 7    1  0.2682188E-015  0.9000773E+02  0.7816164E-02  0.1186339E+00
        -11   -1    0    0    0    0  0.00000000000E+00  0.00000000000E+00  0.45593999997E+02  0.45594000000E+02  0.51100000000E-03 0.  1.
         11   -1    0    0    0    0 -0.00000000000E+00 -0.00000000000E+00 -0.45593999997E+02  0.45594000000E+02  0.51100000000E-03 0. -1.
    9900012    2    1    2    0    0  0.20496160959E+00 -0.10878348328E+01 -0.40944740112E+00  0.90007728396E+02  0.89999989611E+02 0.  0.
         12    1    1    2    0    0 -0.20496160959E+00  0.10878348328E+01  0.40944740112E+00  0.11802716040E+01  0.00000000000E+00 0. -1.
         11    1    3    3    0    0  0.36628227076E+02 -0.16616330714E+02 -0.19720623786E+01  0.40269324497E+02  0.51100000000E-03 0. -1.
        -11    1    3    3    0    0  0.14025174449E+01  0.15661001873E+01  0.85607899704E+01  0.88151489017E+01  0.51100000000E-03 0.  1.
        -12    1    3    3    0    0 -0.37825782912E+02  0.13962395693E+02 -0.69981749929E+01  0.40923254998E+02  0.00000000000E+00 0.  1.
</event>
<event>
 7    1  0.2682188E-015  0.9000774E+02  0.7816164E-02  0.1186339E+00
        -11   -1    0    0    0    0  0.00000000000E+00  0.00000000000E+00  0.45593999997E+02  0.45594000000E+02  0.51100000000E-03 0.  1.
         11   -1    0    0    0    0 -0.00000000000E+00 -0.00000000000E+00 -0.45593999997E+02  0.45594000000E+02  0.51100000000E-03 0. -1.
    9900012    2    1    2    0    0  0.57667383903E+00 -0.55406865238E+00  0.86802962273E+00  0.90007737227E+02  0.89999998558E+02 0.  0.
         12    1    1    2    0    0 -0.57667383903E+00  0.55406865238E+00 -0.86802962273E+00  0.11802627733E+01  0.00000000000E+00 0. -1.
         11    1    3    3    0    0 -0.10680542868E+01  0.33734033112E+02 -0.22342672213E+01  0.33824808651E+02  0.51100000000E-03 0. -1.
        -11    1    3    3    0    0  0.56981893795E+01  0.98188952060E+01  0.35277477628E+01  0.11888022115E+02  0.51100000000E-03 0.  1.
        -12    1    3    3    0    0 -0.40534612538E+01 -0.44106996971E+02 -0.42545091873E+00  0.44294906461E+02  0.00000000000E+00 0.  1.
</event>
<event>
 7    1  0.2682188E-015  0.9000777E+02  0.7816164E-02  0.1186339E+00
        -11   -1    0    0    0    0  0.00000000000E+00  0.00000000000E+00  0.45593999997E+02  0.45594000000E+02  0.51100000000E-03 0. -1.
         11   -1    0    0    0    0 -0.00000000000E+00 -0.00000000000E+00 -0.45593999997E+02  0.45594000000E+02  0.51100000000E-03 0.  1.
    9900012    2    1    2    0    0  0.88840814692E-01  0.81341637942E-01 -0.11740694199E+01  0.90007767754E+02  0.90000029488E+02 0.  0.
         12    1    1    2    0    0 -0.88840814692E-01 -0.81341637942E-01  0.11740694199E+01  0.11802322462E+01  0.00000000000E+00 0. -1.
         11    1    3    3    0    0 -0.68650986434E+01 -0.29755398336E+02  0.20880317274E+02  0.36993255591E+02  0.51100000000E-03 0. -1.
        -11    1    3    3    0    0 -0.65779878954E+01 -0.17341668677E+01  0.56834789605E+01  0.88644905569E+01  0.51100000000E-03 0.  1.
        -12    1    3    3    0    0  0.13531927354E+02  0.31570906842E+02 -0.27737865654E+02  0.44150021606E+02  0.00000000000E+00 0.  1.
</event>
<event>
 7    1  0.3527721E-015  0.9000781E+02  0.7816164E-02  0.1186339E+00
        -11   -1    0    0    0    0  0.00000000000E+00  0.00000000000E+00  0.45593999997E+02  0.45594000000E+02  0.51100000000E-03 0. -1.
         11   -1    0    0    0    0 -0.00000000000E+00 -0.00000000000E+00 -0.45593999997E+02  0.45594000000E+02  0.51100000000E-03 0.  1.
    9900012    2    1    2    0    0  0.27752855435E-01 -0.26474352045E+00 -0.11497828027E+01  0.90007805166E+02  0.90000067394E+02 0.  0.
         12    1    1    2    0    0 -0.27752855435E-01  0.26474352045E+00  0.11497828027E+01  0.11801948339E+01  0.00000000000E+00 0. -1.
         11    1    3    3    0    0  0.73222084598E+01 -0.49977393586E+01 -0.39820138067E+01  0.97184653955E+01  0.51100000000E-03 0. -1.
        -11    1    3    3    0    0 -0.21768803270E+02 -0.19274843484E+02 -0.26767855480E+02  0.39521114286E+02  0.51100000000E-03 0.  1.
         12    1    3    3    0    0  0.14474347666E+02  0.24007839322E+02  0.29600086484E+02  0.40768225484E+02  0.00000000000E+00 0. -1.
</event>
<event>
 7    1  0.2682188E-015  0.9000777E+02  0.7816164E-02  0.1186339E+00
        -11   -1    0    0    0    0  0.00000000000E+00  0.00000000000E+00  0.45593999997E+02  0.45594000000E+02  0.51100000000E-03 0.  1.
         11   -1    0    0    0    0 -0.00000000000E+00 -0.00000000000E+00 -0.45593999997E+02  0.45594000000E+02  0.51100000000E-03 0. -1.
    9900012    2    1    2    0    0  0.80214189679E+00 -0.15674372833E-01  0.86559906828E+00  0.90007771609E+02  0.90000033394E+02 0.  0.
         12    1    1    2    0    0 -0.80214189679E+00  0.15674372833E-01 -0.86559906828E+00  0.11802283913E+01  0.00000000000E+00 0. -1.
         11    1    3    3    0    0  0.19843661667E+02  0.27416217683E+02 -0.22794680883E+02  0.40804624458E+02  0.51100000000E-03 0. -1.
        -11    1    3    3    0    0 -0.80584083657E+01  0.37522076012E+01  0.63122881345E+00  0.89115350724E+01  0.51100000000E-03 0.  1.
        -12    1    3    3    0    0 -0.10983111404E+02 -0.31184099657E+02  0.23029051138E+02  0.40291612078E+02  0.00000000000E+00 0.  1.
</event>
<event>
 7    1  0.2682188E-015  0.9000790E+02  0.7816164E-02  0.1186339E+00
        -11   -1    0    0    0    0  0.00000000000E+00  0.00000000000E+00  0.45593999997E+02  0.45594000000E+02  0.51100000000E-03 0. -1.
         11   -1    0    0    0    0 -0.00000000000E+00 -0.00000000000E+00 -0.45593999997E+02  0.45594000000E+02  0.51100000000E-03 0.  1.
    9900012    2    1    2    0    0 -0.84936473996E+00  0.71591174981E+00 -0.39836084739E+00  0.90007897691E+02  0.90000161140E+02 0.  0.
         12    1    1    2    0    0  0.84936473996E+00 -0.71591174981E+00  0.39836084739E+00  0.11801023090E+01  0.00000000000E+00 0. -1.
         11    1    3    3    0    0  0.95406182678E+01  0.60291324435E+01  0.11656117175E+01  0.11346033928E+02  0.51100000000E-03 0. -1.
        -11    1    3    3    0    0  0.20232111937E+02 -0.25441115632E+02  0.17963675486E+02  0.37138690813E+02  0.51100000000E-03 0.  1.
         12    1    3    3    0    0 -0.30622094945E+02  0.20127894939E+02 -0.19527648051E+02  0.41523172950E+02  0.00000000000E+00 0. -1.
</event>
<event>
 7    1  0.2682188E-015  0.9000771E+02  0.7816164E-02  0.1186339E+00
        -11   -1    0    0    0    0  0.00000000000E+00  0.00000000000E+00  0.45593999997E+02  0.45594000000E+02  0.51100000000E-03 0. -1.
         11   -1    0    0    0    0 -0.00000000000E+00 -0.00000000000E+00 -0.45593999997E+02  0.45594000000E+02  0.51100000000E-03 0.  1.
    9900012    2    1    2    0    0  0.85915398896E+00 -0.79626742911E+00  0.14459690333E+00  0.90007705266E+02  0.89999966175E+02 0.  0.
         12    1    1    2    0    0 -0.85915398896E+00  0.79626742911E+00 -0.14459690333E+00  0.11802947343E+01  0.00000000000E+00 0. -1.
         11    1    3    3    0    0  0.27622517651E+01  0.23828259052E+02  0.24714305686E+02  0.34441441173E+02  0.51100000000E-03 0. -1.
        -11    1    3    3    0    0  0.23920102341E+01  0.18388763228E+01  0.10783283227E+02  0.11197427227E+02  0.51100000000E-03 0.  1.
        -12    1    3    3    0    0 -0.42951080102E+01 -0.26463402804E+02 -0.35352992010E+02  0.44368836866E+02  0.00000000000E+00 0.  1.
</event>
<event>
 7    1  0.2682188E-015  0.9000779E+02  0.7816164E-02  0.1186339E+00
        -11   -1    0    0    0    0  0.00000000000E+00  0.00000000000E+00  0.45593999997E+02  0.45594000000E+02  0.51100000000E-03 0.  1.
         11   -1    0    0    0    0 -0.00000000000E+00 -0.00000000000E+00 -0.45593999997E+02  0.45594000000E+02  0.51100000000E-03 0. -1.
    9900012    2    1    2    0    0  0.92512659978E+00 -0.39620670675E+00  0.61648018589E+00  0.90007793747E+02  0.90000055824E+02 0.  0.
         12    1    1    2    0    0 -0.92512659978E+00  0.39620670675E+00 -0.61648018589E+00  0.11802062530E+01  0.00000000000E+00 0. -1.
         11    1    3    3    0    0 -0.39136582827E+02  0.71631338996E+01 -0.32170725862E+01  0.39916564969E+02  0.51100000000E-03 0. -1.
        -11    1    3    3    0    0  0.30847244414E+01  0.46183009246E+01 -0.76946856674E+01  0.94895951489E+01  0.51100000000E-03 0.  1.
        -12    1    3    3    0    0  0.36976984985E+02 -0.12177641531E+02  0.11528238439E+02  0.40601633629E+02  0.00000000000E+00 0.  1.
</event>
<event>
 7    1  0.2682188E-015  0.9000773E+02  0.7816164E-02  0.1186339E+00
        -11   -1    0    0    0    0  0.00000000000E+00  0.00000000000E+00  0.45593999997E+02  0.45594000000E+02  0.51100000000E-03 0. -1.
         11   -1    0    0    0    0 -0.00000000000E+00 -0.00000000000E+00 -0.45593999997E+02  0.45594000000E+02  0.51100000000E-03 0.  1.
    9900012    2    1    2    0    0  0.80501130756E+00 -0.79184117990E+00 -0.34348944236E+00  0.90007728567E+02  0.89999989784E+02 0.  0.
         12    1    1    2    0    0 -0.80501130756E+00  0.79184117990E+00  0.34348944236E+00  0.11802714334E+01  0.00000000000E+00 0. -1.
         11    1    3    3    0    0 -0.31358695189E+02 -0.20541686743E+02 -0.42402483743E+01  0.37726759266E+02  0.51100000000E-03 0. -1.
        -11    1    3    3    0    0 -0.24368739093E+01 -0.33541586143E+01  0.94378870784E+01  0.10308367825E+02  0.51100000000E-03 0.  1.
        -12    1    3    3    0    0  0.34600580406E+02  0.23104004178E+02 -0.55411281465E+01  0.41972601475E+02  0.00000000000E+00 0.  1.
</event>
<event>
 7    1  0.2682188E-015  0.9000775E+02  0.7816164E-02  0.1186339E+00
        -11   -1    0    0    0    0  0.00000000000E+00  0.00000000000E+00  0.45593999997E+02  0.45594000000E+02  0.51100000000E-03 0.  1.
         11   -1    0    0    0    0 -0.00000000000E+00 -0.00000000000E+00 -0.45593999997E+02  0.45594000000E+02  0.51100000000E-03 0. -1.
    9900012    2    1    2    0    0  0.23829577616E+00  0.25970178532E+00  0.11263916336E+01  0.90007750871E+02  0.90000012383E+02 0.  0.
         12    1    1    2    0    0 -0.23829577616E+00 -0.25970178532E+00 -0.11263916336E+01  0.11802491290E+01  0.00000000000E+00 0. -1.
         11    1    3    3    0    0 -0.10978716229E+02 -0.23477935981E+01 -0.12061369736E+01  0.11291550446E+02  0.51100000000E-03 0. -1.
        -11    1    3    3    0    0  0.35363033410E+02  0.19857717983E+02  0.18883579757E+02  0.44737709823E+02  0.51100000000E-03 0.  1.
         12    1    3    3    0    0 -0.24146021405E+02 -0.17250222600E+02 -0.16551051150E+02  0.33978490602E+02  0.00000000000E+00 0. -1.
</event>
<event>
 7    1  0.2682188E-015  0.9000777E+02  0.7816164E-02  0.1186339E+00
        -11   -1    0    0    0    0  0.00000000000E+00  0.00000000000E+00  0.45593999997E+02  0.45594000000E+02  0.51100000000E-03 0. -1.
         11   -1    0    0    0    0 -0.00000000000E+00 -0.00000000000E+00 -0.45593999997E+02  0.45594000000E+02  0.51100000000E-03 0.  1.
    9900012    2    1    2    0    0  0.10839119985E+01 -0.41507364713E+00  0.21398312848E+00  0.90007771153E+02  0.90000032932E+02 0.  0.
         12    1    1    2    0    0 -0.10839119985E+01  0.41507364713E+00 -0.21398312848E+00  0.11802288475E+01  0.00000000000E+00 0. -1.
         11    1    3    3    0    0 -0.11001626356E+02 -0.34481631775E+02  0.29159232950E+01  0.36311448901E+02  0.51100000000E-03 0. -1.
        -11    1    3    3    0    0 -0.77119940810E+01 -0.48615381731E+01  0.31229302014E+01  0.96364982964E+01  0.51100000000E-03 0.  1.
        -12    1    3    3    0    0  0.19797532436E+02  0.38928096301E+02 -0.58248703678E+01  0.44059823955E+02  0.00000000000E+00 0.  1.
</event>
<event>
 7    1  0.2682188E-015  0.9000775E+02  0.7816164E-02  0.1186339E+00
        -11   -1    0    0    0    0  0.00000000000E+00  0.00000000000E+00  0.45593999997E+02  0.45594000000E+02  0.51100000000E-03 0.  1.
         11   -1    0    0    0    0 -0.00000000000E+00 -0.00000000000E+00 -0.45593999997E+02  0.45594000000E+02  0.51100000000E-03 0. -1.
    9900012    2    1    2    0    0 -0.92294170412E+00  0.70527849876E+00 -0.20915854461E+00  0.90007751532E+02  0.90000013052E+02 0.  0.
         12    1    1    2    0    0  0.92294170412E+00 -0.70527849876E+00  0.20915854461E+00  0.11802484682E+01  0.00000000000E+00 0. -1.
         11    1    3    3    0    0  0.21830041605E+02 -0.21418357544E+02 -0.25461903308E+02  0.39794538277E+02  0.51100000000E-03 0. -1.
        -11    1    3    3    0    0  0.10390539516E+01 -0.61424483027E+01  0.55409731966E+01  0.83373670000E+01  0.51100000000E-03 0.  1.
        -12    1    3    3    0    0 -0.23792037261E+02  0.28266084345E+02  0.19711771567E+02  0.41875846255E+02  0.00000000000E+00 0.  1.
</event>
<event>
 7    1  0.2682188E-015  0.9000775E+02  0.7816164E-02  0.1186339E+00
        -11   -1    0    0    0    0  0.00000000000E+00  0.00000000000E+00  0.45593999997E+02  0.45594000000E+02  0.51100000000E-03 0. -1.
         11   -1    0    0    0    0 -0.00000000000E+00 -0.00000000000E+00 -0.45593999997E+02  0.45594000000E+02  0.51100000000E-03 0.  1.
    9900012    2    1    2    0    0  0.77435165153E+00  0.35277919805E+00 -0.81787422765E+00  0.90007749224E+02  0.90000010713E+02 0.  0.
         12    1    1    2    0    0 -0.77435165153E+00 -0.35277919805E+00  0.81787422765E+00  0.11802507763E+01  0.00000000000E+00 0. -1.
         11    1    3    3    0    0 -0.11947418240E+02  0.13137050668E+02 -0.38186844052E+02  0.42113631543E+02  0.51100000000E-03 0. -1.
        -11    1    3    3    0    0 -0.30017386422E+01 -0.94099670027E+01  0.36380854810E+01  0.10525852939E+02  0.51100000000E-03 0.  1.
        -12    1    3    3    0    0  0.15723508533E+02 -0.33743044678E+01  0.33730884343E+02  0.37368264742E+02  0.00000000000E+00 0.  1.
</event>
<event>
 7    1  0.2682188E-015  0.9000770E+02  0.7816164E-02  0.1186339E+00
        -11   -1    0    0    0    0  0.00000000000E+00  0.00000000000E+00  0.45593999997E+02  0.45594000000E+02  0.51100000000E-03 0.  1.
         11   -1    0    0    0    0 -0.00000000000E+00 -0.00000000000E+00 -0.45593999997E+02  0.45594000000E+02  0.51100000000E-03 0. -1.
    9900012    2    1    2    0    0 -0.62319792827E+00  0.60449382174E+00  0.79957825081E+00  0.90007697574E+02  0.89999958382E+02 0.  0.
         12    1    1    2    0    0  0.62319792827E+00 -0.60449382174E+00 -0.79957825081E+00  0.11803024263E+01  0.00000000000E+00 0. -1.
         11    1    3    3    0    0 -0.61796415101E+01  0.30203918751E+01 -0.52903397863E+01  0.86774668877E+01  0.51100000000E-03 0. -1.
        -11    1    3    3    0    0 -0.25449431281E+01 -0.28786902355E+02  0.32255433327E+02  0.43307914543E+02  0.51100000000E-03 0.  1.
         12    1    3    3    0    0  0.81013867099E+01  0.26371004301E+02 -0.26165515290E+02  0.38022316143E+02  0.00000000000E+00 0. -1.
</event>
<event>
 7    1  0.2682188E-015  0.9000766E+02  0.7816164E-02  0.1186339E+00
        -11   -1    0    0    0    0  0.00000000000E+00  0.00000000000E+00  0.45593999997E+02  0.45594000000E+02  0.51100000000E-03 0.  1.
         11   -1    0    0    0    0 -0.00000000000E+00 -0.00000000000E+00 -0.45593999997E+02  0.45594000000E+02  0.51100000000E-03 0. -1.
    9900012    2    1    2    0    0  0.60201313286E+00  0.97119622578E+00  0.29589383902E+00  0.90007663148E+02  0.89999923501E+02 0.  0.
         12    1    1    2    0    0 -0.60201313286E+00 -0.97119622578E+00 -0.29589383902E+00  0.11803368524E+01  0.00000000000E+00 0. -1.
         11    1    3    3    0    0  0.16423484248E+02  0.31474678580E+02  0.13636040235E+02  0.38030616878E+02  0.51100000000E-03 0. -1.
        -11    1    3    3    0    0  0.97177136929E+01  0.16342104100E+00  0.51216680419E+00  0.97325731927E+01  0.51100000000E-03 0.  1.
        -12    1    3    3    0    0 -0.25539184808E+02 -0.30666903396E+02 -0.13852313200E+02  0.42244473077E+02  0.00000000000E+00 0.  1.
</event>
<event>
 7    1  0.2682188E-015  0.9000788E+02  0.7816164E-02  0.1186339E+00
        -11   -1    0    0    0    0  0.00000000000E+00  0.00000000000E+00  0.45593999997E+02  0.45594000000E+02  0.51100000000E-03 0.  1.
         11   -1    0    0    0    0 -0.00000000000E+00 -0.00000000000E+00 -0.45593999997E+02  0.45594000000E+02  0.51100000000E-03 0. -1.
    9900012    2    1    2    0    0  0.59404348490E+00  0.38951314247E+00  0.94237434483E+00  0.90007882397E+02  0.90000145645E+02 0.  0.
         12    1    1    2    0    0 -0.59404348490E+00 -0.38951314247E+00 -0.94237434483E+00  0.11801176026E+01  0.00000000000E+00 0. -1.
         11    1    3    3    0    0  0.46793943032E+01 -0.31021108854E+02  0.14023284356E+02  0.34363620734E+02  0.51100000000E-03 0. -1.
        -11    1    3    3    0    0  0.11067278364E+02 -0.55761916969E+01  0.26793472857E+01  0.12679016775E+02  0.51100000000E-03 0.  1.
        -12    1    3    3    0    0 -0.15152629182E+02  0.36986813693E+02 -0.15760257297E+02  0.42965244889E+02  0.00000000000E+00 0.  1.
</event>
<event>
 7    1  0.2682188E-015  0.9000774E+02  0.7816164E-02  0.1186339E+00
        -11   -1    0    0    0    0  0.00000000000E+00  0.00000000000E+00  0.45593999997E+02  0.45594000000E+02  0.51100000000E-03 0.  1.
         11   -1    0    0    0    0 -0.00000000000E+00 -0.00000000000E+00 -0.45593999997E+02  0.45594000000E+02  0.51100000000E-03 0. -1.
    9900012    2    1    2    0    0 -0.86299070905E+00 -0.49775007138E+00  0.63284651964E+00  0.90007744598E+02  0.90000006026E+02 0.  0.
         12    1    1    2    0    0  0.86299070905E+00  0.49775007138E+00 -0.63284651964E+00  0.11802554024E+01  0.00000000000E+00 0. -1.
         11    1    3    3    0    0 -0.59279342920E+01 -0.50209278311E+01  0.49754827755E+01  0.92252669536E+01  0.51100000000E-03 0. -1.
        -11    1    3    3    0    0 -0.16537493073E+02  0.89956898512E+01  0.32663151306E+02  0.37700034039E+02  0.51100000000E-03 0.  1.
         12    1    3    3    0    0  0.21602436656E+02 -0.44725120915E+01 -0.37005787562E+02  0.43082443605E+02  0.00000000000E+00 0. -1.
</event>
<event>
 7    1  0.2682188E-015  0.9000767E+02  0.7816164E-02  0.1186339E+00
        -11   -1    0    0    0    0  0.00000000000E+00  0.00000000000E+00  0.45593999997E+02  0.45594000000E+02  0.51100000000E-03 0. -1.
         11   -1    0    0    0    0 -0.00000000000E+00 -0.00000000000E+00 -0.45593999997E+02  0.45594000000E+02  0.51100000000E-03 0.  1.
    9900012    2    1    2    0    0  0.33854955814E+00 -0.11297263555E+01  0.47782028832E-01  0.90007669299E+02  0.89999929734E+02 0.  0.
         12    1    1    2    0    0 -0.33854955814E+00  0.11297263555E+01 -0.47782028832E-01  0.11803307010E+01  0.00000000000E+00 0. -1.
         11    1    3    3    0    0  0.43891112744E+01 -0.80581722326E+01 -0.54610918420E+01  0.10678106662E+02  0.51100000000E-03 0. -1.
        -11    1    3    3    0    0 -0.23459444636E+02  0.22546146593E+02 -0.24205758358E+02  0.40553581923E+02  0.51100000000E-03 0.  1.
         12    1    3    3    0    0  0.19408882919E+02 -0.15617700716E+02  0.29714632229E+02  0.38775980714E+02  0.00000000000E+00 0. -1.
</event>
<event>
 7    1  0.2682188E-015  0.9000765E+02  0.7816164E-02  0.1186339E+00
        -11   -1    0    0    0    0  0.00000000000E+00  0.00000000000E+00  0.45593999997E+02  0.45594000000E+02  0.51100000000E-03 0.  1.
         11   -1    0    0    0    0 -0.00000000000E+00 -0.00000000000E+00 -0.45593999997E+02  0.45594000000E+02  0.51100000000E-03 0. -1.
    9900012    2    1    2    0    0  0.29988957566E+00  0.72087596828E-01  0.11393438245E+01  0.90007646354E+02  0.89999906486E+02 0.  0.
         12    1    1    2    0    0 -0.29988957566E+00 -0.72087596828E-01 -0.11393438245E+01  0.11803536460E+01  0.00000000000E+00 0. -1.
         11    1    3    3    0    0 -0.19631513378E+02  0.31281774010E+02 -0.62557490930E+01  0.37457710818E+02  0.51100000000E-03 0. -1.
        -11    1    3    3    0    0  0.61542289393E+01  0.53597305520E+01  0.10557099432E+02  0.13343672437E+02  0.51100000000E-03 0.  1.
        -12    1    3    3    0    0  0.13777174014E+02 -0.36569416965E+02 -0.31620065148E+01  0.39206263099E+02  0.00000000000E+00 0.  1.
</event>
<event>
 7    1  0.2682188E-015  0.9000773E+02  0.7816164E-02  0.1186339E+00
        -11   -1    0    0    0    0  0.00000000000E+00  0.00000000000E+00  0.45593999997E+02  0.45594000000E+02  0.51100000000E-03 0.  1.
         11   -1    0    0    0    0 -0.00000000000E+00 -0.00000000000E+00 -0.45593999997E+02  0.45594000000E+02  0.51100000000E-03 0. -1.
    9900012    2    1    2    0    0  0.43983459675E+00 -0.50665188695E+00  0.97102894165E+00  0.90007725535E+02  0.89999986712E+02 0.  0.
         12    1    1    2    0    0 -0.43983459675E+00  0.50665188695E+00 -0.97102894165E+00  0.11802744649E+01  0.00000000000E+00 0. -1.
         11    1    3    3    0    0  0.16717875217E+02 -0.37855919052E+02  0.43411557669E+01  0.41610138100E+02  0.51100000000E-03 0. -1.
        -11    1    3    3    0    0 -0.52912519815E+01  0.28425995083E+01  0.83935420017E+01  0.10321301618E+02  0.51100000000E-03 0.  1.
        -12    1    3    3    0    0 -0.10986788638E+02  0.34506667657E+02 -0.11763668827E+02  0.38076285817E+02  0.00000000000E+00 0.  1.
</event>
<event>
 7    1  0.2682188E-015  0.9000771E+02  0.7816164E-02  0.1186339E+00
        -11   -1    0    0    0    0  0.00000000000E+00  0.00000000000E+00  0.45593999997E+02  0.45594000000E+02  0.51100000000E-03 0. -1.
         11   -1    0    0    0    0 -0.00000000000E+00 -0.00000000000E+00 -0.45593999997E+02  0.45594000000E+02  0.51100000000E-03 0.  1.
    9900012    2    1    2    0    0  0.85623612628E+00 -0.79625336100E+00 -0.16100453529E+00  0.90007710976E+02  0.89999971961E+02 0.  0.
         12    1    1    2    0    0 -0.85623612628E+00  0.79625336100E+00  0.16100453529E+00  0.11802890236E+01  0.00000000000E+00 0. -1.
         11    1    3    3    0    0 -0.23232485904E+02  0.13999803771E+02 -0.19883624169E+02  0.33631851232E+02  0.51100000000E-03 0. -1.
        -11    1    3    3    0    0 -0.12254125826E+02 -0.35572958929E+01 -0.14460303210E+01  0.12841688276E+02  0.51100000000E-03 0.  1.
        -12    1    3    3    0    0  0.36342847857E+02 -0.11238761240E+02  0.21168649955E+02  0.43534171468E+02  0.00000000000E+00 0.  1.
</event>
<event>
 7    1  0.2682188E-015  0.9000775E+02  0.7816164E-02  0.1186339E+00
        -11   -1    0    0    0    0  0.00000000000E+00  0.00000000000E+00  0.45593999997E+02  0.45594000000E+02  0.51100000000E-03 0.  1.
         11   -1    0    0    0    0 -0.00000000000E+00 -0.00000000000E+00 -0.45593999997E+02  0.45594000000E+02  0.51100000000E-03 0. -1.
    9900012    2    1    2    0    0 -0.69254098832E+00 -0.93989966308E+00  0.17312245407E+00  0.90007747577E+02  0.90000009045E+02 0.  0.
         12    1    1    2    0    0  0.69254098832E+00  0.93989966308E+00 -0.17312245407E+00  0.11802524227E+01  0.00000000000E+00 0. -1.
         11    1    3    3    0    0  0.10463924295E+02  0.85025383246E+01 -0.52930755468E+01  0.14484595908E+02  0.51100000000E-03 0. -1.
        -11    1    3    3    0    0 -0.10642273559E+02  0.93749416379E+01  0.36537916306E+02  0.39193964401E+02  0.51100000000E-03 0.  1.
         12    1    3    3    0    0 -0.51419172392E+00 -0.18817379626E+02 -0.31071718305E+02  0.36329187268E+02  0.00000000000E+00 0. -1.
</event>
<event>
 7    1  0.2682188E-015  0.9000775E+02  0.7816164E-02  0.1186339E+00
        -11   -1    0    0    0    0  0.00000000000E+00  0.00000000000E+00  0.45593999997E+02  0.45594000000E+02  0.51100000000E-03 0. -1.
         11   -1    0    0    0    0 -0.00000000000E+00 -0.00000000000E+00 -0.45593999997E+02  0.45594000000E+02  0.51100000000E-03 0.  1.
    9900012    2    1    2    0    0  0.56142658134E+00 -0.66243165803E+00 -0.79936371856E+00  0.90007746696E+02  0.90000008152E+02 0.  0.
         12    1    1    2    0    0 -0.56142658134E+00  0.66243165803E+00  0.79936371856E+00  0.11802533043E+01  0.00000000000E+00 0. -1.
         11    1    3    3    0    0  0.73632882438E+01  0.79037362009E+00 -0.18843711165E+01  0.76415678356E+01  0.51100000000E-03 0. -1.
        -11    1    3    3    0    0  0.23904854098E+02  0.20069566851E+02 -0.22131472291E+02  0.38262666256E+02  0.51100000000E-03 0.  1.
         12    1    3    3    0    0 -0.30706715760E+02 -0.21522372129E+02  0.23216479689E+02  0.44103512604E+02  0.00000000000E+00 0. -1.
</event>
<event>
 7    1  0.2682188E-015  0.9000774E+02  0.7816164E-02  0.1186339E+00
        -11   -1    0    0    0    0  0.00000000000E+00  0.00000000000E+00  0.45593999997E+02  0.45594000000E+02  0.51100000000E-03 0.  1.
         11   -1    0    0    0    0 -0.00000000000E+00 -0.00000000000E+00 -0.45593999997E+02  0.45594000000E+02  0.51100000000E-03 0. -1.
    9900012    2    1    2    0    0 -0.55307787397E+00  0.68757916916E+00  0.78380161705E+00  0.90007743577E+02  0.90000004992E+02 0.  0.
         12    1    1    2    0    0  0.55307787397E+00 -0.68757916916E+00 -0.78380161705E+00  0.11802564227E+01  0.00000000000E+00 0. -1.
         11    1    3    3    0    0 -0.24734422626E+02 -0.32126980705E+02 -0.28759508766E+00  0.40546482745E+02  0.51100000000E-03 0. -1.
        -11    1    3    3    0    0  0.28208400123E+01 -0.25057684077E+01 -0.64806737592E+01  0.74990096894E+01  0.51100000000E-03 0.  1.
        -12    1    3    3    0    0  0.21360504740E+02  0.35320328282E+02  0.75520704639E+01  0.41962251142E+02  0.00000000000E+00 0.  1.
</event>
<event>
 7    1  0.2682188E-015  0.9000785E+02  0.7816164E-02  0.1186339E+00
        -11   -1    0    0    0    0  0.00000000000E+00  0.00000000000E+00  0.45593999997E+02  0.45594000000E+02  0.51100000000E-03 0.  1.
         11   -1    0    0    0    0 -0.00000000000E+00 -0.00000000000E+00 -0.45593999997E+02  0.45594000000E+02  0.51100000000E-03 0. -1.
    9900012    2    1    2    0    0 -0.85931633628E+00  0.54817549704E+00 -0.59483277011E+00  0.90007852990E+02  0.90000115849E+02 0.  0.
         12    1    1    2    0    0  0.85931633628E+00 -0.54817549704E+00  0.59483277011E+00  0.11801470102E+01  0.00000000000E+00 0. -1.
         11    1    3    3    0    0 -0.23966388837E+02 -0.23393218831E+02 -0.23797701163E+02  0.41084803299E+02  0.51100000000E-03 0. -1.
        -11    1    3    3    0    0 -0.39198251039E+01 -0.43020344894E-01  0.95009682737E+01  0.10277902412E+02  0.51100000000E-03 0.  1.
        -12    1    3    3    0    0  0.27026897604E+02  0.23984414673E+02  0.13701900119E+02  0.38645147279E+02  0.00000000000E+00 0.  1.
</event>
<event>
 7    1  0.2682188E-015  0.9000774E+02  0.7816164E-02  0.1186339E+00
        -11   -1    0    0    0    0  0.00000000000E+00  0.00000000000E+00  0.45593999997E+02  0.45594000000E+02  0.51100000000E-03 0.  1.
         11   -1    0    0    0    0 -0.00000000000E+00 -0.00000000000E+00 -0.45593999997E+02  0.45594000000E+02  0.51100000000E-03 0. -1.
    9900012    2    1    2    0    0  0.96110278454E+00  0.37197089443E+00  0.57526309876E+00  0.90007742172E+02  0.90000003568E+02 0.  0.
         12    1    1    2    0    0 -0.96110278454E+00 -0.37197089443E+00 -0.57526309876E+00  0.11802578284E+01  0.00000000000E+00 0. -1.
         11    1    3    3    0    0  0.19013284828E+02  0.31294799716E+02 -0.15688915263E+01  0.36651478962E+02  0.51100000000E-03 0. -1.
        -11    1    3    3    0    0 -0.15008233139E+01  0.95022646243E+01 -0.27613861379E-01  0.96200970056E+01  0.51100000000E-03 0.  1.
        -12    1    3    3    0    0 -0.16551358730E+02 -0.40425093446E+02  0.21717684864E+01  0.43736166204E+02  0.00000000000E+00 0.  1.
</event>
<event>
 7    1  0.2682188E-015  0.9000767E+02  0.7816164E-02  0.1186339E+00
        -11   -1    0    0    0    0  0.00000000000E+00  0.00000000000E+00  0.45593999997E+02  0.45594000000E+02  0.51100000000E-03 0.  1.
         11   -1    0    0    0    0 -0.00000000000E+00 -0.00000000000E+00 -0.45593999997E+02  0.45594000000E+02  0.51100000000E-03 0. -1.
    9900012    2    1    2    0    0 -0.10467984889E+00 -0.45030510689E+00  0.10860186516E+01  0.90007674167E+02  0.89999934666E+02 0.  0.
         12    1    1    2    0    0  0.10467984889E+00  0.45030510689E+00 -0.10860186516E+01  0.11803258328E+01  0.00000000000E+00 0. -1.
         11    1    3    3    0    0 -0.39528935595E+02 -0.10038126759E+01 -0.83310983404E+01  0.40409795706E+02  0.51100000000E-03 0. -1.
        -11    1    3    3    0    0  0.88448576133E+00  0.90177974351E+01  0.34270086240E+01  0.96874854329E+01  0.51100000000E-03 0.  1.
        -12    1    3    3    0    0  0.38539769985E+02 -0.84642898660E+01  0.59901083680E+01  0.39910393028E+02  0.00000000000E+00 0.  1.
</event>
<event>
 7    1  0.2682188E-015  0.9000775E+02  0.7816164E-02  0.1186339E+00
        -11   -1    0    0    0    0  0.00000000000E+00  0.00000000000E+00  0.45593999997E+02  0.45594000000E+02  0.51100000000E-03 0.  1.
         11   -1    0    0    0    0 -0.00000000000E+00 -0.00000000000E+00 -0.45593999997E+02  0.45594000000E+02  0.51100000000E-03 0. -1.
    9900012    2    1    2    0    0 -0.97325649695E+00  0.40135064663E+00  0.53354970995E+00  0.90007751787E+02  0.90000013311E+02 0.  0.
         12    1    1    2    0    0  0.97325649695E+00 -0.40135064663E+00 -0.53354970995E+00  0.11802482126E+01  0.00000000000E+00 0. -1.
         11    1    3    3    0    0  0.27263141234E+02  0.67847949916E+01 -0.27437922150E+02  0.39270241726E+02  0.51100000000E-03 0. -1.
        -11    1    3    3    0    0 -0.49425701571E+01  0.88493561333E+01 -0.14477811613E+01  0.10238953769E+02  0.51100000000E-03 0.  1.
        -12    1    3    3    0    0 -0.23293827574E+02 -0.15232800478E+02  0.29419253021E+02  0.40498556293E+02  0.00000000000E+00 0.  1.
</event>
<event>
 7    1  0.2682188E-015  0.9000772E+02  0.7816164E-02  0.1186339E+00
        -11   -1    0    0    0    0  0.00000000000E+00  0.00000000000E+00  0.45593999997E+02  0.45594000000E+02  0.51100000000E-03 0.  1.
         11   -1    0    0    0    0 -0.00000000000E+00 -0.00000000000E+00 -0.45593999997E+02  0.45594000000E+02  0.51100000000E-03 0. -1.
    9900012    2    1    2    0    0 -0.36557625811E+00 -0.97102361110E+00 -0.56260380354E+00  0.90007722112E+02  0.89999983244E+02 0.  0.
         12    1    1    2    0    0  0.36557625811E+00  0.97102361110E+00  0.56260380354E+00  0.11802778883E+01  0.00000000000E+00 0. -1.
         11    1    3    3    0    0  0.49169409386E+01 -0.40815451753E+01 -0.70393858625E+01  0.95072747301E+01  0.51100000000E-03 0. -1.
        -11    1    3    3    0    0  0.13957959708E+02 -0.34866262447E+02  0.92930211038E+00  0.37567865243E+02  0.51100000000E-03 0.  1.
         12    1    3    3    0    0 -0.19240476905E+02  0.37976784011E+02  0.55474799486E+01  0.42932582139E+02  0.00000000000E+00 0. -1.
</event>
<event>
 7    1  0.2682188E-015  0.9000777E+02  0.7816164E-02  0.1186339E+00
        -11   -1    0    0    0    0  0.00000000000E+00  0.00000000000E+00  0.45593999997E+02  0.45594000000E+02  0.51100000000E-03 0.  1.
         11   -1    0    0    0    0 -0.00000000000E+00 -0.00000000000E+00 -0.45593999997E+02  0.45594000000E+02  0.51100000000E-03 0. -1.
    9900012    2    1    2    0    0  0.64945266424E+00  0.84262444392E+00  0.51101700472E+00  0.90007769897E+02  0.90000031660E+02 0.  0.
         12    1    1    2    0    0 -0.64945266424E+00 -0.84262444392E+00 -0.51101700472E+00  0.11802301029E+01  0.00000000000E+00 0. -1.
         11    1    3    3    0    0 -0.13272473684E+02 -0.25112635153E+02 -0.27039372612E+02  0.39216459217E+02  0.51100000000E-03 0. -1.
        -11    1    3    3    0    0 -0.90182648387E+01  0.28331218231E+01  0.27246803798E+01  0.98376604637E+01  0.51100000000E-03 0.  1.
        -12    1    3    3    0    0  0.22940191187E+02  0.23122137774E+02  0.24825709237E+02  0.40953650216E+02  0.00000000000E+00 0.  1.
</event>
<event>
 7    1  0.2682188E-015  0.9000762E+02  0.7816164E-02  0.1186339E+00
        -11   -1    0    0    0    0  0.00000000000E+00  0.00000000000E+00  0.45593999997E+02  0.45594000000E+02  0.51100000000E-03 0. -1.
         11   -1    0    0    0    0 -0.00000000000E+00 -0.00000000000E+00 -0.45593999997E+02  0.45594000000E+02  0.51100000000E-03 0.  1.
    9900012    2    1    2    0    0 -0.11684397340E+01  0.13980177915E+00 -0.92217602376E-01  0.90007618691E+02  0.89999878457E+02 0.  0.
         12    1    1    2    0    0  0.11684397340E+01 -0.13980177915E+00  0.92217602376E-01  0.11803813094E+01  0.00000000000E+00 0. -1.
         11    1    3    3    0    0  0.17146688535E+02 -0.32651961507E+02 -0.84191292878E+01  0.37829105940E+02  0.51100000000E-03 0. -1.
        -11    1    3    3    0    0 -0.11551498138E+02 -0.52597766392E+01  0.24731774850E+00  0.12695019726E+02  0.51100000000E-03 0.  1.
        -12    1    3    3    0    0 -0.67636301309E+01  0.38051539925E+02  0.80795939370E+01  0.39483493025E+02  0.00000000000E+00 0.  1.
</event>
<event>
 7    1  0.2682188E-015  0.9000759E+02  0.7816164E-02  0.1186339E+00
        -11   -1    0    0    0    0  0.00000000000E+00  0.00000000000E+00  0.45593999997E+02  0.45594000000E+02  0.51100000000E-03 0.  1.
         11   -1    0    0    0    0 -0.00000000000E+00 -0.00000000000E+00 -0.45593999997E+02  0.45594000000E+02  0.51100000000E-03 0. -1.
    9900012    2    1    2    0    0  0.20295478686E+00 -0.98010319285E+00  0.62575278721E+00  0.90007593517E+02  0.89999852951E+02 0.  0.
         12    1    1    2    0    0 -0.20295478686E+00  0.98010319285E+00 -0.62575278721E+00  0.11804064829E+01  0.00000000000E+00 0. -1.
         11    1    3    3    0    0 -0.30704797691E+01 -0.38939802063E+02 -0.88747629485E+01  0.40056178654E+02  0.51100000000E-03 0. -1.
        -11    1    3    3    0    0 -0.77706520431E+00 -0.29391064735E+01  0.82953317179E+01  0.88348574276E+01  0.51100000000E-03 0.  1.
        -12    1    3    3    0    0  0.40504997603E+01  0.40898805343E+02  0.12051840178E+01  0.41116557436E+02  0.00000000000E+00 0.  1.
</event>
<event>
 7    1  0.2682188E-015  0.9000765E+02  0.7816164E-02  0.1186339E+00
        -11   -1    0    0    0    0  0.00000000000E+00  0.00000000000E+00  0.45593999997E+02  0.45594000000E+02  0.51100000000E-03 0.  1.
         11   -1    0    0    0    0 -0.00000000000E+00 -0.00000000000E+00 -0.45593999997E+02  0.45594000000E+02  0.51100000000E-03 0. -1.
    9900012    2    1    2    0    0 -0.61492685138E+00  0.98984168891E+00  0.18791235946E+00  0.90007647232E+02  0.89999907376E+02 0.  0.
         12    1    1    2    0    0  0.61492685138E+00 -0.98984168891E+00 -0.18791235946E+00  0.11803527678E+01  0.00000000000E+00 0. -1.
         11    1    3    3    0    0 -0.23548228298E+02  0.83958776871E+01 -0.29370827408E+02  0.38570135092E+02  0.51100000000E-03 0. -1.
        -11    1    3    3    0    0  0.13467223679E+02  0.89451664793E+01 -0.22230218456E+00  0.16168844594E+02  0.51100000000E-03 0.  1.
        -12    1    3    3    0    0  0.94660777672E+01 -0.16351202477E+02  0.29781041952E+02  0.35268667547E+02  0.00000000000E+00 0.  1.
</event>
<event>
 7    1  0.2682188E-015  0.9000775E+02  0.7816164E-02  0.1186339E+00
        -11   -1    0    0    0    0  0.00000000000E+00  0.00000000000E+00  0.45593999997E+02  0.45594000000E+02  0.51100000000E-03 0. -1.
         11   -1    0    0    0    0 -0.00000000000E+00 -0.00000000000E+00 -0.45593999997E+02  0.45594000000E+02  0.51100000000E-03 0.  1.
    9900012    2    1    2    0    0 -0.21710287854E+00 -0.10979049761E+01 -0.37479240930E+00  0.90007746491E+02  0.90000007944E+02 0.  0.
         12    1    1    2    0    0  0.21710287854E+00  0.10979049761E+01  0.37479240930E+00  0.11802535094E+01  0.00000000000E+00 0. -1.
         11    1    3    3    0    0 -0.10706582819E+01 -0.16702165795E+02  0.36279827545E+02  0.39954155458E+02  0.51100000000E-03 0. -1.
        -11    1    3    3    0    0  0.73710296956E+01  0.26349609864E+01  0.25624848003E+01  0.82365907260E+01  0.51100000000E-03 0.  1.
        -12    1    3    3    0    0 -0.65174742923E+01  0.12969299833E+02 -0.39217104755E+02  0.41817000307E+02  0.00000000000E+00 0.  1.
</event>
<event>
 7    1  0.2682188E-015  0.9000843E+02  0.7816164E-02  0.1186338E+00
        -11   -1    0    0    0    0  0.00000000000E+00  0.00000000000E+00  0.45593999997E+02  0.45594000000E+02  0.51100000000E-03 0.  1.
         11   -1    0    0    0    0 -0.00000000000E+00 -0.00000000000E+00 -0.45593999997E+02  0.45594000000E+02  0.51100000000E-03 0. -1.
    9900012    2    1    2    0    0 -0.95327706883E+00  0.69149770071E+00 -0.66858806363E-01  0.90008433834E+02  0.90000704358E+02 0.  0.
         12    1    1    2    0    0  0.95327706883E+00 -0.69149770071E+00  0.66858806363E-01  0.11795661660E+01  0.00000000000E+00 0. -1.
         11    1    3    3    0    0  0.92570020001E+00  0.11548414994E-01 -0.89593062937E+01  0.90070097009E+01  0.51100000000E-03 0. -1.
        -11    1    3    3    0    0  0.47905247059E+01 -0.30255497035E+02 -0.21262571384E+02  0.37288619845E+02  0.51100000000E-03 0.  1.
         12    1    3    3    0    0 -0.66695019747E+01  0.30935446321E+02  0.30155018871E+02  0.43712804289E+02  0.00000000000E+00 0. -1.
</event>
<event>
 7    1  0.4204848E-015  0.9000732E+02  0.7816164E-02  0.1186340E+00
        -11   -1    0    0    0    0  0.00000000000E+00  0.00000000000E+00  0.45593999997E+02  0.45594000000E+02  0.51100000000E-03 0. -1.
         11   -1    0    0    0    0 -0.00000000000E+00 -0.00000000000E+00 -0.45593999997E+02  0.45594000000E+02  0.51100000000E-03 0.  1.
    9900012    2    1    2    0    0 -0.14364135294E+00 -0.11275317621E+01 -0.31946098924E+00  0.90007315437E+02  0.89999571200E+02 0.  0.
         12    1    1    2    0    0  0.14364135294E+00  0.11275317621E+01  0.31946098924E+00  0.11806845626E+01  0.00000000000E+00 0. -1.
         11    1    3    3    0    0  0.98058814034E+01 -0.81329377003E+00  0.21185187266E+01  0.10065032474E+02  0.51100000000E-03 0. -1.
        -11    1    3    3    0    0  0.20418590740E+02 -0.10911304020E+02 -0.29784833258E+02  0.37724152683E+02  0.51100000000E-03 0.  1.
         12    1    3    3    0    0 -0.30368113496E+02  0.10597066028E+02  0.27346853542E+02  0.42218130280E+02  0.00000000000E+00 0. -1.
</event>
<event>
 7    1  0.2682188E-015  0.9000770E+02  0.7816164E-02  0.1186339E+00
        -11   -1    0    0    0    0  0.00000000000E+00  0.00000000000E+00  0.45593999997E+02  0.45594000000E+02  0.51100000000E-03 0. -1.
         11   -1    0    0    0    0 -0.00000000000E+00 -0.00000000000E+00 -0.45593999997E+02  0.45594000000E+02  0.51100000000E-03 0.  1.
    9900012    2    1    2    0    0 -0.11627178138E+01  0.19153654370E+00  0.67124169274E-01  0.90007701472E+02  0.89999962331E+02 0.  0.
         12    1    1    2    0    0  0.11627178138E+01 -0.19153654370E+00 -0.67124169274E-01  0.11802985284E+01  0.00000000000E+00 0. -1.
         11    1    3    3    0    0  0.91695530167E+01 -0.28507454272E+01  0.32269050442E+02  0.33667477909E+02  0.51100000000E-03 0. -1.
        -11    1    3    3    0    0  0.54598455697E+01  0.79328610774E+01  0.82244141633E+01  0.12664169420E+02  0.51100000000E-03 0.  1.
        -12    1    3    3    0    0 -0.15792116400E+02 -0.48905791065E+01 -0.40426340436E+02  0.43676054143E+02  0.00000000000E+00 0.  1.
</event>
<event>
 7    1  0.2682188E-015  0.9000769E+02  0.7816164E-02  0.1186339E+00
        -11   -1    0    0    0    0  0.00000000000E+00  0.00000000000E+00  0.45593999997E+02  0.45594000000E+02  0.51100000000E-03 0.  1.
         11   -1    0    0    0    0 -0.00000000000E+00 -0.00000000000E+00 -0.45593999997E+02  0.45594000000E+02  0.51100000000E-03 0. -1.
    9900012    2    1    2    0    0 -0.27740232875E-01 -0.38990077623E+00  0.11137030202E+01  0.90007692179E+02  0.89999952915E+02 0.  0.
         12    1    1    2    0    0  0.27740232875E-01  0.38990077623E+00 -0.11137030202E+01  0.11803078213E+01  0.00000000000E+00 0. -1.
         11    1    3    3    0    0 -0.47108108276E+01 -0.25019321740E+01  0.74693602929E+01  0.91783847546E+01  0.51100000000E-03 0. -1.
        -11    1    3    3    0    0 -0.28821694469E+02 -0.23901516576E+02  0.23905000143E+01  0.37519155872E+02  0.51100000000E-03 0.  1.
         12    1    3    3    0    0  0.33504765064E+02  0.26013547974E+02 -0.87461572869E+01  0.43310151552E+02  0.00000000000E+00 0. -1.
</event>
<event>
 7    1  0.2682188E-015  0.9000797E+02  0.7816164E-02  0.1186339E+00
        -11   -1    0    0    0    0  0.00000000000E+00  0.00000000000E+00  0.45593999997E+02  0.45594000000E+02  0.51100000000E-03 0. -1.
         11   -1    0    0    0    0 -0.00000000000E+00 -0.00000000000E+00 -0.45593999997E+02  0.45594000000E+02  0.51100000000E-03 0.  1.
    9900012    2    1    2    0    0  0.11544960845E+00  0.61006145744E+00 -0.10034751048E+01  0.90007972085E+02  0.90000236516E+02 0.  0.
         12    1    1    2    0    0 -0.11544960845E+00 -0.61006145744E+00  0.10034751048E+01  0.11800279149E+01  0.00000000000E+00 0. -1.
         11    1    3    3    0    0  0.15307191210E+01  0.33205120871E+01 -0.78445198371E+01  0.86547901929E+01  0.51100000000E-03 0. -1.
        -11    1    3    3    0    0 -0.40456643498E+02 -0.41792374740E+01  0.10807534028E+02  0.42083355629E+02  0.51100000000E-03 0.  1.
         12    1    3    3    0    0  0.39041373985E+02  0.14687868444E+01 -0.39664892953E+01  0.39269826263E+02  0.00000000000E+00 0. -1.
</event>
<event>
 7    1  0.2682188E-015  0.9000779E+02  0.7816164E-02  0.1186339E+00
        -11   -1    0    0    0    0  0.00000000000E+00  0.00000000000E+00  0.45593999997E+02  0.45594000000E+02  0.51100000000E-03 0.  1.
         11   -1    0    0    0    0 -0.00000000000E+00 -0.00000000000E+00 -0.45593999997E+02  0.45594000000E+02  0.51100000000E-03 0. -1.
    9900012    2    1    2    0    0  0.79060898437E+00 -0.32125682330E+00  0.81523999692E+00  0.90007794609E+02  0.90000056698E+02 0.  0.
         12    1    1    2    0    0 -0.79060898437E+00  0.32125682330E+00 -0.81523999692E+00  0.11802053911E+01  0.00000000000E+00 0. -1.
         11    1    3    3    0    0  0.35463594631E+02 -0.89049432130E+01  0.21072675121E+02  0.42202158651E+02  0.51100000000E-03 0. -1.
        -11    1    3    3    0    0  0.13887035230E+01  0.70621575052E+01 -0.37588478069E+01  0.81198216236E+01  0.51100000000E-03 0.  1.
        -12    1    3    3    0    0 -0.36061689170E+02  0.15215288845E+01 -0.16498587317E+02  0.39685814334E+02  0.00000000000E+00 0.  1.
</event>
<event>
 7    1  0.2682188E-015  0.9000782E+02  0.7816164E-02  0.1186339E+00
        -11   -1    0    0    0    0  0.00000000000E+00  0.00000000000E+00  0.45593999997E+02  0.45594000000E+02  0.51100000000E-03 0.  1.
         11   -1    0    0    0    0 -0.00000000000E+00 -0.00000000000E+00 -0.45593999997E+02  0.45594000000E+02  0.51100000000E-03 0. -1.
    9900012    2    1    2    0    0  0.69313417873E+00 -0.49327073005E-02  0.95517968256E+00  0.90007818850E+02  0.90000081259E+02 0.  0.
         12    1    1    2    0    0 -0.69313417873E+00  0.49327073005E-02 -0.95517968256E+00  0.11801811502E+01  0.00000000000E+00 0. -1.
         11    1    3    3    0    0  0.80166293564E+01  0.37101602065E+01  0.40520735981E+01  0.97185871248E+01  0.51100000000E-03 0. -1.
        -11    1    3    3    0    0  0.13840107742E+02  0.20610258033E+02  0.26648750805E+02  0.36420972505E+02  0.51100000000E-03 0.  1.
         12    1    3    3    0    0 -0.21163602919E+02 -0.24325350946E+02 -0.29745644720E+02  0.43868259220E+02  0.00000000000E+00 0. -1.
</event>
<event>
 7    1  0.2682188E-015  0.9000760E+02  0.7816164E-02  0.1186339E+00
        -11   -1    0    0    0    0  0.00000000000E+00  0.00000000000E+00  0.45593999997E+02  0.45594000000E+02  0.51100000000E-03 0.  1.
         11   -1    0    0    0    0 -0.00000000000E+00 -0.00000000000E+00 -0.45593999997E+02  0.45594000000E+02  0.51100000000E-03 0. -1.
    9900012    2    1    2    0    0 -0.77590978078E+00 -0.26325718797E+00  0.84971487617E+00  0.90007595109E+02  0.89999854565E+02 0.  0.
         12    1    1    2    0    0  0.77590978078E+00  0.26325718797E+00 -0.84971487617E+00  0.11804048906E+01  0.00000000000E+00 0. -1.
         11    1    3    3    0    0 -0.52541872445E+01 -0.70287522967E+01  0.36430533028E+01  0.95016672262E+01  0.51100000000E-03 0. -1.
        -11    1    3    3    0    0  0.14836923202E+02 -0.13285722496E+02  0.32792651760E+02  0.38366687661E+02  0.51100000000E-03 0.  1.
         12    1    3    3    0    0 -0.10358645738E+02  0.20051217604E+02 -0.35585990187E+02  0.42139240222E+02  0.00000000000E+00 0. -1.
</event>
<event>
 7    1  0.2682188E-015  0.9000786E+02  0.7816164E-02  0.1186339E+00
        -11   -1    0    0    0    0  0.00000000000E+00  0.00000000000E+00  0.45593999997E+02  0.45594000000E+02  0.51100000000E-03 0.  1.
         11   -1    0    0    0    0 -0.00000000000E+00 -0.00000000000E+00 -0.45593999997E+02  0.45594000000E+02  0.51100000000E-03 0. -1.
    9900012    2    1    2    0    0  0.11709694601E+01  0.85661413968E-01 -0.11928048544E+00  0.90007857979E+02  0.90000120905E+02 0.  0.
         12    1    1    2    0    0 -0.11709694601E+01 -0.85661413968E-01  0.11928048544E+00  0.11801420205E+01  0.00000000000E+00 0. -1.
         11    1    3    3    0    0 -0.79615118053E+01 -0.21083760337E+01  0.25745383803E+02  0.27030643854E+02  0.51100000000E-03 0. -1.
        -11    1    3    3    0    0  0.16997172173E+01  0.74642879231E+01  0.17270013831E+02  0.18890685821E+02  0.51100000000E-03 0.  1.
         12    1    3    3    0    0  0.74327640481E+01 -0.52702504754E+01 -0.43134678119E+02  0.44086528304E+02  0.00000000000E+00 0. -1.
</event>
<event>
 7    1  0.2682188E-015  0.9000767E+02  0.7816164E-02  0.1186339E+00
        -11   -1    0    0    0    0  0.00000000000E+00  0.00000000000E+00  0.45593999997E+02  0.45594000000E+02  0.51100000000E-03 0.  1.
         11   -1    0    0    0    0 -0.00000000000E+00 -0.00000000000E+00 -0.45593999997E+02  0.45594000000E+02  0.51100000000E-03 0. -1.
    9900012    2    1    2    0    0  0.46544288644E+00 -0.10842493168E+01 -0.30832982357E-01  0.90007667702E+02  0.89999928115E+02 0.  0.
         12    1    1    2    0    0 -0.46544288644E+00  0.10842493168E+01  0.30832982357E-01  0.11803322983E+01  0.00000000000E+00 0. -1.
         11    1    3    3    0    0 -0.11177587569E+01  0.26129138250E+02 -0.32226986122E+02  0.41503733388E+02  0.51100000000E-03 0. -1.
        -11    1    3    3    0    0 -0.20639033370E+01 -0.89730585099E+01 -0.21401175660E+01  0.94528080200E+01  0.51100000000E-03 0.  1.
        -12    1    3    3    0    0  0.36471049803E+01 -0.18240329057E+02  0.34336270706E+02  0.39051126294E+02  0.00000000000E+00 0.  1.
</event>
<event>
 7    1  0.2682188E-015  0.9000734E+02  0.7816164E-02  0.1186340E+00
        -11   -1    0    0    0    0  0.00000000000E+00  0.00000000000E+00  0.45593999997E+02  0.45594000000E+02  0.51100000000E-03 0. -1.
         11   -1    0    0    0    0 -0.00000000000E+00 -0.00000000000E+00 -0.45593999997E+02  0.45594000000E+02  0.51100000000E-03 0.  1.
    9900012    2    1    2    0    0 -0.17963628194E+00  0.37136598237E+00 -0.11062476613E+01  0.90007336723E+02  0.89999592766E+02 0.  0.
         12    1    1    2    0    0  0.17963628194E+00 -0.37136598237E+00  0.11062476613E+01  0.11806632775E+01  0.00000000000E+00 0. -1.
         11    1    3    3    0    0  0.20126172984E+02  0.25367225117E+02  0.18020106140E+02  0.37057835537E+02  0.51100000000E-03 0. -1.
        -11    1    3    3    0    0 -0.11782620734E+02  0.81568542990E+01 -0.13932625886E+01  0.14398111137E+02  0.51100000000E-03 0.  1.
        -12    1    3    3    0    0 -0.85231885322E+01 -0.33152713433E+02 -0.17733091213E+02  0.38551390049E+02  0.00000000000E+00 0.  1.
</event>
<event>
 7    1  0.2682188E-015  0.9000773E+02  0.7816164E-02  0.1186339E+00
        -11   -1    0    0    0    0  0.00000000000E+00  0.00000000000E+00  0.45593999997E+02  0.45594000000E+02  0.51100000000E-03 0.  1.
         11   -1    0    0    0    0 -0.00000000000E+00 -0.00000000000E+00 -0.45593999997E+02  0.45594000000E+02  0.51100000000E-03 0. -1.
    9900012    2    1    2    0    0  0.40183041256E+00  0.10885884486E+01 -0.21576311745E+00  0.90007726212E+02  0.89999987398E+02 0.  0.
         12    1    1    2    0    0 -0.40183041256E+00 -0.10885884486E+01  0.21576311745E+00  0.11802737877E+01  0.00000000000E+00 0. -1.
         11    1    3    3    0    0  0.14611395932E+02 -0.25385450703E+02  0.41104296210E+01  0.29577180907E+02  0.51100000000E-03 0. -1.
        -11    1    3    3    0    0  0.15783368103E+02  0.17783224619E+02 -0.14181901051E+02  0.27685449323E+02  0.51100000000E-03 0.  1.
         12    1    3    3    0    0 -0.29992933622E+02  0.86908145331E+01  0.98557083130E+01  0.32745095982E+02  0.00000000000E+00 0. -1.
</event>
<event>
 7    1  0.2682188E-015  0.9000775E+02  0.7816164E-02  0.1186339E+00
        -11   -1    0    0    0    0  0.00000000000E+00  0.00000000000E+00  0.45593999997E+02  0.45594000000E+02  0.51100000000E-03 0.  1.
         11   -1    0    0    0    0 -0.00000000000E+00 -0.00000000000E+00 -0.45593999997E+02  0.45594000000E+02  0.51100000000E-03 0. -1.
    9900012    2    1    2    0    0  0.61175455519E+00 -0.99758754250E+00  0.15350587343E+00  0.90007750622E+02  0.90000012130E+02 0.  0.
         12    1    1    2    0    0 -0.61175455519E+00  0.99758754250E+00 -0.15350587343E+00  0.11802493778E+01  0.00000000000E+00 0. -1.
         11    1    3    3    0    0 -0.96154021447E+01  0.46025645140E+01  0.12527923844E+01  0.10733547761E+02  0.51100000000E-03 0. -1.
        -11    1    3    3    0    0 -0.25644199016E+02 -0.30723736526E+01  0.24130444984E+02  0.35346043603E+02  0.51100000000E-03 0.  1.
         12    1    3    3    0    0  0.35871355716E+02 -0.25277784038E+01 -0.25229731495E+02  0.43928159258E+02  0.00000000000E+00 0. -1.
</event>
<event>
 7    1  0.2682188E-015  0.9000769E+02  0.7816164E-02  0.1186339E+00
        -11   -1    0    0    0    0  0.00000000000E+00  0.00000000000E+00  0.45593999997E+02  0.45594000000E+02  0.51100000000E-03 0. -1.
         11   -1    0    0    0    0 -0.00000000000E+00 -0.00000000000E+00 -0.45593999997E+02  0.45594000000E+02  0.51100000000E-03 0.  1.
    9900012    2    1    2    0    0 -0.53070969266E+00  0.20814255814E+00 -0.10335124996E+01  0.90007693180E+02  0.89999953930E+02 0.  0.
         12    1    1    2    0    0  0.53070969266E+00 -0.20814255814E+00  0.10335124996E+01  0.11803068199E+01  0.00000000000E+00 0. -1.
         11    1    3    3    0    0  0.29310601385E+01  0.88469403425E+01 -0.27723174230E+01  0.97234361783E+01  0.51100000000E-03 0. -1.
        -11    1    3    3    0    0  0.44059351164E+01  0.30033920469E+02 -0.18890007794E+02  0.35753056340E+02  0.51100000000E-03 0.  1.
         12    1    3    3    0    0 -0.78677049475E+01 -0.38672718253E+02  0.20628812717E+02  0.44531200661E+02  0.00000000000E+00 0. -1.
</event>
<event>
 7    1  0.2682188E-015  0.9000776E+02  0.7816164E-02  0.1186339E+00
        -11   -1    0    0    0    0  0.00000000000E+00  0.00000000000E+00  0.45593999997E+02  0.45594000000E+02  0.51100000000E-03 0. -1.
         11   -1    0    0    0    0 -0.00000000000E+00 -0.00000000000E+00 -0.45593999997E+02  0.45594000000E+02  0.51100000000E-03 0.  1.
    9900012    2    1    2    0    0 -0.55527172577E+00 -0.21426695583E+00 -0.10191830555E+01  0.90007758025E+02  0.90000019631E+02 0.  0.
         12    1    1    2    0    0  0.55527172577E+00  0.21426695583E+00  0.10191830555E+01  0.11802419745E+01  0.00000000000E+00 0. -1.
         11    1    3    3    0    0  0.84673285074E+01  0.38235904432E+02  0.14072139682E+02  0.41613761609E+02  0.51100000000E-03 0. -1.
        -11    1    3    3    0    0 -0.80822712709E+01 -0.60577097045E+00 -0.32060618608E+01  0.87160140133E+01  0.51100000000E-03 0.  1.
        -12    1    3    3    0    0 -0.94032896234E+00 -0.37844400417E+02 -0.11885260876E+02  0.39677982403E+02  0.00000000000E+00 0.  1.
</event>
<event>
 7    1  0.2682188E-015  0.9000807E+02  0.7816164E-02  0.1186338E+00
        -11   -1    0    0    0    0  0.00000000000E+00  0.00000000000E+00  0.45593999997E+02  0.45594000000E+02  0.51100000000E-03 0. -1.
         11   -1    0    0    0    0 -0.00000000000E+00 -0.00000000000E+00 -0.45593999997E+02  0.45594000000E+02  0.51100000000E-03 0.  1.
    9900012    2    1    2    0    0  0.67656770496E+00 -0.59276316416E+00 -0.76363083150E+00  0.90008066072E+02  0.90000331743E+02 0.  0.
         12    1    1    2    0    0 -0.67656770496E+00  0.59276316416E+00  0.76363083150E+00  0.11799339282E+01  0.00000000000E+00 0. -1.
         11    1    3    3    0    0  0.25359231695E+02 -0.32263974745E+02  0.15048462873E+02  0.43709391824E+02  0.51100000000E-03 0. -1.
        -11    1    3    3    0    0  0.67459659668E+00  0.88428590357E+01 -0.62993719712E+01  0.10878112152E+02  0.51100000000E-03 0.  1.
        -12    1    3    3    0    0 -0.25357260587E+02  0.22828352545E+02 -0.95127217329E+01  0.35420562096E+02  0.00000000000E+00 0.  1.
</event>
<event>
 7    1  0.2682188E-015  0.9000772E+02  0.7816164E-02  0.1186339E+00
        -11   -1    0    0    0    0  0.00000000000E+00  0.00000000000E+00  0.45593999997E+02  0.45594000000E+02  0.51100000000E-03 0.  1.
         11   -1    0    0    0    0 -0.00000000000E+00 -0.00000000000E+00 -0.45593999997E+02  0.45594000000E+02  0.51100000000E-03 0. -1.
    9900012    2    1    2    0    0  0.29379525457E+00  0.46663424900E+00  0.10435513539E+01  0.90007719270E+02  0.89999980364E+02 0.  0.
         12    1    1    2    0    0 -0.29379525457E+00 -0.46663424900E+00 -0.10435513539E+01  0.11802807303E+01  0.00000000000E+00 0. -1.
         11    1    3    3    0    0 -0.13505965406E+01  0.95423206028E+01  0.27232050423E+01  0.10014781049E+02  0.51100000000E-03 0. -1.
        -11    1    3    3    0    0  0.26752264104E+02  0.17771077641E+02  0.19496562598E+02  0.37571409192E+02  0.51100000000E-03 0.  1.
         12    1    3    3    0    0 -0.25107872309E+02 -0.26846763995E+02 -0.21176216286E+02  0.42421529029E+02  0.00000000000E+00 0. -1.
</event>
<event>
 7    1  0.2682188E-015  0.9000768E+02  0.7816164E-02  0.1186339E+00
        -11   -1    0    0    0    0  0.00000000000E+00  0.00000000000E+00  0.45593999997E+02  0.45594000000E+02  0.51100000000E-03 0.  1.
         11   -1    0    0    0    0 -0.00000000000E+00 -0.00000000000E+00 -0.45593999997E+02  0.45594000000E+02  0.51100000000E-03 0. -1.
    9900012    2    1    2    0    0  0.38343560171E+00 -0.37272753049E+00  0.10522414240E+01  0.90007677719E+02  0.89999938265E+02 0.  0.
         12    1    1    2    0    0 -0.38343560171E+00  0.37272753049E+00 -0.10522414240E+01  0.11803222810E+01  0.00000000000E+00 0. -1.
         11    1    3    3    0    0 -0.30406747230E+02  0.19161416479E+02 -0.12175164452E+02  0.37946867964E+02  0.51100000000E-03 0. -1.
        -11    1    3    3    0    0 -0.54451683883E+01 -0.62694526161E-01  0.92493191245E+01  0.10733298370E+02  0.51100000000E-03 0.  1.
        -12    1    3    3    0    0  0.36235351220E+02 -0.19471449484E+02  0.39780867513E+01  0.41327511384E+02  0.00000000000E+00 0.  1.
</event>
<event>
 7    1  0.2682188E-015  0.9000774E+02  0.7816164E-02  0.1186339E+00
        -11   -1    0    0    0    0  0.00000000000E+00  0.00000000000E+00  0.45593999997E+02  0.45594000000E+02  0.51100000000E-03 0. -1.
         11   -1    0    0    0    0 -0.00000000000E+00 -0.00000000000E+00 -0.45593999997E+02  0.45594000000E+02  0.51100000000E-03 0.  1.
    9900012    2    1    2    0    0  0.41094815177E+00 -0.10548930222E+01  0.33365496138E+00  0.90007744390E+02  0.90000005816E+02 0.  0.
         12    1    1    2    0    0 -0.41094815177E+00  0.10548930222E+01 -0.33365496138E+00  0.11802556100E+01  0.00000000000E+00 0. -1.
         11    1    3    3    0    0  0.88352165282E+01  0.14323348341E+01  0.25137786329E+01  0.92968660017E+01  0.51100000000E-03 0. -1.
        -11    1    3    3    0    0  0.11452293117E+02  0.14589743670E+02 -0.34459318756E+02  0.39133876468E+02  0.51100000000E-03 0.  1.
         12    1    3    3    0    0 -0.19876561494E+02 -0.17076971527E+02  0.32279195085E+02  0.41577001920E+02  0.00000000000E+00 0. -1.
</event>
<event>
 7    1  0.2682188E-015  0.9000778E+02  0.7816164E-02  0.1186339E+00
        -11   -1    0    0    0    0  0.00000000000E+00  0.00000000000E+00  0.45593999997E+02  0.45594000000E+02  0.51100000000E-03 0.  1.
         11   -1    0    0    0    0 -0.00000000000E+00 -0.00000000000E+00 -0.45593999997E+02  0.45594000000E+02  0.51100000000E-03 0. -1.
    9900012    2    1    2    0    0 -0.86647003411E+00  0.31471330290E+00  0.73694897965E+00  0.90007784519E+02  0.90000046475E+02 0.  0.
         12    1    1    2    0    0  0.86647003411E+00 -0.31471330290E+00 -0.73694897965E+00  0.11802154810E+01  0.00000000000E+00 0. -1.
         11    1    3    3    0    0 -0.99299992358E+01  0.87395509482E+01  0.21877102882E+01  0.13407860089E+02  0.51100000000E-03 0. -1.
        -11    1    3    3    0    0 -0.10416437242E+02  0.74436615885E+01  0.32172388829E+02  0.34626187573E+02  0.51100000000E-03 0.  1.
         12    1    3    3    0    0  0.19479966444E+02 -0.15868499234E+02 -0.33623150137E+02  0.41973736857E+02  0.00000000000E+00 0. -1.
</event>
<event>
 7    1  0.2682188E-015  0.9000768E+02  0.7816164E-02  0.1186339E+00
        -11   -1    0    0    0    0  0.00000000000E+00  0.00000000000E+00  0.45593999997E+02  0.45594000000E+02  0.51100000000E-03 0.  1.
         11   -1    0    0    0    0 -0.00000000000E+00 -0.00000000000E+00 -0.45593999997E+02  0.45594000000E+02  0.51100000000E-03 0. -1.
    9900012    2    1    2    0    0  0.37261363431E+00 -0.60092362899E+00  0.94509575053E+00  0.90007679660E+02  0.89999940231E+02 0.  0.
         12    1    1    2    0    0 -0.37261363431E+00  0.60092362899E+00 -0.94509575053E+00  0.11803203404E+01  0.00000000000E+00 0. -1.
         11    1    3    3    0    0  0.43845728866E+01  0.27748458301E+02  0.23959796981E+02  0.36922530914E+02  0.51100000000E-03 0. -1.
        -11    1    3    3    0    0  0.15392566291E+01  0.87374277693E+01  0.39038706120E+00  0.88805606418E+01  0.51100000000E-03 0.  1.
        -12    1    3    3    0    0 -0.55512158814E+01 -0.37086809699E+02 -0.23405088292E+02  0.44204588103E+02  0.00000000000E+00 0.  1.
</event>
<event>
 7    1  0.2682188E-015  0.9000773E+02  0.7816164E-02  0.1186339E+00
        -11   -1    0    0    0    0  0.00000000000E+00  0.00000000000E+00  0.45593999997E+02  0.45594000000E+02  0.51100000000E-03 0.  1.
         11   -1    0    0    0    0 -0.00000000000E+00 -0.00000000000E+00 -0.45593999997E+02  0.45594000000E+02  0.51100000000E-03 0. -1.
    9900012    2    1    2    0    0  0.88498016983E-01 -0.10484632184E+01  0.53473466495E+00  0.90007725379E+02  0.89999986554E+02 0.  0.
         12    1    1    2    0    0 -0.88498016983E-01  0.10484632184E+01 -0.53473466495E+00  0.11802746211E+01  0.00000000000E+00 0. -1.
         11    1    3    3    0    0  0.21223269435E+02 -0.30868922408E+02  0.14253078112E+02  0.40080765612E+02  0.51100000000E-03 0. -1.
        -11    1    3    3    0    0  0.78428597279E+01  0.33268284291E+01 -0.43308745153E+01  0.95569195056E+01  0.51100000000E-03 0.  1.
        -12    1    3    3    0    0 -0.28977631146E+02  0.26493630761E+02 -0.93874689316E+01  0.40370040261E+02  0.00000000000E+00 0.  1.
</event>
<event>
 7    1  0.2682188E-015  0.9000764E+02  0.7816164E-02  0.1186339E+00
        -11   -1    0    0    0    0  0.00000000000E+00  0.00000000000E+00  0.45593999997E+02  0.45594000000E+02  0.51100000000E-03 0. -1.
         11   -1    0    0    0    0 -0.00000000000E+00 -0.00000000000E+00 -0.45593999997E+02  0.45594000000E+02  0.51100000000E-03 0.  1.
    9900012    2    1    2    0    0  0.44412991622E+00  0.98777740351E+00 -0.46935771984E+00  0.90007638932E+02  0.89999898966E+02 0.  0.
         12    1    1    2    0    0 -0.44412991622E+00 -0.98777740351E+00  0.46935771984E+00  0.11803610679E+01  0.00000000000E+00 0. -1.
         11    1    3    3    0    0 -0.29256689381E+02  0.15450047721E+02 -0.67450516970E+01  0.33766160142E+02  0.51100000000E-03 0. -1.
        -11    1    3    3    0    0 -0.10622465256E+02  0.39081627163E+01 -0.89658112717E+00  0.11354046059E+02  0.51100000000E-03 0.  1.
        -12    1    3    3    0    0  0.40323284553E+02 -0.18370433034E+02  0.71722751043E+01  0.44887432731E+02  0.00000000000E+00 0.  1.
</event>
<event>
 7    1  0.2682188E-015  0.9000773E+02  0.7816164E-02  0.1186339E+00
        -11   -1    0    0    0    0  0.00000000000E+00  0.00000000000E+00  0.45593999997E+02  0.45594000000E+02  0.51100000000E-03 0.  1.
         11   -1    0    0    0    0 -0.00000000000E+00 -0.00000000000E+00 -0.45593999997E+02  0.45594000000E+02  0.51100000000E-03 0. -1.
    9900012    2    1    2    0    0  0.88333680949E+00 -0.66545349268E+00  0.41222575307E+00  0.90007727853E+02  0.89999989060E+02 0.  0.
         12    1    1    2    0    0 -0.88333680949E+00  0.66545349268E+00 -0.41222575307E+00  0.11802721472E+01  0.00000000000E+00 0. -1.
         11    1    3    3    0    0  0.15771424191E+01 -0.29343001306E+02 -0.27616480413E+02  0.40325786967E+02  0.51100000000E-03 0. -1.
        -11    1    3    3    0    0 -0.14342522709E+02  0.10293329168E+02  0.85256812421E+01  0.19604790841E+02  0.51100000000E-03 0.  1.
        -12    1    3    3    0    0  0.13648717099E+02  0.18384218645E+02  0.19503024924E+02  0.30077150045E+02  0.00000000000E+00 0.  1.
</event>
<event>
 7    1  0.2682188E-015  0.9000782E+02  0.7816164E-02  0.1186339E+00
        -11   -1    0    0    0    0  0.00000000000E+00  0.00000000000E+00  0.45593999997E+02  0.45594000000E+02  0.51100000000E-03 0. -1.
         11   -1    0    0    0    0 -0.00000000000E+00 -0.00000000000E+00 -0.45593999997E+02  0.45594000000E+02  0.51100000000E-03 0.  1.
    9900012    2    1    2    0    0 -0.41561135193E-01 -0.75204917257E+00 -0.90858305397E+00  0.90007818467E+02  0.90000080870E+02 0.  0.
         12    1    1    2    0    0  0.41561135193E-01  0.75204917257E+00  0.90858305397E+00  0.11801815334E+01  0.00000000000E+00 0. -1.
         11    1    3    3    0    0  0.23197150033E+02 -0.25389497231E+02  0.15990305425E+02  0.37926563345E+02  0.51100000000E-03 0. -1.
        -11    1    3    3    0    0  0.18694145925E+01 -0.78636765052E+01 -0.40998461708E+01  0.90631593820E+01  0.51100000000E-03 0.  1.
        -12    1    3    3    0    0 -0.25108125761E+02  0.32501124563E+02 -0.12799042309E+02  0.43018095740E+02  0.00000000000E+00 0.  1.
</event>
<event>
 7    1  0.2682188E-015  0.9000782E+02  0.7816164E-02  0.1186339E+00
        -11   -1    0    0    0    0  0.00000000000E+00  0.00000000000E+00  0.45593999997E+02  0.45594000000E+02  0.51100000000E-03 0.  1.
         11   -1    0    0    0    0 -0.00000000000E+00 -0.00000000000E+00 -0.45593999997E+02  0.45594000000E+02  0.51100000000E-03 0. -1.
    9900012    2    1    2    0    0 -0.42986622160E+00 -0.61956062259E+00 -0.90784578791E+00  0.90007820222E+02  0.90000082649E+02 0.  0.
         12    1    1    2    0    0  0.42986622160E+00  0.61956062259E+00  0.90784578791E+00  0.11801797779E+01  0.00000000000E+00 0. -1.
         11    1    3    3    0    0 -0.78204872291E+01  0.91087589731E+01 -0.22589476894E+02  0.25581516318E+02  0.51100000000E-03 0. -1.
        -11    1    3    3    0    0 -0.17547975700E+02 -0.30009738326E+01 -0.12375787992E+02  0.21681730185E+02  0.51100000000E-03 0.  1.
        -12    1    3    3    0    0  0.24938596708E+02 -0.67273457631E+01  0.34057419098E+02  0.42744573719E+02  0.00000000000E+00 0.  1.
</event>
<event>
 7    1  0.2682188E-015  0.9000775E+02  0.7816164E-02  0.1186339E+00
        -11   -1    0    0    0    0  0.00000000000E+00  0.00000000000E+00  0.45593999997E+02  0.45594000000E+02  0.51100000000E-03 0. -1.
         11   -1    0    0    0    0 -0.00000000000E+00 -0.00000000000E+00 -0.45593999997E+02  0.45594000000E+02  0.51100000000E-03 0.  1.
    9900012    2    1    2    0    0 -0.16297024056E+00 -0.87948211422E+00 -0.77002245405E+00  0.90007753132E+02  0.90000014674E+02 0.  0.
         12    1    1    2    0    0  0.16297024056E+00  0.87948211422E+00  0.77002245405E+00  0.11802468675E+01  0.00000000000E+00 0. -1.
         11    1    3    3    0    0 -0.91349130122E+01 -0.98527133049E+01 -0.13919341165E+01  0.13507778354E+02  0.51100000000E-03 0. -1.
        -11    1    3    3    0    0 -0.18804024233E+02  0.15520459076E+02 -0.27280750562E+02  0.36588458956E+02  0.51100000000E-03 0.  1.
         12    1    3    3    0    0  0.27775967005E+02 -0.65472278851E+01  0.27902662225E+02  0.39911515823E+02  0.00000000000E+00 0. -1.
</event>
<event>
 7    1  0.2682188E-015  0.9000770E+02  0.7816164E-02  0.1186339E+00
        -11   -1    0    0    0    0  0.00000000000E+00  0.00000000000E+00  0.45593999997E+02  0.45594000000E+02  0.51100000000E-03 0.  1.
         11   -1    0    0    0    0 -0.00000000000E+00 -0.00000000000E+00 -0.45593999997E+02  0.45594000000E+02  0.51100000000E-03 0. -1.
    9900012    2    1    2    0    0  0.31983604044E+00  0.22372963502E-01  0.11359148481E+01  0.90007704196E+02  0.89999965092E+02 0.  0.
         12    1    1    2    0    0 -0.31983604044E+00 -0.22372963502E-01 -0.11359148481E+01  0.11802958038E+01  0.00000000000E+00 0. -1.
         11    1    3    3    0    0  0.57729818739E+01  0.17918260753E+00 -0.67246987479E+00  0.58147779078E+01  0.51100000000E-03 0. -1.
        -11    1    3    3    0    0  0.91433208803E+01 -0.61926905599E+01  0.40723597258E+02  0.42194325531E+02  0.51100000000E-03 0.  1.
         12    1    3    3    0    0 -0.14596466714E+02  0.60358809159E+01 -0.38915212535E+02  0.41998600758E+02  0.00000000000E+00 0. -1.
</event>
<event>
 7    1  0.2682188E-015  0.9000779E+02  0.7816164E-02  0.1186339E+00
        -11   -1    0    0    0    0  0.00000000000E+00  0.00000000000E+00  0.45593999997E+02  0.45594000000E+02  0.51100000000E-03 0. -1.
         11   -1    0    0    0    0 -0.00000000000E+00 -0.00000000000E+00 -0.45593999997E+02  0.45594000000E+02  0.51100000000E-03 0.  1.
    9900012    2    1    2    0    0 -0.74844031855E+00  0.89489329787E+00  0.17857493504E+00  0.90007794114E+02  0.90000056197E+02 0.  0.
         12    1    1    2    0    0  0.74844031855E+00 -0.89489329787E+00 -0.17857493504E+00  0.11802058856E+01  0.00000000000E+00 0. -1.
         11    1    3    3    0    0  0.29907967991E+01 -0.34573559758E+01 -0.87820795686E+01  0.99006614753E+01  0.51100000000E-03 0. -1.
        -11    1    3    3    0    0  0.15157340599E+02  0.26705668405E+02 -0.21790018819E+02  0.37652923118E+02  0.51100000000E-03 0.  1.
         12    1    3    3    0    0 -0.18896577717E+02 -0.22353419131E+02  0.30750673323E+02  0.42454209521E+02  0.00000000000E+00 0. -1.
</event>
<event>
 7    1  0.2682188E-015  0.9000763E+02  0.7816164E-02  0.1186339E+00
        -11   -1    0    0    0    0  0.00000000000E+00  0.00000000000E+00  0.45593999997E+02  0.45594000000E+02  0.51100000000E-03 0.  1.
         11   -1    0    0    0    0 -0.00000000000E+00 -0.00000000000E+00 -0.45593999997E+02  0.45594000000E+02  0.51100000000E-03 0. -1.
    9900012    2    1    2    0    0 -0.29590070834E+00 -0.10773122455E+01  0.38094532914E+00  0.90007627920E+02  0.89999887808E+02 0.  0.
         12    1    1    2    0    0  0.29590070834E+00  0.10773122455E+01 -0.38094532914E+00  0.11803720800E+01  0.00000000000E+00 0. -1.
         11    1    3    3    0    0  0.20232612937E+02 -0.23945095811E+02 -0.25543378832E+02  0.40437488079E+02  0.51100000000E-03 0. -1.
        -11    1    3    3    0    0  0.13139528483E+01 -0.54306590971E+01  0.75040038085E+01  0.93556722760E+01  0.51100000000E-03 0.  1.
        -12    1    3    3    0    0 -0.21842466494E+02  0.28298442662E+02  0.18420320353E+02  0.40214467565E+02  0.00000000000E+00 0.  1.
</event>
<event>
 7    1  0.2682188E-015  0.9000818E+02  0.7816164E-02  0.1186338E+00
        -11   -1    0    0    0    0  0.00000000000E+00  0.00000000000E+00  0.45593999997E+02  0.45594000000E+02  0.51100000000E-03 0.  1.
         11   -1    0    0    0    0 -0.00000000000E+00 -0.00000000000E+00 -0.45593999997E+02  0.45594000000E+02  0.51100000000E-03 0. -1.
    9900012    2    1    2    0    0 -0.78015540015E+00 -0.75122281259E+00  0.46796923984E+00  0.90008180788E+02  0.90000447974E+02 0.  0.
         12    1    1    2    0    0  0.78015540015E+00  0.75122281259E+00 -0.46796923984E+00  0.11798192116E+01  0.00000000000E+00 0. -1.
         11    1    3    3    0    0  0.51087416553E+01 -0.30685980952E+01  0.51726907992E+01  0.78912778392E+01  0.51100000000E-03 0. -1.
        -11    1    3    3    0    0 -0.21184101190E+02 -0.35274804197E+02 -0.55744677841E+01  0.41522917114E+02  0.51100000000E-03 0.  1.
         12    1    3    3    0    0  0.15295204134E+02  0.37592179479E+02  0.86974622478E+00  0.40593985835E+02  0.00000000000E+00 0. -1.
</event>
<event>
 7    1  0.2682188E-015  0.9000771E+02  0.7816164E-02  0.1186339E+00
        -11   -1    0    0    0    0  0.00000000000E+00  0.00000000000E+00  0.45593999997E+02  0.45594000000E+02  0.51100000000E-03 0.  1.
         11   -1    0    0    0    0 -0.00000000000E+00 -0.00000000000E+00 -0.45593999997E+02  0.45594000000E+02  0.51100000000E-03 0. -1.
    9900012    2    1    2    0    0 -0.64420641179E+00 -0.98383526338E+00 -0.10074516870E+00  0.90007710495E+02  0.89999971474E+02 0.  0.
         12    1    1    2    0    0  0.64420641179E+00  0.98383526338E+00  0.10074516870E+00  0.11802895049E+01  0.00000000000E+00 0. -1.
         11    1    3    3    0    0 -0.14579892152E+02  0.19541129779E+02 -0.23402153970E+02  0.33794819409E+02  0.51100000000E-03 0. -1.
        -11    1    3    3    0    0 -0.51508798322E+01  0.87655530647E+01 -0.49090512852E+01  0.11290051743E+02  0.51100000000E-03 0.  1.
        -12    1    3    3    0    0  0.19086565573E+02 -0.29290518107E+02  0.28210460086E+02  0.44922839343E+02  0.00000000000E+00 0.  1.
</event>
<event>
 7    1  0.2682188E-015  0.9000769E+02  0.7816164E-02  0.1186339E+00
        -11   -1    0    0    0    0  0.00000000000E+00  0.00000000000E+00  0.45593999997E+02  0.45594000000E+02  0.51100000000E-03 0.  1.
         11   -1    0    0    0    0 -0.00000000000E+00 -0.00000000000E+00 -0.45593999997E+02  0.45594000000E+02  0.51100000000E-03 0. -1.
    9900012    2    1    2    0    0 -0.19446034304E+00  0.11471018166E+01  0.19869380233E+00  0.90007687910E+02  0.89999948590E+02 0.  0.
         12    1    1    2    0    0  0.19446034304E+00 -0.11471018166E+01 -0.19869380233E+00  0.11803120900E+01  0.00000000000E+00 0. -1.
         11    1    3    3    0    0  0.25686995260E+01  0.83896374206E+01  0.55824337181E+01  0.10399413434E+02  0.51100000000E-03 0. -1.
        -11    1    3    3    0    0 -0.11679948144E+02  0.29034306951E+02  0.17444173637E+02  0.35828917970E+02  0.51100000000E-03 0.  1.
         12    1    3    3    0    0  0.89167882746E+01 -0.36276842555E+02 -0.22827913553E+02  0.43779356506E+02  0.00000000000E+00 0. -1.
</event>
<event>
 7    1  0.2682188E-015  0.9000776E+02  0.7816164E-02  0.1186339E+00
        -11   -1    0    0    0    0  0.00000000000E+00  0.00000000000E+00  0.45593999997E+02  0.45594000000E+02  0.51100000000E-03 0. -1.
         11   -1    0    0    0    0 -0.00000000000E+00 -0.00000000000E+00 -0.45593999997E+02  0.45594000000E+02  0.51100000000E-03 0.  1.
    9900012    2    1    2    0    0 -0.11952513434E+00  0.10693733401E+01 -0.48490098214E+00  0.90007756567E+02  0.90000018154E+02 0.  0.
         12    1    1    2    0    0  0.11952513434E+00 -0.10693733401E+01  0.48490098214E+00  0.11802434328E+01  0.00000000000E+00 0. -1.
         11    1    3    3    0    0 -0.71424147294E+01  0.22239056140E+02  0.27484221985E+01  0.23519003614E+02  0.51100000000E-03 0. -1.
        -11    1    3    3    0    0  0.19131464472E+02  0.11634075090E+02  0.15099986998E+02  0.27006929548E+02  0.51100000000E-03 0.  1.
        -12    1    3    3    0    0 -0.12108574877E+02 -0.32803757890E+02 -0.18333310178E+02  0.39481823404E+02  0.00000000000E+00 0.  1.
</event>
<event>
 7    1  0.2682188E-015  0.9000763E+02  0.7816164E-02  0.1186339E+00
        -11   -1    0    0    0    0  0.00000000000E+00  0.00000000000E+00  0.45593999997E+02  0.45594000000E+02  0.51100000000E-03 0.  1.
         11   -1    0    0    0    0 -0.00000000000E+00 -0.00000000000E+00 -0.45593999997E+02  0.45594000000E+02  0.51100000000E-03 0. -1.
    9900012    2    1    2    0    0 -0.71597276969E-01 -0.11409282187E+01 -0.29397227912E+00  0.90007634349E+02  0.89999894322E+02 0.  0.
         12    1    1    2    0    0  0.71597276969E-01  0.11409282187E+01  0.29397227912E+00  0.11803656514E+01  0.00000000000E+00 0. -1.
         11    1    3    3    0    0  0.24827861469E+02 -0.22782973520E+02  0.19748309050E+02  0.39057423086E+02  0.51100000000E-03 0. -1.
        -11    1    3    3    0    0 -0.10633727589E+02  0.20108804235E+01  0.82998246877E+01  0.13638434391E+02  0.51100000000E-03 0.  1.
        -12    1    3    3    0    0 -0.14265731157E+02  0.19631164877E+02 -0.28342106017E+02  0.37311776872E+02  0.00000000000E+00 0.  1.
</event>
<event>
 7    1  0.2682188E-015  0.9000775E+02  0.7816164E-02  0.1186339E+00
        -11   -1    0    0    0    0  0.00000000000E+00  0.00000000000E+00  0.45593999997E+02  0.45594000000E+02  0.51100000000E-03 0. -1.
         11   -1    0    0    0    0 -0.00000000000E+00 -0.00000000000E+00 -0.45593999997E+02  0.45594000000E+02  0.51100000000E-03 0.  1.
    9900012    2    1    2    0    0 -0.78938086284E+00  0.84321000075E+00  0.24261976676E+00  0.90007750195E+02  0.90000011697E+02 0.  0.
         12    1    1    2    0    0  0.78938086284E+00 -0.84321000075E+00 -0.24261976676E+00  0.11802498054E+01  0.00000000000E+00 0. -1.
         11    1    3    3    0    0 -0.10333348840E+01  0.90595712701E+01  0.56166090735E+01  0.10709337530E+02  0.51100000000E-03 0. -1.
        -11    1    3    3    0    0 -0.24069508651E+02  0.15273469935E+02  0.21830136082E+02  0.35905082818E+02  0.51100000000E-03 0.  1.
         12    1    3    3    0    0  0.24313462672E+02 -0.23489831204E+02 -0.27204125388E+02  0.43393329847E+02  0.00000000000E+00 0. -1.
</event>
<event>
 7    1  0.2682188E-015  0.9000771E+02  0.7816164E-02  0.1186339E+00
        -11   -1    0    0    0    0  0.00000000000E+00  0.00000000000E+00  0.45593999997E+02  0.45594000000E+02  0.51100000000E-03 0. -1.
         11   -1    0    0    0    0 -0.00000000000E+00 -0.00000000000E+00 -0.45593999997E+02  0.45594000000E+02  0.51100000000E-03 0.  1.
    9900012    2    1    2    0    0  0.59965021189E+00  0.32241725713E+00 -0.96413176071E+00  0.90007710495E+02  0.89999971473E+02 0.  0.
         12    1    1    2    0    0 -0.59965021189E+00 -0.32241725713E+00  0.96413176071E+00  0.11802895053E+01  0.00000000000E+00 0. -1.
         11    1    3    3    0    0  0.27386800251E+02  0.30490686091E+02  0.24677238181E+01  0.41058597484E+02  0.51100000000E-03 0. -1.
        -11    1    3    3    0    0 -0.89628177038E+01  0.43630758964E+01 -0.71512786572E+00  0.99939952269E+01  0.51100000000E-03 0.  1.
        -12    1    3    3    0    0 -0.17824332335E+02 -0.34531344730E+02 -0.27167277130E+01  0.38955117784E+02  0.00000000000E+00 0.  1.
</event>
<event>
 7    1  0.2682188E-015  0.9000782E+02  0.7816164E-02  0.1186339E+00
        -11   -1    0    0    0    0  0.00000000000E+00  0.00000000000E+00  0.45593999997E+02  0.45594000000E+02  0.51100000000E-03 0.  1.
         11   -1    0    0    0    0 -0.00000000000E+00 -0.00000000000E+00 -0.45593999997E+02  0.45594000000E+02  0.51100000000E-03 0. -1.
    9900012    2    1    2    0    0 -0.10039863203E+01 -0.59289287705E+00  0.18250674309E+00  0.90007822384E+02  0.90000084839E+02 0.  0.
         12    1    1    2    0    0  0.10039863203E+01  0.59289287705E+00 -0.18250674309E+00  0.11801776165E+01  0.00000000000E+00 0. -1.
         11    1    3    3    0    0 -0.20214246117E+01 -0.22076419166E+02 -0.34213838772E+02  0.40768139576E+02  0.51100000000E-03 0. -1.
        -11    1    3    3    0    0 -0.41815787507E+01 -0.59718704967E+01  0.72132564210E+01  0.10255725549E+02  0.51100000000E-03 0.  1.
        -12    1    3    3    0    0  0.51990170420E+01  0.27455396786E+02  0.27183089094E+02  0.38983957259E+02  0.00000000000E+00 0.  1.
</event>
<event>
 7    1  0.2682188E-015  0.9000687E+02  0.7816164E-02  0.1186341E+00
        -11   -1    0    0    0    0  0.00000000000E+00  0.00000000000E+00  0.45593999997E+02  0.45594000000E+02  0.51100000000E-03 0.  1.
         11   -1    0    0    0    0 -0.00000000000E+00 -0.00000000000E+00 -0.45593999997E+02  0.45594000000E+02  0.51100000000E-03 0. -1.
    9900012    2    1    2    0    0 -0.27110958149E+00 -0.41262355202E+00  0.10729957984E+01  0.90006865552E+02  0.89999115373E+02 0.  0.
         12    1    1    2    0    0  0.27110958149E+00  0.41262355202E+00 -0.10729957984E+01  0.11811344480E+01  0.00000000000E+00 0. -1.
         11    1    3    3    0    0 -0.37853007098E+02  0.12053184504E+02 -0.56676488414E+01  0.40127940972E+02  0.51100000000E-03 0. -1.
        -11    1    3    3    0    0  0.40103459883E+01  0.87610208515E+01  0.29356582752E+00  0.96397376760E+01  0.51100000000E-03 0.  1.
        -12    1    3    3    0    0  0.33571551528E+02 -0.21226828908E+02  0.64470788122E+01  0.40239186904E+02  0.00000000000E+00 0.  1.
</event>
<event>
 7    1  0.2682188E-015  0.9000775E+02  0.7816164E-02  0.1186339E+00
        -11   -1    0    0    0    0  0.00000000000E+00  0.00000000000E+00  0.45593999997E+02  0.45594000000E+02  0.51100000000E-03 0. -1.
         11   -1    0    0    0    0 -0.00000000000E+00 -0.00000000000E+00 -0.45593999997E+02  0.45594000000E+02  0.51100000000E-03 0.  1.
    9900012    2    1    2    0    0  0.31443262295E-01 -0.51280503758E+00  0.10625645879E+01  0.90007745286E+02  0.90000006724E+02 0.  0.
         12    1    1    2    0    0 -0.31443262295E-01  0.51280503758E+00 -0.10625645879E+01  0.11802547135E+01  0.00000000000E+00 0. -1.
         11    1    3    3    0    0  0.78070011568E+01 -0.13774032137E+01  0.74497438721E+01  0.10878657578E+02  0.51100000000E-03 0. -1.
        -11    1    3    3    0    0 -0.19816596647E+02  0.36260208967E+02 -0.82641927083E+00  0.41330173313E+02  0.51100000000E-03 0.  1.
         12    1    3    3    0    0  0.12041038753E+02 -0.35395610791E+02 -0.55607600133E+01  0.37798914395E+02  0.00000000000E+00 0. -1.
</event>
<event>
 7    1  0.2682188E-015  0.9000781E+02  0.7816164E-02  0.1186339E+00
        -11   -1    0    0    0    0  0.00000000000E+00  0.00000000000E+00  0.45593999997E+02  0.45594000000E+02  0.51100000000E-03 0.  1.
         11   -1    0    0    0    0 -0.00000000000E+00 -0.00000000000E+00 -0.45593999997E+02  0.45594000000E+02  0.51100000000E-03 0. -1.
    9900012    2    1    2    0    0  0.77339487111E+00 -0.62403052280E+00  0.63662478242E+00  0.90007811526E+02  0.90000073838E+02 0.  0.
         12    1    1    2    0    0 -0.77339487111E+00  0.62403052280E+00 -0.63662478242E+00  0.11801884738E+01  0.00000000000E+00 0. -1.
         11    1    3    3    0    0  0.34799406317E+02 -0.24276137858E+02 -0.37255095160E+01  0.42593532029E+02  0.51100000000E-03 0. -1.
        -11    1    3    3    0    0  0.80678715943E+00  0.95846492425E+01  0.15543207974E+01  0.97433218168E+01  0.51100000000E-03 0.  1.
        -12    1    3    3    0    0 -0.34832798606E+02  0.14067458092E+02  0.28078135010E+01  0.37670957680E+02  0.00000000000E+00 0.  1.
</event>
<event>
 7    1  0.2682188E-015  0.9000770E+02  0.7816164E-02  0.1186339E+00
        -11   -1    0    0    0    0  0.00000000000E+00  0.00000000000E+00  0.45593999997E+02  0.45594000000E+02  0.51100000000E-03 0. -1.
         11   -1    0    0    0    0 -0.00000000000E+00 -0.00000000000E+00 -0.45593999997E+02  0.45594000000E+02  0.51100000000E-03 0.  1.
    9900012    2    1    2    0    0 -0.82442874489E+00  0.63707000269E+00  0.55458363282E+00  0.90007701754E+02  0.89999962617E+02 0.  0.
         12    1    1    2    0    0  0.82442874489E+00 -0.63707000269E+00 -0.55458363282E+00  0.11802982460E+01  0.00000000000E+00 0. -1.
         11    1    3    3    0    0 -0.48511498641E+01 -0.48982408367E+01 -0.43928477495E+01  0.81745660380E+01  0.51100000000E-03 0. -1.
        -11    1    3    3    0    0  0.29447190056E+01 -0.34638293867E+02 -0.13907183989E+02  0.37441855440E+02  0.51100000000E-03 0.  1.
         12    1    3    3    0    0  0.10820021137E+01  0.40173604706E+02  0.18854615372E+02  0.44391280276E+02  0.00000000000E+00 0. -1.
</event>
<event>
 7    1  0.2682188E-015  0.9000775E+02  0.7816164E-02  0.1186339E+00
        -11   -1    0    0    0    0  0.00000000000E+00  0.00000000000E+00  0.45593999997E+02  0.45594000000E+02  0.51100000000E-03 0. -1.
         11   -1    0    0    0    0 -0.00000000000E+00 -0.00000000000E+00 -0.45593999997E+02  0.45594000000E+02  0.51100000000E-03 0.  1.
    9900012    2    1    2    0    0 -0.10438921356E+01  0.27156711323E+00 -0.47908713169E+00  0.90007752582E+02  0.90000014116E+02 0.  0.
         12    1    1    2    0    0  0.10438921356E+01 -0.27156711323E+00  0.47908713169E+00  0.11802474179E+01  0.00000000000E+00 0. -1.
         11    1    3    3    0    0 -0.57365293504E+01 -0.74702454616E+01  0.46584693108E+01  0.10507791054E+02  0.51100000000E-03 0. -1.
        -11    1    3    3    0    0 -0.30329546710E+02 -0.68764429605E+01  0.17123876088E+02  0.35502028167E+02  0.51100000000E-03 0.  1.
         12    1    3    3    0    0  0.35022183925E+02  0.14618255535E+02 -0.22261432531E+02  0.43997933361E+02  0.00000000000E+00 0. -1.
</event>
<event>
 7    1  0.2682188E-015  0.9000769E+02  0.7816164E-02  0.1186339E+00
        -11   -1    0    0    0    0  0.00000000000E+00  0.00000000000E+00  0.45593999997E+02  0.45594000000E+02  0.51100000000E-03 0. -1.
         11   -1    0    0    0    0 -0.00000000000E+00 -0.00000000000E+00 -0.45593999997E+02  0.45594000000E+02  0.51100000000E-03 0.  1.
    9900012    2    1    2    0    0  0.19442103363E+00 -0.92530742162E+00 -0.70649192461E+00  0.90007693174E+02  0.89999953924E+02 0.  0.
         12    1    1    2    0    0 -0.19442103363E+00  0.92530742162E+00  0.70649192461E+00  0.11803068255E+01  0.00000000000E+00 0. -1.
         11    1    3    3    0    0  0.96306112733E+00 -0.98533464026E+00  0.11208039217E+02  0.11292409594E+02  0.51100000000E-03 0. -1.
        -11    1    3    3    0    0 -0.10301148818E+02  0.95629491945E+01  0.30840002707E+02  0.33892026076E+02  0.51100000000E-03 0.  1.
         12    1    3    3    0    0  0.95325087241E+01 -0.95029219758E+01 -0.42754533849E+02  0.44823257505E+02  0.00000000000E+00 0. -1.
</event>
<event>
 7    1  0.2682188E-015  0.9000805E+02  0.7816164E-02  0.1186338E+00
        -11   -1    0    0    0    0  0.00000000000E+00  0.00000000000E+00  0.45593999997E+02  0.45594000000E+02  0.51100000000E-03 0. -1.
         11   -1    0    0    0    0 -0.00000000000E+00 -0.00000000000E+00 -0.45593999997E+02  0.45594000000E+02  0.51100000000E-03 0.  1.
    9900012    2    1    2    0    0  0.71192801732E+00 -0.78461006653E+00 -0.51944712396E+00  0.90008050945E+02  0.90000316417E+02 0.  0.
         12    1    1    2    0    0 -0.71192801732E+00  0.78461006653E+00  0.51944712396E+00  0.11799490552E+01  0.00000000000E+00 0. -1.
         11    1    3    3    0    0  0.17396222711E+02  0.43064184690E+01  0.36629258573E+02  0.40778381387E+02  0.51100000000E-03 0. -1.
        -11    1    3    3    0    0  0.28321769818E+01 -0.10119804912E+02 -0.59175071830E+01  0.12060206028E+02  0.51100000000E-03 0.  1.
        -12    1    3    3    0    0 -0.19516471675E+02  0.50287763764E+01 -0.31231198514E+02  0.37169463530E+02  0.00000000000E+00 0.  1.
</event>
<event>
 7    1  0.2682188E-015  0.9000787E+02  0.7816164E-02  0.1186339E+00
        -11   -1    0    0    0    0  0.00000000000E+00  0.00000000000E+00  0.45593999997E+02  0.45594000000E+02  0.51100000000E-03 0.  1.
         11   -1    0    0    0    0 -0.00000000000E+00 -0.00000000000E+00 -0.45593999997E+02  0.45594000000E+02  0.51100000000E-03 0. -1.
    9900012    2    1    2    0    0 -0.69365211101E+00 -0.60814252660E-03  0.95475902693E+00  0.90007865084E+02  0.90000128103E+02 0.  0.
         12    1    1    2    0    0  0.69365211101E+00  0.60814252660E-03 -0.95475902693E+00  0.11801349162E+01  0.00000000000E+00 0. -1.
         11    1    3    3    0    0  0.91357082557E+01 -0.38824653730E+02 -0.16792832796E+02  0.43276022647E+02  0.51100000000E-03 0. -1.
        -11    1    3    3    0    0  0.20238272194E+01  0.43715420089E+01  0.74469685800E+01  0.88692501060E+01  0.51100000000E-03 0.  1.
        -12    1    3    3    0    0 -0.11853187586E+02  0.34452503579E+02  0.10300623243E+02  0.37862592330E+02  0.00000000000E+00 0.  1.
</event>
<event>
 7    1  0.2682188E-015  0.9000771E+02  0.7816164E-02  0.1186339E+00
        -11   -1    0    0    0    0  0.00000000000E+00  0.00000000000E+00  0.45593999997E+02  0.45594000000E+02  0.51100000000E-03 0.  1.
         11   -1    0    0    0    0 -0.00000000000E+00 -0.00000000000E+00 -0.45593999997E+02  0.45594000000E+02  0.51100000000E-03 0. -1.
    9900012    2    1    2    0    0 -0.97176463054E+00 -0.34590289960E+00  0.57367098999E+00  0.90007714561E+02  0.89999975593E+02 0.  0.
         12    1    1    2    0    0  0.97176463054E+00  0.34590289960E+00 -0.57367098999E+00  0.11802854392E+01  0.00000000000E+00 0. -1.
         11    1    3    3    0    0 -0.22367745124E+02  0.53772501976E+01 -0.32863241407E+01  0.23238562095E+02  0.51100000000E-03 0. -1.
        -11    1    3    3    0    0 -0.31014979561E+01  0.26204582172E+02  0.60130589215E+00  0.26394336238E+02  0.51100000000E-03 0.  1.
         12    1    3    3    0    0  0.24497478450E+02 -0.31927735270E+02  0.32586892386E+01  0.40374816228E+02  0.00000000000E+00 0. -1.
</event>
<event>
 7    1  0.2682188E-015  0.9000762E+02  0.7816164E-02  0.1186339E+00
        -11   -1    0    0    0    0  0.00000000000E+00  0.00000000000E+00  0.45593999997E+02  0.45594000000E+02  0.51100000000E-03 0. -1.
         11   -1    0    0    0    0 -0.00000000000E+00 -0.00000000000E+00 -0.45593999997E+02  0.45594000000E+02  0.51100000000E-03 0.  1.
    9900012    2    1    2    0    0  0.42451452816E+00 -0.27177531733E+00 -0.10673441446E+01  0.90007619582E+02  0.89999879361E+02 0.  0.
         12    1    1    2    0    0 -0.42451452816E+00  0.27177531733E+00  0.10673441446E+01  0.11803804178E+01  0.00000000000E+00 0. -1.
         11    1    3    3    0    0 -0.18746793826E+02 -0.31473081871E+02  0.11020905888E+02  0.38255163417E+02  0.51100000000E-03 0. -1.
        -11    1    3    3    0    0 -0.78369183176E+01 -0.76778360260E+00  0.91727328858E+00  0.79276838310E+01  0.51100000000E-03 0.  1.
        -12    1    3    3    0    0  0.27008226672E+02  0.31969090156E+02 -0.13005523321E+02  0.43824772335E+02  0.00000000000E+00 0.  1.
</event>
<event>
 7    1  0.2682188E-015  0.9000778E+02  0.7816164E-02  0.1186339E+00
        -11   -1    0    0    0    0  0.00000000000E+00  0.00000000000E+00  0.45593999997E+02  0.45594000000E+02  0.51100000000E-03 0. -1.
         11   -1    0    0    0    0 -0.00000000000E+00 -0.00000000000E+00 -0.45593999997E+02  0.45594000000E+02  0.51100000000E-03 0.  1.
    9900012    2    1    2    0    0 -0.12060597164E+00  0.49383842338E-01 -0.11729984795E+01  0.90007783919E+02  0.90000045867E+02 0.  0.
         12    1    1    2    0    0  0.12060597164E+00 -0.49383842338E-01  0.11729984795E+01  0.11802160807E+01  0.00000000000E+00 0. -1.
         11    1    3    3    0    0 -0.14899365309E+02  0.37950810842E+02 -0.13206684776E+02  0.42856407377E+02  0.51100000000E-03 0. -1.
        -11    1    3    3    0    0  0.55640913707E+00 -0.32835513196E+01  0.90077486938E+01  0.96036887282E+01  0.51100000000E-03 0.  1.
        -12    1    3    3    0    0  0.14222350201E+02 -0.34617875680E+02  0.30259376030E+01  0.37547687814E+02  0.00000000000E+00 0.  1.
</event>
<event>
 7    1  0.2682188E-015  0.9000763E+02  0.7816164E-02  0.1186339E+00
        -11   -1    0    0    0    0  0.00000000000E+00  0.00000000000E+00  0.45593999997E+02  0.45594000000E+02  0.51100000000E-03 0.  1.
         11   -1    0    0    0    0 -0.00000000000E+00 -0.00000000000E+00 -0.45593999997E+02  0.45594000000E+02  0.51100000000E-03 0. -1.
    9900012    2    1    2    0    0 -0.90711672551E+00 -0.45831841526E+00  0.60030128825E+00  0.90007627957E+02  0.89999887846E+02 0.  0.
         12    1    1    2    0    0  0.90711672551E+00  0.45831841526E+00 -0.60030128825E+00  0.11803720431E+01  0.00000000000E+00 0. -1.
         11    1    3    3    0    0  0.50714370103E+01 -0.77956776975E+01 -0.32346129765E+01  0.98465621149E+01  0.51100000000E-03 0. -1.
        -11    1    3    3    0    0  0.13300505175E+02  0.39973872168E+02  0.83052711815E+00  0.42136725900E+02  0.51100000000E-03 0.  1.
         12    1    3    3    0    0 -0.19279058911E+02 -0.32636512886E+02  0.30043871466E+01  0.38024339942E+02  0.00000000000E+00 0. -1.
</event>
<event>
 7    1  0.2682188E-015  0.9000808E+02  0.7816164E-02  0.1186338E+00
        -11   -1    0    0    0    0  0.00000000000E+00  0.00000000000E+00  0.45593999997E+02  0.45594000000E+02  0.51100000000E-03 0.  1.
         11   -1    0    0    0    0 -0.00000000000E+00 -0.00000000000E+00 -0.45593999997E+02  0.45594000000E+02  0.51100000000E-03 0. -1.
    9900012    2    1    2    0    0  0.82427796703E+00 -0.84120685142E+00  0.71731744252E-01  0.90008081114E+02  0.90000346984E+02 0.  0.
         12    1    1    2    0    0 -0.82427796703E+00  0.84120685142E+00 -0.71731744252E-01  0.11799188857E+01  0.00000000000E+00 0. -1.
         11    1    3    3    0    0  0.23047622183E+02  0.57080939907E+01 -0.27590859490E+02  0.36400971868E+02  0.51100000000E-03 0. -1.
        -11    1    3    3    0    0  0.27792121505E+01 -0.29621115731E+01 -0.85441584008E+01  0.94604845642E+01  0.51100000000E-03 0.  1.
        -12    1    3    3    0    0 -0.25002556367E+02 -0.35871892690E+01  0.36206749635E+02  0.44146624682E+02  0.00000000000E+00 0.  1.
</event>
<event>
 7    1  0.2682188E-015  0.9000779E+02  0.7816164E-02  0.1186339E+00
        -11   -1    0    0    0    0  0.00000000000E+00  0.00000000000E+00  0.45593999997E+02  0.45594000000E+02  0.51100000000E-03 0.  1.
         11   -1    0    0    0    0 -0.00000000000E+00 -0.00000000000E+00 -0.45593999997E+02  0.45594000000E+02  0.51100000000E-03 0. -1.
    9900012    2    1    2    0    0 -0.36771105642E+00 -0.28999963769E+00  0.10833222106E+01  0.90007788908E+02  0.90000050921E+02 0.  0.
         12    1    1    2    0    0  0.36771105642E+00  0.28999963769E+00 -0.10833222106E+01  0.11802110925E+01  0.00000000000E+00 0. -1.
         11    1    3    3    0    0 -0.85945052503E+01  0.72421291715E+01  0.16104010987E+01  0.11353737155E+02  0.51100000000E-03 0. -1.
        -11    1    3    3    0    0  0.13761423879E+02  0.30588748663E+02 -0.15974599740E+02  0.37151529835E+02  0.51100000000E-03 0.  1.
         12    1    3    3    0    0 -0.55346296856E+01 -0.38120877472E+02  0.15447520852E+02  0.41502521917E+02  0.00000000000E+00 0. -1.
</event>
<event>
 7    1  0.2682188E-015  0.9000775E+02  0.7816164E-02  0.1186339E+00
        -11   -1    0    0    0    0  0.00000000000E+00  0.00000000000E+00  0.45593999997E+02  0.45594000000E+02  0.51100000000E-03 0. -1.
         11   -1    0    0    0    0 -0.00000000000E+00 -0.00000000000E+00 -0.45593999997E+02  0.45594000000E+02  0.51100000000E-03 0.  1.
    9900012    2    1    2    0    0 -0.10434180165E+01 -0.30996479050E+00 -0.45628831610E+00  0.90007746487E+02  0.90000007940E+02 0.  0.
         12    1    1    2    0    0  0.10434180165E+01  0.30996479050E+00  0.45628831610E+00  0.11802535134E+01  0.00000000000E+00 0. -1.
         11    1    3    3    0    0 -0.52960975509E+01  0.55726620027E+00  0.21697755153E+01  0.57504018064E+01  0.51100000000E-03 0. -1.
        -11    1    3    3    0    0 -0.11275685598E+02 -0.37620535912E+02  0.13055689213E+02  0.41387157780E+02  0.51100000000E-03 0.  1.
         12    1    3    3    0    0  0.15528365132E+02  0.36753304921E+02 -0.15681753044E+02  0.42870186900E+02  0.00000000000E+00 0. -1.
</event>
<event>
 7    1  0.2682188E-015  0.9000778E+02  0.7816164E-02  0.1186339E+00
        -11   -1    0    0    0    0  0.00000000000E+00  0.00000000000E+00  0.45593999997E+02  0.45594000000E+02  0.51100000000E-03 0.  1.
         11   -1    0    0    0    0 -0.00000000000E+00 -0.00000000000E+00 -0.45593999997E+02  0.45594000000E+02  0.51100000000E-03 0. -1.
    9900012    2    1    2    0    0  0.35456331993E+00  0.44022314314E+00  0.10360544082E+01  0.90007779554E+02  0.90000041444E+02 0.  0.
         12    1    1    2    0    0 -0.35456331993E+00 -0.44022314314E+00 -0.10360544082E+01  0.11802204457E+01  0.00000000000E+00 0. -1.
         11    1    3    3    0    0  0.25639730238E+02  0.28632633331E+02  0.99018305121E+00  0.38447417610E+02  0.51100000000E-03 0. -1.
        -11    1    3    3    0    0 -0.43584201163E+01  0.73086025215E+01  0.52876089223E+01  0.10018498146E+02  0.51100000000E-03 0.  1.
        -12    1    3    3    0    0 -0.20926746802E+02 -0.35501012710E+02 -0.52417375653E+01  0.41541863798E+02  0.00000000000E+00 0.  1.
</event>
<event>
 7    1  0.2682188E-015  0.9000790E+02  0.7816164E-02  0.1186339E+00
        -11   -1    0    0    0    0  0.00000000000E+00  0.00000000000E+00  0.45593999997E+02  0.45594000000E+02  0.51100000000E-03 0. -1.
         11   -1    0    0    0    0 -0.00000000000E+00 -0.00000000000E+00 -0.45593999997E+02  0.45594000000E+02  0.51100000000E-03 0.  1.
    9900012    2    1    2    0    0  0.95108781656E+00  0.69428730248E+00  0.77728342137E-01  0.90007896365E+02  0.90000159797E+02 0.  0.
         12    1    1    2    0    0 -0.95108781656E+00 -0.69428730248E+00 -0.77728342137E-01  0.11801036346E+01  0.00000000000E+00 0. -1.
         11    1    3    3    0    0  0.31498486420E+02  0.31338450232E+01  0.29379251910E+02  0.43186989643E+02  0.51100000000E-03 0. -1.
        -11    1    3    3    0    0 -0.47567960757E+01  0.27275016549E+01  0.20883881940E+01  0.58675156321E+01  0.51100000000E-03 0.  1.
        -12    1    3    3    0    0 -0.25790602528E+02 -0.51670593756E+01 -0.31389911762E+02  0.40953391090E+02  0.00000000000E+00 0.  1.
</event>
<event>
 7    1  0.2682188E-015  0.9000776E+02  0.7816164E-02  0.1186339E+00
        -11   -1    0    0    0    0  0.00000000000E+00  0.00000000000E+00  0.45593999997E+02  0.45594000000E+02  0.51100000000E-03 0.  1.
         11   -1    0    0    0    0 -0.00000000000E+00 -0.00000000000E+00 -0.45593999997E+02  0.45594000000E+02  0.51100000000E-03 0. -1.
    9900012    2    1    2    0    0  0.74891159401E+00 -0.90796947321E+00 -0.87755426747E-01  0.90007755045E+02  0.90000016611E+02 0.  0.
         12    1    1    2    0    0 -0.74891159401E+00  0.90796947321E+00  0.87755426747E-01  0.11802449554E+01  0.00000000000E+00 0. -1.
         11    1    3    3    0    0  0.87365769431E+00 -0.30211014738E+02  0.28469912977E+02  0.41521134793E+02  0.51100000000E-03 0. -1.
        -11    1    3    3    0    0  0.50926218669E+01 -0.28697864047E+01 -0.81572400902E+01  0.10035488909E+02  0.51100000000E-03 0.  1.
        -12    1    3    3    0    0 -0.52173679673E+01  0.32172831670E+02 -0.20400428314E+02  0.38451131343E+02  0.00000000000E+00 0.  1.
</event>
<event>
 7    1  0.2682188E-015  0.9000754E+02  0.7816164E-02  0.1186339E+00
        -11   -1    0    0    0    0  0.00000000000E+00  0.00000000000E+00  0.45593999997E+02  0.45594000000E+02  0.51100000000E-03 0.  1.
         11   -1    0    0    0    0 -0.00000000000E+00 -0.00000000000E+00 -0.45593999997E+02  0.45594000000E+02  0.51100000000E-03 0. -1.
    9900012    2    1    2    0    0 -0.18491219628E+00 -0.71364360867E+00  0.92195447206E+00  0.90007542559E+02  0.89999801321E+02 0.  0.
         12    1    1    2    0    0  0.18491219628E+00  0.71364360867E+00 -0.92195447206E+00  0.11804574406E+01  0.00000000000E+00 0. -1.
         11    1    3    3    0    0  0.47904989763E+01  0.32869994637E+01 -0.81625027442E+01  0.10018966874E+02  0.51100000000E-03 0. -1.
        -11    1    3    3    0    0  0.74518873239E+01 -0.23545678206E+02  0.36518138923E+02  0.44085190910E+02  0.51100000000E-03 0.  1.
         12    1    3    3    0    0 -0.12427298496E+02  0.19545035134E+02 -0.27433681707E+02  0.35903384775E+02  0.00000000000E+00 0. -1.
</event>
<event>
 7    1  0.2682188E-015  0.9000756E+02  0.7816164E-02  0.1186339E+00
        -11   -1    0    0    0    0  0.00000000000E+00  0.00000000000E+00  0.45593999997E+02  0.45594000000E+02  0.51100000000E-03 0.  1.
         11   -1    0    0    0    0 -0.00000000000E+00 -0.00000000000E+00 -0.45593999997E+02  0.45594000000E+02  0.51100000000E-03 0. -1.
    9900012    2    1    2    0    0 -0.20751327630E+00 -0.80115418449E+00  0.84173830237E+00  0.90007562303E+02  0.89999821325E+02 0.  0.
         12    1    1    2    0    0  0.20751327630E+00  0.80115418449E+00 -0.84173830237E+00  0.11804376971E+01  0.00000000000E+00 0. -1.
         11    1    3    3    0    0  0.77260050316E+01  0.16984319859E+02 -0.30815729071E+02  0.36024539321E+02  0.51100000000E-03 0. -1.
        -11    1    3    3    0    0  0.54874426766E+01  0.77434980909E+01 -0.19576390310E+01  0.96905180795E+01  0.51100000000E-03 0.  1.
        -12    1    3    3    0    0 -0.13420960984E+02 -0.25528972134E+02  0.33615106404E+02  0.44292504903E+02  0.00000000000E+00 0.  1.
</event>
<event>
 7    1  0.2682188E-015  0.9000771E+02  0.7816164E-02  0.1186339E+00
        -11   -1    0    0    0    0  0.00000000000E+00  0.00000000000E+00  0.45593999997E+02  0.45594000000E+02  0.51100000000E-03 0.  1.
         11   -1    0    0    0    0 -0.00000000000E+00 -0.00000000000E+00 -0.45593999997E+02  0.45594000000E+02  0.51100000000E-03 0. -1.
    9900012    2    1    2    0    0  0.35080177335E+00  0.75847181681E+00 -0.83351746549E+00  0.90007706500E+02  0.89999967426E+02 0.  0.
         12    1    1    2    0    0 -0.35080177335E+00 -0.75847181681E+00  0.83351746549E+00  0.11802935001E+01  0.00000000000E+00 0. -1.
         11    1    3    3    0    0  0.96643490562E+01  0.11677111135E+02 -0.30990533514E+00  0.15160824803E+02  0.51100000000E-03 0. -1.
        -11    1    3    3    0    0 -0.29896140614E+01  0.24040099571E+02  0.22048290795E+02  0.32756546015E+02  0.51100000000E-03 0.  1.
         12    1    3    3    0    0 -0.63239332215E+01 -0.34958738889E+02 -0.22571902925E+02  0.42090335681E+02  0.00000000000E+00 0. -1.
</event>
<event>
 7    1  0.2682188E-015  0.9000770E+02  0.7816164E-02  0.1186339E+00
        -11   -1    0    0    0    0  0.00000000000E+00  0.00000000000E+00  0.45593999997E+02  0.45594000000E+02  0.51100000000E-03 0.  1.
         11   -1    0    0    0    0 -0.00000000000E+00 -0.00000000000E+00 -0.45593999997E+02  0.45594000000E+02  0.51100000000E-03 0. -1.
    9900012    2    1    2    0    0 -0.45860882351E+00 -0.97949007122E+00  0.47262646258E+00  0.90007704009E+02  0.89999964902E+02 0.  0.
         12    1    1    2    0    0  0.45860882351E+00  0.97949007122E+00 -0.47262646258E+00  0.11802959907E+01  0.00000000000E+00 0. -1.
         11    1    3    3    0    0  0.64297697701E+01 -0.73056380143E+01  0.31169114784E+01  0.10219071559E+02  0.51100000000E-03 0. -1.
        -11    1    3    3    0    0  0.29247335720E+02 -0.18857199572E+02 -0.71071869896E+01  0.35517780471E+02  0.51100000000E-03 0.  1.
         12    1    3    3    0    0 -0.36135714314E+02  0.25183347515E+02  0.44629019738E+01  0.44270851980E+02  0.00000000000E+00 0. -1.
</event>
<event>
 7    1  0.2682188E-015  0.9000761E+02  0.7816164E-02  0.1186339E+00
        -11   -1    0    0    0    0  0.00000000000E+00  0.00000000000E+00  0.45593999997E+02  0.45594000000E+02  0.51100000000E-03 0. -1.
         11   -1    0    0    0    0 -0.00000000000E+00 -0.00000000000E+00 -0.45593999997E+02  0.45594000000E+02  0.51100000000E-03 0.  1.
    9900012    2    1    2    0    0 -0.25879692570E-02 -0.11648218372E+01  0.19104779755E+00  0.90007611983E+02  0.89999871661E+02 0.  0.
         12    1    1    2    0    0  0.25879692570E-02  0.11648218372E+01 -0.19104779755E+00  0.11803880171E+01  0.00000000000E+00 0. -1.
         11    1    3    3    0    0  0.19023298910E+02  0.24410491154E+02  0.20077049445E+02  0.36889644814E+02  0.51100000000E-03 0. -1.
        -11    1    3    3    0    0 -0.87378882169E+00  0.88107996725E+01  0.11181185067E+01  0.89243423865E+01  0.51100000000E-03 0.  1.
        -12    1    3    3    0    0 -0.18152098057E+02 -0.34386112664E+02 -0.21004120154E+02  0.44193624783E+02  0.00000000000E+00 0.  1.
</event>
<event>
 7    1  0.2682188E-015  0.9000902E+02  0.7816164E-02  0.1186336E+00
        -11   -1    0    0    0    0  0.00000000000E+00  0.00000000000E+00  0.45593999997E+02  0.45594000000E+02  0.51100000000E-03 0. -1.
         11   -1    0    0    0    0 -0.00000000000E+00 -0.00000000000E+00 -0.45593999997E+02  0.45594000000E+02  0.51100000000E-03 0.  1.
    9900012    2    1    2    0    0 -0.44787358442E+00  0.99591551689E+00 -0.44448037939E+00  0.90009016848E+02  0.90001295061E+02 0.  0.
         12    1    1    2    0    0  0.44787358442E+00 -0.99591551689E+00  0.44448037939E+00  0.11789831517E+01  0.00000000000E+00 0. -1.
         11    1    3    3    0    0  0.19687533380E+02 -0.12136828918E+02  0.34596843032E+02  0.41615419436E+02  0.51100000000E-03 0. -1.
        -11    1    3    3    0    0  0.18886040103E+01  0.34456393163E+01  0.18552734014E+01  0.43452612189E+01  0.51100000000E-03 0.  1.
        -12    1    3    3    0    0 -0.22024010975E+02  0.96871051184E+01 -0.36896596813E+02  0.44048336193E+02  0.00000000000E+00 0.  1.
</event>
<event>
 7    1  0.2682188E-015  0.9000776E+02  0.7816164E-02  0.1186339E+00
        -11   -1    0    0    0    0  0.00000000000E+00  0.00000000000E+00  0.45593999997E+02  0.45594000000E+02  0.51100000000E-03 0.  1.
         11   -1    0    0    0    0 -0.00000000000E+00 -0.00000000000E+00 -0.45593999997E+02  0.45594000000E+02  0.51100000000E-03 0. -1.
    9900012    2    1    2    0    0  0.13562616179E+00 -0.11039432494E+01 -0.39482839422E+00  0.90007756544E+02  0.90000018131E+02 0.  0.
         12    1    1    2    0    0 -0.13562616179E+00  0.11039432494E+01  0.39482839422E+00  0.11802434556E+01  0.00000000000E+00 0. -1.
         11    1    3    3    0    0  0.20799111412E+02  0.15198382066E+02 -0.16162866512E+02  0.30411052384E+02  0.51100000000E-03 0. -1.
        -11    1    3    3    0    0  0.76888853946E+01  0.98990797968E+01  0.16820395748E+02  0.20977045855E+02  0.51100000000E-03 0.  1.
        -12    1    3    3    0    0 -0.28352370645E+02 -0.26201405112E+02 -0.10523576293E+01  0.38619658305E+02  0.00000000000E+00 0.  1.
</event>
<event>
 7    1  0.2682188E-015  0.9000779E+02  0.7816164E-02  0.1186339E+00
        -11   -1    0    0    0    0  0.00000000000E+00  0.00000000000E+00  0.45593999997E+02  0.45594000000E+02  0.51100000000E-03 0.  1.
         11   -1    0    0    0    0 -0.00000000000E+00 -0.00000000000E+00 -0.45593999997E+02  0.45594000000E+02  0.51100000000E-03 0. -1.
    9900012    2    1    2    0    0 -0.19168160062E+00 -0.91236260523E+00  0.72371003117E+00  0.90007786643E+02  0.90000048626E+02 0.  0.
         12    1    1    2    0    0  0.19168160062E+00  0.91236260523E+00 -0.72371003117E+00  0.11802133573E+01  0.00000000000E+00 0. -1.
         11    1    3    3    0    0  0.72484435180E+01 -0.63773019528E+01  0.15593998458E+01  0.97796544812E+01  0.51100000000E-03 0. -1.
        -11    1    3    3    0    0  0.17725812221E+02 -0.19078065455E+02  0.25390022136E+02  0.36370733079E+02  0.51100000000E-03 0.  1.
         12    1    3    3    0    0 -0.25165937340E+02  0.24543004802E+02 -0.26225711951E+02  0.43857399082E+02  0.00000000000E+00 0. -1.
</event>
<event>
 7    1  0.2682188E-015  0.9000769E+02  0.7816164E-02  0.1186339E+00
        -11   -1    0    0    0    0  0.00000000000E+00  0.00000000000E+00  0.45593999997E+02  0.45594000000E+02  0.51100000000E-03 0. -1.
         11   -1    0    0    0    0 -0.00000000000E+00 -0.00000000000E+00 -0.45593999997E+02  0.45594000000E+02  0.51100000000E-03 0.  1.
    9900012    2    1    2    0    0  0.65095298466E+00 -0.25368126790E+00 -0.95133932143E+00  0.90007686280E+02  0.89999946939E+02 0.  0.
         12    1    1    2    0    0 -0.65095298466E+00  0.25368126790E+00  0.95133932143E+00  0.11803137203E+01  0.00000000000E+00 0. -1.
         11    1    3    3    0    0  0.12669902061E-01  0.33519875987E+02  0.19615448177E+02  0.38837456844E+02  0.51100000000E-03 0. -1.
        -11    1    3    3    0    0 -0.32249319308E+01 -0.25641922864E+01  0.77985459544E+01  0.88200106182E+01  0.51100000000E-03 0.  1.
        -12    1    3    3    0    0  0.38632150134E+01 -0.31209364968E+02 -0.28365333453E+02  0.42350218817E+02  0.00000000000E+00 0.  1.
</event>
<event>
 7    1  0.2682188E-015  0.9000772E+02  0.7816164E-02  0.1186339E+00
        -11   -1    0    0    0    0  0.00000000000E+00  0.00000000000E+00  0.45593999997E+02  0.45594000000E+02  0.51100000000E-03 0.  1.
         11   -1    0    0    0    0 -0.00000000000E+00 -0.00000000000E+00 -0.45593999997E+02  0.45594000000E+02  0.51100000000E-03 0. -1.
    9900012    2    1    2    0    0 -0.74148884685E+00  0.91561479496E+00  0.70024862276E-01  0.90007720523E+02  0.89999981634E+02 0.  0.
         12    1    1    2    0    0  0.74148884685E+00 -0.91561479496E+00 -0.70024862276E-01  0.11802794771E+01  0.00000000000E+00 0. -1.
         11    1    3    3    0    0  0.12454302641E+02  0.57387580294E+01  0.14794200632E+02  0.20172044284E+02  0.51100000000E-03 0. -1.
        -11    1    3    3    0    0 -0.11373039980E+02 -0.10279728709E+02  0.25201287785E+02  0.29497860380E+02  0.51100000000E-03 0.  1.
         12    1    3    3    0    0 -0.18227515081E+01  0.54565854745E+01 -0.39925463555E+02  0.40337815858E+02  0.00000000000E+00 0. -1.
</event>
<event>
 7    1  0.2682188E-015  0.9000785E+02  0.7816164E-02  0.1186339E+00
        -11   -1    0    0    0    0  0.00000000000E+00  0.00000000000E+00  0.45593999997E+02  0.45594000000E+02  0.51100000000E-03 0.  1.
         11   -1    0    0    0    0 -0.00000000000E+00 -0.00000000000E+00 -0.45593999997E+02  0.45594000000E+02  0.51100000000E-03 0. -1.
    9900012    2    1    2    0    0  0.32156877108E+00  0.90454721411E+00 -0.68640503483E+00  0.90007845769E+02  0.90000108533E+02 0.  0.
         12    1    1    2    0    0 -0.32156877108E+00 -0.90454721411E+00  0.68640503483E+00  0.11801542310E+01  0.00000000000E+00 0. -1.
         11    1    3    3    0    0 -0.73947684730E-02  0.13687666611E+01  0.93497684056E+01  0.94494310069E+01  0.51100000000E-03 0. -1.
        -11    1    3    3    0    0 -0.12871398004E+02  0.33356618743E+02  0.12442789360E+02  0.37857098514E+02  0.51100000000E-03 0.  1.
         12    1    3    3    0    0  0.13200361544E+02 -0.33820838190E+02 -0.22478962800E+02  0.42701316248E+02  0.00000000000E+00 0. -1.
</event>
<event>
 7    1  0.2682188E-015  0.9000761E+02  0.7816164E-02  0.1186339E+00
        -11   -1    0    0    0    0  0.00000000000E+00  0.00000000000E+00  0.45593999997E+02  0.45594000000E+02  0.51100000000E-03 0.  1.
         11   -1    0    0    0    0 -0.00000000000E+00 -0.00000000000E+00 -0.45593999997E+02  0.45594000000E+02  0.51100000000E-03 0. -1.
    9900012    2    1    2    0    0  0.11063200999E+01 -0.12215087000E+00 -0.39302229724E+00  0.90007605352E+02  0.89999864943E+02 0.  0.
         12    1    1    2    0    0 -0.11063200999E+01  0.12215087000E+00  0.39302229724E+00  0.11803946479E+01  0.00000000000E+00 0. -1.
         11    1    3    3    0    0  0.14134133875E+01  0.50216429561E+01 -0.81341092568E+01  0.96632483692E+01  0.51100000000E-03 0. -1.
        -11    1    3    3    0    0  0.13704180743E+02 -0.32070213356E+02 -0.19154310038E+02  0.39789329572E+02  0.51100000000E-03 0.  1.
         12    1    3    3    0    0 -0.14011274030E+02  0.26926419530E+02  0.26895396998E+02  0.40555027411E+02  0.00000000000E+00 0. -1.
</event>
<event>
 7    1  0.2682188E-015  0.9000771E+02  0.7816164E-02  0.1186339E+00
        -11   -1    0    0    0    0  0.00000000000E+00  0.00000000000E+00  0.45593999997E+02  0.45594000000E+02  0.51100000000E-03 0.  1.
         11   -1    0    0    0    0 -0.00000000000E+00 -0.00000000000E+00 -0.45593999997E+02  0.45594000000E+02  0.51100000000E-03 0. -1.
    9900012    2    1    2    0    0 -0.82502093066E+00  0.42718789160E+00 -0.72797223626E+00  0.90007706559E+02  0.89999967485E+02 0.  0.
         12    1    1    2    0    0  0.82502093066E+00 -0.42718789160E+00  0.72797223626E+00  0.11802934413E+01  0.00000000000E+00 0. -1.
         11    1    3    3    0    0 -0.28008435205E+02 -0.22848857328E+02 -0.57146689446E+01  0.36595083894E+02  0.51100000000E-03 0. -1.
        -11    1    3    3    0    0 -0.23479991289E+01 -0.90661051766E+01  0.35340976652E+00  0.93718867742E+01  0.51100000000E-03 0.  1.
        -12    1    3    3    0    0  0.29531413404E+02  0.32342150396E+02  0.46332869418E+01  0.44040735890E+02  0.00000000000E+00 0.  1.
</event>
<event>
 7    1  0.2682188E-015  0.9000743E+02  0.7816164E-02  0.1186340E+00
        -11   -1    0    0    0    0  0.00000000000E+00  0.00000000000E+00  0.45593999997E+02  0.45594000000E+02  0.51100000000E-03 0.  1.
         11   -1    0    0    0    0 -0.00000000000E+00 -0.00000000000E+00 -0.45593999997E+02  0.45594000000E+02  0.51100000000E-03 0. -1.
    9900012    2    1    2    0    0  0.84941117405E+00  0.61167773593E+00  0.54597549671E+00  0.90007433086E+02  0.89999690402E+02 0.  0.
         12    1    1    2    0    0 -0.84941117405E+00 -0.61167773593E+00 -0.54597549671E+00  0.11805669139E+01  0.00000000000E+00 0. -1.
         11    1    3    3    0    0 -0.39782504100E+01  0.10346397831E+01 -0.35223933961E+02  0.35462973363E+02  0.51100000000E-03 0. -1.
        -11    1    3    3    0    0  0.33716389089E+01  0.50580818919E+01 -0.82016031632E+01  0.10208743119E+02  0.51100000000E-03 0.  1.
        -12    1    3    3    0    0  0.14560226752E+01 -0.54810439390E+01  0.43971512621E+02  0.44335716604E+02  0.00000000000E+00 0.  1.
</event>
<event>
 7    1  0.2682188E-015  0.9000770E+02  0.7816164E-02  0.1186339E+00
        -11   -1    0    0    0    0  0.00000000000E+00  0.00000000000E+00  0.45593999997E+02  0.45594000000E+02  0.51100000000E-03 0.  1.
         11   -1    0    0    0    0 -0.00000000000E+00 -0.00000000000E+00 -0.45593999997E+02  0.45594000000E+02  0.51100000000E-03 0. -1.
    9900012    2    1    2    0    0 -0.36519739252E+00  0.91228404605E+00  0.65381144056E+00  0.90007703124E+02  0.89999964005E+02 0.  0.
         12    1    1    2    0    0  0.36519739252E+00 -0.91228404605E+00 -0.65381144056E+00  0.11802968762E+01  0.00000000000E+00 0. -1.
         11    1    3    3    0    0  0.15077291089E+02 -0.15195036014E+02  0.49516023860E+01  0.21971167300E+02  0.51100000000E-03 0. -1.
        -11    1    3    3    0    0 -0.23236420033E+01  0.10586044106E+02  0.29465608860E+02  0.31395632622E+02  0.51100000000E-03 0.  1.
         12    1    3    3    0    0 -0.13118846479E+02  0.55212759534E+01 -0.33763399805E+02  0.36640903202E+02  0.00000000000E+00 0. -1.
</event>
<event>
 7    1  0.2682188E-015  0.9000768E+02  0.7816164E-02  0.1186339E+00
        -11   -1    0    0    0    0  0.00000000000E+00  0.00000000000E+00  0.45593999997E+02  0.45594000000E+02  0.51100000000E-03 0.  1.
         11   -1    0    0    0    0 -0.00000000000E+00 -0.00000000000E+00 -0.45593999997E+02  0.45594000000E+02  0.51100000000E-03 0. -1.
    9900012    2    1    2    0    0 -0.72269995067E-01 -0.36054824180E+00  0.11215825017E+01  0.90007675767E+02  0.89999936287E+02 0.  0.
         12    1    1    2    0    0  0.72269995067E-01  0.36054824180E+00 -0.11215825017E+01  0.11803242330E+01  0.00000000000E+00 0. -1.
         11    1    3    3    0    0 -0.34311519021E+02  0.21046319487E+02  0.45848047195E+01  0.40512323262E+02  0.51100000000E-03 0. -1.
        -11    1    3    3    0    0  0.10707173572E+01  0.61473940144E+01 -0.54229792916E-01  0.62401786801E+01  0.51100000000E-03 0.  1.
        -12    1    3    3    0    0  0.33168531669E+02 -0.27554261743E+02 -0.34089924249E+01  0.43255173825E+02  0.00000000000E+00 0.  1.
</event>
<event>
 7    1  0.3133820E-015  0.9000783E+02  0.7816164E-02  0.1186339E+00
        -11   -1    0    0    0    0  0.00000000000E+00  0.00000000000E+00  0.45593999997E+02  0.45594000000E+02  0.51100000000E-03 0. -1.
         11   -1    0    0    0    0 -0.00000000000E+00 -0.00000000000E+00 -0.45593999997E+02  0.45594000000E+02  0.51100000000E-03 0.  1.
    9900012    2    1    2    0    0 -0.47646350108E+00  0.31097340793E+00 -0.10339644181E+01  0.90007828679E+02  0.90000091218E+02 0.  0.
         12    1    1    2    0    0  0.47646350108E+00 -0.31097340793E+00  0.10339644181E+01  0.11801713207E+01  0.00000000000E+00 0. -1.
         11    1    3    3    0    0  0.51588432904E+01 -0.74590163954E+01 -0.20254672284E+01  0.92926372702E+01  0.51100000000E-03 0. -1.
        -11    1    3    3    0    0  0.34756912387E+02  0.15525846485E+02 -0.72923764693E+01  0.38759174689E+02  0.51100000000E-03 0.  1.
         12    1    3    3    0    0 -0.40392219179E+02 -0.77558566814E+01  0.82838792796E+01  0.41956016720E+02  0.00000000000E+00 0. -1.
</event>
<event>
 7    1  0.2682188E-015  0.9000766E+02  0.7816164E-02  0.1186339E+00
        -11   -1    0    0    0    0  0.00000000000E+00  0.00000000000E+00  0.45593999997E+02  0.45594000000E+02  0.51100000000E-03 0.  1.
         11   -1    0    0    0    0 -0.00000000000E+00 -0.00000000000E+00 -0.45593999997E+02  0.45594000000E+02  0.51100000000E-03 0. -1.
    9900012    2    1    2    0    0  0.40688220353E+00  0.10517335274E+01  0.34859210189E+00  0.90007655561E+02  0.89999915815E+02 0.  0.
         12    1    1    2    0    0 -0.40688220353E+00 -0.10517335274E+01 -0.34859210189E+00  0.11803444386E+01  0.00000000000E+00 0. -1.
         11    1    3    3    0    0  0.15873999340E+01 -0.32928946710E+01  0.10139615060E+02  0.10778440875E+02  0.51100000000E-03 0. -1.
        -11    1    3    3    0    0  0.45911411033E+01  0.15225800394E+02  0.31960676716E+02  0.35698577432E+02  0.51100000000E-03 0.  1.
         12    1    3    3    0    0 -0.57716588338E+01 -0.10881172196E+02 -0.41751699675E+02  0.43530637254E+02  0.00000000000E+00 0. -1.
</event>
<event>
 7    1  0.2682188E-015  0.9000762E+02  0.7816164E-02  0.1186339E+00
        -11   -1    0    0    0    0  0.00000000000E+00  0.00000000000E+00  0.45593999997E+02  0.45594000000E+02  0.51100000000E-03 0.  1.
         11   -1    0    0    0    0 -0.00000000000E+00 -0.00000000000E+00 -0.45593999997E+02  0.45594000000E+02  0.51100000000E-03 0. -1.
    9900012    2    1    2    0    0  0.55733331457E+00 -0.81307749134E+00  0.64928595170E+00  0.90007623925E+02  0.89999883761E+02 0.  0.
         12    1    1    2    0    0 -0.55733331457E+00  0.81307749134E+00 -0.64928595170E+00  0.11803760746E+01  0.00000000000E+00 0. -1.
         11    1    3    3    0    0  0.29670036872E+01 -0.83350765096E+01 -0.22362553085E+01  0.91256478875E+01  0.51100000000E-03 0. -1.
        -11    1    3    3    0    0 -0.39894576428E+02  0.26344727886E+01  0.12474900701E+02  0.41882464386E+02  0.51100000000E-03 0.  1.
         12    1    3    3    0    0  0.37484906056E+02  0.48875262296E+01 -0.95893594404E+01  0.38999511652E+02  0.00000000000E+00 0. -1.
</event>
<event>
 7    1  0.2682188E-015  0.9000769E+02  0.7816164E-02  0.1186339E+00
        -11   -1    0    0    0    0  0.00000000000E+00  0.00000000000E+00  0.45593999997E+02  0.45594000000E+02  0.51100000000E-03 0. -1.
         11   -1    0    0    0    0 -0.00000000000E+00 -0.00000000000E+00 -0.45593999997E+02  0.45594000000E+02  0.51100000000E-03 0.  1.
    9900012    2    1    2    0    0 -0.93709483674E+00  0.71645011629E+00 -0.41098467425E-01  0.90007687928E+02  0.89999948609E+02 0.  0.
         12    1    1    2    0    0  0.93709483674E+00 -0.71645011629E+00  0.41098467425E-01  0.11803120715E+01  0.00000000000E+00 0. -1.
         11    1    3    3    0    0  0.36912933684E+01  0.26240576947E+02  0.33465754327E+02  0.42686651756E+02  0.51100000000E-03 0. -1.
        -11    1    3    3    0    0  0.49713899644E+01  0.82685321415E+00 -0.77399892054E+01  0.92361159357E+01  0.51100000000E-03 0.  1.
        -12    1    3    3    0    0 -0.95997781695E+01 -0.26350980045E+02 -0.25766863589E+02  0.38084920237E+02  0.00000000000E+00 0.  1.
</event>
<event>
 7    1  0.2682188E-015  0.9000777E+02  0.7816164E-02  0.1186339E+00
        -11   -1    0    0    0    0  0.00000000000E+00  0.00000000000E+00  0.45593999997E+02  0.45594000000E+02  0.51100000000E-03 0. -1.
         11   -1    0    0    0    0 -0.00000000000E+00 -0.00000000000E+00 -0.45593999997E+02  0.45594000000E+02  0.51100000000E-03 0.  1.
    9900012    2    1    2    0    0 -0.50329041143E+00  0.97387507462E+00 -0.43726135504E+00  0.90007774855E+02  0.90000036684E+02 0.  0.
         12    1    1    2    0    0  0.50329041143E+00 -0.97387507462E+00  0.43726135504E+00  0.11802251445E+01  0.00000000000E+00 0. -1.
         11    1    3    3    0    0  0.32069240428E+02 -0.16258281774E+02  0.35690240661E+01  0.36131784358E+02  0.51100000000E-03 0. -1.
        -11    1    3    3    0    0  0.84618486156E+01  0.39670336915E+01  0.37298204617E+01  0.10062395303E+02  0.51100000000E-03 0.  1.
        -12    1    3    3    0    0 -0.41034379455E+02  0.13265123157E+02 -0.77361058828E+01  0.43813595194E+02  0.00000000000E+00 0.  1.
</event>
<event>
 7    1  0.2682188E-015  0.9000777E+02  0.7816164E-02  0.1186339E+00
        -11   -1    0    0    0    0  0.00000000000E+00  0.00000000000E+00  0.45593999997E+02  0.45594000000E+02  0.51100000000E-03 0. -1.
         11   -1    0    0    0    0 -0.00000000000E+00 -0.00000000000E+00 -0.45593999997E+02  0.45594000000E+02  0.51100000000E-03 0.  1.
    9900012    2    1    2    0    0  0.43478538697E+00  0.68109256625E+00  0.86024109564E+00  0.90007771141E+02  0.90000032920E+02 0.  0.
         12    1    1    2    0    0 -0.43478538697E+00 -0.68109256625E+00 -0.86024109564E+00  0.11802288588E+01  0.00000000000E+00 0. -1.
         11    1    3    3    0    0  0.50898735311E+01 -0.32811393274E+00 -0.62407775451E+01  0.80598868444E+01  0.51100000000E-03 0. -1.
        -11    1    3    3    0    0  0.31193411259E+02  0.19173923438E+02 -0.10475823520E+02  0.38084263478E+02  0.51100000000E-03 0.  1.
         12    1    3    3    0    0 -0.35848499403E+02 -0.18164716939E+02  0.17576842161E+02  0.43863620818E+02  0.00000000000E+00 0. -1.
</event>
<event>
 7    1  0.2682188E-015  0.9000767E+02  0.7816164E-02  0.1186339E+00
        -11   -1    0    0    0    0  0.00000000000E+00  0.00000000000E+00  0.45593999997E+02  0.45594000000E+02  0.51100000000E-03 0. -1.
         11   -1    0    0    0    0 -0.00000000000E+00 -0.00000000000E+00 -0.45593999997E+02  0.45594000000E+02  0.51100000000E-03 0.  1.
    9900012    2    1    2    0    0  0.26452816204E+00 -0.11502678135E+01  0.97211940143E-02  0.90007667126E+02  0.89999927532E+02 0.  0.
         12    1    1    2    0    0 -0.26452816204E+00  0.11502678135E+01 -0.97211940143E-02  0.11803328738E+01  0.00000000000E+00 0. -1.
         11    1    3    3    0    0 -0.18926743464E+02  0.31658119636E+02  0.68003995823E+01  0.37506047402E+02  0.51100000000E-03 0. -1.
        -11    1    3    3    0    0 -0.27752791609E+01  0.43075127319E+01 -0.78327185827E+01  0.93599316778E+01  0.51100000000E-03 0.  1.
        -12    1    3    3    0    0  0.21966550787E+02 -0.37115900181E+02  0.10420401945E+01  0.43141688046E+02  0.00000000000E+00 0.  1.
</event>
<event>
 7    1  0.2682188E-015  0.9000787E+02  0.7816164E-02  0.1186339E+00
        -11   -1    0    0    0    0  0.00000000000E+00  0.00000000000E+00  0.45593999997E+02  0.45594000000E+02  0.51100000000E-03 0.  1.
         11   -1    0    0    0    0 -0.00000000000E+00 -0.00000000000E+00 -0.45593999997E+02  0.45594000000E+02  0.51100000000E-03 0. -1.
    9900012    2    1    2    0    0 -0.10765850712E+01 -0.10146151131E+00  0.47262001922E+00  0.90007873085E+02  0.90000136209E+02 0.  0.
         12    1    1    2    0    0  0.10765850712E+01  0.10146151131E+00 -0.47262001922E+00  0.11801269154E+01  0.00000000000E+00 0. -1.
         11    1    3    3    0    0  0.37582444869E+02  0.11020106702E+02 -0.73754028315E+01  0.39853224226E+02  0.51100000000E-03 0. -1.
        -11    1    3    3    0    0 -0.20650735567E+01  0.72022570705E+01  0.52465166096E+01  0.91467465528E+01  0.51100000000E-03 0.  1.
        -12    1    3    3    0    0 -0.36593956383E+02 -0.18323825283E+02  0.26015062411E+01  0.41007902306E+02  0.00000000000E+00 0.  1.
</event>
<event>
 7    1  0.2682188E-015  0.9000785E+02  0.7816164E-02  0.1186339E+00
        -11   -1    0    0    0    0  0.00000000000E+00  0.00000000000E+00  0.45593999997E+02  0.45594000000E+02  0.51100000000E-03 0. -1.
         11   -1    0    0    0    0 -0.00000000000E+00 -0.00000000000E+00 -0.45593999997E+02  0.45594000000E+02  0.51100000000E-03 0.  1.
    9900012    2    1    2    0    0  0.45253153718E+00  0.10394491847E+01 -0.32789058282E+00  0.90007851012E+02  0.90000113845E+02 0.  0.
         12    1    1    2    0    0 -0.45253153718E+00 -0.10394491847E+01  0.32789058282E+00  0.11801489880E+01  0.00000000000E+00 0. -1.
         11    1    3    3    0    0 -0.15683052251E+01 -0.34379380939E+02 -0.16341984405E+02  0.38098055982E+02  0.51100000000E-03 0. -1.
        -11    1    3    3    0    0 -0.56461169241E+01 -0.52390791527E+01  0.48708182253E+00  0.77177610518E+01  0.51100000000E-03 0.  1.
        -12    1    3    3    0    0  0.76669536864E+01  0.40657909276E+02  0.15527012000E+02  0.44192033979E+02  0.00000000000E+00 0.  1.
</event>
<event>
 7    1  0.2682188E-015  0.9000781E+02  0.7816164E-02  0.1186339E+00
        -11   -1    0    0    0    0  0.00000000000E+00  0.00000000000E+00  0.45593999997E+02  0.45594000000E+02  0.51100000000E-03 0.  1.
         11   -1    0    0    0    0 -0.00000000000E+00 -0.00000000000E+00 -0.45593999997E+02  0.45594000000E+02  0.51100000000E-03 0. -1.
    9900012    2    1    2    0    0  0.37062772326E+00  0.65069916735E+00  0.91218560813E+00  0.90007806414E+02  0.90000068659E+02 0.  0.
         12    1    1    2    0    0 -0.37062772326E+00 -0.65069916735E+00 -0.91218560813E+00  0.11801935855E+01  0.00000000000E+00 0. -1.
         11    1    3    3    0    0  0.31294103517E+02 -0.64754582743E+01 -0.22242869059E+02  0.38935815120E+02  0.51100000000E-03 0. -1.
        -11    1    3    3    0    0  0.55134332034E+01  0.72095142562E+01  0.42312947338E+01  0.10013935135E+02  0.51100000000E-03 0.  1.
        -12    1    3    3    0    0 -0.36436908997E+02 -0.83356814497E-01  0.18923759933E+02  0.41058056160E+02  0.00000000000E+00 0.  1.
</event>
<event>
 7    1  0.2682188E-015  0.9000777E+02  0.7816164E-02  0.1186339E+00
        -11   -1    0    0    0    0  0.00000000000E+00  0.00000000000E+00  0.45593999997E+02  0.45594000000E+02  0.51100000000E-03 0.  1.
         11   -1    0    0    0    0 -0.00000000000E+00 -0.00000000000E+00 -0.45593999997E+02  0.45594000000E+02  0.51100000000E-03 0. -1.
    9900012    2    1    2    0    0  0.11404594223E+01  0.12297412165E+00  0.27778722239E+00  0.90007772874E+02  0.90000034676E+02 0.  0.
         12    1    1    2    0    0 -0.11404594223E+01 -0.12297412165E+00 -0.27778722239E+00  0.11802271262E+01  0.00000000000E+00 0. -1.
         11    1    3    3    0    0 -0.34813523451E+02 -0.86804418701E+01  0.10399861755E+02  0.37356239250E+02  0.51100000000E-03 0. -1.
        -11    1    3    3    0    0 -0.56768966505E+01  0.74954715301E+01  0.12251366673E+01  0.94820994064E+01  0.51100000000E-03 0.  1.
        -12    1    3    3    0    0  0.41630879524E+02  0.13079444617E+01 -0.11347211200E+02  0.43169434217E+02  0.00000000000E+00 0.  1.
</event>
<event>
 7    1  0.2682188E-015  0.9000770E+02  0.7816164E-02  0.1186339E+00
        -11   -1    0    0    0    0  0.00000000000E+00  0.00000000000E+00  0.45593999997E+02  0.45594000000E+02  0.51100000000E-03 0.  1.
         11   -1    0    0    0    0 -0.00000000000E+00 -0.00000000000E+00 -0.45593999997E+02  0.45594000000E+02  0.51100000000E-03 0. -1.
    9900012    2    1    2    0    0  0.11063519975E+01 -0.40856305334E+00  0.46653479813E-01  0.90007697048E+02  0.89999957849E+02 0.  0.
         12    1    1    2    0    0 -0.11063519975E+01  0.40856305334E+00 -0.46653479813E-01  0.11803029518E+01  0.00000000000E+00 0. -1.
         11    1    3    3    0    0 -0.59063675915E+01  0.60366201810E+01 -0.16687417661E+01  0.86087548855E+01  0.51100000000E-03 0. -1.
        -11    1    3    3    0    0  0.23664885880E+02  0.11205941069E+02  0.32796530409E+02  0.41966800522E+02  0.51100000000E-03 0.  1.
         12    1    3    3    0    0 -0.16652166291E+02 -0.17651124304E+02 -0.31081135163E+02  0.39432141641E+02  0.00000000000E+00 0. -1.
</event>
<event>
 7    1  0.2682188E-015  0.9000772E+02  0.7816164E-02  0.1186339E+00
        -11   -1    0    0    0    0  0.00000000000E+00  0.00000000000E+00  0.45593999997E+02  0.45594000000E+02  0.51100000000E-03 0. -1.
         11   -1    0    0    0    0 -0.00000000000E+00 -0.00000000000E+00 -0.45593999997E+02  0.45594000000E+02  0.51100000000E-03 0.  1.
    9900012    2    1    2    0    0  0.68538225148E+00  0.53692587035E+00  0.79688190862E+00  0.90007720797E+02  0.89999981911E+02 0.  0.
         12    1    1    2    0    0 -0.68538225148E+00 -0.53692587035E+00 -0.79688190862E+00  0.11802792031E+01  0.00000000000E+00 0. -1.
         11    1    3    3    0    0 -0.58187075431E+01 -0.27997405316E+02  0.19929905092E+02  0.34855604702E+02  0.51100000000E-03 0. -1.
        -11    1    3    3    0    0 -0.71951227439E+01 -0.43254451317E+01  0.70474040096E+01  0.10961075240E+02  0.51100000000E-03 0.  1.
        -12    1    3    3    0    0  0.13699212539E+02  0.32859776318E+02 -0.26180427193E+02  0.44191040855E+02  0.00000000000E+00 0.  1.
</event>
<event>
 7    1  0.2682188E-015  0.9000771E+02  0.7816164E-02  0.1186339E+00
        -11   -1    0    0    0    0  0.00000000000E+00  0.00000000000E+00  0.45593999997E+02  0.45594000000E+02  0.51100000000E-03 0. -1.
         11   -1    0    0    0    0 -0.00000000000E+00 -0.00000000000E+00 -0.45593999997E+02  0.45594000000E+02  0.51100000000E-03 0.  1.
    9900012    2    1    2    0    0 -0.15114891858E+00  0.11675300935E+01 -0.84369646219E-01  0.90007707345E+02  0.89999968282E+02 0.  0.
         12    1    1    2    0    0  0.15114891858E+00 -0.11675300935E+01  0.84369646219E-01  0.11802926552E+01  0.00000000000E+00 0. -1.
         11    1    3    3    0    0  0.25698375919E+00 -0.14577160381E+02  0.25874863290E+02  0.29699632926E+02  0.51100000000E-03 0. -1.
        -11    1    3    3    0    0  0.44873545973E+01 -0.12251356986E+02  0.85521441939E+01  0.15600361209E+02  0.51100000000E-03 0.  1.
        -12    1    3    3    0    0 -0.48954872750E+01  0.27996047460E+02 -0.34511377130E+02  0.44707713210E+02  0.00000000000E+00 0.  1.
</event>
<event>
 7    1  0.2682188E-015  0.9000772E+02  0.7816164E-02  0.1186339E+00
        -11   -1    0    0    0    0  0.00000000000E+00  0.00000000000E+00  0.45593999997E+02  0.45594000000E+02  0.51100000000E-03 0. -1.
         11   -1    0    0    0    0 -0.00000000000E+00 -0.00000000000E+00 -0.45593999997E+02  0.45594000000E+02  0.51100000000E-03 0.  1.
    9900012    2    1    2    0    0 -0.41709212298E+00 -0.10913733378E+01  0.16734708683E+00  0.90007717555E+02  0.89999978627E+02 0.  0.
         12    1    1    2    0    0  0.41709212298E+00  0.10913733378E+01 -0.16734708683E+00  0.11802824446E+01  0.00000000000E+00 0. -1.
         11    1    3    3    0    0  0.37539945752E+01 -0.79089580289E+01 -0.53243783282E+01  0.10246613939E+02  0.51100000000E-03 0. -1.
        -11    1    3    3    0    0 -0.14784190856E+02 -0.33841362632E+02 -0.23899520596E+01  0.37007053316E+02  0.51100000000E-03 0.  1.
         12    1    3    3    0    0  0.10613104157E+02  0.40658947323E+02  0.78816774746E+01  0.42754050300E+02  0.00000000000E+00 0. -1.
</event>
<event>
 7    1  0.2682188E-015  0.9000780E+02  0.7816164E-02  0.1186339E+00
        -11   -1    0    0    0    0  0.00000000000E+00  0.00000000000E+00  0.45593999997E+02  0.45594000000E+02  0.51100000000E-03 0.  1.
         11   -1    0    0    0    0 -0.00000000000E+00 -0.00000000000E+00 -0.45593999997E+02  0.45594000000E+02  0.51100000000E-03 0. -1.
    9900012    2    1    2    0    0  0.29295901787E+00 -0.19827604334E+00  0.11259372363E+01  0.90007799578E+02  0.90000061733E+02 0.  0.
         12    1    1    2    0    0 -0.29295901787E+00  0.19827604334E+00 -0.11259372363E+01  0.11802004218E+01  0.00000000000E+00 0. -1.
         11    1    3    3    0    0  0.13487974844E+02  0.35679256152E+02 -0.86071208355E+01  0.39102650988E+02  0.51100000000E-03 0. -1.
        -11    1    3    3    0    0  0.13474157843E+01 -0.44120274227E+01  0.15135704083E+02  0.15823117696E+02  0.51100000000E-03 0.  1.
        -12    1    3    3    0    0 -0.14542431610E+02 -0.31465504773E+02 -0.54026460108E+01  0.35082030894E+02  0.00000000000E+00 0.  1.
</event>
<event>
 7    1  0.2682188E-015  0.9000776E+02  0.7816164E-02  0.1186339E+00
        -11   -1    0    0    0    0  0.00000000000E+00  0.00000000000E+00  0.45593999997E+02  0.45594000000E+02  0.51100000000E-03 0. -1.
         11   -1    0    0    0    0 -0.00000000000E+00 -0.00000000000E+00 -0.45593999997E+02  0.45594000000E+02  0.51100000000E-03 0.  1.
    9900012    2    1    2    0    0  0.25307700511E+00  0.50960417873E+00 -0.10340336507E+01  0.90007758508E+02  0.90000020120E+02 0.  0.
         12    1    1    2    0    0 -0.25307700511E+00 -0.50960417873E+00  0.10340336507E+01  0.11802414924E+01  0.00000000000E+00 0. -1.
         11    1    3    3    0    0 -0.60177703981E+01 -0.38540699523E+01 -0.33598255560E+01  0.78965716479E+01  0.51100000000E-03 0. -1.
        -11    1    3    3    0    0 -0.26195248058E+01 -0.21393671242E+02 -0.31815773739E+02  0.38429084537E+02  0.51100000000E-03 0.  1.
         12    1    3    3    0    0  0.88903722090E+01  0.25757345373E+02  0.34141565645E+02  0.43682102323E+02  0.00000000000E+00 0. -1.
</event>
<event>
 7    1  0.2682188E-015  0.9000858E+02  0.7816164E-02  0.1186337E+00
        -11   -1    0    0    0    0  0.00000000000E+00  0.00000000000E+00  0.45593999997E+02  0.45594000000E+02  0.51100000000E-03 0.  1.
         11   -1    0    0    0    0 -0.00000000000E+00 -0.00000000000E+00 -0.45593999997E+02  0.45594000000E+02  0.51100000000E-03 0. -1.
    9900012    2    1    2    0    0  0.56188130419E+00  0.14453218772E+00  0.10268526411E+01  0.90008582135E+02  0.90000854615E+02 0.  0.
         12    1    1    2    0    0 -0.56188130419E+00 -0.14453218772E+00 -0.10268526411E+01  0.11794178648E+01  0.00000000000E+00 0. -1.
         11    1    3    3    0    0  0.23947653823E+02  0.54389010586E+00 -0.27874491862E+02  0.36752867057E+02  0.51100000000E-03 0. -1.
        -11    1    3    3    0    0  0.69327398084E+01 -0.55507372221E+01 -0.25781007909E+01  0.92477115499E+01  0.51100000000E-03 0.  1.
        -12    1    3    3    0    0 -0.30318512328E+02  0.51513793040E+01  0.31479445294E+02  0.44008003528E+02  0.00000000000E+00 0.  1.
</event>
<event>
 7    1  0.2682188E-015  0.9000767E+02  0.7816164E-02  0.1186339E+00
        -11   -1    0    0    0    0  0.00000000000E+00  0.00000000000E+00  0.45593999997E+02  0.45594000000E+02  0.51100000000E-03 0.  1.
         11   -1    0    0    0    0 -0.00000000000E+00 -0.00000000000E+00 -0.45593999997E+02  0.45594000000E+02  0.51100000000E-03 0. -1.
    9900012    2    1    2    0    0  0.11576361427E+01  0.22752648484E+00  0.36012108390E-01  0.90007666737E+02  0.89999927138E+02 0.  0.
         12    1    1    2    0    0 -0.11576361427E+01 -0.22752648484E+00 -0.36012108390E-01  0.11803332632E+01  0.00000000000E+00 0. -1.
         11    1    3    3    0    0  0.16849872158E+02 -0.33537415851E+02  0.20942393759E+02  0.42979766289E+02  0.51100000000E-03 0. -1.
        -11    1    3    3    0    0 -0.77238565962E+01  0.35008322296E+00 -0.46653422655E+01  0.90302789379E+01  0.51100000000E-03 0.  1.
        -12    1    3    3    0    0 -0.79683794189E+01  0.33414859113E+02 -0.16241039385E+02  0.37997621509E+02  0.00000000000E+00 0.  1.
</event>
<event>
 7    1  0.2682188E-015  0.9000777E+02  0.7816164E-02  0.1186339E+00
        -11   -1    0    0    0    0  0.00000000000E+00  0.00000000000E+00  0.45593999997E+02  0.45594000000E+02  0.51100000000E-03 0. -1.
         11   -1    0    0    0    0 -0.00000000000E+00 -0.00000000000E+00 -0.45593999997E+02  0.45594000000E+02  0.51100000000E-03 0.  1.
    9900012    2    1    2    0    0 -0.64372097052E+00 -0.89583071769E+00 -0.41959115101E+00  0.90007768626E+02  0.90000030372E+02 0.  0.
         12    1    1    2    0    0  0.64372097052E+00  0.89583071769E+00  0.41959115101E+00  0.11802313742E+01  0.00000000000E+00 0. -1.
         11    1    3    3    0    0  0.34139781065E+02 -0.62103125187E+01 -0.10416511948E+02  0.36229771655E+02  0.51100000000E-03 0. -1.
        -11    1    3    3    0    0  0.48955564564E+01 -0.41528469569E+01 -0.70780391928E+01  0.95556920179E+01  0.51100000000E-03 0.  1.
        -12    1    3    3    0    0 -0.39679058492E+02  0.94673287579E+01  0.17074959990E+02  0.44222304952E+02  0.00000000000E+00 0.  1.
</event>
<event>
 7    1  0.2682188E-015  0.9000774E+02  0.7816164E-02  0.1186339E+00
        -11   -1    0    0    0    0  0.00000000000E+00  0.00000000000E+00  0.45593999997E+02  0.45594000000E+02  0.51100000000E-03 0. -1.
         11   -1    0    0    0    0 -0.00000000000E+00 -0.00000000000E+00 -0.45593999997E+02  0.45594000000E+02  0.51100000000E-03 0.  1.
    9900012    2    1    2    0    0  0.60859701265E+00  0.63199671657E+00 -0.78942987597E+00  0.90007741680E+02  0.90000003070E+02 0.  0.
         12    1    1    2    0    0 -0.60859701265E+00 -0.63199671657E+00  0.78942987597E+00  0.11802583203E+01  0.00000000000E+00 0. -1.
         11    1    3    3    0    0  0.39957107317E+01 -0.67566483795E+01 -0.58938940194E+01  0.98161086256E+01  0.51100000000E-03 0. -1.
        -11    1    3    3    0    0 -0.17234693050E+02 -0.29837652157E+02  0.17416126379E+02  0.38608827864E+02  0.51100000000E-03 0.  1.
         12    1    3    3    0    0  0.13847579331E+02  0.37226297253E+02 -0.12311662236E+02  0.41582805190E+02  0.00000000000E+00 0. -1.
</event>
<event>
 7    1  0.3126076E-015  0.9000775E+02  0.7816164E-02  0.1186339E+00
        -11   -1    0    0    0    0  0.00000000000E+00  0.00000000000E+00  0.45593999997E+02  0.45594000000E+02  0.51100000000E-03 0.  1.
         11   -1    0    0    0    0 -0.00000000000E+00 -0.00000000000E+00 -0.45593999997E+02  0.45594000000E+02  0.51100000000E-03 0. -1.
    9900012    2    1    2    0    0 -0.66868692612E+00  0.44579318146E+00  0.86436210958E+00  0.90007747645E+02  0.90000009114E+02 0.  0.
         12    1    1    2    0    0  0.66868692612E+00 -0.44579318146E+00 -0.86436210958E+00  0.11802523553E+01  0.00000000000E+00 0. -1.
         11    1    3    3    0    0 -0.34159998369E+01  0.34516810143E+01  0.85582923967E+01  0.98400978511E+01  0.51100000000E-03 0. -1.
        -11    1    3    3    0    0 -0.21379809270E+02 -0.13637433798E+02  0.26704786639E+02  0.36826912370E+02  0.51100000000E-03 0.  1.
         12    1    3    3    0    0  0.24127122181E+02  0.10631545965E+02 -0.34398716926E+02  0.43340737424E+02  0.00000000000E+00 0. -1.
</event>
<event>
 7    1  0.2682188E-015  0.9000785E+02  0.7816164E-02  0.1186339E+00
        -11   -1    0    0    0    0  0.00000000000E+00  0.00000000000E+00  0.45593999997E+02  0.45594000000E+02  0.51100000000E-03 0. -1.
         11   -1    0    0    0    0 -0.00000000000E+00 -0.00000000000E+00 -0.45593999997E+02  0.45594000000E+02  0.51100000000E-03 0.  1.
    9900012    2    1    2    0    0 -0.69753455967E+00  0.76916363331E+00 -0.56087790422E+00  0.90007851204E+02  0.90000114040E+02 0.  0.
         12    1    1    2    0    0  0.69753455967E+00 -0.76916363331E+00  0.56087790422E+00  0.11801487958E+01  0.00000000000E+00 0. -1.
         11    1    3    3    0    0 -0.49535109110E+01 -0.36879226822E+02  0.14579338735E+02  0.39964631358E+02  0.51100000000E-03 0. -1.
        -11    1    3    3    0    0 -0.80126097575E+01  0.32348497948E+01  0.31353389805E+01  0.91921988177E+01  0.51100000000E-03 0.  1.
        -12    1    3    3    0    0  0.12268586109E+02  0.34413540661E+02 -0.18275555620E+02  0.40851021029E+02  0.00000000000E+00 0.  1.
</event>
<event>
 7    1  0.2682188E-015  0.9000778E+02  0.7816164E-02  0.1186339E+00
        -11   -1    0    0    0    0  0.00000000000E+00  0.00000000000E+00  0.45593999997E+02  0.45594000000E+02  0.51100000000E-03 0.  1.
         11   -1    0    0    0    0 -0.00000000000E+00 -0.00000000000E+00 -0.45593999997E+02  0.45594000000E+02  0.51100000000E-03 0. -1.
    9900012    2    1    2    0    0  0.15321369039E+00 -0.11421439388E+01 -0.25487259567E+00  0.90007776609E+02  0.90000038461E+02 0.  0.
         12    1    1    2    0    0 -0.15321369039E+00  0.11421439388E+01  0.25487259567E+00  0.11802233907E+01  0.00000000000E+00 0. -1.
         11    1    3    3    0    0 -0.28911879718E+02 -0.17576513077E+02 -0.16409722351E+02  0.37604648498E+02  0.51100000000E-03 0. -1.
        -11    1    3    3    0    0 -0.73401654230E+01  0.45415881197E+01  0.10653657728E+02  0.13711472362E+02  0.51100000000E-03 0.  1.
        -12    1    3    3    0    0  0.36405258831E+02  0.11892781019E+02  0.55011920275E+01  0.38691655750E+02  0.00000000000E+00 0.  1.
</event>
<event>
 7    1  0.2682188E-015  0.9000749E+02  0.7816164E-02  0.1186340E+00
        -11   -1    0    0    0    0  0.00000000000E+00  0.00000000000E+00  0.45593999997E+02  0.45594000000E+02  0.51100000000E-03 0.  1.
         11   -1    0    0    0    0 -0.00000000000E+00 -0.00000000000E+00 -0.45593999997E+02  0.45594000000E+02  0.51100000000E-03 0. -1.
    9900012    2    1    2    0    0 -0.20799852308E+00 -0.46983271305E+00  0.10628254068E+01  0.90007489937E+02  0.89999748004E+02 0.  0.
         12    1    1    2    0    0  0.20799852308E+00  0.46983271305E+00 -0.10628254068E+01  0.11805100632E+01  0.00000000000E+00 0. -1.
         11    1    3    3    0    0  0.90995061782E+01 -0.10164501600E+02 -0.42034908465E+01  0.14275413865E+02  0.51100000000E-03 0. -1.
        -11    1    3    3    0    0  0.24288310763E+01  0.41513808392E+02  0.42618408189E+01  0.41802617084E+02  0.51100000000E-03 0.  1.
         12    1    3    3    0    0 -0.11736335778E+02 -0.31819139505E+02  0.10044754344E+01  0.33929458988E+02  0.00000000000E+00 0. -1.
</event>
<event>
 7    1  0.2682188E-015  0.9000767E+02  0.7816164E-02  0.1186339E+00
        -11   -1    0    0    0    0  0.00000000000E+00  0.00000000000E+00  0.45593999997E+02  0.45594000000E+02  0.51100000000E-03 0.  1.
         11   -1    0    0    0    0 -0.00000000000E+00 -0.00000000000E+00 -0.45593999997E+02  0.45594000000E+02  0.51100000000E-03 0. -1.
    9900012    2    1    2    0    0 -0.60658638129E+00 -0.95142322540E+00 -0.34643860957E+00  0.90007672545E+02  0.89999933022E+02 0.  0.
         12    1    1    2    0    0  0.60658638129E+00  0.95142322540E+00  0.34643860957E+00  0.11803274554E+01  0.00000000000E+00 0. -1.
         11    1    3    3    0    0 -0.24206400155E+01 -0.43420885639E+01 -0.17680738900E+02  0.18366321338E+02  0.51100000000E-03 0. -1.
        -11    1    3    3    0    0  0.34109262777E+02  0.35109287537E+00 -0.14779646695E+01  0.34143073283E+02  0.51100000000E-03 0.  1.
         12    1    3    3    0    0 -0.32295209143E+02  0.30395724632E+01  0.18812264960E+02  0.37498277924E+02  0.00000000000E+00 0. -1.
</event>
<event>
 7    1  0.2682188E-015  0.9000777E+02  0.7816164E-02  0.1186339E+00
        -11   -1    0    0    0    0  0.00000000000E+00  0.00000000000E+00  0.45593999997E+02  0.45594000000E+02  0.51100000000E-03 0. -1.
         11   -1    0    0    0    0 -0.00000000000E+00 -0.00000000000E+00 -0.45593999997E+02  0.45594000000E+02  0.51100000000E-03 0.  1.
    9900012    2    1    2    0    0 -0.61374724536E+00 -0.63429088757E-01 -0.10061040586E+01  0.90007765147E+02  0.90000026847E+02 0.  0.
         12    1    1    2    0    0  0.61374724536E+00  0.63429088757E-01  0.10061040586E+01  0.11802348526E+01  0.00000000000E+00 0. -1.
         11    1    3    3    0    0 -0.16183894501E+02  0.24292492554E+02  0.27637755600E+02  0.40198123968E+02  0.51100000000E-03 0. -1.
        -11    1    3    3    0    0 -0.37890334443E+01 -0.88053259501E+01  0.25690562761E+01  0.99242425373E+01  0.51100000000E-03 0.  1.
        -12    1    3    3    0    0  0.19359180699E+02 -0.15550595692E+02 -0.31212915934E+02  0.39885398642E+02  0.00000000000E+00 0.  1.
</event>
<event>
 7    1  0.2682188E-015  0.9000774E+02  0.7816164E-02  0.1186339E+00
        -11   -1    0    0    0    0  0.00000000000E+00  0.00000000000E+00  0.45593999997E+02  0.45594000000E+02  0.51100000000E-03 0.  1.
         11   -1    0    0    0    0 -0.00000000000E+00 -0.00000000000E+00 -0.45593999997E+02  0.45594000000E+02  0.51100000000E-03 0. -1.
    9900012    2    1    2    0    0 -0.29555306322E+00 -0.26518360017E-01  0.11423437057E+01  0.90007744105E+02  0.90000005527E+02 0.  0.
         12    1    1    2    0    0  0.29555306322E+00  0.26518360017E-01 -0.11423437057E+01  0.11802558954E+01  0.00000000000E+00 0. -1.
         11    1    3    3    0    0 -0.18821541758E+02  0.33216169582E+02 -0.87145512695E+01  0.39160027578E+02  0.51100000000E-03 0. -1.
        -11    1    3    3    0    0  0.77996795316E+00  0.44874387233E+01  0.78850198983E+01  0.91059867868E+01  0.51100000000E-03 0.  1.
        -12    1    3    3    0    0  0.17746020741E+02 -0.37730126665E+02  0.19718750769E+01  0.41741729740E+02  0.00000000000E+00 0.  1.
</event>
<event>
 7    1  0.2682188E-015  0.9000767E+02  0.7816164E-02  0.1186339E+00
        -11   -1    0    0    0    0  0.00000000000E+00  0.00000000000E+00  0.45593999997E+02  0.45594000000E+02  0.51100000000E-03 0.  1.
         11   -1    0    0    0    0 -0.00000000000E+00 -0.00000000000E+00 -0.45593999997E+02  0.45594000000E+02  0.51100000000E-03 0. -1.
    9900012    2    1    2    0    0  0.56027417793E+00 -0.50023138595E+00  0.91052181844E+00  0.90007665905E+02  0.89999926295E+02 0.  0.
         12    1    1    2    0    0 -0.56027417793E+00  0.50023138595E+00 -0.91052181844E+00  0.11803340950E+01  0.00000000000E+00 0. -1.
         11    1    3    3    0    0 -0.36498273789E+01  0.36814921058E+02  0.13090165281E+02  0.39242987650E+02  0.51100000000E-03 0. -1.
        -11    1    3    3    0    0  0.95829073000E+01  0.10123964580E+01  0.14246242590E+01  0.97409760008E+01  0.51100000000E-03 0.  1.
        -12    1    3    3    0    0 -0.53728057431E+01 -0.38327548902E+02 -0.13604267721E+02  0.41023702254E+02  0.00000000000E+00 0.  1.
</event>
<event>
 7    1  0.2682188E-015  0.9000756E+02  0.7816164E-02  0.1186339E+00
        -11   -1    0    0    0    0  0.00000000000E+00  0.00000000000E+00  0.45593999997E+02  0.45594000000E+02  0.51100000000E-03 0. -1.
         11   -1    0    0    0    0 -0.00000000000E+00 -0.00000000000E+00 -0.45593999997E+02  0.45594000000E+02  0.51100000000E-03 0.  1.
    9900012    2    1    2    0    0 -0.90498931506E+00 -0.65528527333E+00 -0.38083534182E+00  0.90007559401E+02  0.89999818385E+02 0.  0.
         12    1    1    2    0    0  0.90498931506E+00  0.65528527333E+00  0.38083534182E+00  0.11804405988E+01  0.00000000000E+00 0. -1.
         11    1    3    3    0    0  0.28069234526E+02 -0.22407363851E+02  0.16055232091E+02  0.39341356857E+02  0.51100000000E-03 0. -1.
        -11    1    3    3    0    0  0.54893757776E+01  0.76714219265E+01  0.11308425309E+01  0.95006718654E+01  0.51100000000E-03 0.  1.
        -12    1    3    3    0    0 -0.34463599618E+02  0.14080656651E+02 -0.17566909964E+02  0.41165530679E+02  0.00000000000E+00 0.  1.
</event>
<event>
 7    1  0.2682188E-015  0.9000755E+02  0.7816164E-02  0.1186339E+00
        -11   -1    0    0    0    0  0.00000000000E+00  0.00000000000E+00  0.45593999997E+02  0.45594000000E+02  0.51100000000E-03 0.  1.
         11   -1    0    0    0    0 -0.00000000000E+00 -0.00000000000E+00 -0.45593999997E+02  0.45594000000E+02  0.51100000000E-03 0. -1.
    9900012    2    1    2    0    0 -0.36707684196E-01 -0.23763766859E+00  0.11556993628E+01  0.90007550877E+02  0.89999809748E+02 0.  0.
         12    1    1    2    0    0  0.36707684196E-01  0.23763766859E+00 -0.11556993628E+01  0.11804491234E+01  0.00000000000E+00 0. -1.
         11    1    3    3    0    0 -0.53652934440E+01  0.50023899636E+01 -0.76769652545E+01  0.10618195462E+02  0.51100000000E-03 0. -1.
        -11    1    3    3    0    0 -0.12958651459E+01 -0.37561125569E+02 -0.13066386915E+02  0.39790047597E+02  0.51100000000E-03 0.  1.
         12    1    3    3    0    0  0.66244509058E+01  0.32321097937E+02  0.21899051533E+02  0.39599307818E+02  0.00000000000E+00 0. -1.
</event>
<event>
 7    1  0.2682188E-015  0.9000772E+02  0.7816164E-02  0.1186339E+00
        -11   -1    0    0    0    0  0.00000000000E+00  0.00000000000E+00  0.45593999997E+02  0.45594000000E+02  0.51100000000E-03 0.  1.
         11   -1    0    0    0    0 -0.00000000000E+00 -0.00000000000E+00 -0.45593999997E+02  0.45594000000E+02  0.51100000000E-03 0. -1.
    9900012    2    1    2    0    0 -0.11250462645E+01  0.25129530823E+00  0.25333134575E+00  0.90007722406E+02  0.89999983541E+02 0.  0.
         12    1    1    2    0    0  0.11250462645E+01 -0.25129530823E+00 -0.25333134575E+00  0.11802775944E+01  0.00000000000E+00 0. -1.
         11    1    3    3    0    0  0.37010412126E+02  0.38751694536E+01 -0.91138900783E+01  0.38312537590E+02  0.51100000000E-03 0. -1.
        -11    1    3    3    0    0  0.39056991447E+01 -0.69014358253E+01  0.48250618790E+01  0.92825386968E+01  0.51100000000E-03 0.  1.
        -12    1    3    3    0    0 -0.42041157535E+02  0.32775616800E+01  0.45421595451E+01  0.42412646118E+02  0.00000000000E+00 0.  1.
</event>
<event>
 7    1  0.2682188E-015  0.9000778E+02  0.7816164E-02  0.1186339E+00
        -11   -1    0    0    0    0  0.00000000000E+00  0.00000000000E+00  0.45593999997E+02  0.45594000000E+02  0.51100000000E-03 0. -1.
         11   -1    0    0    0    0 -0.00000000000E+00 -0.00000000000E+00 -0.45593999997E+02  0.45594000000E+02  0.51100000000E-03 0.  1.
    9900012    2    1    2    0    0 -0.81293816099E-01 -0.10467941132E+01 -0.53900365622E+00  0.90007783265E+02  0.90000045204E+02 0.  0.
         12    1    1    2    0    0  0.81293816099E-01  0.10467941132E+01  0.53900365622E+00  0.11802167349E+01  0.00000000000E+00 0. -1.
         11    1    3    3    0    0  0.68926245438E+01  0.15689800777E+01  0.52421680693E+01  0.88005850893E+01  0.51100000000E-03 0. -1.
        -11    1    3    3    0    0 -0.17749026536E+02 -0.35244893694E+02 -0.19733074450E+02  0.44120570055E+02  0.51100000000E-03 0.  1.
         12    1    3    3    0    0  0.10775108177E+02  0.32629119503E+02  0.13951902724E+02  0.37086628121E+02  0.00000000000E+00 0. -1.
</event>
<event>
 7    1  0.2682188E-015  0.9000771E+02  0.7816164E-02  0.1186339E+00
        -11   -1    0    0    0    0  0.00000000000E+00  0.00000000000E+00  0.45593999997E+02  0.45594000000E+02  0.51100000000E-03 0.  1.
         11   -1    0    0    0    0 -0.00000000000E+00 -0.00000000000E+00 -0.45593999997E+02  0.45594000000E+02  0.51100000000E-03 0. -1.
    9900012    2    1    2    0    0  0.57469139363E+00 -0.10020542997E+01 -0.24228231368E+00  0.90007710316E+02  0.89999971293E+02 0.  0.
         12    1    1    2    0    0 -0.57469139363E+00  0.10020542997E+01  0.24228231368E+00  0.11802896835E+01  0.00000000000E+00 0. -1.
         11    1    3    3    0    0 -0.64805624276E+01 -0.42126944982E+01  0.18447373473E+01  0.79465426731E+01  0.51100000000E-03 0. -1.
        -11    1    3    3    0    0  0.26649841403E+02  0.17508883091E+01  0.32631910006E+02  0.42167774515E+02  0.51100000000E-03 0.  1.
         12    1    3    3    0    0 -0.19594587582E+02  0.14597518894E+01 -0.34718929667E+02  0.39893393128E+02  0.00000000000E+00 0. -1.
</event>
<event>
 7    1  0.2682188E-015  0.9000772E+02  0.7816164E-02  0.1186339E+00
        -11   -1    0    0    0    0  0.00000000000E+00  0.00000000000E+00  0.45593999997E+02  0.45594000000E+02  0.51100000000E-03 0. -1.
         11   -1    0    0    0    0 -0.00000000000E+00 -0.00000000000E+00 -0.45593999997E+02  0.45594000000E+02  0.51100000000E-03 0.  1.
    9900012    2    1    2    0    0  0.98961565147E+00  0.50813664445E+00  0.39434526105E+00  0.90007724536E+02  0.89999985699E+02 0.  0.
         12    1    1    2    0    0 -0.98961565147E+00 -0.50813664445E+00 -0.39434526105E+00  0.11802754644E+01  0.00000000000E+00 0. -1.
         11    1    3    3    0    0 -0.27411100861E+01  0.10059019058E+02  0.34922672725E+02  0.36445721552E+02  0.51100000000E-03 0. -1.
        -11    1    3    3    0    0 -0.25655421761E+01 -0.33512530195E+01  0.85776126410E+01  0.95597250138E+01  0.51100000000E-03 0.  1.
        -12    1    3    3    0    0  0.62962679137E+01 -0.61996293941E+01 -0.43105940105E+02  0.44002277970E+02  0.00000000000E+00 0.  1.
</event>
<event>
 7    1  0.2682188E-015  0.9000778E+02  0.7816164E-02  0.1186339E+00
        -11   -1    0    0    0    0  0.00000000000E+00  0.00000000000E+00  0.45593999997E+02  0.45594000000E+02  0.51100000000E-03 0.  1.
         11   -1    0    0    0    0 -0.00000000000E+00 -0.00000000000E+00 -0.45593999997E+02  0.45594000000E+02  0.51100000000E-03 0. -1.
    9900012    2    1    2    0    0 -0.53048869980E+00  0.69356032528E+00  0.79402582472E+00  0.90007779175E+02  0.90000041060E+02 0.  0.
         12    1    1    2    0    0  0.53048869980E+00 -0.69356032528E+00 -0.79402582472E+00  0.11802208250E+01  0.00000000000E+00 0. -1.
         11    1    3    3    0    0 -0.16804846615E+02  0.16689311190E+02 -0.33686216191E+02  0.41178843345E+02  0.51100000000E-03 0. -1.
        -11    1    3    3    0    0  0.17306895758E+02 -0.26648262516E+00  0.10866265988E+02  0.20437108175E+02  0.51100000000E-03 0.  1.
        -12    1    3    3    0    0 -0.10325378431E+01 -0.15729268239E+02  0.23613976028E+02  0.28391827655E+02  0.00000000000E+00 0.  1.
</event>
<event>
 7    1  0.2682188E-015  0.9000786E+02  0.7816164E-02  0.1186339E+00
        -11   -1    0    0    0    0  0.00000000000E+00  0.00000000000E+00  0.45593999997E+02  0.45594000000E+02  0.51100000000E-03 0.  1.
         11   -1    0    0    0    0 -0.00000000000E+00 -0.00000000000E+00 -0.45593999997E+02  0.45594000000E+02  0.51100000000E-03 0. -1.
    9900012    2    1    2    0    0 -0.18506133909E+00 -0.92482414763E+00  0.70934894295E+00  0.90007863005E+02  0.90000125997E+02 0.  0.
         12    1    1    2    0    0  0.18506133909E+00  0.92482414763E+00 -0.70934894295E+00  0.11801369946E+01  0.00000000000E+00 0. -1.
         11    1    3    3    0    0  0.79137446448E+00  0.14893892232E+02 -0.32574753343E+02  0.35826929187E+02  0.51100000000E-03 0. -1.
        -11    1    3    3    0    0 -0.15545492918E+01  0.80407909341E+01 -0.46094556136E+01  0.93977669508E+01  0.51100000000E-03 0.  1.
        -12    1    3    3    0    0  0.57811348828E+00 -0.23859507313E+02  0.37893557899E+02  0.44783166868E+02  0.00000000000E+00 0.  1.
</event>
<event>
 7    1  0.2682188E-015  0.9000747E+02  0.7816164E-02  0.1186340E+00
        -11   -1    0    0    0    0  0.00000000000E+00  0.00000000000E+00  0.45593999997E+02  0.45594000000E+02  0.51100000000E-03 0.  1.
         11   -1    0    0    0    0 -0.00000000000E+00 -0.00000000000E+00 -0.45593999997E+02  0.45594000000E+02  0.51100000000E-03 0. -1.
    9900012    2    1    2    0    0  0.45340361119E+00  0.10603596008E+01 -0.25239716798E+00  0.90007473995E+02  0.89999731852E+02 0.  0.
         12    1    1    2    0    0 -0.45340361119E+00 -0.10603596008E+01  0.25239716798E+00  0.11805260048E+01  0.00000000000E+00 0. -1.
         11    1    3    3    0    0 -0.37656909435E+01  0.57129801899E+01  0.77141056072E+01  0.10311449777E+02  0.51100000000E-03 0. -1.
        -11    1    3    3    0    0  0.29251820208E+02 -0.19768280134E+02  0.18847440647E+02  0.40020993292E+02  0.51100000000E-03 0.  1.
         12    1    3    3    0    0 -0.25032725653E+02  0.15115659545E+02 -0.26813943422E+02  0.39675030925E+02  0.00000000000E+00 0. -1.
</event>
<event>
 7    1  0.2682188E-015  0.9000774E+02  0.7816164E-02  0.1186339E+00
        -11   -1    0    0    0    0  0.00000000000E+00  0.00000000000E+00  0.45593999997E+02  0.45594000000E+02  0.51100000000E-03 0.  1.
         11   -1    0    0    0    0 -0.00000000000E+00 -0.00000000000E+00 -0.45593999997E+02  0.45594000000E+02  0.51100000000E-03 0. -1.
    9900012    2    1    2    0    0  0.66311046320E+00 -0.64343501362E+00 -0.73435973296E+00  0.90007742265E+02  0.90000003663E+02 0.  0.
         12    1    1    2    0    0 -0.66311046320E+00  0.64343501362E+00  0.73435973296E+00  0.11802577348E+01  0.00000000000E+00 0. -1.
         11    1    3    3    0    0  0.30480018399E+02 -0.14385531523E+02 -0.14063041233E+02  0.36520462316E+02  0.51100000000E-03 0. -1.
        -11    1    3    3    0    0  0.55074033867E+01 -0.79133984765E+01  0.61510411381E+01  0.11436287634E+02  0.51100000000E-03 0.  1.
        -12    1    3    3    0    0 -0.35324311322E+02  0.21655494986E+02  0.71776403619E+01  0.42050992315E+02  0.00000000000E+00 0.  1.
</event>
<event>
 7    1  0.2682188E-015  0.9000772E+02  0.7816164E-02  0.1186339E+00
        -11   -1    0    0    0    0  0.00000000000E+00  0.00000000000E+00  0.45593999997E+02  0.45594000000E+02  0.51100000000E-03 0. -1.
         11   -1    0    0    0    0 -0.00000000000E+00 -0.00000000000E+00 -0.45593999997E+02  0.45594000000E+02  0.51100000000E-03 0.  1.
    9900012    2    1    2    0    0  0.10358496285E+01 -0.51627583034E+00 -0.23135279123E+00  0.90007724905E+02  0.89999986074E+02 0.  0.
         12    1    1    2    0    0 -0.10358496285E+01  0.51627583034E+00  0.23135279123E+00  0.11802750950E+01  0.00000000000E+00 0. -1.
         11    1    3    3    0    0  0.23891440790E+02  0.31004841607E+02  0.28823628935E+01  0.39248046604E+02  0.51100000000E-03 0. -1.
        -11    1    3    3    0    0 -0.58914820691E+01  0.61156527662E+01  0.30415381021E+01  0.90200733930E+01  0.51100000000E-03 0.  1.
        -12    1    3    3    0    0 -0.16964109093E+02 -0.37636770204E+02 -0.61552537868E+01  0.41739604908E+02  0.00000000000E+00 0.  1.
</event>
<event>
 7    1  0.3068641E-015  0.9000772E+02  0.7816164E-02  0.1186339E+00
        -11   -1    0    0    0    0  0.00000000000E+00  0.00000000000E+00  0.45593999997E+02  0.45594000000E+02  0.51100000000E-03 0. -1.
         11   -1    0    0    0    0 -0.00000000000E+00 -0.00000000000E+00 -0.45593999997E+02  0.45594000000E+02  0.51100000000E-03 0.  1.
    9900012    2    1    2    0    0 -0.82029745639E+00  0.54288163067E+00 -0.65227521448E+00  0.90007715569E+02  0.89999976615E+02 0.  0.
         12    1    1    2    0    0  0.82029745639E+00 -0.54288163067E+00  0.65227521448E+00  0.11802844307E+01  0.00000000000E+00 0. -1.
         11    1    3    3    0    0  0.63217703201E+01  0.35073297484E+01  0.54747859583E+01  0.90685954533E+01  0.51100000000E-03 0. -1.
        -11    1    3    3    0    0  0.36480828080E+02 -0.37802605165E+01 -0.68110353486E+01  0.37303235647E+02  0.51100000000E-03 0.  1.
         12    1    3    3    0    0 -0.43622895856E+02  0.81581239877E+00  0.68397417582E+00  0.43635884469E+02  0.00000000000E+00 0. -1.
</event>
<event>
 7    1  0.2682188E-015  0.9000757E+02  0.7816164E-02  0.1186339E+00
        -11   -1    0    0    0    0  0.00000000000E+00  0.00000000000E+00  0.45593999997E+02  0.45594000000E+02  0.51100000000E-03 0. -1.
         11   -1    0    0    0    0 -0.00000000000E+00 -0.00000000000E+00 -0.45593999997E+02  0.45594000000E+02  0.51100000000E-03 0.  1.
    9900012    2    1    2    0    0  0.61756588634E+00 -0.33617977256E+00 -0.94816590754E+00  0.90007566583E+02  0.89999825662E+02 0.  0.
         12    1    1    2    0    0 -0.61756588634E+00  0.33617977256E+00  0.94816590754E+00  0.11804334169E+01  0.00000000000E+00 0. -1.
         11    1    3    3    0    0 -0.71645541904E+01  0.43374152625E+01 -0.36081176071E+01  0.91193487067E+01  0.51100000000E-03 0. -1.
        -11    1    3    3    0    0  0.39091226562E+02 -0.19807696756E+02 -0.79334681553E+01  0.44535477567E+02  0.51100000000E-03 0.  1.
         12    1    3    3    0    0 -0.31309106485E+02  0.15134101721E+02  0.10593419855E+02  0.36352740310E+02  0.00000000000E+00 0. -1.
</event>
<event>
 7    1  0.2682188E-015  0.9000777E+02  0.7816164E-02  0.1186339E+00
        -11   -1    0    0    0    0  0.00000000000E+00  0.00000000000E+00  0.45593999997E+02  0.45594000000E+02  0.51100000000E-03 0.  1.
         11   -1    0    0    0    0 -0.00000000000E+00 -0.00000000000E+00 -0.45593999997E+02  0.45594000000E+02  0.51100000000E-03 0. -1.
    9900012    2    1    2    0    0  0.21541458952E+00 -0.96346360868E+00  0.64674519578E+00  0.90007769125E+02  0.90000030877E+02 0.  0.
         12    1    1    2    0    0 -0.21541458952E+00  0.96346360868E+00 -0.64674519578E+00  0.11802308752E+01  0.00000000000E+00 0. -1.
         11    1    3    3    0    0  0.70750910163E+01 -0.35943793398E+02 -0.10026487247E+02  0.37980832581E+02  0.51100000000E-03 0. -1.
        -11    1    3    3    0    0  0.53869302574E+01 -0.29030799328E+01 -0.62670039846E+01  0.87591226672E+01  0.51100000000E-03 0.  1.
        -12    1    3    3    0    0 -0.12246606684E+02  0.37883409722E+02  0.16940236427E+02  0.43267813877E+02  0.00000000000E+00 0.  1.
</event>
<event>
 7    1  0.2682188E-015  0.9000906E+02  0.7816164E-02  0.1186336E+00
        -11   -1    0    0    0    0  0.00000000000E+00  0.00000000000E+00  0.45593999997E+02  0.45594000000E+02  0.51100000000E-03 0. -1.
         11   -1    0    0    0    0 -0.00000000000E+00 -0.00000000000E+00 -0.45593999997E+02  0.45594000000E+02  0.51100000000E-03 0.  1.
    9900012    2    1    2    0    0  0.28675880786E+00 -0.90259463626E+00 -0.70212571557E+00  0.90009064797E+02  0.90001343643E+02 0.  0.
         12    1    1    2    0    0 -0.28675880786E+00  0.90259463626E+00  0.70212571557E+00  0.11789352025E+01  0.00000000000E+00 0. -1.
         11    1    3    3    0    0 -0.40107926103E+01  0.17747878814E+00 -0.82989577579E+01  0.92190377053E+01  0.51100000000E-03 0. -1.
        -11    1    3    3    0    0  0.12455449320E+02 -0.35027396243E+02 -0.14013314844E+02  0.39729456307E+02  0.51100000000E-03 0.  1.
         12    1    3    3    0    0 -0.81578979019E+01  0.33947322818E+02  0.21610146887E+02  0.41060570785E+02  0.00000000000E+00 0. -1.
</event>
<event>
 7    1  0.2682188E-015  0.9000773E+02  0.7816164E-02  0.1186339E+00
        -11   -1    0    0    0    0  0.00000000000E+00  0.00000000000E+00  0.45593999997E+02  0.45594000000E+02  0.51100000000E-03 0.  1.
         11   -1    0    0    0    0 -0.00000000000E+00 -0.00000000000E+00 -0.45593999997E+02  0.45594000000E+02  0.51100000000E-03 0. -1.
    9900012    2    1    2    0    0 -0.30804802094E+00 -0.11328609591E+01  0.12153790254E+00  0.90007729269E+02  0.89999990496E+02 0.  0.
         12    1    1    2    0    0  0.30804802094E+00  0.11328609591E+01 -0.12153790254E+00  0.11802707307E+01  0.00000000000E+00 0. -1.
         11    1    3    3    0    0 -0.17262425834E+02  0.12171949012E+02  0.10768016978E+02  0.23708603467E+02  0.51100000000E-03 0. -1.
        -11    1    3    3    0    0 -0.17562922721E+01  0.72174540733E+00  0.24232373120E+02  0.24306653128E+02  0.51100000000E-03 0.  1.
         12    1    3    3    0    0  0.18710670085E+02 -0.14026555379E+02 -0.34878852196E+02  0.41992472675E+02  0.00000000000E+00 0. -1.
</event>
<event>
 7    1  0.2682188E-015  0.9000776E+02  0.7816164E-02  0.1186339E+00
        -11   -1    0    0    0    0  0.00000000000E+00  0.00000000000E+00  0.45593999997E+02  0.45594000000E+02  0.51100000000E-03 0.  1.
         11   -1    0    0    0    0 -0.00000000000E+00 -0.00000000000E+00 -0.45593999997E+02  0.45594000000E+02  0.51100000000E-03 0. -1.
    9900012    2    1    2    0    0  0.59056597619E+00  0.10143882005E+00  0.10168081188E+01  0.90007764110E+02  0.90000025796E+02 0.  0.
         12    1    1    2    0    0 -0.59056597619E+00 -0.10143882005E+00 -0.10168081188E+01  0.11802358904E+01  0.00000000000E+00 0. -1.
         11    1    3    3    0    0 -0.30114337314E+01  0.12891159433E+02 -0.34317948971E+02  0.36782772414E+02  0.51100000000E-03 0. -1.
        -11    1    3    3    0    0  0.34836038089E+01  0.50739327991E+01 -0.57511097831E+01  0.84235119484E+01  0.51100000000E-03 0.  1.
        -12    1    3    3    0    0  0.11839589875E+00 -0.17863653412E+02  0.41085866873E+02  0.44801479747E+02  0.00000000000E+00 0.  1.
</event>
<event>
 7    1  0.2682188E-015  0.9000779E+02  0.7816164E-02  0.1186339E+00
        -11   -1    0    0    0    0  0.00000000000E+00  0.00000000000E+00  0.45593999997E+02  0.45594000000E+02  0.51100000000E-03 0. -1.
         11   -1    0    0    0    0 -0.00000000000E+00 -0.00000000000E+00 -0.45593999997E+02  0.45594000000E+02  0.51100000000E-03 0.  1.
    9900012    2    1    2    0    0 -0.37809722901E+00  0.95812389849E+00 -0.57613451716E+00  0.90007792433E+02  0.90000054493E+02 0.  0.
         12    1    1    2    0    0  0.37809722901E+00 -0.95812389849E+00  0.57613451716E+00  0.11802075670E+01  0.00000000000E+00 0. -1.
         11    1    3    3    0    0  0.40748784357E+01  0.34851729243E+01 -0.40764547205E+01  0.67356178579E+01  0.51100000000E-03 0. -1.
        -11    1    3    3    0    0  0.24755103895E+02  0.30386522460E+02  0.16120240946E+01  0.39226961876E+02  0.51100000000E-03 0.  1.
         12    1    3    3    0    0 -0.29208079559E+02 -0.32913571486E+02  0.18882961088E+01  0.44045212699E+02  0.00000000000E+00 0. -1.
</event>
<event>
 7    1  0.2682188E-015  0.9000777E+02  0.7816164E-02  0.1186339E+00
        -11   -1    0    0    0    0  0.00000000000E+00  0.00000000000E+00  0.45593999997E+02  0.45594000000E+02  0.51100000000E-03 0. -1.
         11   -1    0    0    0    0 -0.00000000000E+00 -0.00000000000E+00 -0.45593999997E+02  0.45594000000E+02  0.51100000000E-03 0.  1.
    9900012    2    1    2    0    0  0.84459677083E+00 -0.68959582825E-01 -0.82149319322E+00  0.90007766889E+02  0.90000028612E+02 0.  0.
         12    1    1    2    0    0 -0.84459677083E+00  0.68959582825E-01  0.82149319322E+00  0.11802331108E+01  0.00000000000E+00 0. -1.
         11    1    3    3    0    0 -0.22163053330E+02 -0.19946543568E+02  0.27169461300E+02  0.40339126922E+02  0.51100000000E-03 0. -1.
        -11    1    3    3    0    0  0.95481658503E+01 -0.29319051295E+01  0.14220644865E+01  0.10088895205E+02  0.51100000000E-03 0.  1.
        -12    1    3    3    0    0  0.13459484250E+02  0.22809489114E+02 -0.29413018980E+02  0.39579744762E+02  0.00000000000E+00 0.  1.
</event>
<event>
 7    1  0.2682188E-015  0.9000776E+02  0.7816164E-02  0.1186339E+00
        -11   -1    0    0    0    0  0.00000000000E+00  0.00000000000E+00  0.45593999997E+02  0.45594000000E+02  0.51100000000E-03 0.  1.
         11   -1    0    0    0    0 -0.00000000000E+00 -0.00000000000E+00 -0.45593999997E+02  0.45594000000E+02  0.51100000000E-03 0. -1.
    9900012    2    1    2    0    0 -0.63029909334E+00 -0.71199655589E+00  0.69911388710E+00  0.90007755843E+02  0.90000017420E+02 0.  0.
         12    1    1    2    0    0  0.63029909334E+00  0.71199655589E+00 -0.69911388710E+00  0.11802441569E+01  0.00000000000E+00 0. -1.
         11    1    3    3    0    0  0.14460868796E+02  0.23496997696E+02  0.20792836346E+02  0.34548048724E+02  0.51100000000E-03 0. -1.
        -11    1    3    3    0    0 -0.27031401063E+01  0.10065498153E+02  0.46465576672E+01  0.11411034918E+02  0.51100000000E-03 0.  1.
        -12    1    3    3    0    0 -0.12388027783E+02 -0.34274492404E+02 -0.24740280126E+02  0.44048672201E+02  0.00000000000E+00 0.  1.
</event>
<event>
 7    1  0.2682188E-015  0.9000759E+02  0.7816164E-02  0.1186339E+00
        -11   -1    0    0    0    0  0.00000000000E+00  0.00000000000E+00  0.45593999997E+02  0.45594000000E+02  0.51100000000E-03 0. -1.
         11   -1    0    0    0    0 -0.00000000000E+00 -0.00000000000E+00 -0.45593999997E+02  0.45594000000E+02  0.51100000000E-03 0.  1.
    9900012    2    1    2    0    0 -0.48075660252E+00 -0.23586028755E+00 -0.10519531604E+01  0.90007592258E+02  0.89999851676E+02 0.  0.
         12    1    1    2    0    0  0.48075660252E+00  0.23586028755E+00  0.10519531604E+01  0.11804077421E+01  0.00000000000E+00 0. -1.
         11    1    3    3    0    0 -0.10587385013E+02  0.92777613834E+01 -0.32786158058E+02  0.35680551259E+02  0.51100000000E-03 0. -1.
        -11    1    3    3    0    0  0.39827788317E+01  0.13099358906E+02 -0.13829498858E+01  0.13761114839E+02  0.51100000000E-03 0.  1.
        -12    1    3    3    0    0  0.61238495791E+01 -0.22612980577E+02  0.33117154783E+02  0.40565926159E+02  0.00000000000E+00 0.  1.
</event>
<event>
 7    1  0.2682188E-015  0.9000769E+02  0.7816164E-02  0.1186339E+00
        -11   -1    0    0    0    0  0.00000000000E+00  0.00000000000E+00  0.45593999997E+02  0.45594000000E+02  0.51100000000E-03 0.  1.
         11   -1    0    0    0    0 -0.00000000000E+00 -0.00000000000E+00 -0.45593999997E+02  0.45594000000E+02  0.51100000000E-03 0. -1.
    9900012    2    1    2    0    0 -0.91279507159E+00 -0.62942200033E+00  0.40468930857E+00  0.90007686341E+02  0.89999947001E+02 0.  0.
         12    1    1    2    0    0  0.91279507159E+00  0.62942200033E+00 -0.40468930857E+00  0.11803136590E+01  0.00000000000E+00 0. -1.
         11    1    3    3    0    0 -0.35579492938E+02  0.14323219773E+01 -0.89804046144E+01  0.36723283231E+02  0.51100000000E-03 0. -1.
        -11    1    3    3    0    0 -0.72773577738E+01 -0.54640716990E+01  0.63429876734E+01  0.11092768301E+02  0.51100000000E-03 0.  1.
        -12    1    3    3    0    0  0.41944055640E+02  0.34023277214E+01  0.30421062496E+01  0.42191634809E+02  0.00000000000E+00 0.  1.
</event>
<event>
 7    1  0.2682188E-015  0.9000767E+02  0.7816164E-02  0.1186339E+00
        -11   -1    0    0    0    0  0.00000000000E+00  0.00000000000E+00  0.45593999997E+02  0.45594000000E+02  0.51100000000E-03 0.  1.
         11   -1    0    0    0    0 -0.00000000000E+00 -0.00000000000E+00 -0.45593999997E+02  0.45594000000E+02  0.51100000000E-03 0. -1.
    9900012    2    1    2    0    0 -0.12106401431E-01  0.70397480552E+00  0.94734102007E+00  0.90007668648E+02  0.89999929074E+02 0.  0.
         12    1    1    2    0    0  0.12106401431E-01 -0.70397480552E+00 -0.94734102007E+00  0.11803313518E+01  0.00000000000E+00 0. -1.
         11    1    3    3    0    0  0.76735694392E+00 -0.45736041786E+01 -0.93089221198E+01  0.10400130920E+02  0.51100000000E-03 0. -1.
        -11    1    3    3    0    0  0.34384709783E+02 -0.12167406359E+02  0.16193966453E+02  0.39907375184E+02  0.51100000000E-03 0.  1.
         12    1    3    3    0    0 -0.35164173128E+02  0.17444985343E+02 -0.59377033134E+01  0.39700162544E+02  0.00000000000E+00 0. -1.
</event>
<event>
 7    1  0.2682188E-015  0.9000778E+02  0.7816164E-02  0.1186339E+00
        -11   -1    0    0    0    0  0.00000000000E+00  0.00000000000E+00  0.45593999997E+02  0.45594000000E+02  0.51100000000E-03 0.  1.
         11   -1    0    0    0    0 -0.00000000000E+00 -0.00000000000E+00 -0.45593999997E+02  0.45594000000E+02  0.51100000000E-03 0. -1.
    9900012    2    1    2    0    0 -0.86951969928E+00  0.47770813004E+00 -0.63925710106E+00  0.90007780018E+02  0.90000041914E+02 0.  0.
         12    1    1    2    0    0  0.86951969928E+00 -0.47770813004E+00  0.63925710106E+00  0.11802199821E+01  0.00000000000E+00 0. -1.
         11    1    3    3    0    0 -0.26483723275E+02 -0.18972446724E+02  0.15618226432E+02  0.36128525161E+02  0.51100000000E-03 0. -1.
        -11    1    3    3    0    0 -0.67326183452E+01 -0.58155120225E+01  0.17348990326E+01  0.90641163265E+01  0.51100000000E-03 0.  1.
        -12    1    3    3    0    0  0.32346821920E+02  0.25265666877E+02 -0.17992382565E+02  0.44815138530E+02  0.00000000000E+00 0.  1.
</event>
<event>
 7    1  0.2682188E-015  0.9000773E+02  0.7816164E-02  0.1186339E+00
        -11   -1    0    0    0    0  0.00000000000E+00  0.00000000000E+00  0.45593999997E+02  0.45594000000E+02  0.51100000000E-03 0.  1.
         11   -1    0    0    0    0 -0.00000000000E+00 -0.00000000000E+00 -0.45593999997E+02  0.45594000000E+02  0.51100000000E-03 0. -1.
    9900012    2    1    2    0    0 -0.26740588099E+00 -0.53627224110E+00  0.10168262843E+01  0.90007733287E+02  0.89999994566E+02 0.  0.
         12    1    1    2    0    0  0.26740588099E+00  0.53627224110E+00 -0.10168262843E+01  0.11802667132E+01  0.00000000000E+00 0. -1.
         11    1    3    3    0    0 -0.11900958514E+01 -0.25176955979E+01  0.85838523379E+01  0.90242806073E+01  0.51100000000E-03 0. -1.
        -11    1    3    3    0    0  0.13816150392E+02 -0.18217849223E+02  0.29206079825E+02  0.37091389041E+02  0.51100000000E-03 0.  1.
         12    1    3    3    0    0 -0.12893460422E+02  0.20199272580E+02 -0.36773105879E+02  0.43892063638E+02  0.00000000000E+00 0. -1.
</event>
<event>
 7    1  0.2682188E-015  0.9000779E+02  0.7816164E-02  0.1186339E+00
        -11   -1    0    0    0    0  0.00000000000E+00  0.00000000000E+00  0.45593999997E+02  0.45594000000E+02  0.51100000000E-03 0. -1.
         11   -1    0    0    0    0 -0.00000000000E+00 -0.00000000000E+00 -0.45593999997E+02  0.45594000000E+02  0.51100000000E-03 0.  1.
    9900012    2    1    2    0    0 -0.39692321414E+00 -0.43217786852E+00 -0.10240024444E+01  0.90007785293E+02  0.90000047259E+02 0.  0.
         12    1    1    2    0    0  0.39692321414E+00  0.43217786852E+00  0.10240024444E+01  0.11802147068E+01  0.00000000000E+00 0. -1.
         11    1    3    3    0    0  0.10700502401E+02  0.36202996271E+02  0.55877301703E+01  0.38162552579E+02  0.51100000000E-03 0. -1.
        -11    1    3    3    0    0  0.59587965894E+01 -0.11324568509E+01  0.78206060542E+01  0.98970497942E+01  0.51100000000E-03 0.  1.
        -12    1    3    3    0    0 -0.17056222205E+02 -0.35502717289E+02 -0.14432338669E+02  0.41948182920E+02  0.00000000000E+00 0.  1.
</event>
<event>
 7    1  0.2682188E-015  0.9000811E+02  0.7816164E-02  0.1186338E+00
        -11   -1    0    0    0    0  0.00000000000E+00  0.00000000000E+00  0.45593999997E+02  0.45594000000E+02  0.51100000000E-03 0.  1.
         11   -1    0    0    0    0 -0.00000000000E+00 -0.00000000000E+00 -0.45593999997E+02  0.45594000000E+02  0.51100000000E-03 0. -1.
    9900012    2    1    2    0    0  0.95906243046E+00 -0.49876176849E-01  0.68546551197E+00  0.90008105366E+02  0.90000371556E+02 0.  0.
         12    1    1    2    0    0 -0.95906243046E+00  0.49876176849E-01 -0.68546551197E+00  0.11798946337E+01  0.00000000000E+00 0. -1.
         11    1    3    3    0    0  0.17341081129E+02  0.12642561870E+02 -0.11680239998E+02  0.24433081509E+02  0.51100000000E-03 0. -1.
        -11    1    3    3    0    0 -0.17529909251E+00  0.15207352511E+02  0.26338535260E+02  0.30414022096E+02  0.51100000000E-03 0.  1.
         12    1    3    3    0    0 -0.16206719606E+02 -0.27899790559E+02 -0.13972829750E+02  0.35161001761E+02  0.00000000000E+00 0. -1.
</event>
<event>
 7    1  0.2682188E-015  0.9000789E+02  0.7816164E-02  0.1186339E+00
        -11   -1    0    0    0    0  0.00000000000E+00  0.00000000000E+00  0.45593999997E+02  0.45594000000E+02  0.51100000000E-03 0.  1.
         11   -1    0    0    0    0 -0.00000000000E+00 -0.00000000000E+00 -0.45593999997E+02  0.45594000000E+02  0.51100000000E-03 0. -1.
    9900012    2    1    2    0    0  0.63213818209E+00  0.79203216593E+00 -0.60476446970E+00  0.90007892506E+02  0.90000155887E+02 0.  0.
         12    1    1    2    0    0 -0.63213818209E+00 -0.79203216593E+00  0.60476446970E+00  0.11801074938E+01  0.00000000000E+00 0. -1.
         11    1    3    3    0    0 -0.25616249627E+02  0.17788374521E+02  0.18591643015E+02  0.36307956474E+02  0.51100000000E-03 0. -1.
        -11    1    3    3    0    0 -0.13748882655E+01  0.10734315699E+02 -0.22799650696E+01  0.11059570166E+02  0.51100000000E-03 0.  1.
        -12    1    3    3    0    0  0.27623276075E+02 -0.27730658054E+02 -0.16916442416E+02  0.42640365866E+02  0.00000000000E+00 0.  1.
</event>
<event>
 7    1  0.2682188E-015  0.9000772E+02  0.7816164E-02  0.1186339E+00
        -11   -1    0    0    0    0  0.00000000000E+00  0.00000000000E+00  0.45593999997E+02  0.45594000000E+02  0.51100000000E-03 0. -1.
         11   -1    0    0    0    0 -0.00000000000E+00 -0.00000000000E+00 -0.45593999997E+02  0.45594000000E+02  0.51100000000E-03 0.  1.
    9900012    2    1    2    0    0  0.49307153684E+00 -0.10705297002E+01  0.62531143747E-01  0.90007718879E+02  0.89999979969E+02 0.  0.
         12    1    1    2    0    0 -0.49307153684E+00  0.10705297002E+01 -0.62531143747E-01  0.11802811205E+01  0.00000000000E+00 0. -1.
         11    1    3    3    0    0 -0.32514168565E+02 -0.24263365334E+02  0.13091898739E+02  0.42629565652E+02  0.51100000000E-03 0. -1.
        -11    1    3    3    0    0 -0.77065326399E+00  0.66880401928E+01 -0.62320399004E+01  0.91739909339E+01  0.51100000000E-03 0.  1.
        -12    1    3    3    0    0  0.33777893366E+02  0.16504795441E+02 -0.67973276949E+01  0.38204162294E+02  0.00000000000E+00 0.  1.
</event>
<event>
 7    1  0.2682188E-015  0.9000786E+02  0.7816164E-02  0.1186339E+00
        -11   -1    0    0    0    0  0.00000000000E+00  0.00000000000E+00  0.45593999997E+02  0.45594000000E+02  0.51100000000E-03 0. -1.
         11   -1    0    0    0    0 -0.00000000000E+00 -0.00000000000E+00 -0.45593999997E+02  0.45594000000E+02  0.51100000000E-03 0.  1.
    9900012    2    1    2    0    0  0.75075609069E+00  0.49343735308E+00 -0.76525918404E+00  0.90007857319E+02  0.90000120235E+02 0.  0.
         12    1    1    2    0    0 -0.75075609069E+00 -0.49343735308E+00  0.76525918404E+00  0.11801426812E+01  0.00000000000E+00 0. -1.
         11    1    3    3    0    0  0.33015231896E+00  0.80595306792E+00 -0.73430595948E+01  0.73945307745E+01  0.51100000000E-03 0. -1.
        -11    1    3    3    0    0 -0.12535901055E+01  0.29392457323E+02 -0.25449244910E+02  0.38899255808E+02  0.51100000000E-03 0.  1.
         12    1    3    3    0    0  0.16741938773E+01 -0.29704973038E+02  0.32027045321E+02  0.43714070736E+02  0.00000000000E+00 0. -1.
</event>
<event>
 7    1  0.2682188E-015  0.9000774E+02  0.7816164E-02  0.1186339E+00
        -11   -1    0    0    0    0  0.00000000000E+00  0.00000000000E+00  0.45593999997E+02  0.45594000000E+02  0.51100000000E-03 0. -1.
         11   -1    0    0    0    0 -0.00000000000E+00 -0.00000000000E+00 -0.45593999997E+02  0.45594000000E+02  0.51100000000E-03 0.  1.
    9900012    2    1    2    0    0  0.51869900459E+00  0.78535573255E+00 -0.71217204197E+00  0.90007736766E+02  0.89999998091E+02 0.  0.
         12    1    1    2    0    0 -0.51869900459E+00 -0.78535573255E+00  0.71217204197E+00  0.11802632339E+01  0.00000000000E+00 0. -1.
         11    1    3    3    0    0  0.14710658371E+02  0.16620068623E+01  0.42151803106E+01  0.15392643757E+02  0.51100000000E-03 0. -1.
        -11    1    3    3    0    0  0.62292246200E+01  0.12672441376E+02 -0.33866906989E+02  0.36692797645E+02  0.51100000000E-03 0.  1.
         12    1    3    3    0    0 -0.20421183986E+02 -0.13549092505E+02  0.28939554636E+02  0.37922295364E+02  0.00000000000E+00 0. -1.
</event>
<event>
 7    1  0.2682188E-015  0.9000806E+02  0.7816164E-02  0.1186338E+00
        -11   -1    0    0    0    0  0.00000000000E+00  0.00000000000E+00  0.45593999997E+02  0.45594000000E+02  0.51100000000E-03 0.  1.
         11   -1    0    0    0    0 -0.00000000000E+00 -0.00000000000E+00 -0.45593999997E+02  0.45594000000E+02  0.51100000000E-03 0. -1.
    9900012    2    1    2    0    0 -0.11679811652E+01  0.15838464933E+00  0.54700675886E-01  0.90008060229E+02  0.90000325823E+02 0.  0.
         12    1    1    2    0    0  0.11679811652E+01 -0.15838464933E+00 -0.54700675886E-01  0.11799397710E+01  0.00000000000E+00 0. -1.
         11    1    3    3    0    0  0.59502293515E+01 -0.77961475556E+01 -0.10156046135E+01  0.98598478202E+01  0.51100000000E-03 0. -1.
        -11    1    3    3    0    0 -0.11564685257E+02 -0.30665582165E+02 -0.17402159070E+02  0.37107344491E+02  0.51100000000E-03 0.  1.
         12    1    3    3    0    0  0.44464747404E+01  0.38620114370E+02  0.18472464359E+02  0.43040867918E+02  0.00000000000E+00 0. -1.
</event>
<event>
 7    1  0.2682188E-015  0.9000772E+02  0.7816164E-02  0.1186339E+00
        -11   -1    0    0    0    0  0.00000000000E+00  0.00000000000E+00  0.45593999997E+02  0.45594000000E+02  0.51100000000E-03 0.  1.
         11   -1    0    0    0    0 -0.00000000000E+00 -0.00000000000E+00 -0.45593999997E+02  0.45594000000E+02  0.51100000000E-03 0. -1.
    9900012    2    1    2    0    0  0.46219443220E+00  0.52492535233E+00 -0.95072796931E+00  0.90007722918E+02  0.89999984061E+02 0.  0.
         12    1    1    2    0    0 -0.46219443220E+00 -0.52492535233E+00  0.95072796931E+00  0.11802770820E+01  0.00000000000E+00 0. -1.
         11    1    3    3    0    0 -0.26703660840E+02  0.19681238276E+02 -0.15330262060E+02  0.36543858272E+02  0.51100000000E-03 0. -1.
        -11    1    3    3    0    0 -0.51844307229E+01 -0.43645935371E+00 -0.82627805936E+01  0.97643413545E+01  0.51100000000E-03 0.  1.
        -12    1    3    3    0    0  0.32350285995E+02 -0.18719853570E+02  0.22642314685E+02  0.43699523291E+02  0.00000000000E+00 0.  1.
</event>
<event>
 7    1  0.2682188E-015  0.9000774E+02  0.7816164E-02  0.1186339E+00
        -11   -1    0    0    0    0  0.00000000000E+00  0.00000000000E+00  0.45593999997E+02  0.45594000000E+02  0.51100000000E-03 0.  1.
         11   -1    0    0    0    0 -0.00000000000E+00 -0.00000000000E+00 -0.45593999997E+02  0.45594000000E+02  0.51100000000E-03 0. -1.
    9900012    2    1    2    0    0 -0.10825233387E+01 -0.35912807810E+00  0.30360326339E+00  0.90007743800E+02  0.90000005219E+02 0.  0.
         12    1    1    2    0    0  0.10825233387E+01  0.35912807810E+00 -0.30360326339E+00  0.11802561996E+01  0.00000000000E+00 0. -1.
         11    1    3    3    0    0 -0.46445090502E+01  0.12433071961E+02 -0.28920609556E+02  0.31820659957E+02  0.51100000000E-03 0. -1.
        -11    1    3    3    0    0  0.52424439640E+01 -0.24208959937E+02 -0.20470692058E+01  0.24854525796E+02  0.51100000000E-03 0.  1.
        -12    1    3    3    0    0 -0.16804582524E+01  0.11416759897E+02  0.31271282026E+02  0.33332558048E+02  0.00000000000E+00 0.  1.
</event>
<event>
 7    1  0.2682188E-015  0.9000788E+02  0.7816164E-02  0.1186339E+00
        -11   -1    0    0    0    0  0.00000000000E+00  0.00000000000E+00  0.45593999997E+02  0.45594000000E+02  0.51100000000E-03 0.  1.
         11   -1    0    0    0    0 -0.00000000000E+00 -0.00000000000E+00 -0.45593999997E+02  0.45594000000E+02  0.51100000000E-03 0. -1.
    9900012    2    1    2    0    0 -0.11077998772E+01 -0.18912665297E+00  0.36011498361E+00  0.90007884641E+02  0.90000147918E+02 0.  0.
         12    1    1    2    0    0  0.11077998772E+01  0.18912665297E+00 -0.36011498361E+00  0.11801153589E+01  0.00000000000E+00 0. -1.
         11    1    3    3    0    0 -0.21351915092E+00  0.85115984673E+01  0.61392775142E+01  0.10496838932E+02  0.51100000000E-03 0. -1.
        -11    1    3    3    0    0 -0.38762951866E+02 -0.11123184820E+02  0.34004803295E+01  0.40470420613E+02  0.51100000000E-03 0.  1.
         12    1    3    3    0    0  0.37868671140E+02  0.24224596994E+01 -0.91796428602E+01  0.39040625096E+02  0.00000000000E+00 0. -1.
</event>
<event>
 7    1  0.2682188E-015  0.9000807E+02  0.7816164E-02  0.1186338E+00
        -11   -1    0    0    0    0  0.00000000000E+00  0.00000000000E+00  0.45593999997E+02  0.45594000000E+02  0.51100000000E-03 0.  1.
         11   -1    0    0    0    0 -0.00000000000E+00 -0.00000000000E+00 -0.45593999997E+02  0.45594000000E+02  0.51100000000E-03 0. -1.
    9900012    2    1    2    0    0 -0.53329752773E+00  0.54607575994E+00  0.89979362478E+00  0.90008070529E+02  0.90000336260E+02 0.  0.
         12    1    1    2    0    0  0.53329752773E+00 -0.54607575994E+00 -0.89979362478E+00  0.11799294707E+01  0.00000000000E+00 0. -1.
         11    1    3    3    0    0 -0.17368516563E+02 -0.36093469861E+02 -0.61803257938E+01  0.40529006420E+02  0.51100000000E-03 0. -1.
        -11    1    3    3    0    0  0.80001052495E+01 -0.25804519330E+01  0.35390187856E+01  0.91205849816E+01  0.51100000000E-03 0.  1.
        -12    1    3    3    0    0  0.88351137859E+01  0.39219997554E+02  0.35411006331E+01  0.40358479127E+02  0.00000000000E+00 0.  1.
</event>
<event>
 7    1  0.2719155E-015  0.9000825E+02  0.7816164E-02  0.1186338E+00
        -11   -1    0    0    0    0  0.00000000000E+00  0.00000000000E+00  0.45593999997E+02  0.45594000000E+02  0.51100000000E-03 0. -1.
         11   -1    0    0    0    0 -0.00000000000E+00 -0.00000000000E+00 -0.45593999997E+02  0.45594000000E+02  0.51100000000E-03 0.  1.
    9900012    2    1    2    0    0 -0.42827670680E+00  0.69062149008E+00 -0.85523064615E+00  0.90008254927E+02  0.90000523090E+02 0.  0.
         12    1    1    2    0    0  0.42827670680E+00 -0.69062149008E+00  0.85523064615E+00  0.11797450734E+01  0.00000000000E+00 0. -1.
         11    1    3    3    0    0 -0.54045130552E+01 -0.32221617519E-01 -0.80574688864E+01  0.97021958706E+01  0.51100000000E-03 0. -1.
        -11    1    3    3    0    0  0.40564374850E+02 -0.11422800047E+02  0.72225541720E+00  0.42148197127E+02  0.51100000000E-03 0.  1.
         12    1    3    3    0    0 -0.35588138502E+02  0.12145643154E+02  0.64799828230E+01  0.38157861929E+02  0.00000000000E+00 0. -1.
</event>
<event>
 7    1  0.2682188E-015  0.9000787E+02  0.7816164E-02  0.1186339E+00
        -11   -1    0    0    0    0  0.00000000000E+00  0.00000000000E+00  0.45593999997E+02  0.45594000000E+02  0.51100000000E-03 0. -1.
         11   -1    0    0    0    0 -0.00000000000E+00 -0.00000000000E+00 -0.45593999997E+02  0.45594000000E+02  0.51100000000E-03 0.  1.
    9900012    2    1    2    0    0  0.43979719176E+00 -0.45354330441E+00  0.99679087402E+00  0.90007866471E+02  0.90000129509E+02 0.  0.
         12    1    1    2    0    0 -0.43979719176E+00  0.45354330441E+00 -0.99679087402E+00  0.11801335286E+01  0.00000000000E+00 0. -1.
         11    1    3    3    0    0  0.10551246897E+02 -0.47970810925E+01  0.33488412414E+02  0.35437474012E+02  0.51100000000E-03 0. -1.
        -11    1    3    3    0    0 -0.97864426816E+01 -0.67870233454E+01  0.68117958851E+01  0.13720011286E+02  0.51100000000E-03 0.  1.
        -12    1    3    3    0    0 -0.32500702353E+00  0.11130561134E+02 -0.39303417425E+02  0.40850381173E+02  0.00000000000E+00 0.  1.
</event>
<event>
 7    1  0.2682188E-015  0.9000772E+02  0.7816164E-02  0.1186339E+00
        -11   -1    0    0    0    0  0.00000000000E+00  0.00000000000E+00  0.45593999997E+02  0.45594000000E+02  0.51100000000E-03 0.  1.
         11   -1    0    0    0    0 -0.00000000000E+00 -0.00000000000E+00 -0.45593999997E+02  0.45594000000E+02  0.51100000000E-03 0. -1.
    9900012    2    1    2    0    0 -0.47196885556E+00 -0.76706235466E+00  0.76283829734E+00  0.90007719726E+02  0.89999980827E+02 0.  0.
         12    1    1    2    0    0  0.47196885556E+00  0.76706235466E+00 -0.76283829734E+00  0.11802802737E+01  0.00000000000E+00 0. -1.
         11    1    3    3    0    0 -0.26478669562E+01 -0.76865763032E+01  0.38818251806E+01  0.90090633073E+01  0.51100000000E-03 0. -1.
        -11    1    3    3    0    0  0.11184727100E+02 -0.34183400834E+02  0.92550245920E+01  0.37138369557E+02  0.51100000000E-03 0.  1.
         12    1    3    3    0    0 -0.90088289998E+01  0.41102914783E+02 -0.12374011475E+02  0.43860286862E+02  0.00000000000E+00 0. -1.
</event>
<event>
 7    1  0.2682188E-015  0.9000772E+02  0.7816164E-02  0.1186339E+00
        -11   -1    0    0    0    0  0.00000000000E+00  0.00000000000E+00  0.45593999997E+02  0.45594000000E+02  0.51100000000E-03 0. -1.
         11   -1    0    0    0    0 -0.00000000000E+00 -0.00000000000E+00 -0.45593999997E+02  0.45594000000E+02  0.51100000000E-03 0.  1.
    9900012    2    1    2    0    0 -0.54298782101E+00  0.71769066788E+00 -0.76364274350E+00  0.90007717869E+02  0.89999978945E+02 0.  0.
         12    1    1    2    0    0  0.54298782101E+00 -0.71769066788E+00  0.76364274350E+00  0.11802821308E+01  0.00000000000E+00 0. -1.
         11    1    3    3    0    0  0.64571033631E+01 -0.67308567107E+01  0.76378041012E+01  0.12055482888E+02  0.51100000000E-03 0. -1.
        -11    1    3    3    0    0 -0.28935433176E+02 -0.23426860224E+02  0.54455393195E+01  0.37626200602E+02  0.51100000000E-03 0.  1.
         12    1    3    3    0    0  0.21935341992E+02  0.30875407602E+02 -0.13846986164E+02  0.40326034379E+02  0.00000000000E+00 0. -1.
</event>
<event>
 7    1  0.2682188E-015  0.9000764E+02  0.7816164E-02  0.1186339E+00
        -11   -1    0    0    0    0  0.00000000000E+00  0.00000000000E+00  0.45593999997E+02  0.45594000000E+02  0.51100000000E-03 0. -1.
         11   -1    0    0    0    0 -0.00000000000E+00 -0.00000000000E+00 -0.45593999997E+02  0.45594000000E+02  0.51100000000E-03 0.  1.
    9900012    2    1    2    0    0  0.17854925370E+00  0.37516724242E+00 -0.11048158295E+01  0.90007640600E+02  0.89999900656E+02 0.  0.
         12    1    1    2    0    0 -0.17854925370E+00 -0.37516724242E+00  0.11048158295E+01  0.11803593998E+01  0.00000000000E+00 0. -1.
         11    1    3    3    0    0 -0.13993607904E+02 -0.21403691308E+02  0.24560009266E+02  0.35456073093E+02  0.51100000000E-03 0. -1.
        -11    1    3    3    0    0 -0.25275013791E+01 -0.49576462822E+01  0.71421656225E+01  0.90541178433E+01  0.51100000000E-03 0.  1.
        -12    1    3    3    0    0  0.16699658537E+02  0.26736504833E+02 -0.32806990718E+02  0.45497449664E+02  0.00000000000E+00 0.  1.
</event>
<event>
 7    1  0.2682188E-015  0.9000774E+02  0.7816164E-02  0.1186339E+00
        -11   -1    0    0    0    0  0.00000000000E+00  0.00000000000E+00  0.45593999997E+02  0.45594000000E+02  0.51100000000E-03 0.  1.
         11   -1    0    0    0    0 -0.00000000000E+00 -0.00000000000E+00 -0.45593999997E+02  0.45594000000E+02  0.51100000000E-03 0. -1.
    9900012    2    1    2    0    0  0.55728822530E+00  0.71390208613E+00  0.75682397501E+00  0.90007742027E+02  0.90000003421E+02 0.  0.
         12    1    1    2    0    0 -0.55728822530E+00 -0.71390208613E+00 -0.75682397501E+00  0.11802579734E+01  0.00000000000E+00 0. -1.
         11    1    3    3    0    0  0.10517306856E+01  0.40976060962E+02  0.57351200692E+01  0.41388830762E+02  0.51100000000E-03 0. -1.
        -11    1    3    3    0    0  0.72937805705E+01 -0.33714746595E+01  0.51928993367E+01  0.95672503978E+01  0.51100000000E-03 0.  1.
        -12    1    3    3    0    0 -0.77882230308E+01 -0.36890684216E+02 -0.10171195431E+02  0.39051660866E+02  0.00000000000E+00 0.  1.
</event>
<event>
 7    1  0.2682188E-015  0.9000778E+02  0.7816164E-02  0.1186339E+00
        -11   -1    0    0    0    0  0.00000000000E+00  0.00000000000E+00  0.45593999997E+02  0.45594000000E+02  0.51100000000E-03 0. -1.
         11   -1    0    0    0    0 -0.00000000000E+00 -0.00000000000E+00 -0.45593999997E+02  0.45594000000E+02  0.51100000000E-03 0.  1.
    9900012    2    1    2    0    0  0.51863049928E+00 -0.11402032378E+00 -0.10540157731E+01  0.90007776513E+02  0.90000038363E+02 0.  0.
         12    1    1    2    0    0 -0.51863049928E+00  0.11402032378E+00  0.10540157731E+01  0.11802234868E+01  0.00000000000E+00 0. -1.
         11    1    3    3    0    0 -0.35785723006E+02 -0.18350706291E+02 -0.44998981198E+01  0.40467461939E+02  0.51100000000E-03 0. -1.
        -11    1    3    3    0    0 -0.52597038473E+00 -0.85543680146E+00  0.77665504278E+01  0.78312018730E+01  0.51100000000E-03 0.  1.
        -12    1    3    3    0    0  0.36830323890E+02  0.19092122768E+02 -0.43206680810E+01  0.41709112701E+02  0.00000000000E+00 0.  1.
</event>
<event>
 7    1  0.2682188E-015  0.9000772E+02  0.7816164E-02  0.1186339E+00
        -11   -1    0    0    0    0  0.00000000000E+00  0.00000000000E+00  0.45593999997E+02  0.45594000000E+02  0.51100000000E-03 0. -1.
         11   -1    0    0    0    0 -0.00000000000E+00 -0.00000000000E+00 -0.45593999997E+02  0.45594000000E+02  0.51100000000E-03 0.  1.
    9900012    2    1    2    0    0  0.59510097237E+00  0.45418896412E+00 -0.91248154868E+00  0.90007722338E+02  0.89999983473E+02 0.  0.
         12    1    1    2    0    0 -0.59510097237E+00 -0.45418896412E+00  0.91248154868E+00  0.11802776619E+01  0.00000000000E+00 0. -1.
         11    1    3    3    0    0  0.31038038675E+02 -0.25199798618E+02  0.15711539132E+02  0.42956281931E+02  0.51100000000E-03 0. -1.
        -11    1    3    3    0    0 -0.68561647496E+01 -0.19879244323E+01 -0.56170278129E+01  0.90834927387E+01  0.51100000000E-03 0.  1.
        -12    1    3    3    0    0 -0.23586772953E+02  0.27641912014E+02 -0.11006992868E+02  0.37967947668E+02  0.00000000000E+00 0.  1.
</event>
<event>
 7    1  0.2682188E-015  0.9000754E+02  0.7816164E-02  0.1186339E+00
        -11   -1    0    0    0    0  0.00000000000E+00  0.00000000000E+00  0.45593999997E+02  0.45594000000E+02  0.51100000000E-03 0.  1.
         11   -1    0    0    0    0 -0.00000000000E+00 -0.00000000000E+00 -0.45593999997E+02  0.45594000000E+02  0.51100000000E-03 0. -1.
    9900012    2    1    2    0    0  0.77937765984E+00  0.59441780067E+00  0.65782266174E+00  0.90007537077E+02  0.89999795766E+02 0.  0.
         12    1    1    2    0    0 -0.77937765984E+00 -0.59441780067E+00 -0.65782266174E+00  0.11804629231E+01  0.00000000000E+00 0. -1.
         11    1    3    3    0    0 -0.21050234620E+02  0.23513021470E+02 -0.23898038816E+02  0.39586497896E+02  0.51100000000E-03 0. -1.
        -11    1    3    3    0    0 -0.17519223251E+01  0.28431321746E+01  0.13321354019E+02  0.13733575848E+02  0.51100000000E-03 0.  1.
        -12    1    3    3    0    0  0.23581534605E+02 -0.25761735843E+02  0.11234507458E+02  0.36687463333E+02  0.00000000000E+00 0.  1.
</event>
<event>
 7    1  0.2682188E-015  0.9000773E+02  0.7816164E-02  0.1186339E+00
        -11   -1    0    0    0    0  0.00000000000E+00  0.00000000000E+00  0.45593999997E+02  0.45594000000E+02  0.51100000000E-03 0.  1.
         11   -1    0    0    0    0 -0.00000000000E+00 -0.00000000000E+00 -0.45593999997E+02  0.45594000000E+02  0.51100000000E-03 0. -1.
    9900012    2    1    2    0    0 -0.91797943952E+00 -0.18549893791E+00  0.71828767161E+00  0.90007731689E+02  0.89999992947E+02 0.  0.
         12    1    1    2    0    0  0.91797943952E+00  0.18549893791E+00 -0.71828767161E+00  0.11802683113E+01  0.00000000000E+00 0. -1.
         11    1    3    3    0    0 -0.94851583429E+00 -0.12153498629E+02 -0.31260607142E+01  0.12584890427E+02  0.51100000000E-03 0. -1.
        -11    1    3    3    0    0 -0.26337490699E+02  0.16631497406E+02 -0.23599764072E+02  0.39079649267E+02  0.51100000000E-03 0.  1.
         12    1    3    3    0    0  0.26368027094E+02 -0.46634977154E+01  0.27444112458E+02  0.38343191995E+02  0.00000000000E+00 0. -1.
</event>
<event>
 7    1  0.2682188E-015  0.9000813E+02  0.7816164E-02  0.1186338E+00
        -11   -1    0    0    0    0  0.00000000000E+00  0.00000000000E+00  0.45593999997E+02  0.45594000000E+02  0.51100000000E-03 0.  1.
         11   -1    0    0    0    0 -0.00000000000E+00 -0.00000000000E+00 -0.45593999997E+02  0.45594000000E+02  0.51100000000E-03 0. -1.
    9900012    2    1    2    0    0  0.69210185736E+00 -0.82268613284E+00  0.48607708271E+00  0.90008132048E+02  0.90000398590E+02 0.  0.
         12    1    1    2    0    0 -0.69210185736E+00  0.82268613284E+00 -0.48607708271E+00  0.11798679521E+01  0.00000000000E+00 0. -1.
         11    1    3    3    0    0 -0.13050602646E+02  0.26304932018E+02 -0.24488355086E+02  0.38235418305E+02  0.51100000000E-03 0. -1.
        -11    1    3    3    0    0 -0.38247632575E+01 -0.42728970884E+01 -0.67837552785E+01  0.88828936414E+01  0.51100000000E-03 0.  1.
        -12    1    3    3    0    0  0.17567467761E+02 -0.22854721062E+02  0.31758187447E+02  0.42889820101E+02  0.00000000000E+00 0.  1.
</event>
<event>
 7    1  0.2682188E-015  0.9000768E+02  0.7816164E-02  0.1186339E+00
        -11   -1    0    0    0    0  0.00000000000E+00  0.00000000000E+00  0.45593999997E+02  0.45594000000E+02  0.51100000000E-03 0.  1.
         11   -1    0    0    0    0 -0.00000000000E+00 -0.00000000000E+00 -0.45593999997E+02  0.45594000000E+02  0.51100000000E-03 0. -1.
    9900012    2    1    2    0    0  0.43023429686E-02  0.48080256767E+00  0.10779442477E+01  0.90007680797E+02  0.89999941384E+02 0.  0.
         12    1    1    2    0    0 -0.43023429686E-02 -0.48080256767E+00 -0.10779442477E+01  0.11803192027E+01  0.00000000000E+00 0. -1.
         11    1    3    3    0    0 -0.27691814103E+01  0.95662769181E+01  0.43123135626E+01  0.10852560448E+02  0.51100000000E-03 0. -1.
        -11    1    3    3    0    0  0.80098391917E+01  0.34084731773E+02 -0.62392953380E+01  0.35564803816E+02  0.51100000000E-03 0.  1.
         12    1    3    3    0    0 -0.52363554385E+01 -0.43170206124E+02  0.30049260231E+01  0.43590316533E+02  0.00000000000E+00 0. -1.
</event>
<event>
 7    1  0.2682188E-015  0.9000776E+02  0.7816164E-02  0.1186339E+00
        -11   -1    0    0    0    0  0.00000000000E+00  0.00000000000E+00  0.45593999997E+02  0.45594000000E+02  0.51100000000E-03 0.  1.
         11   -1    0    0    0    0 -0.00000000000E+00 -0.00000000000E+00 -0.45593999997E+02  0.45594000000E+02  0.51100000000E-03 0. -1.
    9900012    2    1    2    0    0 -0.70645563664E+00  0.71288913914E+00  0.62102109612E+00  0.90007763713E+02  0.90000025394E+02 0.  0.
         12    1    1    2    0    0  0.70645563664E+00 -0.71288913914E+00 -0.62102109612E+00  0.11802362870E+01  0.00000000000E+00 0. -1.
         11    1    3    3    0    0 -0.91311957477E+01 -0.74023608726E+01  0.60858236028E+00  0.11770473866E+02  0.51100000000E-03 0. -1.
        -11    1    3    3    0    0 -0.99474515537E+01  0.40044237918E+02  0.23300042763E+01  0.41327009365E+02  0.51100000000E-03 0.  1.
         12    1    3    3    0    0  0.18372191665E+02 -0.31928987906E+02 -0.23175655405E+01  0.36910280483E+02  0.00000000000E+00 0. -1.
</event>
<event>
 7    1  0.2682188E-015  0.9000775E+02  0.7816164E-02  0.1186339E+00
        -11   -1    0    0    0    0  0.00000000000E+00  0.00000000000E+00  0.45593999997E+02  0.45594000000E+02  0.51100000000E-03 0. -1.
         11   -1    0    0    0    0 -0.00000000000E+00 -0.00000000000E+00 -0.45593999997E+02  0.45594000000E+02  0.51100000000E-03 0.  1.
    9900012    2    1    2    0    0  0.70322494135E+00 -0.71641996027E+00 -0.62065464637E+00  0.90007747880E+02  0.90000009352E+02 0.  0.
         12    1    1    2    0    0 -0.70322494135E+00  0.71641996027E+00  0.62065464637E+00  0.11802521204E+01  0.00000000000E+00 0. -1.
         11    1    3    3    0    0  0.24640611997E+01  0.11282920918E+02 -0.45399066744E+00  0.11557768375E+02  0.51100000000E-03 0. -1.
        -11    1    3    3    0    0  0.26401345919E+02  0.10099955120E+02 -0.22610913038E+02  0.36197977132E+02  0.51100000000E-03 0.  1.
         12    1    3    3    0    0 -0.28162182178E+02 -0.22099295998E+02  0.22444249059E+02  0.42252002372E+02  0.00000000000E+00 0. -1.
</event>
<event>
 7    1  0.2682188E-015  0.9000808E+02  0.7816164E-02  0.1186338E+00
        -11   -1    0    0    0    0  0.00000000000E+00  0.00000000000E+00  0.45593999997E+02  0.45594000000E+02  0.51100000000E-03 0. -1.
         11   -1    0    0    0    0 -0.00000000000E+00 -0.00000000000E+00 -0.45593999997E+02  0.45594000000E+02  0.51100000000E-03 0.  1.
    9900012    2    1    2    0    0  0.67357436944E+00 -0.23310309330E+00 -0.94030407897E+00  0.90008079984E+02  0.90000345839E+02 0.  0.
         12    1    1    2    0    0 -0.67357436944E+00  0.23310309330E+00  0.94030407897E+00  0.11799200160E+01  0.00000000000E+00 0. -1.
         11    1    3    3    0    0  0.42113120959E+01 -0.22009865772E+01  0.63602413628E+01  0.79392796863E+01  0.51100000000E-03 0. -1.
        -11    1    3    3    0    0  0.50667797253E+00 -0.37649974791E+02  0.95203628176E+01  0.38838313980E+02  0.51100000000E-03 0.  1.
         12    1    3    3    0    0 -0.40444156990E+01  0.39617858275E+02 -0.16820908259E+02  0.43230486318E+02  0.00000000000E+00 0. -1.
</event>
<event>
 7    1  0.2682188E-015  0.9000774E+02  0.7816164E-02  0.1186339E+00
        -11   -1    0    0    0    0  0.00000000000E+00  0.00000000000E+00  0.45593999997E+02  0.45594000000E+02  0.51100000000E-03 0.  1.
         11   -1    0    0    0    0 -0.00000000000E+00 -0.00000000000E+00 -0.45593999997E+02  0.45594000000E+02  0.51100000000E-03 0. -1.
    9900012    2    1    2    0    0 -0.35194555124E+00 -0.78622104154E+00  0.80685477492E+00  0.90007735697E+02  0.89999997008E+02 0.  0.
         12    1    1    2    0    0  0.35194555124E+00  0.78622104154E+00 -0.80685477492E+00  0.11802643030E+01  0.00000000000E+00 0. -1.
         11    1    3    3    0    0 -0.10714451080E+02  0.26876226789E+02 -0.23470860011E+02  0.37256037071E+02  0.51100000000E-03 0. -1.
        -11    1    3    3    0    0 -0.78058588378E+01 -0.70911142916E+01 -0.57986282767E+01  0.12034925187E+02  0.51100000000E-03 0.  1.
        -12    1    3    3    0    0  0.18168364366E+02 -0.20571333539E+02  0.30076343062E+02  0.40716773439E+02  0.00000000000E+00 0.  1.
</event>
<event>
 7    1  0.2682188E-015  0.9000774E+02  0.7816164E-02  0.1186339E+00
        -11   -1    0    0    0    0  0.00000000000E+00  0.00000000000E+00  0.45593999997E+02  0.45594000000E+02  0.51100000000E-03 0.  1.
         11   -1    0    0    0    0 -0.00000000000E+00 -0.00000000000E+00 -0.45593999997E+02  0.45594000000E+02  0.51100000000E-03 0. -1.
    9900012    2    1    2    0    0  0.46710888768E+00  0.96400826196E+00  0.49548480666E+00  0.90007742471E+02  0.90000003871E+02 0.  0.
         12    1    1    2    0    0 -0.46710888768E+00 -0.96400826196E+00 -0.49548480666E+00  0.11802575294E+01  0.00000000000E+00 0. -1.
         11    1    3    3    0    0  0.18774713284E+02  0.13420070622E+02 -0.29566859566E+02  0.37507163839E+02  0.51100000000E-03 0. -1.
        -11    1    3    3    0    0  0.85578349985E+01  0.33566824840E+01 -0.69694696434E-03  0.91925979955E+01  0.51100000000E-03 0.  1.
        -12    1    3    3    0    0 -0.26865439395E+02 -0.15812744844E+02  0.30063041319E+02  0.43307980636E+02  0.00000000000E+00 0.  1.
</event>
<event>
 7    1  0.2682188E-015  0.9000735E+02  0.7816164E-02  0.1186340E+00
        -11   -1    0    0    0    0  0.00000000000E+00  0.00000000000E+00  0.45593999997E+02  0.45594000000E+02  0.51100000000E-03 0.  1.
         11   -1    0    0    0    0 -0.00000000000E+00 -0.00000000000E+00 -0.45593999997E+02  0.45594000000E+02  0.51100000000E-03 0. -1.
    9900012    2    1    2    0    0 -0.34978964787E+00 -0.11082695211E+01  0.20810744937E+00  0.90007354905E+02  0.89999611189E+02 0.  0.
         12    1    1    2    0    0  0.34978964787E+00  0.11082695211E+01 -0.20810744937E+00  0.11806450947E+01  0.00000000000E+00 0. -1.
         11    1    3    3    0    0  0.37116026582E+01  0.29763682978E+02 -0.25012384234E+02  0.39054733183E+02  0.51100000000E-03 0. -1.
        -11    1    3    3    0    0  0.11167149580E+02 -0.14646409670E+02  0.15786768380E+01  0.18485528578E+02  0.51100000000E-03 0.  1.
        -12    1    3    3    0    0 -0.15228541886E+02 -0.16225542828E+02  0.23641814845E+02  0.32467093144E+02  0.00000000000E+00 0.  1.
</event>
<event>
 7    1  0.2682188E-015  0.9000782E+02  0.7816164E-02  0.1186339E+00
        -11   -1    0    0    0    0  0.00000000000E+00  0.00000000000E+00  0.45593999997E+02  0.45594000000E+02  0.51100000000E-03 0. -1.
         11   -1    0    0    0    0 -0.00000000000E+00 -0.00000000000E+00 -0.45593999997E+02  0.45594000000E+02  0.51100000000E-03 0.  1.
    9900012    2    1    2    0    0 -0.20663490455E+00  0.97083226912E+00 -0.63844318620E+00  0.90007820785E+02  0.90000083219E+02 0.  0.
         12    1    1    2    0    0  0.20663490455E+00 -0.97083226912E+00  0.63844318620E+00  0.11801792154E+01  0.00000000000E+00 0. -1.
         11    1    3    3    0    0 -0.21877144528E+02 -0.28458680814E+02  0.73217698035E+01  0.36634877913E+02  0.51100000000E-03 0. -1.
        -11    1    3    3    0    0  0.12295472025E+02 -0.15600717067E+01 -0.15779951292E+02  0.20065376126E+02  0.51100000000E-03 0.  1.
         12    1    3    3    0    0  0.93750375986E+01  0.30989584789E+02  0.78197383022E+01  0.33307566746E+02  0.00000000000E+00 0. -1.
</event>
<event>
 7    1  0.2682188E-015  0.9000769E+02  0.7816164E-02  0.1186339E+00
        -11   -1    0    0    0    0  0.00000000000E+00  0.00000000000E+00  0.45593999997E+02  0.45594000000E+02  0.51100000000E-03 0.  1.
         11   -1    0    0    0    0 -0.00000000000E+00 -0.00000000000E+00 -0.45593999997E+02  0.45594000000E+02  0.51100000000E-03 0. -1.
    9900012    2    1    2    0    0 -0.54594677328E+00  0.97519833890E+00 -0.37956514509E+00  0.90007686745E+02  0.89999947410E+02 0.  0.
         12    1    1    2    0    0  0.54594677328E+00 -0.97519833890E+00  0.37956514509E+00  0.11803132545E+01  0.00000000000E+00 0. -1.
         11    1    3    3    0    0 -0.42867912502E+01  0.75822719918E+01 -0.50952993217E-02  0.87101925353E+01  0.51100000000E-03 0. -1.
        -11    1    3    3    0    0  0.84848803114E+01 -0.28589959909E+01  0.39736845397E+02  0.40733081572E+02  0.51100000000E-03 0.  1.
         12    1    3    3    0    0 -0.47440358345E+01 -0.37480776620E+01 -0.40111315243E+02  0.40564412638E+02  0.00000000000E+00 0. -1.
</event>
<event>
 7    1  0.2682188E-015  0.9000768E+02  0.7816164E-02  0.1186339E+00
        -11   -1    0    0    0    0  0.00000000000E+00  0.00000000000E+00  0.45593999997E+02  0.45594000000E+02  0.51100000000E-03 0. -1.
         11   -1    0    0    0    0 -0.00000000000E+00 -0.00000000000E+00 -0.45593999997E+02  0.45594000000E+02  0.51100000000E-03 0.  1.
    9900012    2    1    2    0    0  0.65862694282E+00  0.55643560261E-01 -0.97789157991E+00  0.90007679028E+02  0.89999939591E+02 0.  0.
         12    1    1    2    0    0 -0.65862694282E+00 -0.55643560261E-01  0.97789157991E+00  0.11803209723E+01  0.00000000000E+00 0. -1.
         11    1    3    3    0    0  0.14790376440E+02  0.29994610657E+02  0.14258409614E+02  0.36355661852E+02  0.51100000000E-03 0. -1.
        -11    1    3    3    0    0  0.85640625119E+01  0.20645604484E+01  0.43226431234E+01  0.98127886142E+01  0.51100000000E-03 0.  1.
        -12    1    3    3    0    0 -0.22695812009E+02 -0.32003527545E+02 -0.19558944318E+02  0.43839228562E+02  0.00000000000E+00 0.  1.
</event>
<event>
 7    1  0.4041210E-015  0.9000781E+02  0.7816164E-02  0.1186339E+00
        -11   -1    0    0    0    0  0.00000000000E+00  0.00000000000E+00  0.45593999997E+02  0.45594000000E+02  0.51100000000E-03 0.  1.
         11   -1    0    0    0    0 -0.00000000000E+00 -0.00000000000E+00 -0.45593999997E+02  0.45594000000E+02  0.51100000000E-03 0. -1.
    9900012    2    1    2    0    0  0.46442098126E+00 -0.59473070353E+00  0.90744368471E+00  0.90007811245E+02  0.90000073553E+02 0.  0.
         12    1    1    2    0    0 -0.46442098126E+00  0.59473070353E+00 -0.90744368471E+00  0.11801887554E+01  0.00000000000E+00 0. -1.
         11    1    3    3    0    0 -0.78494492575E+01 -0.52308701270E+01 -0.30943869269E+01  0.99272899951E+01  0.51100000000E-03 0. -1.
        -11    1    3    3    0    0 -0.10906890007E+02 -0.21715752590E+02  0.29830213021E+02  0.38475651642E+02  0.51100000000E-03 0.  1.
         12    1    3    3    0    0  0.19220760246E+02  0.26351892014E+02 -0.25828382409E+02  0.41604869607E+02  0.00000000000E+00 0. -1.
</event>
<event>
 7    1  0.2682188E-015  0.9000773E+02  0.7816164E-02  0.1186339E+00
        -11   -1    0    0    0    0  0.00000000000E+00  0.00000000000E+00  0.45593999997E+02  0.45594000000E+02  0.51100000000E-03 0.  1.
         11   -1    0    0    0    0 -0.00000000000E+00 -0.00000000000E+00 -0.45593999997E+02  0.45594000000E+02  0.51100000000E-03 0. -1.
    9900012    2    1    2    0    0  0.41060073268E+00 -0.10928008615E+01  0.17388391391E+00  0.90007727870E+02  0.89999989078E+02 0.  0.
         12    1    1    2    0    0 -0.41060073268E+00  0.10928008615E+01 -0.17388391391E+00  0.11802721297E+01  0.00000000000E+00 0. -1.
         11    1    3    3    0    0 -0.59522215201E+00 -0.46206443218E+01  0.82013187905E+01  0.94321934629E+01  0.51100000000E-03 0. -1.
        -11    1    3    3    0    0  0.23762299264E+02  0.42234546872E+00  0.28697063185E+02  0.37260524389E+02  0.51100000000E-03 0.  1.
         12    1    3    3    0    0 -0.22756476380E+02  0.31054979915E+01 -0.36724498062E+02  0.43315010018E+02  0.00000000000E+00 0. -1.
</event>
<event>
 7    1  0.2682188E-015  0.9000758E+02  0.7816164E-02  0.1186339E+00
        -11   -1    0    0    0    0  0.00000000000E+00  0.00000000000E+00  0.45593999997E+02  0.45594000000E+02  0.51100000000E-03 0.  1.
         11   -1    0    0    0    0 -0.00000000000E+00 -0.00000000000E+00 -0.45593999997E+02  0.45594000000E+02  0.51100000000E-03 0. -1.
    9900012    2    1    2    0    0  0.50368036452E-01  0.58166278296E-03  0.11793410537E+01  0.90007583718E+02  0.89999843023E+02 0.  0.
         12    1    1    2    0    0 -0.50368036452E-01 -0.58166278296E-03 -0.11793410537E+01  0.11804162818E+01  0.00000000000E+00 0. -1.
         11    1    3    3    0    0 -0.58928384129E+01  0.36377513259E+02  0.58775645057E+01  0.37317486253E+02  0.51100000000E-03 0. -1.
        -11    1    3    3    0    0  0.40635874465E+01  0.71368657049E+01  0.24112143261E+01  0.85592961049E+01  0.51100000000E-03 0.  1.
        -12    1    3    3    0    0  0.18796190028E+01 -0.43513797301E+02 -0.71094377782E+01  0.44130801360E+02  0.00000000000E+00 0.  1.
</event>
<event>
 7    1  0.2682188E-015  0.9000776E+02  0.7816164E-02  0.1186339E+00
        -11   -1    0    0    0    0  0.00000000000E+00  0.00000000000E+00  0.45593999997E+02  0.45594000000E+02  0.51100000000E-03 0. -1.
         11   -1    0    0    0    0 -0.00000000000E+00 -0.00000000000E+00 -0.45593999997E+02  0.45594000000E+02  0.51100000000E-03 0.  1.
    9900012    2    1    2    0    0 -0.75195092692E+00  0.38449945944E+00 -0.82443982581E+00  0.90007758051E+02  0.90000019658E+02 0.  0.
         12    1    1    2    0    0  0.75195092692E+00 -0.38449945944E+00  0.82443982581E+00  0.11802419486E+01  0.00000000000E+00 0. -1.
         11    1    3    3    0    0 -0.45056534823E+01  0.73378958886E+01  0.70251471741E+01  0.11112979909E+02  0.51100000000E-03 0. -1.
        -11    1    3    3    0    0  0.10039259790E+02  0.34830832429E+02 -0.35382579154E+01  0.36421050152E+02  0.51100000000E-03 0.  1.
         12    1    3    3    0    0 -0.62855572346E+01 -0.41784228858E+02 -0.43113290845E+01  0.42473727991E+02  0.00000000000E+00 0. -1.
</event>
<event>
 7    1  0.2682188E-015  0.9000777E+02  0.7816164E-02  0.1186339E+00
        -11   -1    0    0    0    0  0.00000000000E+00  0.00000000000E+00  0.45593999997E+02  0.45594000000E+02  0.51100000000E-03 0.  1.
         11   -1    0    0    0    0 -0.00000000000E+00 -0.00000000000E+00 -0.45593999997E+02  0.45594000000E+02  0.51100000000E-03 0. -1.
    9900012    2    1    2    0    0 -0.59071328320E+00  0.65992324671E+00  0.78006637244E+00  0.90007769336E+02  0.90000031091E+02 0.  0.
         12    1    1    2    0    0  0.59071328320E+00 -0.65992324671E+00 -0.78006637244E+00  0.11802306639E+01  0.00000000000E+00 0. -1.
         11    1    3    3    0    0 -0.10030791434E+02  0.29835811084E+02 -0.20595590737E+02  0.37616097058E+02  0.51100000000E-03 0. -1.
        -11    1    3    3    0    0 -0.11182602353E+02 -0.32891591991E+01 -0.20606547523E+01  0.11837037716E+02  0.51100000000E-03 0.  1.
        -12    1    3    3    0    0  0.20622680504E+02 -0.25886728638E+02  0.23436311862E+02  0.40554634562E+02  0.00000000000E+00 0.  1.
</event>
<event>
 7    1  0.2717829E-015  0.9000771E+02  0.7816164E-02  0.1186339E+00
        -11   -1    0    0    0    0  0.00000000000E+00  0.00000000000E+00  0.45593999997E+02  0.45594000000E+02  0.51100000000E-03 0. -1.
         11   -1    0    0    0    0 -0.00000000000E+00 -0.00000000000E+00 -0.45593999997E+02  0.45594000000E+02  0.51100000000E-03 0.  1.
    9900012    2    1    2    0    0 -0.42924415234E+00  0.71303831964E+00 -0.83690748523E+00  0.90007708372E+02  0.89999969323E+02 0.  0.
         12    1    1    2    0    0  0.42924415234E+00 -0.71303831964E+00  0.83690748523E+00  0.11802916277E+01  0.00000000000E+00 0. -1.
         11    1    3    3    0    0  0.66265103688E+01 -0.44601828651E+01  0.48321380741E+01  0.93356001139E+01  0.51100000000E-03 0. -1.
        -11    1    3    3    0    0 -0.36102606650E+02 -0.20527167008E+02 -0.40605776180E+00  0.41532248621E+02  0.51100000000E-03 0.  1.
         12    1    3    3    0    0  0.29046852129E+02  0.25700388193E+02 -0.52629877976E+01  0.39139859638E+02  0.00000000000E+00 0. -1.
</event>
<event>
 7    1  0.2682188E-015  0.9000775E+02  0.7816164E-02  0.1186339E+00
        -11   -1    0    0    0    0  0.00000000000E+00  0.00000000000E+00  0.45593999997E+02  0.45594000000E+02  0.51100000000E-03 0.  1.
         11   -1    0    0    0    0 -0.00000000000E+00 -0.00000000000E+00 -0.45593999997E+02  0.45594000000E+02  0.51100000000E-03 0. -1.
    9900012    2    1    2    0    0  0.34811475865E+00  0.11273681722E+01 -0.28930879791E-01  0.90007754315E+02  0.90000015872E+02 0.  0.
         12    1    1    2    0    0 -0.34811475865E+00 -0.11273681722E+01  0.28930879791E-01  0.11802456849E+01  0.00000000000E+00 0. -1.
         11    1    3    3    0    0  0.98539938786E+01 -0.28722250709E+02 -0.22317284135E+02  0.37684612942E+02  0.51100000000E-03 0. -1.
        -11    1    3    3    0    0  0.71653272451E+01 -0.12324158242E+01 -0.40324928037E+01  0.83139498294E+01  0.51100000000E-03 0.  1.
        -12    1    3    3    0    0 -0.16671206365E+02  0.31082034705E+02  0.26320846059E+02  0.44009191544E+02  0.00000000000E+00 0.  1.
</event>
<event>
 7    1  0.2682188E-015  0.9000779E+02  0.7816164E-02  0.1186339E+00
        -11   -1    0    0    0    0  0.00000000000E+00  0.00000000000E+00  0.45593999997E+02  0.45594000000E+02  0.51100000000E-03 0.  1.
         11   -1    0    0    0    0 -0.00000000000E+00 -0.00000000000E+00 -0.45593999997E+02  0.45594000000E+02  0.51100000000E-03 0. -1.
    9900012    2    1    2    0    0 -0.35620178186E+00 -0.11160096114E+01 -0.14331986656E+00  0.90007789109E+02  0.90000051126E+02 0.  0.
         12    1    1    2    0    0  0.35620178186E+00  0.11160096114E+01  0.14331986656E+00  0.11802108906E+01  0.00000000000E+00 0. -1.
         11    1    3    3    0    0 -0.79625770215E+01 -0.44330681991E+01  0.20514975845E+01  0.93414864492E+01  0.51100000000E-03 0. -1.
        -11    1    3    3    0    0  0.18167225860E+02 -0.35118660905E+02  0.59438006327E+01  0.39983711751E+02  0.51100000000E-03 0.  1.
         12    1    3    3    0    0 -0.10560850620E+02  0.38435719493E+02 -0.81386180837E+01  0.40682590909E+02  0.00000000000E+00 0. -1.
</event>
<event>
 7    1  0.2682188E-015  0.9000774E+02  0.7816164E-02  0.1186339E+00
        -11   -1    0    0    0    0  0.00000000000E+00  0.00000000000E+00  0.45593999997E+02  0.45594000000E+02  0.51100000000E-03 0.  1.
         11   -1    0    0    0    0 -0.00000000000E+00 -0.00000000000E+00 -0.45593999997E+02  0.45594000000E+02  0.51100000000E-03 0. -1.
    9900012    2    1    2    0    0  0.70044956285E+00  0.94322862260E+00 -0.11269825245E+00  0.90007741248E+02  0.90000002633E+02 0.  0.
         12    1    1    2    0    0 -0.70044956285E+00 -0.94322862260E+00  0.11269825245E+00  0.11802587516E+01  0.00000000000E+00 0. -1.
         11    1    3    3    0    0 -0.31170538257E+02 -0.18869322768E+02  0.12126921540E+02  0.38402031499E+02  0.51100000000E-03 0. -1.
        -11    1    3    3    0    0  0.43913968550E+01 -0.52228472439E+01  0.69765613484E+01  0.97588374400E+01  0.51100000000E-03 0.  1.
        -12    1    3    3    0    0  0.27479590965E+02  0.25035398634E+02 -0.19216181141E+02  0.41846872309E+02  0.00000000000E+00 0.  1.
</event>
<event>
 7    1  0.2682188E-015  0.9000771E+02  0.7816164E-02  0.1186339E+00
        -11   -1    0    0    0    0  0.00000000000E+00  0.00000000000E+00  0.45593999997E+02  0.45594000000E+02  0.51100000000E-03 0.  1.
         11   -1    0    0    0    0 -0.00000000000E+00 -0.00000000000E+00 -0.45593999997E+02  0.45594000000E+02  0.51100000000E-03 0. -1.
    9900012    2    1    2    0    0 -0.95451251969E+00 -0.69404195556E+00  0.17465740438E-01  0.90007706207E+02  0.89999967129E+02 0.  0.
         12    1    1    2    0    0  0.95451251969E+00  0.69404195556E+00 -0.17465740438E-01  0.11802937933E+01  0.00000000000E+00 0. -1.
         11    1    3    3    0    0 -0.30241233951E+02  0.22627353758E+02 -0.16679839056E+00  0.37769792042E+02  0.51100000000E-03 0. -1.
        -11    1    3    3    0    0 -0.86276952996E+01 -0.57463697413E+01 -0.11292082434E+01  0.10427511827E+02  0.51100000000E-03 0.  1.
        -12    1    3    3    0    0  0.37914416731E+02 -0.17575025972E+02  0.13134723744E+01  0.41810402337E+02  0.00000000000E+00 0.  1.
</event>
<event>
 7    1  0.2682188E-015  0.9000772E+02  0.7816164E-02  0.1186339E+00
        -11   -1    0    0    0    0  0.00000000000E+00  0.00000000000E+00  0.45593999997E+02  0.45594000000E+02  0.51100000000E-03 0.  1.
         11   -1    0    0    0    0 -0.00000000000E+00 -0.00000000000E+00 -0.45593999997E+02  0.45594000000E+02  0.51100000000E-03 0. -1.
    9900012    2    1    2    0    0 -0.32477952343E+00  0.10407613853E+01 -0.45210315080E+00  0.90007718992E+02  0.89999980082E+02 0.  0.
         12    1    1    2    0    0  0.32477952343E+00 -0.10407613853E+01  0.45210315080E+00  0.11802810084E+01  0.00000000000E+00 0. -1.
         11    1    3    3    0    0 -0.14630512316E+02 -0.34136160188E+02 -0.21760001869E+02  0.43044477051E+02  0.51100000000E-03 0. -1.
        -11    1    3    3    0    0  0.61190888118E+01  0.41140116718E+00  0.29676140235E+01  0.68131660820E+01  0.51100000000E-03 0.  1.
        -12    1    3    3    0    0  0.81866439804E+01  0.34765520406E+02  0.18340284694E+02  0.40150075859E+02  0.00000000000E+00 0.  1.
</event>
<event>
 7    1  0.2682188E-015  0.9000774E+02  0.7816164E-02  0.1186339E+00
        -11   -1    0    0    0    0  0.00000000000E+00  0.00000000000E+00  0.45593999997E+02  0.45594000000E+02  0.51100000000E-03 0.  1.
         11   -1    0    0    0    0 -0.00000000000E+00 -0.00000000000E+00 -0.45593999997E+02  0.45594000000E+02  0.51100000000E-03 0. -1.
    9900012    2    1    2    0    0 -0.46525051957E+00  0.22377653136E-01  0.10844553941E+01  0.90007744813E+02  0.90000006244E+02 0.  0.
         12    1    1    2    0    0  0.46525051957E+00 -0.22377653136E-01 -0.10844553941E+01  0.11802551873E+01  0.00000000000E+00 0. -1.
         11    1    3    3    0    0 -0.28978317943E+01 -0.77527997429E+01 -0.39458052158E+01  0.91691172980E+01  0.51100000000E-03 0. -1.
        -11    1    3    3    0    0 -0.24286061189E+02  0.23655925923E+02  0.26526627583E+02  0.43047387499E+02  0.51100000000E-03 0.  1.
         12    1    3    3    0    0  0.26718642464E+02 -0.15880748527E+02 -0.21496366973E+02  0.37791240015E+02  0.00000000000E+00 0. -1.
</event>
<event>
 7    1  0.2682188E-015  0.9000787E+02  0.7816164E-02  0.1186339E+00
        -11   -1    0    0    0    0  0.00000000000E+00  0.00000000000E+00  0.45593999997E+02  0.45594000000E+02  0.51100000000E-03 0. -1.
         11   -1    0    0    0    0 -0.00000000000E+00 -0.00000000000E+00 -0.45593999997E+02  0.45594000000E+02  0.51100000000E-03 0.  1.
    9900012    2    1    2    0    0 -0.56140539766E+00 -0.67701621902E+00 -0.78688155143E+00  0.90007868839E+02  0.90000131908E+02 0.  0.
         12    1    1    2    0    0  0.56140539766E+00  0.67701621902E+00  0.78688155143E+00  0.11801311611E+01  0.00000000000E+00 0. -1.
         11    1    3    3    0    0  0.70901232106E+01  0.24244842179E+00 -0.70724878731E+01  0.10017420494E+02  0.51100000000E-03 0. -1.
        -11    1    3    3    0    0 -0.17332456733E+02 -0.37815343167E+02  0.32331834956E+01  0.41723706823E+02  0.51100000000E-03 0.  1.
         12    1    3    3    0    0  0.96809281242E+01  0.36895878527E+02  0.30524228261E+01  0.38266741522E+02  0.00000000000E+00 0. -1.
</event>
<event>
 7    1  0.2682188E-015  0.9000779E+02  0.7816164E-02  0.1186339E+00
        -11   -1    0    0    0    0  0.00000000000E+00  0.00000000000E+00  0.45593999997E+02  0.45594000000E+02  0.51100000000E-03 0.  1.
         11   -1    0    0    0    0 -0.00000000000E+00 -0.00000000000E+00 -0.45593999997E+02  0.45594000000E+02  0.51100000000E-03 0. -1.
    9900012    2    1    2    0    0  0.47851452010E+00  0.86341109604E+00  0.64686364918E+00  0.90007793473E+02  0.90000055546E+02 0.  0.
         12    1    1    2    0    0 -0.47851452010E+00 -0.86341109604E+00 -0.64686364918E+00  0.11802065274E+01  0.00000000000E+00 0. -1.
         11    1    3    3    0    0  0.20980592710E+02  0.18338994963E+02 -0.29921851069E+02  0.40887909929E+02  0.51100000000E-03 0. -1.
        -11    1    3    3    0    0 -0.30997663777E+01  0.31601185220E+01 -0.35071922796E+01  0.56475922849E+01  0.51100000000E-03 0.  1.
        -12    1    3    3    0    0 -0.17402311812E+02 -0.20635702389E+02  0.34075906998E+02  0.43472291258E+02  0.00000000000E+00 0.  1.
</event>
<event>
 7    1  0.2682188E-015  0.9000774E+02  0.7816164E-02  0.1186339E+00
        -11   -1    0    0    0    0  0.00000000000E+00  0.00000000000E+00  0.45593999997E+02  0.45594000000E+02  0.51100000000E-03 0.  1.
         11   -1    0    0    0    0 -0.00000000000E+00 -0.00000000000E+00 -0.45593999997E+02  0.45594000000E+02  0.51100000000E-03 0. -1.
    9900012    2    1    2    0    0  0.44806011123E+00  0.33971195580E+00  0.10377201849E+01  0.90007735090E+02  0.89999996393E+02 0.  0.
         12    1    1    2    0    0 -0.44806011123E+00 -0.33971195580E+00 -0.10377201849E+01  0.11802649102E+01  0.00000000000E+00 0. -1.
         11    1    3    3    0    0 -0.17393989911E+01  0.47893358672E+01  0.72579901228E+01  0.88680137451E+01  0.51100000000E-03 0. -1.
        -11    1    3    3    0    0 -0.34155943006E+02  0.92794322026E+01  0.13112917171E+02  0.37744998366E+02  0.51100000000E-03 0.  1.
         12    1    3    3    0    0  0.36343402109E+02 -0.13729056114E+02 -0.19333187109E+02  0.43394722979E+02  0.00000000000E+00 0. -1.
</event>
<event>
 7    1  0.2682188E-015  0.9000746E+02  0.7816164E-02  0.1186340E+00
        -11   -1    0    0    0    0  0.00000000000E+00  0.00000000000E+00  0.45593999997E+02  0.45594000000E+02  0.51100000000E-03 0. -1.
         11   -1    0    0    0    0 -0.00000000000E+00 -0.00000000000E+00 -0.45593999997E+02  0.45594000000E+02  0.51100000000E-03 0.  1.
    9900012    2    1    2    0    0 -0.59131879967E+00  0.95682280337E+00 -0.35846398242E+00  0.90007464432E+02  0.89999722162E+02 0.  0.
         12    1    1    2    0    0  0.59131879967E+00 -0.95682280337E+00  0.35846398242E+00  0.11805355677E+01  0.00000000000E+00 0. -1.
         11    1    3    3    0    0  0.35143173543E+02  0.16166271705E+02  0.42214842297E+01  0.38912875978E+02  0.51100000000E-03 0. -1.
        -11    1    3    3    0    0 -0.13799624175E+01  0.87581101393E+01 -0.22169055255E+01  0.91391170173E+01  0.51100000000E-03 0.  1.
        -12    1    3    3    0    0 -0.34354529926E+02 -0.23967559040E+02 -0.23630426866E+01  0.41955471437E+02  0.00000000000E+00 0.  1.
</event>
<event>
 7    1  0.2682188E-015  0.9000784E+02  0.7816164E-02  0.1186339E+00
        -11   -1    0    0    0    0  0.00000000000E+00  0.00000000000E+00  0.45593999997E+02  0.45594000000E+02  0.51100000000E-03 0. -1.
         11   -1    0    0    0    0 -0.00000000000E+00 -0.00000000000E+00 -0.45593999997E+02  0.45594000000E+02  0.51100000000E-03 0.  1.
    9900012    2    1    2    0    0  0.11729985212E+01  0.72373354336E-02 -0.12960384398E+00  0.90007841084E+02  0.90000103787E+02 0.  0.
         12    1    1    2    0    0 -0.11729985212E+01 -0.72373354336E-02  0.12960384398E+00  0.11801589156E+01  0.00000000000E+00 0. -1.
         11    1    3    3    0    0  0.22004022505E+02 -0.26299783578E+02 -0.11173142207E+02  0.36065145635E+02  0.51100000000E-03 0. -1.
        -11    1    3    3    0    0  0.79791335444E+01  0.13033053897E+01 -0.79410866945E+01  0.11332521132E+02  0.51100000000E-03 0.  1.
        -12    1    3    3    0    0 -0.28810157528E+02  0.25003715523E+02  0.18984625057E+02  0.42610174317E+02  0.00000000000E+00 0.  1.
</event>
<event>
 7    1  0.2682188E-015  0.9000776E+02  0.7816164E-02  0.1186339E+00
        -11   -1    0    0    0    0  0.00000000000E+00  0.00000000000E+00  0.45593999997E+02  0.45594000000E+02  0.51100000000E-03 0.  1.
         11   -1    0    0    0    0 -0.00000000000E+00 -0.00000000000E+00 -0.45593999997E+02  0.45594000000E+02  0.51100000000E-03 0. -1.
    9900012    2    1    2    0    0 -0.70523357197E+00 -0.41579518213E+00  0.85012859606E+00  0.90007763306E+02  0.90000024981E+02 0.  0.
         12    1    1    2    0    0  0.70523357197E+00  0.41579518213E+00 -0.85012859606E+00  0.11802366942E+01  0.00000000000E+00 0. -1.
         11    1    3    3    0    0  0.97188144353E+01  0.27262889686E+01 -0.47561397843E+01  0.11158354336E+02  0.51100000000E-03 0. -1.
        -11    1    3    3    0    0 -0.30917734172E+02  0.25518690638E+02 -0.83551063653E+01  0.40950185114E+02  0.51100000000E-03 0.  1.
         12    1    3    3    0    0  0.20493686165E+02 -0.28660774789E+02  0.13961374746E+02  0.37899223856E+02  0.00000000000E+00 0. -1.
</event>
<event>
 7    1  0.2682188E-015  0.9000776E+02  0.7816164E-02  0.1186339E+00
        -11   -1    0    0    0    0  0.00000000000E+00  0.00000000000E+00  0.45593999997E+02  0.45594000000E+02  0.51100000000E-03 0.  1.
         11   -1    0    0    0    0 -0.00000000000E+00 -0.00000000000E+00 -0.45593999997E+02  0.45594000000E+02  0.51100000000E-03 0. -1.
    9900012    2    1    2    0    0 -0.41764599987E+00 -0.26199177451E+00  0.10723286878E+01  0.90007764140E+02  0.90000025826E+02 0.  0.
         12    1    1    2    0    0  0.41764599987E+00  0.26199177451E+00 -0.10723286878E+01  0.11802358602E+01  0.00000000000E+00 0. -1.
         11    1    3    3    0    0  0.27116143079E+02  0.18840864274E+02 -0.21536854317E+02  0.39422068390E+02  0.51100000000E-03 0. -1.
        -11    1    3    3    0    0 -0.69906560675E+01  0.67460186500E+01 -0.13259088415E+01  0.98049005297E+01  0.51100000000E-03 0.  1.
        -12    1    3    3    0    0 -0.20543133011E+02 -0.25848874698E+02  0.23935091846E+02  0.40780795220E+02  0.00000000000E+00 0.  1.
</event>
<event>
 7    1  0.2682188E-015  0.9000780E+02  0.7816164E-02  0.1186339E+00
        -11   -1    0    0    0    0  0.00000000000E+00  0.00000000000E+00  0.45593999997E+02  0.45594000000E+02  0.51100000000E-03 0. -1.
         11   -1    0    0    0    0 -0.00000000000E+00 -0.00000000000E+00 -0.45593999997E+02  0.45594000000E+02  0.51100000000E-03 0.  1.
    9900012    2    1    2    0    0  0.81006060860E+00 -0.68024351374E+00 -0.52339740753E+00  0.90007799054E+02  0.90000061201E+02 0.  0.
         12    1    1    2    0    0 -0.81006060860E+00  0.68024351374E+00  0.52339740753E+00  0.11802009464E+01  0.00000000000E+00 0. -1.
         11    1    3    3    0    0 -0.74001172450E+01 -0.96066690316E+01  0.53571265609E+01  0.13257021927E+02  0.51100000000E-03 0. -1.
        -11    1    3    3    0    0  0.32150680752E+02 -0.15505046514E+02  0.12623531719E+02  0.37860616655E+02  0.51100000000E-03 0.  1.
        -12    1    3    3    0    0 -0.23940502898E+02  0.24431472031E+02 -0.18504055687E+02  0.38890160472E+02  0.00000000000E+00 0.  1.
</event>
<event>
 7    1  0.2682188E-015  0.9000775E+02  0.7816164E-02  0.1186339E+00
        -11   -1    0    0    0    0  0.00000000000E+00  0.00000000000E+00  0.45593999997E+02  0.45594000000E+02  0.51100000000E-03 0.  1.
         11   -1    0    0    0    0 -0.00000000000E+00 -0.00000000000E+00 -0.45593999997E+02  0.45594000000E+02  0.51100000000E-03 0. -1.
    9900012    2    1    2    0    0  0.60289507256E+00  0.93862934622E+00 -0.38532235743E+00  0.90007753908E+02  0.90000015460E+02 0.  0.
         12    1    1    2    0    0 -0.60289507256E+00 -0.93862934622E+00  0.38532235743E+00  0.11802460918E+01  0.00000000000E+00 0. -1.
         11    1    3    3    0    0 -0.77751485046E+01  0.14727221475E+02 -0.87029264517E+01  0.18790553896E+02  0.51100000000E-03 0. -1.
        -11    1    3    3    0    0  0.26419525219E+02  0.18940911031E+02 -0.16129905814E+01  0.32547675222E+02  0.51100000000E-03 0.  1.
        -12    1    3    3    0    0 -0.18041481642E+02 -0.32729503159E+02  0.99305946757E+01  0.38669524790E+02  0.00000000000E+00 0.  1.
</event>
<event>
 7    1  0.2682188E-015  0.9000783E+02  0.7816164E-02  0.1186339E+00
        -11   -1    0    0    0    0  0.00000000000E+00  0.00000000000E+00  0.45593999997E+02  0.45594000000E+02  0.51100000000E-03 0. -1.
         11   -1    0    0    0    0 -0.00000000000E+00 -0.00000000000E+00 -0.45593999997E+02  0.45594000000E+02  0.51100000000E-03 0.  1.
    9900012    2    1    2    0    0  0.57808045560E+00  0.21129470029E+00 -0.10069634085E+01  0.90007831466E+02  0.90000094041E+02 0.  0.
         12    1    1    2    0    0 -0.57808045560E+00 -0.21129470029E+00  0.10069634085E+01  0.11801685344E+01  0.00000000000E+00 0. -1.
         11    1    3    3    0    0  0.11849480433E+02  0.28755319736E+02  0.29646839860E+02  0.42967589106E+02  0.51100000000E-03 0. -1.
        -11    1    3    3    0    0 -0.82750468813E+01 -0.33366276492E+01 -0.27933602817E+01  0.93494570368E+01  0.51100000000E-03 0.  1.
        -12    1    3    3    0    0 -0.29963530964E+01 -0.25207397386E+02 -0.27860442986E+02  0.37690785323E+02  0.00000000000E+00 0.  1.
</event>
<event>
 7    1  0.2682188E-015  0.9000836E+02  0.7816164E-02  0.1186338E+00
        -11   -1    0    0    0    0  0.00000000000E+00  0.00000000000E+00  0.45593999997E+02  0.45594000000E+02  0.51100000000E-03 0. -1.
         11   -1    0    0    0    0 -0.00000000000E+00 -0.00000000000E+00 -0.45593999997E+02  0.45594000000E+02  0.51100000000E-03 0.  1.
    9900012    2    1    2    0    0  0.66082686768E-01  0.91446797471E+00  0.74225037349E+00  0.90008358438E+02  0.90000627967E+02 0.  0.
         12    1    1    2    0    0 -0.66082686768E-01 -0.91446797471E+00 -0.74225037349E+00  0.11796415622E+01  0.00000000000E+00 0. -1.
         11    1    3    3    0    0 -0.69298079767E+01 -0.16580441924E+02  0.31254058152E+02  0.36052038004E+02  0.51100000000E-03 0. -1.
        -11    1    3    3    0    0  0.10223873347E+02 -0.48538503004E+01  0.45947949090E+01  0.12214728383E+02  0.51100000000E-03 0.  1.
        -12    1    3    3    0    0 -0.32279826835E+01  0.22348760199E+02 -0.35106602688E+02  0.41741592051E+02  0.00000000000E+00 0.  1.
</event>
<event>
 7    1  0.2682188E-015  0.9000777E+02  0.7816164E-02  0.1186339E+00
        -11   -1    0    0    0    0  0.00000000000E+00  0.00000000000E+00  0.45593999997E+02  0.45594000000E+02  0.51100000000E-03 0. -1.
         11   -1    0    0    0    0 -0.00000000000E+00 -0.00000000000E+00 -0.45593999997E+02  0.45594000000E+02  0.51100000000E-03 0.  1.
    9900012    2    1    2    0    0 -0.52967786176E+00  0.10462559221E+01  0.13314845123E+00  0.90007771801E+02  0.90000033589E+02 0.  0.
         12    1    1    2    0    0  0.52967786176E+00 -0.10462559221E+01 -0.13314845123E+00  0.11802281991E+01  0.00000000000E+00 0. -1.
         11    1    3    3    0    0 -0.16751704468E+02 -0.11894935314E+02  0.25184421843E+02  0.32501756761E+02  0.51100000000E-03 0. -1.
        -11    1    3    3    0    0 -0.61822468780E+01 -0.11876111381E+02  0.31635728408E+01  0.13757557610E+02  0.51100000000E-03 0.  1.
        -12    1    3    3    0    0  0.22404273485E+02  0.24817302618E+02 -0.28214846233E+02  0.43748457430E+02  0.00000000000E+00 0.  1.
</event>
<event>
 7    1  0.2682188E-015  0.9000787E+02  0.7816164E-02  0.1186339E+00
        -11   -1    0    0    0    0  0.00000000000E+00  0.00000000000E+00  0.45593999997E+02  0.45594000000E+02  0.51100000000E-03 0.  1.
         11   -1    0    0    0    0 -0.00000000000E+00 -0.00000000000E+00 -0.45593999997E+02  0.45594000000E+02  0.51100000000E-03 0. -1.
    9900012    2    1    2    0    0  0.95563002006E+00  0.66588227275E+00  0.18991400591E+00  0.90007874894E+02  0.90000138042E+02 0.  0.
         12    1    1    2    0    0 -0.95563002006E+00 -0.66588227275E+00 -0.18991400591E+00  0.11801251061E+01  0.00000000000E+00 0. -1.
         11    1    3    3    0    0  0.17769809408E+02 -0.14689516627E+02 -0.31659372157E+02  0.39164574181E+02  0.51100000000E-03 0. -1.
        -11    1    3    3    0    0  0.50899622638E+01  0.56036746604E+01 -0.33299145686E+01  0.82702609900E+01  0.51100000000E-03 0.  1.
        -12    1    3    3    0    0 -0.21904141652E+02  0.97517242389E+01  0.35179200732E+02  0.42573039723E+02  0.00000000000E+00 0.  1.
</event>
<event>
 7    1  0.2682188E-015  0.9000767E+02  0.7816164E-02  0.1186339E+00
        -11   -1    0    0    0    0  0.00000000000E+00  0.00000000000E+00  0.45593999997E+02  0.45594000000E+02  0.51100000000E-03 0. -1.
         11   -1    0    0    0    0 -0.00000000000E+00 -0.00000000000E+00 -0.45593999997E+02  0.45594000000E+02  0.51100000000E-03 0.  1.
    9900012    2    1    2    0    0 -0.11030299838E+01  0.31973076976E+00 -0.27255339329E+00  0.90007666038E+02  0.89999926429E+02 0.  0.
         12    1    1    2    0    0  0.11030299838E+01 -0.31973076976E+00  0.27255339329E+00  0.11803339622E+01  0.00000000000E+00 0. -1.
         11    1    3    3    0    0 -0.35498022506E+02 -0.77426368195E+01 -0.60979217176E+01  0.36840774643E+02  0.51100000000E-03 0. -1.
        -11    1    3    3    0    0 -0.89150589013E+01  0.13096033891E+01  0.11968555162E+01  0.90898734665E+01  0.51100000000E-03 0.  1.
        -12    1    3    3    0    0  0.43310051423E+02  0.67527642002E+01  0.46285128082E+01  0.44077017928E+02  0.00000000000E+00 0.  1.
</event>
<event>
 7    1  0.2808836E-015  0.9000757E+02  0.7816164E-02  0.1186339E+00
        -11   -1    0    0    0    0  0.00000000000E+00  0.00000000000E+00  0.45593999997E+02  0.45594000000E+02  0.51100000000E-03 0. -1.
         11   -1    0    0    0    0 -0.00000000000E+00 -0.00000000000E+00 -0.45593999997E+02  0.45594000000E+02  0.51100000000E-03 0.  1.
    9900012    2    1    2    0    0 -0.74780523099E+00 -0.55434478978E-02 -0.91332884117E+00  0.90007570855E+02  0.89999829991E+02 0.  0.
         12    1    1    2    0    0  0.74780523099E+00  0.55434478978E-02  0.91332884117E+00  0.11804291446E+01  0.00000000000E+00 0. -1.
         11    1    3    3    0    0 -0.23143184447E+01  0.77317014448E+01  0.49980952989E+01  0.94929570721E+01  0.51100000000E-03 0. -1.
        -11    1    3    3    0    0 -0.34658862904E+02  0.11082332805E+02 -0.13837887296E+02  0.38929962796E+02  0.51100000000E-03 0.  1.
         12    1    3    3    0    0  0.36225376117E+02 -0.18819577698E+02  0.79264631563E+01  0.41584650988E+02  0.00000000000E+00 0. -1.
</event>
<event>
 7    1  0.2682188E-015  0.9000765E+02  0.7816164E-02  0.1186339E+00
        -11   -1    0    0    0    0  0.00000000000E+00  0.00000000000E+00  0.45593999997E+02  0.45594000000E+02  0.51100000000E-03 0. -1.
         11   -1    0    0    0    0 -0.00000000000E+00 -0.00000000000E+00 -0.45593999997E+02  0.45594000000E+02  0.51100000000E-03 0.  1.
    9900012    2    1    2    0    0 -0.85553377945E+00 -0.48247880779E+00 -0.65459694548E+00  0.90007652166E+02  0.89999912375E+02 0.  0.
         12    1    1    2    0    0  0.85553377945E+00  0.48247880779E+00  0.65459694548E+00  0.11803478338E+01  0.00000000000E+00 0. -1.
         11    1    3    3    0    0  0.88259295241E+01  0.52047518988E+01  0.26098521267E+01  0.10573448003E+02  0.51100000000E-03 0. -1.
        -11    1    3    3    0    0 -0.10116413926E+02 -0.29466438572E+02  0.26803026888E+02  0.41097628685E+02  0.51100000000E-03 0.  1.
         12    1    3    3    0    0  0.43495062258E+00  0.23779207866E+02 -0.30067475961E+02  0.38336575478E+02  0.00000000000E+00 0. -1.
</event>
<event>
 7    1  0.2682188E-015  0.9000743E+02  0.7816164E-02  0.1186340E+00
        -11   -1    0    0    0    0  0.00000000000E+00  0.00000000000E+00  0.45593999997E+02  0.45594000000E+02  0.51100000000E-03 0. -1.
         11   -1    0    0    0    0 -0.00000000000E+00 -0.00000000000E+00 -0.45593999997E+02  0.45594000000E+02  0.51100000000E-03 0.  1.
    9900012    2    1    2    0    0  0.12133378543E+00 -0.54851609032E+00 -0.10383452926E+01  0.90007426946E+02  0.89999684181E+02 0.  0.
         12    1    1    2    0    0 -0.12133378543E+00  0.54851609032E+00  0.10383452926E+01  0.11805730539E+01  0.00000000000E+00 0. -1.
         11    1    3    3    0    0 -0.52217618570E+01  0.62202070732E+01  0.21204598779E+01  0.83936954483E+01  0.51100000000E-03 0. -1.
        -11    1    3    3    0    0 -0.26048911552E+02 -0.27881744332E+02 -0.16400127467E+02  0.41531935197E+02  0.51100000000E-03 0.  1.
         12    1    3    3    0    0  0.31392007194E+02  0.21113021169E+02  0.13241322296E+02  0.40081796301E+02  0.00000000000E+00 0. -1.
</event>
<event>
 7    1  0.2682188E-015  0.9000772E+02  0.7816164E-02  0.1186339E+00
        -11   -1    0    0    0    0  0.00000000000E+00  0.00000000000E+00  0.45593999997E+02  0.45594000000E+02  0.51100000000E-03 0.  1.
         11   -1    0    0    0    0 -0.00000000000E+00 -0.00000000000E+00 -0.45593999997E+02  0.45594000000E+02  0.51100000000E-03 0. -1.
    9900012    2    1    2    0    0 -0.40750646770E+00 -0.82289686775E+00  0.74151254730E+00  0.90007719680E+02  0.89999980780E+02 0.  0.
         12    1    1    2    0    0  0.40750646770E+00  0.82289686775E+00 -0.74151254730E+00  0.11802803201E+01  0.00000000000E+00 0. -1.
         11    1    3    3    0    0  0.32238068842E+02 -0.50173894907E+00 -0.25208328789E+02  0.40926820854E+02  0.51100000000E-03 0. -1.
        -11    1    3    3    0    0 -0.56271111490E+01 -0.72657230018E+01 -0.22000156986E+01  0.94496126882E+01  0.51100000000E-03 0.  1.
        -12    1    3    3    0    0 -0.27018464161E+02  0.69445650832E+01  0.28149857035E+02  0.39631286137E+02  0.00000000000E+00 0.  1.
</event>
<event>
 7    1  0.2682188E-015  0.9000768E+02  0.7816164E-02  0.1186339E+00
        -11   -1    0    0    0    0  0.00000000000E+00  0.00000000000E+00  0.45593999997E+02  0.45594000000E+02  0.51100000000E-03 0.  1.
         11   -1    0    0    0    0 -0.00000000000E+00 -0.00000000000E+00 -0.45593999997E+02  0.45594000000E+02  0.51100000000E-03 0. -1.
    9900012    2    1    2    0    0  0.61252112994E+00  0.86031694171E-01  0.10052739968E+01  0.90007678266E+02  0.89999938819E+02 0.  0.
         12    1    1    2    0    0 -0.61252112994E+00 -0.86031694171E-01 -0.10052739968E+01  0.11803217340E+01  0.00000000000E+00 0. -1.
         11    1    3    3    0    0  0.30697653115E+02  0.16106776641E+02 -0.10785952390E+02  0.36305797468E+02  0.51100000000E-03 0. -1.
        -11    1    3    3    0    0  0.61419482059E+01  0.71022218659E+01  0.27438217747E+01  0.97823126810E+01  0.51100000000E-03 0.  1.
        -12    1    3    3    0    0 -0.36227080191E+02 -0.23122966813E+02  0.90474046117E+01  0.43919568117E+02  0.00000000000E+00 0.  1.
</event>
<event>
 7    1  0.2682188E-015  0.9000769E+02  0.7816164E-02  0.1186339E+00
        -11   -1    0    0    0    0  0.00000000000E+00  0.00000000000E+00  0.45593999997E+02  0.45594000000E+02  0.51100000000E-03 0. -1.
         11   -1    0    0    0    0 -0.00000000000E+00 -0.00000000000E+00 -0.45593999997E+02  0.45594000000E+02  0.51100000000E-03 0.  1.
    9900012    2    1    2    0    0 -0.44132801478E+00 -0.91905261944E+00  0.59473543085E+00  0.90007687174E+02  0.89999947845E+02 0.  0.
         12    1    1    2    0    0  0.44132801478E+00  0.91905261944E+00 -0.59473543085E+00  0.11803128258E+01  0.00000000000E+00 0. -1.
         11    1    3    3    0    0  0.21359492688E+02 -0.12805685495E+02 -0.24906935294E+02  0.35221711129E+02  0.51100000000E-03 0. -1.
        -11    1    3    3    0    0  0.64583755496E-01 -0.37467924028E+01 -0.97559485928E+01  0.10450892669E+02  0.51100000000E-03 0.  1.
        -12    1    3    3    0    0 -0.21865404458E+02  0.15633425278E+02  0.35257619317E+02  0.44335083376E+02  0.00000000000E+00 0.  1.
</event>
<event>
 7    1  0.2682188E-015  0.9000773E+02  0.7816164E-02  0.1186339E+00
        -11   -1    0    0    0    0  0.00000000000E+00  0.00000000000E+00  0.45593999997E+02  0.45594000000E+02  0.51100000000E-03 0.  1.
         11   -1    0    0    0    0 -0.00000000000E+00 -0.00000000000E+00 -0.45593999997E+02  0.45594000000E+02  0.51100000000E-03 0. -1.
    9900012    2    1    2    0    0  0.14678981241E+00 -0.88046912572E+00  0.77218640087E+00  0.90007726740E+02  0.89999987933E+02 0.  0.
         12    1    1    2    0    0 -0.14678981241E+00  0.88046912572E+00 -0.77218640087E+00  0.11802732599E+01  0.00000000000E+00 0. -1.
         11    1    3    3    0    0 -0.80168657510E+00 -0.78959175667E+01 -0.63737422409E+01  0.10179037577E+02  0.51100000000E-03 0. -1.
        -11    1    3    3    0    0 -0.14366430181E+02 -0.29775609014E+02  0.19153293487E+02  0.38207719900E+02  0.51100000000E-03 0.  1.
         12    1    3    3    0    0  0.15314906568E+02  0.36791057455E+02 -0.12007364845E+02  0.41620969263E+02  0.00000000000E+00 0. -1.
</event>
<event>
 7    1  0.2682188E-015  0.9000773E+02  0.7816164E-02  0.1186339E+00
        -11   -1    0    0    0    0  0.00000000000E+00  0.00000000000E+00  0.45593999997E+02  0.45594000000E+02  0.51100000000E-03 0.  1.
         11   -1    0    0    0    0 -0.00000000000E+00 -0.00000000000E+00 -0.45593999997E+02  0.45594000000E+02  0.51100000000E-03 0. -1.
    9900012    2    1    2    0    0 -0.26644421006E+00 -0.84021370986E+00  0.78490685504E+00  0.90007732926E+02  0.89999994200E+02 0.  0.
         12    1    1    2    0    0  0.26644421006E+00  0.84021370986E+00 -0.78490685504E+00  0.11802670742E+01  0.00000000000E+00 0. -1.
         11    1    3    3    0    0  0.65585178989E+01 -0.53036925287E+01 -0.23869461773E+01  0.87658897885E+01  0.51100000000E-03 0. -1.
        -11    1    3    3    0    0  0.59240694879E+01  0.33923557121E+02  0.24885275854E+02  0.42487401446E+02  0.51100000000E-03 0.  1.
         12    1    3    3    0    0 -0.12749031597E+02 -0.29460078302E+02 -0.21713422821E+02  0.38754441692E+02  0.00000000000E+00 0. -1.
</event>
<event>
 7    1  0.2682188E-015  0.9000756E+02  0.7816164E-02  0.1186339E+00
        -11   -1    0    0    0    0  0.00000000000E+00  0.00000000000E+00  0.45593999997E+02  0.45594000000E+02  0.51100000000E-03 0.  1.
         11   -1    0    0    0    0 -0.00000000000E+00 -0.00000000000E+00 -0.45593999997E+02  0.45594000000E+02  0.51100000000E-03 0. -1.
    9900012    2    1    2    0    0 -0.73293360170E+00  0.57366347162E-01  0.92354992930E+00  0.90007564896E+02  0.89999823953E+02 0.  0.
         12    1    1    2    0    0  0.73293360170E+00 -0.57366347162E-01 -0.92354992930E+00  0.11804351038E+01  0.00000000000E+00 0. -1.
         11    1    3    3    0    0  0.30256162078E+01  0.85730965684E+01 -0.31950135557E+01  0.96364127189E+01  0.51100000000E-03 0. -1.
        -11    1    3    3    0    0 -0.26634083088E+01  0.14094001724E+02  0.37436985437E+02  0.40090678559E+02  0.51100000000E-03 0.  1.
         12    1    3    3    0    0 -0.10951415007E+01 -0.22609731945E+02 -0.33318421952E+02  0.40280473618E+02  0.00000000000E+00 0. -1.
</event>
<event>
 7    1  0.2682188E-015  0.9000751E+02  0.7816164E-02  0.1186340E+00
        -11   -1    0    0    0    0  0.00000000000E+00  0.00000000000E+00  0.45593999997E+02  0.45594000000E+02  0.51100000000E-03 0. -1.
         11   -1    0    0    0    0 -0.00000000000E+00 -0.00000000000E+00 -0.45593999997E+02  0.45594000000E+02  0.51100000000E-03 0.  1.
    9900012    2    1    2    0    0  0.42345255700E-01  0.49370961552E+00 -0.10714569402E+01  0.90007507611E+02  0.89999765911E+02 0.  0.
         12    1    1    2    0    0 -0.42345255700E-01 -0.49370961552E+00  0.10714569402E+01  0.11804923887E+01  0.00000000000E+00 0. -1.
         11    1    3    3    0    0 -0.28675200899E+02  0.13458688603E+02  0.23656823371E+02  0.39535411188E+02  0.51100000000E-03 0. -1.
        -11    1    3    3    0    0 -0.20044172714E+01 -0.89000070833E+01  0.22368275807E+01  0.93931471067E+01  0.51100000000E-03 0.  1.
        -12    1    3    3    0    0  0.30721963426E+02 -0.40649719039E+01 -0.26965107892E+02  0.41078949317E+02  0.00000000000E+00 0.  1.
</event>
<event>
 7    1  0.2682188E-015  0.9000779E+02  0.7816164E-02  0.1186339E+00
        -11   -1    0    0    0    0  0.00000000000E+00  0.00000000000E+00  0.45593999997E+02  0.45594000000E+02  0.51100000000E-03 0.  1.
         11   -1    0    0    0    0 -0.00000000000E+00 -0.00000000000E+00 -0.45593999997E+02  0.45594000000E+02  0.51100000000E-03 0. -1.
    9900012    2    1    2    0    0  0.96056206742E+00  0.63245888097E+00  0.26498080544E+00  0.90007788769E+02  0.90000050781E+02 0.  0.
         12    1    1    2    0    0 -0.96056206742E+00 -0.63245888097E+00 -0.26498080544E+00  0.11802112306E+01  0.00000000000E+00 0. -1.
         11    1    3    3    0    0 -0.79678892264E+01 -0.34312771463E+02  0.17981511127E+02  0.39549820314E+02  0.51100000000E-03 0. -1.
        -11    1    3    3    0    0  0.40898021095E+01  0.10784699414E+01  0.70514208880E+01  0.82226586643E+01  0.51100000000E-03 0.  1.
        -12    1    3    3    0    0  0.48386491843E+01  0.33866760402E+02 -0.24767951210E+02  0.42235309792E+02  0.00000000000E+00 0.  1.
</event>
<event>
 7    1  0.2682188E-015  0.9000771E+02  0.7816164E-02  0.1186339E+00
        -11   -1    0    0    0    0  0.00000000000E+00  0.00000000000E+00  0.45593999997E+02  0.45594000000E+02  0.51100000000E-03 0.  1.
         11   -1    0    0    0    0 -0.00000000000E+00 -0.00000000000E+00 -0.45593999997E+02  0.45594000000E+02  0.51100000000E-03 0. -1.
    9900012    2    1    2    0    0  0.53686567821E-01  0.50458370221E+00  0.10656433834E+01  0.90007710722E+02  0.89999971703E+02 0.  0.
         12    1    1    2    0    0 -0.53686567821E-01 -0.50458370221E+00 -0.10656433834E+01  0.11802892784E+01  0.00000000000E+00 0. -1.
         11    1    3    3    0    0  0.24697463140E+01  0.11572884982E+02 -0.33610484161E+02  0.35632793316E+02  0.51100000000E-03 0. -1.
        -11    1    3    3    0    0 -0.51943663782E+01  0.21549350765E+01 -0.79050718434E+01  0.97013065287E+01  0.51100000000E-03 0.  1.
        -12    1    3    3    0    0  0.27783066320E+01 -0.13223236356E+02  0.42581199388E+02  0.44673610877E+02  0.00000000000E+00 0.  1.
</event>
<event>
 7    1  0.2682188E-015  0.9000745E+02  0.7816164E-02  0.1186340E+00
        -11   -1    0    0    0    0  0.00000000000E+00  0.00000000000E+00  0.45593999997E+02  0.45594000000E+02  0.51100000000E-03 0. -1.
         11   -1    0    0    0    0 -0.00000000000E+00 -0.00000000000E+00 -0.45593999997E+02  0.45594000000E+02  0.51100000000E-03 0.  1.
    9900012    2    1    2    0    0  0.57668110612E+00 -0.11250884139E+00 -0.10239490680E+01  0.90007453080E+02  0.89999710660E+02 0.  0.
         12    1    1    2    0    0 -0.57668110612E+00  0.11250884139E+00  0.10239490680E+01  0.11805469205E+01  0.00000000000E+00 0. -1.
         11    1    3    3    0    0 -0.10702251667E+02  0.58302939582E+01  0.10967769212E+01  0.12236561538E+02  0.51100000000E-03 0. -1.
        -11    1    3    3    0    0  0.28999443319E+02  0.12753015704E+02 -0.27247900118E+02  0.41785825150E+02  0.51100000000E-03 0.  1.
         12    1    3    3    0    0 -0.17720510545E+02 -0.18695818504E+02  0.25127174129E+02  0.35985066392E+02  0.00000000000E+00 0. -1.
</event>
<event>
 7    1  0.2682188E-015  0.9000770E+02  0.7816164E-02  0.1186339E+00
        -11   -1    0    0    0    0  0.00000000000E+00  0.00000000000E+00  0.45593999997E+02  0.45594000000E+02  0.51100000000E-03 0. -1.
         11   -1    0    0    0    0 -0.00000000000E+00 -0.00000000000E+00 -0.45593999997E+02  0.45594000000E+02  0.51100000000E-03 0.  1.
    9900012    2    1    2    0    0  0.10670929270E+01 -0.46434680953E+00 -0.19698376973E+00  0.90007700089E+02  0.89999960930E+02 0.  0.
         12    1    1    2    0    0 -0.10670929270E+01  0.46434680953E+00  0.19698376973E+00  0.11802999110E+01  0.00000000000E+00 0. -1.
         11    1    3    3    0    0 -0.34163183609E+02 -0.48729817049E+01 -0.12782311681E+02  0.36800224961E+02  0.51100000000E-03 0. -1.
        -11    1    3    3    0    0 -0.36996175484E+01  0.74846742255E+01 -0.56777020299E+01  0.10096723175E+02  0.51100000000E-03 0.  1.
        -12    1    3    3    0    0  0.38929894084E+02 -0.30760393301E+01  0.18263029941E+02  0.43110751954E+02  0.00000000000E+00 0.  1.
</event>
<event>
 7    1  0.2682188E-015  0.9000775E+02  0.7816164E-02  0.1186339E+00
        -11   -1    0    0    0    0  0.00000000000E+00  0.00000000000E+00  0.45593999997E+02  0.45594000000E+02  0.51100000000E-03 0. -1.
         11   -1    0    0    0    0 -0.00000000000E+00 -0.00000000000E+00 -0.45593999997E+02  0.45594000000E+02  0.51100000000E-03 0.  1.
    9900012    2    1    2    0    0  0.19680501016E+00 -0.44368475954E+00 -0.10758283270E+01  0.90007747922E+02  0.90000009395E+02 0.  0.
         12    1    1    2    0    0 -0.19680501016E+00  0.44368475954E+00  0.10758283270E+01  0.11802520778E+01  0.00000000000E+00 0. -1.
         11    1    3    3    0    0 -0.42052112772E+01  0.52375260517E+01 -0.11650439881E+02  0.13447982403E+02  0.51100000000E-03 0. -1.
        -11    1    3    3    0    0 -0.19381131608E+02  0.21841315564E+02 -0.14279130693E+02  0.32504844278E+02  0.51100000000E-03 0.  1.
         12    1    3    3    0    0  0.23783147895E+02 -0.27522526375E+02  0.24853742247E+02  0.44054921241E+02  0.00000000000E+00 0. -1.
</event>
<event>
 7    1  0.2682188E-015  0.9000761E+02  0.7816164E-02  0.1186339E+00
        -11   -1    0    0    0    0  0.00000000000E+00  0.00000000000E+00  0.45593999997E+02  0.45594000000E+02  0.51100000000E-03 0.  1.
         11   -1    0    0    0    0 -0.00000000000E+00 -0.00000000000E+00 -0.45593999997E+02  0.45594000000E+02  0.51100000000E-03 0. -1.
    9900012    2    1    2    0    0  0.10617518241E+01 -0.39997620321E+00  0.32561802731E+00  0.90007608116E+02  0.89999867743E+02 0.  0.
         12    1    1    2    0    0 -0.10617518241E+01  0.39997620321E+00 -0.32561802731E+00  0.11803918836E+01  0.00000000000E+00 0. -1.
         11    1    3    3    0    0  0.77825627723E+00  0.81602304041E+01 -0.34952786384E+02  0.35901146491E+02  0.51100000000E-03 0. -1.
        -11    1    3    3    0    0 -0.15734968121E+02 -0.40036199025E+01  0.13270263611E+01  0.16290463263E+02  0.51100000000E-03 0.  1.
        -12    1    3    3    0    0  0.16018463668E+02 -0.45565867048E+01  0.33951378050E+02  0.37815998363E+02  0.00000000000E+00 0.  1.
</event>
<event>
 7    1  0.2682188E-015  0.9000777E+02  0.7816164E-02  0.1186339E+00
        -11   -1    0    0    0    0  0.00000000000E+00  0.00000000000E+00  0.45593999997E+02  0.45594000000E+02  0.51100000000E-03 0. -1.
         11   -1    0    0    0    0 -0.00000000000E+00 -0.00000000000E+00 -0.45593999997E+02  0.45594000000E+02  0.51100000000E-03 0.  1.
    9900012    2    1    2    0    0  0.72513408107E+00  0.88958663209E+00  0.27523780886E+00  0.90007771351E+02  0.90000033133E+02 0.  0.
         12    1    1    2    0    0 -0.72513408107E+00 -0.88958663209E+00 -0.27523780886E+00  0.11802286486E+01  0.00000000000E+00 0. -1.
         11    1    3    3    0    0  0.79411356829E+01  0.21931358667E+01  0.33371935008E+01  0.88886636558E+01  0.51100000000E-03 0. -1.
        -11    1    3    3    0    0  0.31776855506E+02  0.94729372299E+01 -0.18319597839E+02  0.37882882029E+02  0.51100000000E-03 0.  1.
         12    1    3    3    0    0 -0.38992857108E+02 -0.10776486464E+02  0.15257642147E+02  0.43236225666E+02  0.00000000000E+00 0. -1.
</event>
<event>
 7    1  0.2682188E-015  0.9000774E+02  0.7816164E-02  0.1186339E+00
        -11   -1    0    0    0    0  0.00000000000E+00  0.00000000000E+00  0.45593999997E+02  0.45594000000E+02  0.51100000000E-03 0.  1.
         11   -1    0    0    0    0 -0.00000000000E+00 -0.00000000000E+00 -0.45593999997E+02  0.45594000000E+02  0.51100000000E-03 0. -1.
    9900012    2    1    2    0    0  0.10347733514E+01  0.19270200352E-01  0.56734257073E+00  0.90007743747E+02  0.90000005165E+02 0.  0.
         12    1    1    2    0    0 -0.10347733514E+01 -0.19270200352E-01 -0.56734257073E+00  0.11802562526E+01  0.00000000000E+00 0. -1.
         11    1    3    3    0    0 -0.67326941020E+00 -0.97876864464E+01  0.42950315981E+01  0.10709780313E+02  0.51100000000E-03 0. -1.
        -11    1    3    3    0    0  0.16208728338E+02 -0.90851091607E+01  0.31620291264E+02  0.36675671809E+02  0.51100000000E-03 0.  1.
         12    1    3    3    0    0 -0.14500685576E+02  0.18892065807E+02 -0.35347980291E+02  0.42622291625E+02  0.00000000000E+00 0. -1.
</event>
<event>
 7    1  0.2682188E-015  0.9000789E+02  0.7816164E-02  0.1186339E+00
        -11   -1    0    0    0    0  0.00000000000E+00  0.00000000000E+00  0.45593999997E+02  0.45594000000E+02  0.51100000000E-03 0.  1.
         11   -1    0    0    0    0 -0.00000000000E+00 -0.00000000000E+00 -0.45593999997E+02  0.45594000000E+02  0.51100000000E-03 0. -1.
    9900012    2    1    2    0    0 -0.28158257606E+00  0.79706669125E+00  0.82344216244E+00  0.90007889390E+02  0.90000152730E+02 0.  0.
         12    1    1    2    0    0  0.28158257606E+00 -0.79706669125E+00 -0.82344216244E+00  0.11801106102E+01  0.00000000000E+00 0. -1.
         11    1    3    3    0    0  0.18088866904E+02  0.29016025208E+02 -0.14533851322E+02  0.37153326356E+02  0.51100000000E-03 0. -1.
        -11    1    3    3    0    0  0.86398361749E+01  0.29110933782E+01  0.83035666377E+00  0.91548198363E+01  0.51100000000E-03 0.  1.
        -12    1    3    3    0    0 -0.27010285655E+02 -0.31130051895E+02  0.14526936821E+02  0.43699743198E+02  0.00000000000E+00 0.  1.
</event>
<event>
 7    1  0.2682188E-015  0.9000783E+02  0.7816164E-02  0.1186339E+00
        -11   -1    0    0    0    0  0.00000000000E+00  0.00000000000E+00  0.45593999997E+02  0.45594000000E+02  0.51100000000E-03 0. -1.
         11   -1    0    0    0    0 -0.00000000000E+00 -0.00000000000E+00 -0.45593999997E+02  0.45594000000E+02  0.51100000000E-03 0.  1.
    9900012    2    1    2    0    0 -0.52898045540E+00  0.19221438161E+00 -0.10373234257E+01  0.90007827733E+02  0.90000090259E+02 0.  0.
         12    1    1    2    0    0  0.52898045540E+00 -0.19221438161E+00  0.10373234257E+01  0.11801722672E+01  0.00000000000E+00 0. -1.
         11    1    3    3    0    0  0.17223496555E+01 -0.92836539218E+00 -0.13855541483E+02  0.13993011852E+02  0.51100000000E-03 0. -1.
        -11    1    3    3    0    0  0.18369734019E+02 -0.28486886664E+02 -0.73440859407E+01  0.34682638861E+02  0.51100000000E-03 0.  1.
         12    1    3    3    0    0 -0.20621064130E+02  0.29607466438E+02  0.20162303998E+02  0.41332177020E+02  0.00000000000E+00 0. -1.
</event>
<event>
 7    1  0.2682188E-015  0.9000807E+02  0.7816164E-02  0.1186338E+00
        -11   -1    0    0    0    0  0.00000000000E+00  0.00000000000E+00  0.45593999997E+02  0.45594000000E+02  0.51100000000E-03 0.  1.
         11   -1    0    0    0    0 -0.00000000000E+00 -0.00000000000E+00 -0.45593999997E+02  0.45594000000E+02  0.51100000000E-03 0. -1.
    9900012    2    1    2    0    0  0.63696783282E+00  0.99183118877E+00 -0.52724748311E-01  0.90008069059E+02  0.90000334770E+02 0.  0.
         12    1    1    2    0    0 -0.63696783282E+00 -0.99183118877E+00  0.52724748311E-01  0.11799309413E+01  0.00000000000E+00 0. -1.
         11    1    3    3    0    0  0.14741813192E+02  0.30616645655E+02 -0.73511284620E+01  0.34766925910E+02  0.51100000000E-03 0. -1.
        -11    1    3    3    0    0  0.13474821862E+02  0.63620793195E+00 -0.76387604528E+00  0.13511442988E+02  0.51100000000E-03 0.  1.
        -12    1    3    3    0    0 -0.27579667221E+02 -0.30261022398E+02  0.80622797589E+01  0.41729700161E+02  0.00000000000E+00 0.  1.
</event>
<event>
 7    1  0.2682188E-015  0.9000774E+02  0.7816164E-02  0.1186339E+00
        -11   -1    0    0    0    0  0.00000000000E+00  0.00000000000E+00  0.45593999997E+02  0.45594000000E+02  0.51100000000E-03 0. -1.
         11   -1    0    0    0    0 -0.00000000000E+00 -0.00000000000E+00 -0.45593999997E+02  0.45594000000E+02  0.51100000000E-03 0.  1.
    9900012    2    1    2    0    0  0.81001016700E+00  0.39567549175E+00 -0.76179858681E+00  0.90007740430E+02  0.90000001804E+02 0.  0.
         12    1    1    2    0    0 -0.81001016700E+00 -0.39567549175E+00  0.76179858681E+00  0.11802595699E+01  0.00000000000E+00 0. -1.
         11    1    3    3    0    0 -0.80046668176E+01  0.11196809424E+02  0.35185160692E+02  0.37781460603E+02  0.51100000000E-03 0. -1.
        -11    1    3    3    0    0 -0.93286725980E+01 -0.49985894623E+00  0.14003150734E+01  0.94464212256E+01  0.51100000000E-03 0.  1.
        -12    1    3    3    0    0  0.18143349583E+02 -0.10301274986E+02 -0.37347274352E+02  0.42779858601E+02  0.00000000000E+00 0.  1.
</event>
<event>
 7    1  0.2682188E-015  0.9000772E+02  0.7816164E-02  0.1186339E+00
        -11   -1    0    0    0    0  0.00000000000E+00  0.00000000000E+00  0.45593999997E+02  0.45594000000E+02  0.51100000000E-03 0.  1.
         11   -1    0    0    0    0 -0.00000000000E+00 -0.00000000000E+00 -0.45593999997E+02  0.45594000000E+02  0.51100000000E-03 0. -1.
    9900012    2    1    2    0    0 -0.71663629892E+00  0.49890716135E+00  0.79408636292E+00  0.90007724993E+02  0.89999986163E+02 0.  0.
         12    1    1    2    0    0  0.71663629892E+00 -0.49890716135E+00 -0.79408636292E+00  0.11802750071E+01  0.00000000000E+00 0. -1.
         11    1    3    3    0    0 -0.97759769531E+01  0.17128643658E+00 -0.89629756585E+00  0.98184731002E+01  0.51100000000E-03 0. -1.
        -11    1    3    3    0    0 -0.28201211340E+02  0.18645928018E+02 -0.12892460140E+02  0.36182792615E+02  0.51100000000E-03 0.  1.
         12    1    3    3    0    0  0.37260551995E+02 -0.18318307293E+02  0.14582844069E+02  0.44006459278E+02  0.00000000000E+00 0. -1.
</event>
<event>
 7    1  0.3536117E-015  0.9000783E+02  0.7816164E-02  0.1186339E+00
        -11   -1    0    0    0    0  0.00000000000E+00  0.00000000000E+00  0.45593999997E+02  0.45594000000E+02  0.51100000000E-03 0.  1.
         11   -1    0    0    0    0 -0.00000000000E+00 -0.00000000000E+00 -0.45593999997E+02  0.45594000000E+02  0.51100000000E-03 0. -1.
    9900012    2    1    2    0    0  0.80239107581E+00 -0.25720948415E+00  0.82631820818E+00  0.90007834783E+02  0.90000097402E+02 0.  0.
         12    1    1    2    0    0 -0.80239107581E+00  0.25720948415E+00 -0.82631820818E+00  0.11801652166E+01  0.00000000000E+00 0. -1.
         11    1    3    3    0    0  0.51615890252E+01 -0.25061984243E+00 -0.84515466088E+01  0.99062329830E+01  0.51100000000E-03 0. -1.
        -11    1    3    3    0    0  0.11292649037E+02  0.25856096080E+02  0.31719425913E+02  0.42452133129E+02  0.51100000000E-03 0.  1.
         12    1    3    3    0    0 -0.15651846986E+02 -0.25862685721E+02 -0.22441561096E+02  0.37649468671E+02  0.00000000000E+00 0. -1.
</event>
<event>
 7    1  0.2682188E-015  0.9000765E+02  0.7816164E-02  0.1186339E+00
        -11   -1    0    0    0    0  0.00000000000E+00  0.00000000000E+00  0.45593999997E+02  0.45594000000E+02  0.51100000000E-03 0.  1.
         11   -1    0    0    0    0 -0.00000000000E+00 -0.00000000000E+00 -0.45593999997E+02  0.45594000000E+02  0.51100000000E-03 0. -1.
    9900012    2    1    2    0    0 -0.56178789345E+00  0.87061202093E+00  0.56538892487E+00  0.90007646000E+02  0.89999906127E+02 0.  0.
         12    1    1    2    0    0  0.56178789345E+00 -0.87061202093E+00 -0.56538892487E+00  0.11803539997E+01  0.00000000000E+00 0. -1.
         11    1    3    3    0    0 -0.72447409186E+01  0.84842438510E+01 -0.50989530077E+01  0.12266539314E+02  0.51100000000E-03 0. -1.
        -11    1    3    3    0    0 -0.23484278096E+02 -0.28893918034E+02 -0.85130599520E+01  0.38194790313E+02  0.51100000000E-03 0.  1.
         12    1    3    3    0    0  0.30167231122E+02  0.21280286204E+02  0.14177401885E+02  0.39546316373E+02  0.00000000000E+00 0. -1.
</event>
<event>
 7    1  0.2682188E-015  0.9000669E+02  0.7816164E-02  0.1186341E+00
        -11   -1    0    0    0    0  0.00000000000E+00  0.00000000000E+00  0.45593999997E+02  0.45594000000E+02  0.51100000000E-03 0.  1.
         11   -1    0    0    0    0 -0.00000000000E+00 -0.00000000000E+00 -0.45593999997E+02  0.45594000000E+02  0.51100000000E-03 0. -1.
    9900012    2    1    2    0    0 -0.12943634989E+00 -0.10051526552E+01  0.60696666320E+00  0.90006689643E+02  0.89998937140E+02 0.  0.
         12    1    1    2    0    0  0.12943634989E+00  0.10051526552E+01 -0.60696666320E+00  0.11813103568E+01  0.00000000000E+00 0. -1.
         11    1    3    3    0    0  0.35063451398E+00 -0.46766352641E+01  0.79008202304E+01  0.91878627836E+01  0.51100000000E-03 0. -1.
        -11    1    3    3    0    0  0.26743034362E+02 -0.24615108849E+02  0.10329520665E+02  0.37786141215E+02  0.51100000000E-03 0.  1.
         12    1    3    3    0    0 -0.27223105226E+02  0.28286591458E+02 -0.17623374232E+02  0.43032685644E+02  0.00000000000E+00 0. -1.
</event>
<event>
 7    1  0.2682188E-015  0.9000824E+02  0.7816164E-02  0.1186338E+00
        -11   -1    0    0    0    0  0.00000000000E+00  0.00000000000E+00  0.45593999997E+02  0.45594000000E+02  0.51100000000E-03 0.  1.
         11   -1    0    0    0    0 -0.00000000000E+00 -0.00000000000E+00 -0.45593999997E+02  0.45594000000E+02  0.51100000000E-03 0. -1.
    9900012    2    1    2    0    0 -0.45243835510E-01 -0.93511245616E+00  0.71788081605E+00  0.90008239356E+02  0.90000507314E+02 0.  0.
         12    1    1    2    0    0  0.45243835510E-01  0.93511245616E+00 -0.71788081605E+00  0.11797606437E+01  0.00000000000E+00 0. -1.
         11    1    3    3    0    0 -0.34491720333E+02 -0.20060094124E+02 -0.35552630586E+01  0.40059031984E+02  0.51100000000E-03 0. -1.
        -11    1    3    3    0    0  0.32812763666E+01 -0.64336133401E+01  0.63131377721E+01  0.95923857301E+01  0.51100000000E-03 0.  1.
        -12    1    3    3    0    0  0.31165200131E+02  0.25558595008E+02 -0.20399938975E+01  0.40356821642E+02  0.00000000000E+00 0.  1.
</event>
<event>
 7    1  0.2682188E-015  0.9000779E+02  0.7816164E-02  0.1186339E+00
        -11   -1    0    0    0    0  0.00000000000E+00  0.00000000000E+00  0.45593999997E+02  0.45594000000E+02  0.51100000000E-03 0. -1.
         11   -1    0    0    0    0 -0.00000000000E+00 -0.00000000000E+00 -0.45593999997E+02  0.45594000000E+02  0.51100000000E-03 0.  1.
    9900012    2    1    2    0    0  0.14343725268E+00  0.10836491741E+01 -0.44501281321E+00  0.90007785536E+02  0.90000047505E+02 0.  0.
         12    1    1    2    0    0 -0.14343725268E+00 -0.10836491741E+01  0.44501281321E+00  0.11802144644E+01  0.00000000000E+00 0. -1.
         11    1    3    3    0    0  0.16272641125E+02  0.14238054208E+02  0.28637129101E+02  0.35883230070E+02  0.51100000000E-03 0. -1.
        -11    1    3    3    0    0  0.43414786496E+01 -0.61056578481E+01  0.81406328628E+01  0.11063335767E+02  0.51100000000E-03 0.  1.
        -12    1    3    3    0    0 -0.20470682522E+02 -0.70487471856E+01 -0.37222774777E+02  0.43061219699E+02  0.00000000000E+00 0.  1.
</event>
<event>
 7    1  0.2682188E-015  0.9000769E+02  0.7816164E-02  0.1186339E+00
        -11   -1    0    0    0    0  0.00000000000E+00  0.00000000000E+00  0.45593999997E+02  0.45594000000E+02  0.51100000000E-03 0. -1.
         11   -1    0    0    0    0 -0.00000000000E+00 -0.00000000000E+00 -0.45593999997E+02  0.45594000000E+02  0.51100000000E-03 0.  1.
    9900012    2    1    2    0    0 -0.50051919167E+00  0.92916910484E+00  0.52845844118E+00  0.90007685207E+02  0.89999945852E+02 0.  0.
         12    1    1    2    0    0  0.50051919167E+00 -0.92916910484E+00 -0.52845844118E+00  0.11803147930E+01  0.00000000000E+00 0. -1.
         11    1    3    3    0    0 -0.16717145239E+02 -0.21147663297E+02  0.27376438981E+02  0.38420775882E+02  0.51100000000E-03 0. -1.
        -11    1    3    3    0    0  0.14813110788E+01 -0.45405962317E+01  0.54292944099E+01  0.72310811572E+01  0.51100000000E-03 0.  1.
        -12    1    3    3    0    0  0.14735314969E+02  0.26617428633E+02 -0.32277274949E+02  0.44355828168E+02  0.00000000000E+00 0.  1.
</event>
<event>
 7    1  0.2682188E-015  0.9000651E+02  0.7816164E-02  0.1186342E+00
        -11   -1    0    0    0    0  0.00000000000E+00  0.00000000000E+00  0.45593999997E+02  0.45594000000E+02  0.51100000000E-03 0. -1.
         11   -1    0    0    0    0 -0.00000000000E+00 -0.00000000000E+00 -0.45593999997E+02  0.45594000000E+02  0.51100000000E-03 0.  1.
    9900012    2    1    2    0    0 -0.79526957515E+00  0.87335067583E+00 -0.27106841421E-01  0.90006505234E+02  0.89998750295E+02 0.  0.
         12    1    1    2    0    0  0.79526957515E+00 -0.87335067583E+00  0.27106841421E-01  0.11814947655E+01  0.00000000000E+00 0. -1.
         11    1    3    3    0    0 -0.85203601617E+01  0.10817556908E+00  0.17021758021E+01  0.86893982508E+01  0.51100000000E-03 0. -1.
        -11    1    3    3    0    0 -0.16411408623E+02 -0.13957824949E+02 -0.32841681271E+02  0.39277617535E+02  0.51100000000E-03 0.  1.
         12    1    3    3    0    0  0.24136499210E+02  0.14723000056E+02  0.31112398627E+02  0.42039489448E+02  0.00000000000E+00 0. -1.
</event>
<event>
 7    1  0.2682188E-015  0.9000769E+02  0.7816164E-02  0.1186339E+00
        -11   -1    0    0    0    0  0.00000000000E+00  0.00000000000E+00  0.45593999997E+02  0.45594000000E+02  0.51100000000E-03 0.  1.
         11   -1    0    0    0    0 -0.00000000000E+00 -0.00000000000E+00 -0.45593999997E+02  0.45594000000E+02  0.51100000000E-03 0. -1.
    9900012    2    1    2    0    0  0.93674987357E+00 -0.49491184232E+00  0.52028158782E+00  0.90007690300E+02  0.89999951012E+02 0.  0.
         12    1    1    2    0    0 -0.93674987357E+00  0.49491184232E+00 -0.52028158782E+00  0.11803097000E+01  0.00000000000E+00 0. -1.
         11    1    3    3    0    0 -0.68963410772E+01 -0.91901445616E+01 -0.77734800011E+00  0.11516186326E+02  0.51100000000E-03 0. -1.
        -11    1    3    3    0    0 -0.33628019462E+02 -0.46949363165E+01  0.66340654203E+01  0.34596198407E+02  0.51100000000E-03 0.  1.
         12    1    3    3    0    0  0.41461110413E+02  0.13390169036E+02 -0.53364358324E+01  0.43895305567E+02  0.00000000000E+00 0. -1.
</event>
<event>
 7    1  0.2682188E-015  0.9000770E+02  0.7816164E-02  0.1186339E+00
        -11   -1    0    0    0    0  0.00000000000E+00  0.00000000000E+00  0.45593999997E+02  0.45594000000E+02  0.51100000000E-03 0.  1.
         11   -1    0    0    0    0 -0.00000000000E+00 -0.00000000000E+00 -0.45593999997E+02  0.45594000000E+02  0.51100000000E-03 0. -1.
    9900012    2    1    2    0    0 -0.13217181532E-01  0.39818863738E+00  0.11110219373E+01  0.90007704007E+02  0.89999964900E+02 0.  0.
         12    1    1    2    0    0  0.13217181532E-01 -0.39818863738E+00 -0.11110219373E+01  0.11802959925E+01  0.00000000000E+00 0. -1.
         11    1    3    3    0    0 -0.71563377262E+01 -0.21957796187E+01  0.53521209926E+01  0.92021637220E+01  0.51100000000E-03 0. -1.
        -11    1    3    3    0    0  0.39791609092E+02 -0.15902270885E+02  0.13202423755E+01  0.42871872057E+02  0.51100000000E-03 0.  1.
         12    1    3    3    0    0 -0.32648488548E+02  0.18496239141E+02 -0.55613414308E+01  0.37933668229E+02  0.00000000000E+00 0. -1.
</event>
<event>
 7    1  0.2682188E-015  0.9000793E+02  0.7816164E-02  0.1186339E+00
        -11   -1    0    0    0    0  0.00000000000E+00  0.00000000000E+00  0.45593999997E+02  0.45594000000E+02  0.51100000000E-03 0.  1.
         11   -1    0    0    0    0 -0.00000000000E+00 -0.00000000000E+00 -0.45593999997E+02  0.45594000000E+02  0.51100000000E-03 0. -1.
    9900012    2    1    2    0    0  0.26166982606E-02  0.11597233530E+01  0.21816893926E+00  0.90007931024E+02  0.90000194913E+02 0.  0.
         12    1    1    2    0    0 -0.26166982606E-02 -0.11597233530E+01 -0.21816893926E+00  0.11800689762E+01  0.00000000000E+00 0. -1.
         11    1    3    3    0    0 -0.11036459251E+02 -0.14429823789E+01 -0.37137777081E+02  0.38769835153E+02  0.51100000000E-03 0. -1.
        -11    1    3    3    0    0  0.17250598839E+02 -0.70740819140E+01  0.91306887734E+01  0.20760425645E+02  0.51100000000E-03 0.  1.
        -12    1    3    3    0    0 -0.62115228895E+01  0.96767876459E+01  0.28225257247E+02  0.30477670226E+02  0.00000000000E+00 0.  1.
</event>
<event>
 7    1  0.2682188E-015  0.9000749E+02  0.7816164E-02  0.1186340E+00
        -11   -1    0    0    0    0  0.00000000000E+00  0.00000000000E+00  0.45593999997E+02  0.45594000000E+02  0.51100000000E-03 0.  1.
         11   -1    0    0    0    0 -0.00000000000E+00 -0.00000000000E+00 -0.45593999997E+02  0.45594000000E+02  0.51100000000E-03 0. -1.
    9900012    2    1    2    0    0 -0.70130465293E+00 -0.12886698927E+00  0.94083155872E+00  0.90007492084E+02  0.89999750179E+02 0.  0.
         12    1    1    2    0    0  0.70130465293E+00  0.12886698927E+00 -0.94083155872E+00  0.11805079157E+01  0.00000000000E+00 0. -1.
         11    1    3    3    0    0  0.10818147275E+02 -0.56532196658E+01  0.89778623853E+01  0.15152333692E+02  0.51100000000E-03 0. -1.
        -11    1    3    3    0    0 -0.33045540702E+02 -0.44171421498E+01  0.19415276164E+02  0.38580718680E+02  0.51100000000E-03 0.  1.
         12    1    3    3    0    0  0.21526088775E+02  0.99414948264E+01 -0.27452306991E+02  0.36274439712E+02  0.00000000000E+00 0. -1.
</event>
<event>
 7    1  0.2682188E-015  0.9000792E+02  0.7816164E-02  0.1186339E+00
        -11   -1    0    0    0    0  0.00000000000E+00  0.00000000000E+00  0.45593999997E+02  0.45594000000E+02  0.51100000000E-03 0. -1.
         11   -1    0    0    0    0 -0.00000000000E+00 -0.00000000000E+00 -0.45593999997E+02  0.45594000000E+02  0.51100000000E-03 0.  1.
    9900012    2    1    2    0    0  0.27822629169E+00  0.10743815972E+01  0.40110430374E+00  0.90007919347E+02  0.90000183082E+02 0.  0.
         12    1    1    2    0    0 -0.27822629169E+00 -0.10743815972E+01 -0.40110430374E+00  0.11800806533E+01  0.00000000000E+00 0. -1.
         11    1    3    3    0    0 -0.15547117858E+02 -0.13948883118E+02  0.31982600846E+02  0.38199096469E+02  0.51100000000E-03 0. -1.
        -11    1    3    3    0    0 -0.94237003061E+01  0.37257332526E+01 -0.42131457610E+00  0.10142224705E+02  0.51100000000E-03 0.  1.
        -12    1    3    3    0    0  0.25249044456E+02  0.11297531463E+02 -0.31160181966E+02  0.41666598173E+02  0.00000000000E+00 0.  1.
</event>
<event>
 7    1  0.2682188E-015  0.9000773E+02  0.7816164E-02  0.1186339E+00
        -11   -1    0    0    0    0  0.00000000000E+00  0.00000000000E+00  0.45593999997E+02  0.45594000000E+02  0.51100000000E-03 0.  1.
         11   -1    0    0    0    0 -0.00000000000E+00 -0.00000000000E+00 -0.45593999997E+02  0.45594000000E+02  0.51100000000E-03 0. -1.
    9900012    2    1    2    0    0  0.69630782983E+00  0.60138501738E+00  0.73928246877E+00  0.90007725836E+02  0.89999987017E+02 0.  0.
         12    1    1    2    0    0 -0.69630782983E+00 -0.60138501738E+00 -0.73928246877E+00  0.11802741638E+01  0.00000000000E+00 0. -1.
         11    1    3    3    0    0  0.44253169568E+01  0.77729614941E+01 -0.52991464379E+00  0.89600876305E+01  0.51100000000E-03 0. -1.
        -11    1    3    3    0    0 -0.12152717398E+02  0.34731389957E+02 -0.71516467251E+01  0.37484717414E+02  0.51100000000E-03 0.  1.
         12    1    3    3    0    0  0.84237082712E+01 -0.41902966433E+02  0.84208438376E+01  0.43562920792E+02  0.00000000000E+00 0. -1.
</event>
<event>
 7    1  0.2682188E-015  0.9000765E+02  0.7816164E-02  0.1186339E+00
        -11   -1    0    0    0    0  0.00000000000E+00  0.00000000000E+00  0.45593999997E+02  0.45594000000E+02  0.51100000000E-03 0.  1.
         11   -1    0    0    0    0 -0.00000000000E+00 -0.00000000000E+00 -0.45593999997E+02  0.45594000000E+02  0.51100000000E-03 0. -1.
    9900012    2    1    2    0    0  0.10614983868E+01  0.40055975267E+00 -0.32557127556E+00  0.90007651070E+02  0.89999911264E+02 0.  0.
         12    1    1    2    0    0 -0.10614983868E+01 -0.40055975267E+00  0.32557127556E+00  0.11803489298E+01  0.00000000000E+00 0. -1.
         11    1    3    3    0    0  0.80406168623E+01  0.50264844632E+01  0.53058070205E+01  0.10865940087E+02  0.51100000000E-03 0. -1.
        -11    1    3    3    0    0  0.30611292898E+02 -0.39083160572E+01  0.17026107266E+02  0.35245063714E+02  0.51100000000E-03 0.  1.
         12    1    3    3    0    0 -0.37590411374E+02 -0.71760865331E+00 -0.22657485562E+02  0.43896647269E+02  0.00000000000E+00 0. -1.
</event>
<event>
 7    1  0.2682188E-015  0.9000781E+02  0.7816164E-02  0.1186339E+00
        -11   -1    0    0    0    0  0.00000000000E+00  0.00000000000E+00  0.45593999997E+02  0.45594000000E+02  0.51100000000E-03 0. -1.
         11   -1    0    0    0    0 -0.00000000000E+00 -0.00000000000E+00 -0.45593999997E+02  0.45594000000E+02  0.51100000000E-03 0.  1.
    9900012    2    1    2    0    0  0.41857842521E+00 -0.36825585510E+00 -0.10402017382E+01  0.90007813604E+02  0.90000075944E+02 0.  0.
         12    1    1    2    0    0 -0.41857842521E+00  0.36825585510E+00  0.10402017382E+01  0.11801863959E+01  0.00000000000E+00 0. -1.
         11    1    3    3    0    0  0.46460704864E+01 -0.57586234222E+01 -0.50351097104E+01  0.89498628336E+01  0.51100000000E-03 0. -1.
        -11    1    3    3    0    0  0.11517669935E+02 -0.34900614529E+02 -0.43292459476E+01  0.37006107415E+02  0.51100000000E-03 0.  1.
         12    1    3    3    0    0 -0.15745161996E+02  0.40290982096E+02  0.83241539198E+01  0.44051843356E+02  0.00000000000E+00 0. -1.
</event>
<event>
 7    1  0.2682188E-015  0.9000757E+02  0.7816164E-02  0.1186339E+00
        -11   -1    0    0    0    0  0.00000000000E+00  0.00000000000E+00  0.45593999997E+02  0.45594000000E+02  0.51100000000E-03 0. -1.
         11   -1    0    0    0    0 -0.00000000000E+00 -0.00000000000E+00 -0.45593999997E+02  0.45594000000E+02  0.51100000000E-03 0.  1.
    9900012    2    1    2    0    0 -0.49491809770E-02 -0.69872479208E+00  0.95140906467E+00  0.90007567860E+02  0.89999826955E+02 0.  0.
         12    1    1    2    0    0  0.49491809770E-02  0.69872479208E+00 -0.95140906467E+00  0.11804321403E+01  0.00000000000E+00 0. -1.
         11    1    3    3    0    0  0.37805780171E+02  0.19895375341E+02  0.38911069198E+01  0.42898061583E+02  0.51100000000E-03 0. -1.
        -11    1    3    3    0    0 -0.26944178094E+01 -0.93037201795E+01 -0.32645966588E+01  0.10221383865E+02  0.51100000000E-03 0.  1.
        -12    1    3    3    0    0 -0.35116311542E+02 -0.11290379953E+02  0.32489880367E+00  0.36888122412E+02  0.00000000000E+00 0.  1.
</event>
<event>
 7    1  0.2682188E-015  0.9000784E+02  0.7816164E-02  0.1186339E+00
        -11   -1    0    0    0    0  0.00000000000E+00  0.00000000000E+00  0.45593999997E+02  0.45594000000E+02  0.51100000000E-03 0. -1.
         11   -1    0    0    0    0 -0.00000000000E+00 -0.00000000000E+00 -0.45593999997E+02  0.45594000000E+02  0.51100000000E-03 0.  1.
    9900012    2    1    2    0    0 -0.64312789002E+00 -0.92063777361E+00 -0.36276951593E+00  0.90007835132E+02  0.90000097756E+02 0.  0.
         12    1    1    2    0    0  0.64312789002E+00  0.92063777361E+00  0.36276951593E+00  0.11801648676E+01  0.00000000000E+00 0. -1.
         11    1    3    3    0    0 -0.18668246860E+02  0.19345450836E+02  0.26843347459E+02  0.37990988562E+02  0.51100000000E-03 0. -1.
        -11    1    3    3    0    0  0.14895908891E+02  0.32372505665E+01  0.86965621831E+00  0.15268405126E+02  0.51100000000E-03 0.  1.
        -12    1    3    3    0    0  0.31292100797E+01 -0.23503339176E+02 -0.28075773193E+02  0.36748441444E+02  0.00000000000E+00 0.  1.
</event>
<event>
 7    1  0.2682188E-015  0.9000777E+02  0.7816164E-02  0.1186339E+00
        -11   -1    0    0    0    0  0.00000000000E+00  0.00000000000E+00  0.45593999997E+02  0.45594000000E+02  0.51100000000E-03 0.  1.
         11   -1    0    0    0    0 -0.00000000000E+00 -0.00000000000E+00 -0.45593999997E+02  0.45594000000E+02  0.51100000000E-03 0. -1.
    9900012    2    1    2    0    0  0.71869553506E+00 -0.10481932530E-01  0.93611181472E+00  0.90007771856E+02  0.90000033644E+02 0.  0.
         12    1    1    2    0    0 -0.71869553506E+00  0.10481932530E-01 -0.93611181472E+00  0.11802281443E+01  0.00000000000E+00 0. -1.
         11    1    3    3    0    0 -0.16738709382E+02  0.30264771482E+02 -0.14512192089E+02  0.37506592809E+02  0.51100000000E-03 0. -1.
        -11    1    3    3    0    0 -0.44110081486E+01 -0.69372821217E+00 -0.77971112640E+01  0.89851653320E+01  0.51100000000E-03 0.  1.
        -12    1    3    3    0    0  0.21868413065E+02 -0.29581525203E+02  0.23245415167E+02  0.43516013715E+02  0.00000000000E+00 0.  1.
</event>
<event>
 7    1  0.2682188E-015  0.9000774E+02  0.7816164E-02  0.1186339E+00
        -11   -1    0    0    0    0  0.00000000000E+00  0.00000000000E+00  0.45593999997E+02  0.45594000000E+02  0.51100000000E-03 0. -1.
         11   -1    0    0    0    0 -0.00000000000E+00 -0.00000000000E+00 -0.45593999997E+02  0.45594000000E+02  0.51100000000E-03 0.  1.
    9900012    2    1    2    0    0 -0.26667186300E+00  0.35754472145E+00 -0.10927319658E+01  0.90007739326E+02  0.90000000685E+02 0.  0.
         12    1    1    2    0    0  0.26667186300E+00 -0.35754472145E+00  0.10927319658E+01  0.11802606744E+01  0.00000000000E+00 0. -1.
         11    1    3    3    0    0  0.62224590481E+01  0.29386114340E+01  0.30533454166E+01  0.75284362426E+01  0.51100000000E-03 0. -1.
        -11    1    3    3    0    0  0.56008124526E+01  0.34799875503E+02 -0.19518946995E+02  0.40291310815E+02  0.51100000000E-03 0.  1.
         12    1    3    3    0    0 -0.12089943364E+02 -0.37380942216E+02  0.15372869613E+02  0.42187992268E+02  0.00000000000E+00 0. -1.
</event>
<event>
 7    1  0.2682188E-015  0.9000757E+02  0.7816164E-02  0.1186339E+00
        -11   -1    0    0    0    0  0.00000000000E+00  0.00000000000E+00  0.45593999997E+02  0.45594000000E+02  0.51100000000E-03 0. -1.
         11   -1    0    0    0    0 -0.00000000000E+00 -0.00000000000E+00 -0.45593999997E+02  0.45594000000E+02  0.51100000000E-03 0.  1.
    9900012    2    1    2    0    0 -0.94935665775E+00  0.68165976311E+00 -0.16577353746E+00  0.90007568315E+02  0.89999827417E+02 0.  0.
         12    1    1    2    0    0  0.94935665775E+00 -0.68165976311E+00  0.16577353746E+00  0.11804316846E+01  0.00000000000E+00 0. -1.
         11    1    3    3    0    0  0.36143771276E+01 -0.80033427712E+01 -0.82865468359E+00  0.88206511313E+01  0.51100000000E-03 0. -1.
        -11    1    3    3    0    0  0.33607473270E+02 -0.14081142162E+02 -0.31778944144E+01  0.36576492962E+02  0.51100000000E-03 0.  1.
         12    1    3    3    0    0 -0.38171207056E+02  0.22766144696E+02  0.38407755605E+01  0.44610424223E+02  0.00000000000E+00 0. -1.
</event>
<event>
 7    1  0.2682188E-015  0.9000771E+02  0.7816164E-02  0.1186339E+00
        -11   -1    0    0    0    0  0.00000000000E+00  0.00000000000E+00  0.45593999997E+02  0.45594000000E+02  0.51100000000E-03 0.  1.
         11   -1    0    0    0    0 -0.00000000000E+00 -0.00000000000E+00 -0.45593999997E+02  0.45594000000E+02  0.51100000000E-03 0. -1.
    9900012    2    1    2    0    0  0.45051384044E+00  0.32820784291E+00  0.10403819714E+01  0.90007712851E+02  0.89999973860E+02 0.  0.
         12    1    1    2    0    0 -0.45051384044E+00 -0.32820784291E+00 -0.10403819714E+01  0.11802871494E+01  0.00000000000E+00 0. -1.
         11    1    3    3    0    0  0.13719835083E+01  0.55709661127E+01 -0.80814523894E+01  0.99109976874E+01  0.51100000000E-03 0. -1.
        -11    1    3    3    0    0  0.95530712793E+00  0.33737081441E+02 -0.11878708382E+02  0.35779980282E+02  0.51100000000E-03 0.  1.
         12    1    3    3    0    0 -0.18767767958E+01 -0.38979839711E+02  0.21000542743E+02  0.44316734881E+02  0.00000000000E+00 0. -1.
</event>
<event>
 7    1  0.2682188E-015  0.9000769E+02  0.7816164E-02  0.1186339E+00
        -11   -1    0    0    0    0  0.00000000000E+00  0.00000000000E+00  0.45593999997E+02  0.45594000000E+02  0.51100000000E-03 0.  1.
         11   -1    0    0    0    0 -0.00000000000E+00 -0.00000000000E+00 -0.45593999997E+02  0.45594000000E+02  0.51100000000E-03 0. -1.
    9900012    2    1    2    0    0 -0.88587910909E+00 -0.61790523022E+00  0.47596710364E+00  0.90007689298E+02  0.89999949997E+02 0.  0.
         12    1    1    2    0    0  0.88587910909E+00  0.61790523022E+00 -0.47596710364E+00  0.11803107020E+01  0.00000000000E+00 0. -1.
         11    1    3    3    0    0 -0.82274194741E+01 -0.33564940134E+01 -0.22320990405E+02  0.24024635194E+02  0.51100000000E-03 0. -1.
        -11    1    3    3    0    0 -0.13552306049E+02 -0.18191183698E+02 -0.72585129440E+01  0.23817434244E+02  0.51100000000E-03 0.  1.
         12    1    3    3    0    0  0.20893846414E+02  0.20929772481E+02  0.30055470453E+02  0.42165619860E+02  0.00000000000E+00 0. -1.
</event>
<event>
 7    1  0.2682188E-015  0.9000773E+02  0.7816164E-02  0.1186339E+00
        -11   -1    0    0    0    0  0.00000000000E+00  0.00000000000E+00  0.45593999997E+02  0.45594000000E+02  0.51100000000E-03 0.  1.
         11   -1    0    0    0    0 -0.00000000000E+00 -0.00000000000E+00 -0.45593999997E+02  0.45594000000E+02  0.51100000000E-03 0. -1.
    9900012    2    1    2    0    0 -0.49773276047E+00 -0.10701821462E+01 -0.29481799580E-02  0.90007730362E+02  0.89999991603E+02 0.  0.
         12    1    1    2    0    0  0.49773276047E+00  0.10701821462E+01  0.29481799580E-02  0.11802696381E+01  0.00000000000E+00 0. -1.
         11    1    3    3    0    0  0.83684611505E+01 -0.38259432911E+02  0.11360735187E+02  0.40778445935E+02  0.51100000000E-03 0. -1.
        -11    1    3    3    0    0  0.47488363747E+01  0.24944347320E+01  0.60548856727E+01  0.80892083863E+01  0.51100000000E-03 0.  1.
        -12    1    3    3    0    0 -0.13615030286E+02  0.34694816032E+02 -0.17418569040E+02  0.41140076040E+02  0.00000000000E+00 0.  1.
</event>
<event>
 7    1  0.2682188E-015  0.9000778E+02  0.7816164E-02  0.1186339E+00
        -11   -1    0    0    0    0  0.00000000000E+00  0.00000000000E+00  0.45593999997E+02  0.45594000000E+02  0.51100000000E-03 0.  1.
         11   -1    0    0    0    0 -0.00000000000E+00 -0.00000000000E+00 -0.45593999997E+02  0.45594000000E+02  0.51100000000E-03 0. -1.
    9900012    2    1    2    0    0  0.11696432034E+01 -0.11319652233E+00  0.10974644295E+00  0.90007778429E+02  0.90000040304E+02 0.  0.
         12    1    1    2    0    0 -0.11696432034E+01  0.11319652233E+00 -0.10974644295E+00  0.11802215714E+01  0.00000000000E+00 0. -1.
         11    1    3    3    0    0 -0.76781058071E+01 -0.59736230446E+01 -0.54871718804E+01  0.11168998906E+02  0.51100000000E-03 0. -1.
        -11    1    3    3    0    0  0.34789615826E+02 -0.14134239167E+02 -0.14678207531E+02  0.40318033964E+02  0.51100000000E-03 0.  1.
         12    1    3    3    0    0 -0.25941866815E+02  0.19994665690E+02  0.20275125855E+02  0.38520745558E+02  0.00000000000E+00 0. -1.
</event>
<event>
 7    1  0.2682188E-015  0.9000771E+02  0.7816164E-02  0.1186339E+00
        -11   -1    0    0    0    0  0.00000000000E+00  0.00000000000E+00  0.45593999997E+02  0.45594000000E+02  0.51100000000E-03 0. -1.
         11   -1    0    0    0    0 -0.00000000000E+00 -0.00000000000E+00 -0.45593999997E+02  0.45594000000E+02  0.51100000000E-03 0.  1.
    9900012    2    1    2    0    0  0.96067186829E+00 -0.57914646484E+00 -0.36712741029E+00  0.90007710374E+02  0.89999971351E+02 0.  0.
         12    1    1    2    0    0 -0.96067186829E+00  0.57914646484E+00  0.36712741029E+00  0.11802896262E+01  0.00000000000E+00 0. -1.
         11    1    3    3    0    0 -0.34683265115E+01  0.92125993146E+01 -0.17191401024E+01  0.99928333256E+01  0.51100000000E-03 0. -1.
        -11    1    3    3    0    0 -0.26388660722E+02  0.48890325574E+01  0.26422489806E+02  0.37661811187E+02  0.51100000000E-03 0.  1.
         12    1    3    3    0    0  0.30817659102E+02 -0.14680778337E+02 -0.25070477114E+02  0.42353065861E+02  0.00000000000E+00 0. -1.
</event>
<event>
 7    1  0.2682188E-015  0.9000793E+02  0.7816164E-02  0.1186339E+00
        -11   -1    0    0    0    0  0.00000000000E+00  0.00000000000E+00  0.45593999997E+02  0.45594000000E+02  0.51100000000E-03 0.  1.
         11   -1    0    0    0    0 -0.00000000000E+00 -0.00000000000E+00 -0.45593999997E+02  0.45594000000E+02  0.51100000000E-03 0. -1.
    9900012    2    1    2    0    0  0.53450452081E+00 -0.10520229047E+01  0.11232919807E-01  0.90007926505E+02  0.90000190335E+02 0.  0.
         12    1    1    2    0    0 -0.53450452081E+00  0.10520229047E+01 -0.11232919807E-01  0.11800734948E+01  0.00000000000E+00 0. -1.
         11    1    3    3    0    0 -0.18656752844E+02 -0.31675442666E+02 -0.11932945808E+02  0.38649751496E+02  0.51100000000E-03 0. -1.
        -11    1    3    3    0    0  0.46897592988E+01 -0.76051106144E+01  0.35766902135E+01  0.96241499824E+01  0.51100000000E-03 0.  1.
        -12    1    3    3    0    0  0.14501498066E+02  0.38228530376E+02  0.83674885143E+01  0.41734025027E+02  0.00000000000E+00 0.  1.
</event>
<event>
 7    1  0.2682188E-015  0.9000776E+02  0.7816164E-02  0.1186339E+00
        -11   -1    0    0    0    0  0.00000000000E+00  0.00000000000E+00  0.45593999997E+02  0.45594000000E+02  0.51100000000E-03 0. -1.
         11   -1    0    0    0    0 -0.00000000000E+00 -0.00000000000E+00 -0.45593999997E+02  0.45594000000E+02  0.51100000000E-03 0.  1.
    9900012    2    1    2    0    0  0.10935948499E+01  0.79886535795E-01  0.43662345019E+00  0.90007757825E+02  0.90000019428E+02 0.  0.
         12    1    1    2    0    0 -0.10935948499E+01 -0.79886535795E-01 -0.43662345019E+00  0.11802421750E+01  0.00000000000E+00 0. -1.
         11    1    3    3    0    0  0.92384533569E+01  0.42217154523E+02  0.65183837921E+01  0.43704993810E+02  0.51100000000E-03 0. -1.
        -11    1    3    3    0    0  0.29319818599E+01 -0.25286718155E+01 -0.32882615298E+01  0.50797010666E+01  0.51100000000E-03 0.  1.
        -12    1    3    3    0    0 -0.11076840367E+02 -0.39608596172E+02 -0.27934988121E+01  0.41223062948E+02  0.00000000000E+00 0.  1.
</event>
<event>
 7    1  0.2682188E-015  0.9000781E+02  0.7816164E-02  0.1186339E+00
        -11   -1    0    0    0    0  0.00000000000E+00  0.00000000000E+00  0.45593999997E+02  0.45594000000E+02  0.51100000000E-03 0. -1.
         11   -1    0    0    0    0 -0.00000000000E+00 -0.00000000000E+00 -0.45593999997E+02  0.45594000000E+02  0.51100000000E-03 0.  1.
    9900012    2    1    2    0    0 -0.79152715537E+00 -0.53258386005E-01  0.87378300204E+00  0.90007810003E+02  0.90000072295E+02 0.  0.
         12    1    1    2    0    0  0.79152715537E+00  0.53258386005E-01 -0.87378300204E+00  0.11801899966E+01  0.00000000000E+00 0. -1.
         11    1    3    3    0    0 -0.43430437273E+01  0.14485465908E+02  0.24803340064E+02  0.29049895524E+02  0.51100000000E-03 0. -1.
        -11    1    3    3    0    0 -0.76803667084E+01 -0.43744676188E+01 -0.38762160240E+02  0.39757125984E+02  0.51100000000E-03 0.  1.
         12    1    3    3    0    0  0.11231883280E+02 -0.10164256675E+02  0.14832603179E+02  0.21200788496E+02  0.00000000000E+00 0. -1.
</event>
<event>
 7    1  0.2682188E-015  0.9000781E+02  0.7816164E-02  0.1186339E+00
        -11   -1    0    0    0    0  0.00000000000E+00  0.00000000000E+00  0.45593999997E+02  0.45594000000E+02  0.51100000000E-03 0. -1.
         11   -1    0    0    0    0 -0.00000000000E+00 -0.00000000000E+00 -0.45593999997E+02  0.45594000000E+02  0.51100000000E-03 0.  1.
    9900012    2    1    2    0    0 -0.74462407179E+00  0.53724416820E+00 -0.74144622676E+00  0.90007814077E+02  0.90000076423E+02 0.  0.
         12    1    1    2    0    0  0.74462407179E+00 -0.53724416820E+00  0.74144622676E+00  0.11801859225E+01  0.00000000000E+00 0. -1.
         11    1    3    3    0    0 -0.83607430093E+01  0.29960770023E+02  0.20068763237E+02  0.37017631234E+02  0.51100000000E-03 0. -1.
        -11    1    3    3    0    0 -0.76780966451E+01  0.41847393821E+01  0.27770389115E+01  0.91748110152E+01  0.51100000000E-03 0.  1.
        -12    1    3    3    0    0  0.15294215583E+02 -0.33608265237E+02 -0.23587248375E+02  0.43815371828E+02  0.00000000000E+00 0.  1.
</event>
<event>
 7    1  0.2682188E-015  0.9000777E+02  0.7816164E-02  0.1186339E+00
        -11   -1    0    0    0    0  0.00000000000E+00  0.00000000000E+00  0.45593999997E+02  0.45594000000E+02  0.51100000000E-03 0.  1.
         11   -1    0    0    0    0 -0.00000000000E+00 -0.00000000000E+00 -0.45593999997E+02  0.45594000000E+02  0.51100000000E-03 0. -1.
    9900012    2    1    2    0    0 -0.14085119042E+00 -0.11087673487E+01  0.37913714155E+00  0.90007767369E+02  0.90000029098E+02 0.  0.
         12    1    1    2    0    0  0.14085119042E+00  0.11087673487E+01 -0.37913714155E+00  0.11802326311E+01  0.00000000000E+00 0. -1.
         11    1    3    3    0    0  0.46454164315E+00 -0.32844741774E+00 -0.88955278479E+01  0.89137025191E+01  0.51100000000E-03 0. -1.
        -11    1    3    3    0    0  0.31413018082E+02 -0.63560572941E+01 -0.19643829675E+02  0.37590653278E+02  0.51100000000E-03 0.  1.
         12    1    3    3    0    0 -0.32018410916E+02  0.55757373631E+01  0.28918494664E+02  0.43503411571E+02  0.00000000000E+00 0. -1.
</event>
<event>
 7    1  0.2682188E-015  0.9000768E+02  0.7816164E-02  0.1186339E+00
        -11   -1    0    0    0    0  0.00000000000E+00  0.00000000000E+00  0.45593999997E+02  0.45594000000E+02  0.51100000000E-03 0.  1.
         11   -1    0    0    0    0 -0.00000000000E+00 -0.00000000000E+00 -0.45593999997E+02  0.45594000000E+02  0.51100000000E-03 0. -1.
    9900012    2    1    2    0    0 -0.34847889784E+00  0.84743746322E+00  0.74402383087E+00  0.90007678325E+02  0.89999938879E+02 0.  0.
         12    1    1    2    0    0  0.34847889784E+00 -0.84743746322E+00 -0.74402383087E+00  0.11803216753E+01  0.00000000000E+00 0. -1.
         11    1    3    3    0    0  0.59661572199E+01 -0.34584471248E+02 -0.26743998569E+01  0.35197060933E+02  0.51100000000E-03 0. -1.
        -11    1    3    3    0    0 -0.11290266352E+02 -0.57670894036E+01  0.40448443123E+01  0.13307524197E+02  0.51100000000E-03 0.  1.
        -12    1    3    3    0    0  0.49756302339E+01  0.41198998115E+02 -0.62642062454E+00  0.41503093194E+02  0.00000000000E+00 0.  1.
</event>
<event>
 7    1  0.2682188E-015  0.9000771E+02  0.7816164E-02  0.1186339E+00
        -11   -1    0    0    0    0  0.00000000000E+00  0.00000000000E+00  0.45593999997E+02  0.45594000000E+02  0.51100000000E-03 0.  1.
         11   -1    0    0    0    0 -0.00000000000E+00 -0.00000000000E+00 -0.45593999997E+02  0.45594000000E+02  0.51100000000E-03 0. -1.
    9900012    2    1    2    0    0 -0.10311934268E+01 -0.50905864487E+00  0.26566417212E+00  0.90007712730E+02  0.89999973738E+02 0.  0.
         12    1    1    2    0    0  0.10311934268E+01  0.50905864487E+00 -0.26566417212E+00  0.11802872700E+01  0.00000000000E+00 0. -1.
         11    1    3    3    0    0 -0.22566769148E+01 -0.93786163286E+01 -0.36792399961E+02  0.38035926834E+02  0.51100000000E-03 0. -1.
        -11    1    3    3    0    0 -0.18881418593E+01 -0.10272675104E+02  0.34426006171E+00  0.10450428160E+02  0.51100000000E-03 0.  1.
        -12    1    3    3    0    0  0.31136253474E+01  0.19142232787E+02  0.36713804072E+02  0.41521357737E+02  0.00000000000E+00 0.  1.
</event>
<event>
 7    1  0.2682188E-015  0.9000701E+02  0.7816164E-02  0.1186341E+00
        -11   -1    0    0    0    0  0.00000000000E+00  0.00000000000E+00  0.45593999997E+02  0.45594000000E+02  0.51100000000E-03 0. -1.
         11   -1    0    0    0    0 -0.00000000000E+00 -0.00000000000E+00 -0.45593999997E+02  0.45594000000E+02  0.51100000000E-03 0.  1.
    9900012    2    1    2    0    0  0.31272863713E+00 -0.10898219623E+01 -0.33049702394E+00  0.90007009148E+02  0.89999260866E+02 0.  0.
         12    1    1    2    0    0 -0.31272863713E+00  0.10898219623E+01  0.33049702394E+00  0.11809908521E+01  0.00000000000E+00 0. -1.
         11    1    3    3    0    0  0.18671653427E+02  0.26680051465E+02  0.27698261119E+02  0.42751017031E+02  0.51100000000E-03 0. -1.
        -11    1    3    3    0    0 -0.62965517098E+01 -0.71746271084E+01  0.10872863725E+01  0.96074986076E+01  0.51100000000E-03 0.  1.
        -12    1    3    3    0    0 -0.12062373080E+02 -0.20595246319E+02 -0.29116044516E+02  0.37648493509E+02  0.00000000000E+00 0.  1.
</event>
<event>
 7    1  0.2682188E-015  0.9000771E+02  0.7816164E-02  0.1186339E+00
        -11   -1    0    0    0    0  0.00000000000E+00  0.00000000000E+00  0.45593999997E+02  0.45594000000E+02  0.51100000000E-03 0.  1.
         11   -1    0    0    0    0 -0.00000000000E+00 -0.00000000000E+00 -0.45593999997E+02  0.45594000000E+02  0.51100000000E-03 0. -1.
    9900012    2    1    2    0    0 -0.67581854263E+00 -0.87317401198E+00  0.41704818439E+00  0.90007706500E+02  0.89999967426E+02 0.  0.
         12    1    1    2    0    0  0.67581854263E+00  0.87317401198E+00 -0.41704818439E+00  0.11802934999E+01  0.00000000000E+00 0. -1.
         11    1    3    3    0    0 -0.85502930616E+01 -0.54582290070E+01  0.34993347433E+00  0.10149986652E+02  0.51100000000E-03 0. -1.
        -11    1    3    3    0    0 -0.30783750243E+02  0.74858867124E+01  0.18760758331E+02  0.36819068868E+02  0.51100000000E-03 0.  1.
         12    1    3    3    0    0  0.38658224762E+02 -0.29008317174E+01 -0.18693643621E+02  0.43038650980E+02  0.00000000000E+00 0. -1.
</event>
<event>
 7    1  0.2682188E-015  0.9000775E+02  0.7816164E-02  0.1186339E+00
        -11   -1    0    0    0    0  0.00000000000E+00  0.00000000000E+00  0.45593999997E+02  0.45594000000E+02  0.51100000000E-03 0.  1.
         11   -1    0    0    0    0 -0.00000000000E+00 -0.00000000000E+00 -0.45593999997E+02  0.45594000000E+02  0.51100000000E-03 0. -1.
    9900012    2    1    2    0    0  0.86783070052E-01 -0.83522551772E+00  0.82937365327E+00  0.90007748491E+02  0.90000009972E+02 0.  0.
         12    1    1    2    0    0 -0.86783070052E-01  0.83522551772E+00 -0.82937365327E+00  0.11802515086E+01  0.00000000000E+00 0. -1.
         11    1    3    3    0    0 -0.11309999843E+02  0.11834019627E+02 -0.34296462011E+02  0.38002729161E+02  0.51100000000E-03 0. -1.
        -11    1    3    3    0    0  0.89948563065E-01 -0.70202803192E+01 -0.58408713976E+01  0.91328092857E+01  0.51100000000E-03 0.  1.
        -12    1    3    3    0    0  0.11306834350E+02 -0.56489648252E+01  0.40966707062E+02  0.42872210045E+02  0.00000000000E+00 0.  1.
</event>
<event>
 7    1  0.2682188E-015  0.9000775E+02  0.7816164E-02  0.1186339E+00
        -11   -1    0    0    0    0  0.00000000000E+00  0.00000000000E+00  0.45593999997E+02  0.45594000000E+02  0.51100000000E-03 0.  1.
         11   -1    0    0    0    0 -0.00000000000E+00 -0.00000000000E+00 -0.45593999997E+02  0.45594000000E+02  0.51100000000E-03 0. -1.
    9900012    2    1    2    0    0 -0.15858703942E+00  0.86887822916E+00  0.78287245863E+00  0.90007750657E+02  0.90000012165E+02 0.  0.
         12    1    1    2    0    0  0.15858703942E+00 -0.86887822916E+00 -0.78287245863E+00  0.11802493434E+01  0.00000000000E+00 0. -1.
         11    1    3    3    0    0 -0.46379624984E+01  0.91655346539E+01 -0.16703764703E+01  0.10407107160E+02  0.51100000000E-03 0. -1.
        -11    1    3    3    0    0  0.36924273683E+02 -0.79517496981E+01  0.19972583647E+02  0.42726296447E+02  0.51100000000E-03 0.  1.
         12    1    3    3    0    0 -0.32444898224E+02 -0.34490672665E+00 -0.17519334718E+02  0.36874347050E+02  0.00000000000E+00 0. -1.
</event>
<event>
 7    1  0.2682188E-015  0.9000855E+02  0.7816164E-02  0.1186337E+00
        -11   -1    0    0    0    0  0.00000000000E+00  0.00000000000E+00  0.45593999997E+02  0.45594000000E+02  0.51100000000E-03 0.  1.
         11   -1    0    0    0    0 -0.00000000000E+00 -0.00000000000E+00 -0.45593999997E+02  0.45594000000E+02  0.51100000000E-03 0. -1.
    9900012    2    1    2    0    0 -0.80887568501E+00 -0.55233549460E-01  0.85661034066E+00  0.90008545934E+02  0.90000817936E+02 0.  0.
         12    1    1    2    0    0  0.80887568501E+00  0.55233549460E-01 -0.85661034066E+00  0.11794540663E+01  0.00000000000E+00 0. -1.
         11    1    3    3    0    0  0.81876638583E+01 -0.23783274267E+02 -0.29201215166E+02  0.38540795811E+02  0.51100000000E-03 0. -1.
        -11    1    3    3    0    0 -0.29087799407E+01  0.61243591181E+01 -0.71527734134E+01  0.98555031893E+01  0.51100000000E-03 0.  1.
        -12    1    3    3    0    0 -0.60877596026E+01  0.17603681600E+02  0.37210598920E+02  0.41612246933E+02  0.00000000000E+00 0.  1.
</event>
<event>
 7    1  0.2682188E-015  0.9000747E+02  0.7816164E-02  0.1186340E+00
        -11   -1    0    0    0    0  0.00000000000E+00  0.00000000000E+00  0.45593999997E+02  0.45594000000E+02  0.51100000000E-03 0. -1.
         11   -1    0    0    0    0 -0.00000000000E+00 -0.00000000000E+00 -0.45593999997E+02  0.45594000000E+02  0.51100000000E-03 0.  1.
    9900012    2    1    2    0    0  0.20621126966E+00 -0.84346681216E+00 -0.79981275070E+00  0.90007466313E+02  0.89999724067E+02 0.  0.
         12    1    1    2    0    0 -0.20621126966E+00  0.84346681216E+00  0.79981275070E+00  0.11805336874E+01  0.00000000000E+00 0. -1.
         11    1    3    3    0    0 -0.31468702815E+02 -0.37049490979E+01  0.19997701918E+02  0.37468840213E+02  0.51100000000E-03 0. -1.
        -11    1    3    3    0    0  0.20325023260E+01  0.67029331004E+01  0.82751481707E+01  0.10841515363E+02  0.51100000000E-03 0.  1.
        -12    1    3    3    0    0  0.29642411759E+02 -0.38414508146E+01 -0.29072662839E+02  0.41697110737E+02  0.00000000000E+00 0.  1.
</event>
<event>
 7    1  0.2682188E-015  0.9000700E+02  0.7816164E-02  0.1186341E+00
        -11   -1    0    0    0    0  0.00000000000E+00  0.00000000000E+00  0.45593999997E+02  0.45594000000E+02  0.51100000000E-03 0.  1.
         11   -1    0    0    0    0 -0.00000000000E+00 -0.00000000000E+00 -0.45593999997E+02  0.45594000000E+02  0.51100000000E-03 0. -1.
    9900012    2    1    2    0    0 -0.29581184403E+00  0.11427386155E+01  0.37431471432E-01  0.90007001564E+02  0.89999253182E+02 0.  0.
         12    1    1    2    0    0  0.29581184403E+00 -0.11427386155E+01 -0.37431471432E-01  0.11809984359E+01  0.00000000000E+00 0. -1.
         11    1    3    3    0    0  0.15873498614E+02 -0.22267281625E+02 -0.21456668169E+02  0.34759004566E+02  0.51100000000E-03 0. -1.
        -11    1    3    3    0    0 -0.23824188175E+01 -0.10065577731E+01 -0.11592690959E+02  0.11877691775E+02  0.51100000000E-03 0.  1.
        -12    1    3    3    0    0 -0.13786891640E+02  0.24416578014E+02  0.33086790599E+02  0.43370305223E+02  0.00000000000E+00 0.  1.
</event>
<event>
 7    1  0.2682188E-015  0.9000788E+02  0.7816164E-02  0.1186339E+00
        -11   -1    0    0    0    0  0.00000000000E+00  0.00000000000E+00  0.45593999997E+02  0.45594000000E+02  0.51100000000E-03 0. -1.
         11   -1    0    0    0    0 -0.00000000000E+00 -0.00000000000E+00 -0.45593999997E+02  0.45594000000E+02  0.51100000000E-03 0.  1.
    9900012    2    1    2    0    0  0.36655460602E+00  0.80936335294E+00 -0.77669191931E+00  0.90007880661E+02  0.90000143886E+02 0.  0.
         12    1    1    2    0    0 -0.36655460602E+00 -0.80936335294E+00  0.77669191931E+00  0.11801193388E+01  0.00000000000E+00 0. -1.
         11    1    3    3    0    0  0.11256571465E+02  0.77884852887E+01 -0.10782280459E+01  0.13730749441E+02  0.51100000000E-03 0. -1.
        -11    1    3    3    0    0 -0.29575935495E+02  0.24884292556E+02  0.52576888730E+01  0.39007784722E+02  0.51100000000E-03 0.  1.
         12    1    3    3    0    0  0.18685918636E+02 -0.31863414491E+02 -0.49561527464E+01  0.37269346497E+02  0.00000000000E+00 0. -1.
</event>
<event>
 7    1  0.2682188E-015  0.9000768E+02  0.7816164E-02  0.1186339E+00
        -11   -1    0    0    0    0  0.00000000000E+00  0.00000000000E+00  0.45593999997E+02  0.45594000000E+02  0.51100000000E-03 0. -1.
         11   -1    0    0    0    0 -0.00000000000E+00 -0.00000000000E+00 -0.45593999997E+02  0.45594000000E+02  0.51100000000E-03 0.  1.
    9900012    2    1    2    0    0  0.63215636151E+00  0.58139797384E+00  0.80963695435E+00  0.90007679168E+02  0.89999939733E+02 0.  0.
         12    1    1    2    0    0 -0.63215636151E+00 -0.58139797384E+00 -0.80963695435E+00  0.11803208323E+01  0.00000000000E+00 0. -1.
         11    1    3    3    0    0 -0.30109466814E+02  0.44871402221E+00  0.23067394253E+02  0.37932651027E+02  0.51100000000E-03 0. -1.
        -11    1    3    3    0    0  0.31182964840E+01  0.11089809305E+02  0.42247467100E+01  0.12270131556E+02  0.51100000000E-03 0.  1.
        -12    1    3    3    0    0  0.27623326691E+02 -0.10957125353E+02 -0.26482504009E+02  0.39804896584E+02  0.00000000000E+00 0.  1.
</event>
<event>
 7    1  0.2682188E-015  0.9000770E+02  0.7816164E-02  0.1186339E+00
        -11   -1    0    0    0    0  0.00000000000E+00  0.00000000000E+00  0.45593999997E+02  0.45594000000E+02  0.51100000000E-03 0.  1.
         11   -1    0    0    0    0 -0.00000000000E+00 -0.00000000000E+00 -0.45593999997E+02  0.45594000000E+02  0.51100000000E-03 0. -1.
    9900012    2    1    2    0    0  0.84129699571E+00 -0.80550996575E+00  0.19098241221E+00  0.90007702910E+02  0.89999963788E+02 0.  0.
         12    1    1    2    0    0 -0.84129699571E+00  0.80550996575E+00 -0.19098241221E+00  0.11802970904E+01  0.00000000000E+00 0. -1.
         11    1    3    3    0    0 -0.54078335155E+01 -0.40638380461E+01  0.11173920695E+02  0.13062003941E+02  0.51100000000E-03 0. -1.
        -11    1    3    3    0    0  0.35509847325E+02 -0.15313074384E+02  0.46062106154E+01  0.38944276609E+02  0.51100000000E-03 0.  1.
         12    1    3    3    0    0 -0.29260716814E+02  0.18571402465E+02 -0.15589148898E+02  0.38001422359E+02  0.00000000000E+00 0. -1.
</event>
<event>
 7    1  0.2917998E-015  0.9000697E+02  0.7816164E-02  0.1186341E+00
        -11   -1    0    0    0    0  0.00000000000E+00  0.00000000000E+00  0.45593999997E+02  0.45594000000E+02  0.51100000000E-03 0.  1.
         11   -1    0    0    0    0 -0.00000000000E+00 -0.00000000000E+00 -0.45593999997E+02  0.45594000000E+02  0.51100000000E-03 0. -1.
    9900012    2    1    2    0    0  0.11773860590E+01  0.80440047291E-01  0.46151373285E-01  0.90006967197E+02  0.89999218360E+02 0.  0.
         12    1    1    2    0    0 -0.11773860590E+01 -0.80440047291E-01 -0.46151373285E-01  0.11810328032E+01  0.00000000000E+00 0. -1.
         11    1    3    3    0    0  0.84676162747E+01 -0.53506321125E+01  0.58491919642E-01  0.10016646692E+02  0.51100000000E-03 0. -1.
        -11    1    3    3    0    0  0.15147062285E+02  0.33087262622E+02  0.17414631584E+02  0.40341911669E+02  0.51100000000E-03 0.  1.
         12    1    3    3    0    0 -0.22437292500E+02 -0.27656190462E+02 -0.17426972130E+02  0.39648408836E+02  0.00000000000E+00 0. -1.
</event>
<event>
 7    1  0.2682188E-015  0.9000778E+02  0.7816164E-02  0.1186339E+00
        -11   -1    0    0    0    0  0.00000000000E+00  0.00000000000E+00  0.45593999997E+02  0.45594000000E+02  0.51100000000E-03 0.  1.
         11   -1    0    0    0    0 -0.00000000000E+00 -0.00000000000E+00 -0.45593999997E+02  0.45594000000E+02  0.51100000000E-03 0. -1.
    9900012    2    1    2    0    0 -0.11544023683E+01 -0.14421343627E+00  0.19869684944E+00  0.90007778503E+02  0.90000040380E+02 0.  0.
         12    1    1    2    0    0  0.11544023683E+01  0.14421343627E+00 -0.19869684944E+00  0.11802214966E+01  0.00000000000E+00 0. -1.
         11    1    3    3    0    0 -0.36928476299E+01 -0.90834380830E+01  0.10646281103E+01  0.98630322062E+01  0.51100000000E-03 0. -1.
        -11    1    3    3    0    0  0.87097296133E+01 -0.10749558728E+02  0.35628966987E+02  0.38220880309E+02  0.51100000000E-03 0.  1.
         12    1    3    3    0    0 -0.61712843518E+01  0.19688783375E+02 -0.36494898247E+02  0.41923865988E+02  0.00000000000E+00 0. -1.
</event>
<event>
 7    1  0.2682188E-015  0.9000823E+02  0.7816164E-02  0.1186338E+00
        -11   -1    0    0    0    0  0.00000000000E+00  0.00000000000E+00  0.45593999997E+02  0.45594000000E+02  0.51100000000E-03 0.  1.
         11   -1    0    0    0    0 -0.00000000000E+00 -0.00000000000E+00 -0.45593999997E+02  0.45594000000E+02  0.51100000000E-03 0. -1.
    9900012    2    1    2    0    0  0.81053147344E+00  0.75893983168E+00  0.39862742024E+00  0.90008231057E+02  0.90000498906E+02 0.  0.
         12    1    1    2    0    0 -0.81053147344E+00 -0.75893983168E+00 -0.39862742024E+00  0.11797689425E+01  0.00000000000E+00 0. -1.
         11    1    3    3    0    0 -0.86808993960E+01 -0.48154455887E+01 -0.36662076714E+01  0.10582419832E+02  0.51100000000E-03 0. -1.
        -11    1    3    3    0    0 -0.34077545019E+01  0.19250643227E+02  0.36803290797E+02  0.41673520000E+02  0.51100000000E-03 0.  1.
         12    1    3    3    0    0  0.12899185371E+02 -0.13676257807E+02 -0.32738455705E+02  0.37752291226E+02  0.00000000000E+00 0. -1.
</event>
<event>
 7    1  0.2682188E-015  0.9000780E+02  0.7816164E-02  0.1186339E+00
        -11   -1    0    0    0    0  0.00000000000E+00  0.00000000000E+00  0.45593999997E+02  0.45594000000E+02  0.51100000000E-03 0.  1.
         11   -1    0    0    0    0 -0.00000000000E+00 -0.00000000000E+00 -0.45593999997E+02  0.45594000000E+02  0.51100000000E-03 0. -1.
    9900012    2    1    2    0    0 -0.18181255294E+00 -0.63919846895E+00  0.97531815002E+00  0.90007798330E+02  0.90000060468E+02 0.  0.
         12    1    1    2    0    0  0.18181255294E+00  0.63919846895E+00 -0.97531815002E+00  0.11802016696E+01  0.00000000000E+00 0. -1.
         11    1    3    3    0    0  0.18864542324E+02  0.18430780713E+02 -0.10731634026E+02  0.28473366571E+02  0.51100000000E-03 0. -1.
        -11    1    3    3    0    0 -0.25477821765E+02 -0.55787217174E+01 -0.15610132970E+02  0.30396016013E+02  0.51100000000E-03 0.  1.
        -12    1    3    3    0    0  0.64314668882E+01 -0.13491257464E+02  0.27317085146E+02  0.31138415746E+02  0.00000000000E+00 0.  1.
</event>
<event>
 7    1  0.2682188E-015  0.9000776E+02  0.7816164E-02  0.1186339E+00
        -11   -1    0    0    0    0  0.00000000000E+00  0.00000000000E+00  0.45593999997E+02  0.45594000000E+02  0.51100000000E-03 0. -1.
         11   -1    0    0    0    0 -0.00000000000E+00 -0.00000000000E+00 -0.45593999997E+02  0.45594000000E+02  0.51100000000E-03 0.  1.
    9900012    2    1    2    0    0 -0.58171722382E+00  0.72508349356E+00 -0.72719982888E+00  0.90007762485E+02  0.90000024150E+02 0.  0.
         12    1    1    2    0    0  0.58171722382E+00 -0.72508349356E+00  0.72719982888E+00  0.11802375152E+01  0.00000000000E+00 0. -1.
         11    1    3    3    0    0  0.13317481262E+02  0.79228262823E+01  0.21287702429E+02  0.26330453061E+02  0.51100000000E-03 0. -1.
        -11    1    3    3    0    0 -0.34454800267E+01  0.12711371719E+02 -0.35218700441E+02  0.37600627184E+02  0.51100000000E-03 0.  1.
         12    1    3    3    0    0 -0.10453718459E+02 -0.19909114508E+02  0.13203798184E+02  0.26076682239E+02  0.00000000000E+00 0. -1.
</event>
<event>
 7    1  0.2682188E-015  0.9000783E+02  0.7816164E-02  0.1186339E+00
        -11   -1    0    0    0    0  0.00000000000E+00  0.00000000000E+00  0.45593999997E+02  0.45594000000E+02  0.51100000000E-03 0. -1.
         11   -1    0    0    0    0 -0.00000000000E+00 -0.00000000000E+00 -0.45593999997E+02  0.45594000000E+02  0.51100000000E-03 0.  1.
    9900012    2    1    2    0    0  0.62875372214E+00 -0.97059870164E+00  0.23539249216E+00  0.90007829373E+02  0.90000091921E+02 0.  0.
         12    1    1    2    0    0 -0.62875372214E+00  0.97059870164E+00 -0.23539249216E+00  0.11801706267E+01  0.00000000000E+00 0. -1.
         11    1    3    3    0    0 -0.15545970548E+02  0.13872331252E+02  0.30415743809E+02  0.36867821286E+02  0.51100000000E-03 0. -1.
        -11    1    3    3    0    0 -0.58765051601E+01 -0.31978363274E+01  0.61414368342E+01  0.90816692697E+01  0.51100000000E-03 0.  1.
        -12    1    3    3    0    0  0.22051229430E+02 -0.11645093627E+02 -0.36321788151E+02  0.44058338818E+02  0.00000000000E+00 0.  1.
</event>
<event>
 7    1  0.2682188E-015  0.9000832E+02  0.7816164E-02  0.1186338E+00
        -11   -1    0    0    0    0  0.00000000000E+00  0.00000000000E+00  0.45593999997E+02  0.45594000000E+02  0.51100000000E-03 0.  1.
         11   -1    0    0    0    0 -0.00000000000E+00 -0.00000000000E+00 -0.45593999997E+02  0.45594000000E+02  0.51100000000E-03 0. -1.
    9900012    2    1    2    0    0 -0.46655320596E+00 -0.40647926967E+00  0.10043593429E+01  0.90008324205E+02  0.90000593283E+02 0.  0.
         12    1    1    2    0    0  0.46655320596E+00  0.40647926967E+00 -0.10043593429E+01  0.11796757946E+01  0.00000000000E+00 0. -1.
         11    1    3    3    0    0 -0.26914167641E+02  0.14326290354E+02 -0.25227160942E+02  0.39573029510E+02  0.51100000000E-03 0. -1.
        -11    1    3    3    0    0  0.44960291556E+01  0.85062937550E+01  0.92947005430E+00  0.96661898625E+01  0.51100000000E-03 0.  1.
        -12    1    3    3    0    0  0.21951585280E+02 -0.23239063379E+02  0.25302050230E+02  0.40769104833E+02  0.00000000000E+00 0.  1.
</event>
<event>
 7    1  0.2682188E-015  0.9000772E+02  0.7816164E-02  0.1186339E+00
        -11   -1    0    0    0    0  0.00000000000E+00  0.00000000000E+00  0.45593999997E+02  0.45594000000E+02  0.51100000000E-03 0.  1.
         11   -1    0    0    0    0 -0.00000000000E+00 -0.00000000000E+00 -0.45593999997E+02  0.45594000000E+02  0.51100000000E-03 0. -1.
    9900012    2    1    2    0    0 -0.98446371429E-01  0.11661051370E+01 -0.15355170143E+00  0.90007715711E+02  0.89999976758E+02 0.  0.
         12    1    1    2    0    0  0.98446371429E-01 -0.11661051370E+01  0.15355170143E+00  0.11802842893E+01  0.00000000000E+00 0. -1.
         11    1    3    3    0    0  0.12812547979E+02 -0.10021829238E+02  0.10471824530E+02  0.19345737418E+02  0.51100000000E-03 0. -1.
        -11    1    3    3    0    0  0.28661459892E+01  0.33773511975E+02  0.11002995635E+02  0.35636088691E+02  0.51100000000E-03 0.  1.
         12    1    3    3    0    0 -0.15777140340E+02 -0.22585577599E+02 -0.21628371867E+02  0.35025889602E+02  0.00000000000E+00 0. -1.
</event>
<event>
 7    1  0.2682188E-015  0.9000750E+02  0.7816164E-02  0.1186340E+00
        -11   -1    0    0    0    0  0.00000000000E+00  0.00000000000E+00  0.45593999997E+02  0.45594000000E+02  0.51100000000E-03 0.  1.
         11   -1    0    0    0    0 -0.00000000000E+00 -0.00000000000E+00 -0.45593999997E+02  0.45594000000E+02  0.51100000000E-03 0. -1.
    9900012    2    1    2    0    0 -0.10642382593E+01 -0.48440636840E+00 -0.16227311413E+00  0.90007497918E+02  0.89999756090E+02 0.  0.
         12    1    1    2    0    0  0.10642382593E+01  0.48440636840E+00  0.16227311413E+00  0.11805020821E+01  0.00000000000E+00 0. -1.
         11    1    3    3    0    0 -0.79073323704E+01  0.34776469684E+01  0.30224551637E+01  0.91517850243E+01  0.51100000000E-03 0. -1.
        -11    1    3    3    0    0  0.35940230175E+02 -0.23161962743E+01  0.22114891176E+02  0.42262670553E+02  0.51100000000E-03 0.  1.
         12    1    3    3    0    0 -0.29097136064E+02 -0.16458570625E+01 -0.25299619454E+02  0.38593042341E+02  0.00000000000E+00 0. -1.
</event>
<event>
 7    1  0.2682188E-015  0.9000772E+02  0.7816164E-02  0.1186339E+00
        -11   -1    0    0    0    0  0.00000000000E+00  0.00000000000E+00  0.45593999997E+02  0.45594000000E+02  0.51100000000E-03 0.  1.
         11   -1    0    0    0    0 -0.00000000000E+00 -0.00000000000E+00 -0.45593999997E+02  0.45594000000E+02  0.51100000000E-03 0. -1.
    9900012    2    1    2    0    0 -0.73861560085E+00 -0.87085527278E+00  0.29852290086E+00  0.90007721290E+02  0.89999982411E+02 0.  0.
         12    1    1    2    0    0  0.73861560085E+00  0.87085527278E+00 -0.29852290086E+00  0.11802787104E+01  0.00000000000E+00 0. -1.
         11    1    3    3    0    0 -0.22244065779E+02  0.24757366825E+02 -0.16866874661E+02  0.37312426021E+02  0.51100000000E-03 0. -1.
        -11    1    3    3    0    0  0.23503948330E+01  0.79241427425E+01 -0.33884898551E+01  0.89329870611E+01  0.51100000000E-03 0.  1.
        -12    1    3    3    0    0  0.19155055345E+02 -0.33552364841E+02  0.20553887417E+02  0.43762308207E+02  0.00000000000E+00 0.  1.
</event>
<event>
 7    1  0.2682188E-015  0.9000773E+02  0.7816164E-02  0.1186339E+00
        -11   -1    0    0    0    0  0.00000000000E+00  0.00000000000E+00  0.45593999997E+02  0.45594000000E+02  0.51100000000E-03 0. -1.
         11   -1    0    0    0    0 -0.00000000000E+00 -0.00000000000E+00 -0.45593999997E+02  0.45594000000E+02  0.51100000000E-03 0.  1.
    9900012    2    1    2    0    0  0.52391438214E+00 -0.27113923665E+00 -0.10222729517E+01  0.90007726831E+02  0.89999988025E+02 0.  0.
         12    1    1    2    0    0 -0.52391438214E+00  0.27113923665E+00  0.10222729517E+01  0.11802731689E+01  0.00000000000E+00 0. -1.
         11    1    3    3    0    0  0.89759615504E+01 -0.36905381450E+02  0.68517768422E+01  0.38594324866E+02  0.51100000000E-03 0. -1.
        -11    1    3    3    0    0 -0.10694492515E+02 -0.28327694834E+01  0.20682987760E+00  0.11065239806E+02  0.51100000000E-03 0.  1.
        -12    1    3    3    0    0  0.22424453467E+01  0.39467011696E+02 -0.80808796715E+01  0.40348162159E+02  0.00000000000E+00 0.  1.
</event>
<event>
 7    1  0.2682188E-015  0.9000771E+02  0.7816164E-02  0.1186339E+00
        -11   -1    0    0    0    0  0.00000000000E+00  0.00000000000E+00  0.45593999997E+02  0.45594000000E+02  0.51100000000E-03 0.  1.
         11   -1    0    0    0    0 -0.00000000000E+00 -0.00000000000E+00 -0.45593999997E+02  0.45594000000E+02  0.51100000000E-03 0. -1.
    9900012    2    1    2    0    0 -0.26484327639E+00  0.56439061144E+00  0.10021953987E+01  0.90007714297E+02  0.89999975326E+02 0.  0.
         12    1    1    2    0    0  0.26484327639E+00 -0.56439061144E+00 -0.10021953987E+01  0.11802857029E+01  0.00000000000E+00 0. -1.
         11    1    3    3    0    0  0.11340970349E+02  0.64170796936E+01  0.85601446576E-01  0.13030880558E+02  0.51100000000E-03 0. -1.
        -11    1    3    3    0    0  0.32389492435E+02 -0.24715608690E+01  0.40782979008E+01  0.32738667465E+02  0.51100000000E-03 0.  1.
         12    1    3    3    0    0 -0.43995306061E+02 -0.33811282132E+01 -0.31617039487E+01  0.44238166274E+02  0.00000000000E+00 0. -1.
</event>
<event>
 7    1  0.2682188E-015  0.9000771E+02  0.7816164E-02  0.1186339E+00
        -11   -1    0    0    0    0  0.00000000000E+00  0.00000000000E+00  0.45593999997E+02  0.45594000000E+02  0.51100000000E-03 0.  1.
         11   -1    0    0    0    0 -0.00000000000E+00 -0.00000000000E+00 -0.45593999997E+02  0.45594000000E+02  0.51100000000E-03 0. -1.
    9900012    2    1    2    0    0 -0.27884031444E-01 -0.32178787662E+00  0.11352358132E+01  0.90007709651E+02  0.89999970618E+02 0.  0.
         12    1    1    2    0    0  0.27884031444E-01  0.32178787662E+00 -0.11352358132E+01  0.11802903492E+01  0.00000000000E+00 0. -1.
         11    1    3    3    0    0  0.40129875639E+01  0.11442787146E+02 -0.18879918369E+01  0.12272162005E+02  0.51100000000E-03 0. -1.
        -11    1    3    3    0    0 -0.21707076076E+02  0.41183071533E+01  0.32859519025E+02  0.39596787703E+02  0.51100000000E-03 0.  1.
         12    1    3    3    0    0  0.17666204481E+02 -0.15882882176E+02 -0.29836291375E+02  0.38138759943E+02  0.00000000000E+00 0. -1.
</event>
<event>
 7    1  0.2847845E-015  0.9000698E+02  0.7816164E-02  0.1186341E+00
        -11   -1    0    0    0    0  0.00000000000E+00  0.00000000000E+00  0.45593999997E+02  0.45594000000E+02  0.51100000000E-03 0. -1.
         11   -1    0    0    0    0 -0.00000000000E+00 -0.00000000000E+00 -0.45593999997E+02  0.45594000000E+02  0.51100000000E-03 0.  1.
    9900012    2    1    2    0    0  0.62168986462E+00  0.69476272325E+00 -0.72499218518E+00  0.90006980441E+02  0.89999231780E+02 0.  0.
         12    1    1    2    0    0 -0.62168986462E+00 -0.69476272325E+00  0.72499218518E+00  0.11810195587E+01  0.00000000000E+00 0. -1.
         11    1    3    3    0    0 -0.62624268686E+01 -0.75596505991E+01 -0.22033745985E+01  0.10060873091E+02  0.51100000000E-03 0. -1.
        -11    1    3    3    0    0  0.23360070608E+02 -0.19344680861E+02 -0.24203306971E+02  0.38803474651E+02  0.51100000000E-03 0.  1.
         12    1    3    3    0    0 -0.16475953875E+02  0.27599094183E+02  0.25681689384E+02  0.41142632699E+02  0.00000000000E+00 0. -1.
</event>
<event>
 7    1  0.2682188E-015  0.9000656E+02  0.7816164E-02  0.1186341E+00
        -11   -1    0    0    0    0  0.00000000000E+00  0.00000000000E+00  0.45593999997E+02  0.45594000000E+02  0.51100000000E-03 0.  1.
         11   -1    0    0    0    0 -0.00000000000E+00 -0.00000000000E+00 -0.45593999997E+02  0.45594000000E+02  0.51100000000E-03 0. -1.
    9900012    2    1    2    0    0  0.29379108944E+00 -0.10251778314E+01  0.50843784483E+00  0.90006555193E+02  0.89998800913E+02 0.  0.
         12    1    1    2    0    0 -0.29379108944E+00  0.10251778314E+01 -0.50843784483E+00  0.11814448071E+01  0.00000000000E+00 0. -1.
         11    1    3    3    0    0 -0.40213935608E+02 -0.72811262526E+01  0.17951104648E+02  0.44636504959E+02  0.51100000000E-03 0. -1.
        -11    1    3    3    0    0  0.67048920682E+01 -0.18006706943E+01 -0.45754273695E+01  0.83145973125E+01  0.51100000000E-03 0.  1.
        -12    1    3    3    0    0  0.33802834630E+02  0.80566191155E+01 -0.12867239434E+02  0.37055452921E+02  0.00000000000E+00 0.  1.
</event>
<event>
 7    1  0.2682188E-015  0.9000775E+02  0.7816164E-02  0.1186339E+00
        -11   -1    0    0    0    0  0.00000000000E+00  0.00000000000E+00  0.45593999997E+02  0.45594000000E+02  0.51100000000E-03 0.  1.
         11   -1    0    0    0    0 -0.00000000000E+00 -0.00000000000E+00 -0.45593999997E+02  0.45594000000E+02  0.51100000000E-03 0. -1.
    9900012    2    1    2    0    0 -0.22813463696E+00 -0.10496928790E+00  0.11532211998E+01  0.90007752950E+02  0.90000014489E+02 0.  0.
         12    1    1    2    0    0  0.22813463696E+00  0.10496928790E+00 -0.11532211998E+01  0.11802470502E+01  0.00000000000E+00 0. -1.
         11    1    3    3    0    0  0.22945050590E+02 -0.31723778701E+01 -0.26756653303E+01  0.23317343613E+02  0.51100000000E-03 0. -1.
        -11    1    3    3    0    0  0.16366718171E+02 -0.82747836042E+01 -0.12754662576E+02  0.22338821031E+02  0.51100000000E-03 0.  1.
        -12    1    3    3    0    0 -0.39539903398E+02  0.11342192186E+02  0.16583549106E+02  0.44351588306E+02  0.00000000000E+00 0.  1.
</event>
<event>
 7    1  0.2682188E-015  0.9000772E+02  0.7816164E-02  0.1186339E+00
        -11   -1    0    0    0    0  0.00000000000E+00  0.00000000000E+00  0.45593999997E+02  0.45594000000E+02  0.51100000000E-03 0.  1.
         11   -1    0    0    0    0 -0.00000000000E+00 -0.00000000000E+00 -0.45593999997E+02  0.45594000000E+02  0.51100000000E-03 0. -1.
    9900012    2    1    2    0    0  0.36463482930E+00 -0.10833112504E+01  0.29417030851E+00  0.90007721222E+02  0.89999982342E+02 0.  0.
         12    1    1    2    0    0 -0.36463482930E+00  0.10833112504E+01 -0.29417030851E+00  0.11802787783E+01  0.00000000000E+00 0. -1.
         11    1    3    3    0    0  0.29498959152E+01 -0.68356623117E+01  0.72734686446E+01  0.10408242481E+02  0.51100000000E-03 0. -1.
        -11    1    3    3    0    0  0.22710143948E+02  0.19265769408E+01  0.28100755587E+02  0.36181691526E+02  0.51100000000E-03 0.  1.
         12    1    3    3    0    0 -0.25295405034E+02  0.38257741205E+01 -0.35080053923E+02  0.43417787215E+02  0.00000000000E+00 0. -1.
</event>
<event>
 7    1  0.2682188E-015  0.9000787E+02  0.7816164E-02  0.1186339E+00
        -11   -1    0    0    0    0  0.00000000000E+00  0.00000000000E+00  0.45593999997E+02  0.45594000000E+02  0.51100000000E-03 0.  1.
         11   -1    0    0    0    0 -0.00000000000E+00 -0.00000000000E+00 -0.45593999997E+02  0.45594000000E+02  0.51100000000E-03 0. -1.
    9900012    2    1    2    0    0 -0.11104851438E+00 -0.10914546310E+01  0.43485235467E+00  0.90007872230E+02  0.90000135343E+02 0.  0.
         12    1    1    2    0    0  0.11104851438E+00  0.10914546310E+01 -0.43485235467E+00  0.11801277704E+01  0.00000000000E+00 0. -1.
         11    1    3    3    0    0  0.13255612616E+02 -0.31775958705E+02  0.18577851291E+02  0.39122364145E+02  0.51100000000E-03 0. -1.
        -11    1    3    3    0    0 -0.50314344443E+01 -0.70525797155E+01 -0.14333207190E+01  0.87811515051E+01  0.51100000000E-03 0.  1.
        -12    1    3    3    0    0 -0.83352266864E+01  0.37737083789E+02 -0.16709678218E+02  0.42104356579E+02  0.00000000000E+00 0.  1.
</event>
<event>
 7    1  0.2682188E-015  0.9000778E+02  0.7816164E-02  0.1186339E+00
        -11   -1    0    0    0    0  0.00000000000E+00  0.00000000000E+00  0.45593999997E+02  0.45594000000E+02  0.51100000000E-03 0.  1.
         11   -1    0    0    0    0 -0.00000000000E+00 -0.00000000000E+00 -0.45593999997E+02  0.45594000000E+02  0.51100000000E-03 0. -1.
    9900012    2    1    2    0    0  0.14017859401E+00 -0.44664771749E+00  0.10834074734E+01  0.90007781387E+02  0.90000043301E+02 0.  0.
         12    1    1    2    0    0 -0.14017859401E+00  0.44664771749E+00 -0.10834074734E+01  0.11802186133E+01  0.00000000000E+00 0. -1.
         11    1    3    3    0    0  0.19511129516E+02  0.14145938141E+00 -0.56043628711E+01  0.20300568199E+02  0.51100000000E-03 0. -1.
        -11    1    3    3    0    0  0.13507512648E+02  0.22092094302E+02 -0.80748823614E+01  0.27124108354E+02  0.51100000000E-03 0.  1.
         12    1    3    3    0    0 -0.32878463570E+02 -0.22680201401E+02  0.14762652706E+02  0.42583104833E+02  0.00000000000E+00 0. -1.
</event>
<event>
 7    1  0.2682188E-015  0.9000697E+02  0.7816164E-02  0.1186341E+00
        -11   -1    0    0    0    0  0.00000000000E+00  0.00000000000E+00  0.45593999997E+02  0.45594000000E+02  0.51100000000E-03 0. -1.
         11   -1    0    0    0    0 -0.00000000000E+00 -0.00000000000E+00 -0.45593999997E+02  0.45594000000E+02  0.51100000000E-03 0.  1.
    9900012    2    1    2    0    0  0.12419279453E+00 -0.92642556817E+00 -0.72189726426E+00  0.90006973394E+02  0.89999224640E+02 0.  0.
         12    1    1    2    0    0 -0.12419279453E+00  0.92642556817E+00  0.72189726426E+00  0.11810266058E+01  0.00000000000E+00 0. -1.
         11    1    3    3    0    0  0.19877584729E+02  0.32615731822E+02 -0.32476368431E+01  0.38333425131E+02  0.51100000000E-03 0. -1.
        -11    1    3    3    0    0  0.87136474662E+01 -0.23817472685E+01  0.28308785640E+01  0.94664801231E+01  0.51100000000E-03 0.  1.
        -12    1    3    3    0    0 -0.28467039401E+02 -0.31160410121E+02 -0.30513898508E+00  0.42207068140E+02  0.00000000000E+00 0.  1.
</event>
<event>
 7    1  0.2682188E-015  0.9000764E+02  0.7816164E-02  0.1186339E+00
        -11   -1    0    0    0    0  0.00000000000E+00  0.00000000000E+00  0.45593999997E+02  0.45594000000E+02  0.51100000000E-03 0.  1.
         11   -1    0    0    0    0 -0.00000000000E+00 -0.00000000000E+00 -0.45593999997E+02  0.45594000000E+02  0.51100000000E-03 0. -1.
    9900012    2    1    2    0    0 -0.87487223036E+00  0.29758427181E+00  0.73436401547E+00  0.90007640595E+02  0.89999900651E+02 0.  0.
         12    1    1    2    0    0  0.87487223036E+00 -0.29758427181E+00 -0.73436401547E+00  0.11803594052E+01  0.00000000000E+00 0. -1.
         11    1    3    3    0    0  0.13950711077E+02 -0.40758184138E+02  0.28101909001E+01  0.43171160361E+02  0.51100000000E-03 0. -1.
        -11    1    3    3    0    0  0.16117715002E+01  0.78078479331E+01 -0.53528297727E+01  0.96027643704E+01  0.51100000000E-03 0.  1.
        -12    1    3    3    0    0 -0.16437354808E+02  0.33247920476E+02  0.32770028881E+01  0.37233715863E+02  0.00000000000E+00 0.  1.
</event>
<event>
 7    1  0.2682188E-015  0.9000766E+02  0.7816164E-02  0.1186339E+00
        -11   -1    0    0    0    0  0.00000000000E+00  0.00000000000E+00  0.45593999997E+02  0.45594000000E+02  0.51100000000E-03 0. -1.
         11   -1    0    0    0    0 -0.00000000000E+00 -0.00000000000E+00 -0.45593999997E+02  0.45594000000E+02  0.51100000000E-03 0.  1.
    9900012    2    1    2    0    0 -0.75705775266E+00 -0.68020726619E+00 -0.59780693767E+00  0.90007664666E+02  0.89999925040E+02 0.  0.
         12    1    1    2    0    0  0.75705775266E+00  0.68020726619E+00  0.59780693767E+00  0.11803353339E+01  0.00000000000E+00 0. -1.
         11    1    3    3    0    0 -0.35227170485E+02 -0.60090920545E+00  0.17159405814E+02  0.39188771866E+02  0.51100000000E-03 0. -1.
        -11    1    3    3    0    0 -0.44804365666E+01  0.53803423031E+01 -0.73133078041E+01  0.10124567469E+02  0.51100000000E-03 0.  1.
        -12    1    3    3    0    0  0.38950549299E+02 -0.54596403638E+01 -0.10443904947E+02  0.40694325331E+02  0.00000000000E+00 0.  1.
</event>
<event>
 7    1  0.2682188E-015  0.9000777E+02  0.7816164E-02  0.1186339E+00
        -11   -1    0    0    0    0  0.00000000000E+00  0.00000000000E+00  0.45593999997E+02  0.45594000000E+02  0.51100000000E-03 0.  1.
         11   -1    0    0    0    0 -0.00000000000E+00 -0.00000000000E+00 -0.45593999997E+02  0.45594000000E+02  0.51100000000E-03 0. -1.
    9900012    2    1    2    0    0  0.58499878327E-01 -0.10673618131E+01  0.50026693657E+00  0.90007766767E+02  0.90000028489E+02 0.  0.
         12    1    1    2    0    0 -0.58499878327E-01  0.10673618131E+01 -0.50026693657E+00  0.11802332328E+01  0.00000000000E+00 0. -1.
         11    1    3    3    0    0 -0.26585096992E+02 -0.22745018398E+02  0.12140783246E+02  0.37033793515E+02  0.51100000000E-03 0. -1.
        -11    1    3    3    0    0 -0.72336769947E+01 -0.37260184993E+01 -0.63077160995E+01  0.10295464019E+02  0.51100000000E-03 0.  1.
        -12    1    3    3    0    0  0.33877273865E+02  0.25403675084E+02 -0.53328002096E+01  0.42678509233E+02  0.00000000000E+00 0.  1.
</event>
<event>
 7    1  0.2682188E-015  0.9000783E+02  0.7816164E-02  0.1186339E+00
        -11   -1    0    0    0    0  0.00000000000E+00  0.00000000000E+00  0.45593999997E+02  0.45594000000E+02  0.51100000000E-03 0.  1.
         11   -1    0    0    0    0 -0.00000000000E+00 -0.00000000000E+00 -0.45593999997E+02  0.45594000000E+02  0.51100000000E-03 0. -1.
    9900012    2    1    2    0    0 -0.79964338617E+00  0.88801406026E-02  0.86792527898E+00  0.90007829380E+02  0.90000091928E+02 0.  0.
         12    1    1    2    0    0  0.79964338617E+00 -0.88801406026E-02 -0.86792527898E+00  0.11801706198E+01  0.00000000000E+00 0. -1.
         11    1    3    3    0    0  0.31991318016E+02 -0.10644419000E+02  0.74403386179E+01  0.34526898547E+02  0.51100000000E-03 0. -1.
        -11    1    3    3    0    0  0.78178812518E+01  0.86742958520E+01  0.57243021169E+01  0.13005010987E+02  0.51100000000E-03 0.  1.
        -12    1    3    3    0    0 -0.40608842654E+02  0.19790032885E+01 -0.12296715456E+02  0.42475919846E+02  0.00000000000E+00 0.  1.
</event>
<event>
 7    1  0.3343260E-015  0.9000781E+02  0.7816164E-02  0.1186339E+00
        -11   -1    0    0    0    0  0.00000000000E+00  0.00000000000E+00  0.45593999997E+02  0.45594000000E+02  0.51100000000E-03 0.  1.
         11   -1    0    0    0    0 -0.00000000000E+00 -0.00000000000E+00 -0.45593999997E+02  0.45594000000E+02  0.51100000000E-03 0. -1.
    9900012    2    1    2    0    0 -0.86370105303E+00 -0.73723388586E+00  0.32147607599E+00  0.90007813498E+02  0.90000075836E+02 0.  0.
         12    1    1    2    0    0  0.86370105303E+00  0.73723388586E+00 -0.32147607599E+00  0.11801865017E+01  0.00000000000E+00 0. -1.
         11    1    3    3    0    0  0.67190897781E+01  0.72259038383E+01 -0.16425380876E+01  0.10002888851E+02  0.51100000000E-03 0. -1.
        -11    1    3    3    0    0  0.20379486382E+01  0.29482364342E+02  0.21636014065E+02  0.36626222119E+02  0.51100000000E-03 0.  1.
         12    1    3    3    0    0 -0.96207394693E+01 -0.37445502066E+02 -0.19671999902E+02  0.43378702528E+02  0.00000000000E+00 0. -1.
</event>
<event>
 7    1  0.2682188E-015  0.9000761E+02  0.7816164E-02  0.1186339E+00
        -11   -1    0    0    0    0  0.00000000000E+00  0.00000000000E+00  0.45593999997E+02  0.45594000000E+02  0.51100000000E-03 0.  1.
         11   -1    0    0    0    0 -0.00000000000E+00 -0.00000000000E+00 -0.45593999997E+02  0.45594000000E+02  0.51100000000E-03 0. -1.
    9900012    2    1    2    0    0  0.38800763142E+00 -0.89857151569E+00  0.65980804395E+00  0.90007607122E+02  0.89999866736E+02 0.  0.
         12    1    1    2    0    0 -0.38800763142E+00  0.89857151569E+00 -0.65980804395E+00  0.11803928777E+01  0.00000000000E+00 0. -1.
         11    1    3    3    0    0 -0.35711154817E+02  0.20359398715E+02  0.42439194720E+01  0.41325567717E+02  0.51100000000E-03 0. -1.
        -11    1    3    3    0    0 -0.48903554471E+00 -0.96893795017E+01  0.19959842381E+01  0.99049070784E+01  0.51100000000E-03 0.  1.
        -12    1    3    3    0    0  0.36588197993E+02 -0.11568590729E+02 -0.55800956661E+01  0.38777132327E+02  0.00000000000E+00 0.  1.
</event>
<event>
 7    1  0.2682188E-015  0.9000781E+02  0.7816164E-02  0.1186339E+00
        -11   -1    0    0    0    0  0.00000000000E+00  0.00000000000E+00  0.45593999997E+02  0.45594000000E+02  0.51100000000E-03 0.  1.
         11   -1    0    0    0    0 -0.00000000000E+00 -0.00000000000E+00 -0.45593999997E+02  0.45594000000E+02  0.51100000000E-03 0. -1.
    9900012    2    1    2    0    0  0.10840636115E+01 -0.52316357407E-02  0.46650510315E+00  0.90007810060E+02  0.90000072352E+02 0.  0.
         12    1    1    2    0    0 -0.10840636115E+01  0.52316357407E-02 -0.46650510315E+00  0.11801899403E+01  0.00000000000E+00 0. -1.
         11    1    3    3    0    0 -0.19210042749E+02  0.20408035344E+02 -0.16309866214E+02  0.32427232154E+02  0.51100000000E-03 0. -1.
        -11    1    3    3    0    0 -0.64915312389E+00  0.93236261168E+01 -0.90205379586E+01  0.12989284394E+02  0.51100000000E-03 0.  1.
        -12    1    3    3    0    0  0.20943259484E+02 -0.29736893096E+02  0.25796909276E+02  0.44591293512E+02  0.00000000000E+00 0.  1.
</event>
<event>
 7    1  0.2682188E-015  0.9000778E+02  0.7816164E-02  0.1186339E+00
        -11   -1    0    0    0    0  0.00000000000E+00  0.00000000000E+00  0.45593999997E+02  0.45594000000E+02  0.51100000000E-03 0. -1.
         11   -1    0    0    0    0 -0.00000000000E+00 -0.00000000000E+00 -0.45593999997E+02  0.45594000000E+02  0.51100000000E-03 0.  1.
    9900012    2    1    2    0    0 -0.96196727062E+00 -0.31527752415E-02  0.68375896913E+00  0.90007780826E+02  0.90000042733E+02 0.  0.
         12    1    1    2    0    0  0.96196727062E+00  0.31527752415E-02 -0.68375896913E+00  0.11802191735E+01  0.00000000000E+00 0. -1.
         11    1    3    3    0    0  0.89100698042E+01 -0.47648459301E+01 -0.41676196426E+01  0.10929874400E+02  0.51100000000E-03 0. -1.
        -11    1    3    3    0    0  0.12233069895E+02  0.12675690936E+02 -0.31331842824E+02  0.35944478224E+02  0.51100000000E-03 0.  1.
         12    1    3    3    0    0 -0.22105106970E+02 -0.79139977811E+01  0.36183221436E+02  0.43133428203E+02  0.00000000000E+00 0. -1.
</event>
<event>
 7    1  0.2682188E-015  0.9000801E+02  0.7816164E-02  0.1186339E+00
        -11   -1    0    0    0    0  0.00000000000E+00  0.00000000000E+00  0.45593999997E+02  0.45594000000E+02  0.51100000000E-03 0. -1.
         11   -1    0    0    0    0 -0.00000000000E+00 -0.00000000000E+00 -0.45593999997E+02  0.45594000000E+02  0.51100000000E-03 0.  1.
    9900012    2    1    2    0    0  0.68596794674E+00 -0.66539660960E+00  0.69214763299E+00  0.90008011433E+02  0.90000276384E+02 0.  0.
         12    1    1    2    0    0 -0.68596794674E+00  0.66539660960E+00 -0.69214763299E+00  0.11799885668E+01  0.00000000000E+00 0. -1.
         11    1    3    3    0    0  0.87648955816E+01 -0.75235125807E+01 -0.15442550936E+01  0.11653813117E+02  0.51100000000E-03 0. -1.
        -11    1    3    3    0    0  0.27743144645E+02  0.16847145907E+02 -0.16831100564E+02  0.36562198326E+02  0.51100000000E-03 0.  1.
         12    1    3    3    0    0 -0.35822072280E+02 -0.99890299356E+01  0.19067503291E+02  0.41791999990E+02  0.00000000000E+00 0. -1.
</event>
<event>
 7    1  0.2682188E-015  0.9000773E+02  0.7816164E-02  0.1186339E+00
        -11   -1    0    0    0    0  0.00000000000E+00  0.00000000000E+00  0.45593999997E+02  0.45594000000E+02  0.51100000000E-03 0.  1.
         11   -1    0    0    0    0 -0.00000000000E+00 -0.00000000000E+00 -0.45593999997E+02  0.45594000000E+02  0.51100000000E-03 0. -1.
    9900012    2    1    2    0    0 -0.16011402819E+00 -0.10079248710E+01  0.59287424211E+00  0.90007725068E+02  0.89999986239E+02 0.  0.
         12    1    1    2    0    0  0.16011402819E+00  0.10079248710E+01 -0.59287424211E+00  0.11802749318E+01  0.00000000000E+00 0. -1.
         11    1    3    3    0    0  0.21126635259E+02 -0.22510343045E+02 -0.18782052938E+02  0.36136073032E+02  0.51100000000E-03 0. -1.
        -11    1    3    3    0    0  0.88484684475E+01 -0.10920646581E+01 -0.37523798293E+01  0.96730736443E+01  0.51100000000E-03 0.  1.
        -12    1    3    3    0    0 -0.30135217735E+02  0.22594482832E+02  0.23127307009E+02  0.44198578392E+02  0.00000000000E+00 0.  1.
</event>
<event>
 7    1  0.2682188E-015  0.9000778E+02  0.7816164E-02  0.1186339E+00
        -11   -1    0    0    0    0  0.00000000000E+00  0.00000000000E+00  0.45593999997E+02  0.45594000000E+02  0.51100000000E-03 0.  1.
         11   -1    0    0    0    0 -0.00000000000E+00 -0.00000000000E+00 -0.45593999997E+02  0.45594000000E+02  0.51100000000E-03 0. -1.
    9900012    2    1    2    0    0  0.63350432045E+00 -0.35494443923E+00  0.93037609075E+00  0.90007782669E+02  0.90000044600E+02 0.  0.
         12    1    1    2    0    0 -0.63350432045E+00  0.35494443923E+00 -0.93037609075E+00  0.11802173313E+01  0.00000000000E+00 0. -1.
         11    1    3    3    0    0  0.17084746429E+02  0.76702415494E+01 -0.29940068617E+02  0.35314711878E+02  0.51100000000E-03 0. -1.
        -11    1    3    3    0    0  0.15796230098E+00  0.55524075890E+01 -0.83266832621E+01  0.10009387420E+02  0.51100000000E-03 0.  1.
        -12    1    3    3    0    0 -0.16609204409E+02 -0.13577593578E+02  0.39197127970E+02  0.44683683370E+02  0.00000000000E+00 0.  1.
</event>
<event>
 7    1  0.2682188E-015  0.9000769E+02  0.7816164E-02  0.1186339E+00
        -11   -1    0    0    0    0  0.00000000000E+00  0.00000000000E+00  0.45593999997E+02  0.45594000000E+02  0.51100000000E-03 0. -1.
         11   -1    0    0    0    0 -0.00000000000E+00 -0.00000000000E+00 -0.45593999997E+02  0.45594000000E+02  0.51100000000E-03 0.  1.
    9900012    2    1    2    0    0 -0.10253251779E+01  0.92173468170E-01 -0.57736045796E+00  0.90007689546E+02  0.89999950248E+02 0.  0.
         12    1    1    2    0    0  0.10253251779E+01 -0.92173468170E-01  0.57736045796E+00  0.11803104536E+01  0.00000000000E+00 0. -1.
         11    1    3    3    0    0  0.31684062041E+02 -0.17290803098E+02 -0.10341741101E+02  0.37547347023E+02  0.51100000000E-03 0. -1.
        -11    1    3    3    0    0  0.79491830707E+00 -0.41314669853E+01 -0.78613587364E+01  0.89163824508E+01  0.51100000000E-03 0.  1.
        -12    1    3    3    0    0 -0.33504305526E+02  0.21514443552E+02  0.17625739379E+02  0.43543960072E+02  0.00000000000E+00 0.  1.
</event>
<event>
 7    1  0.2682188E-015  0.9000772E+02  0.7816164E-02  0.1186339E+00
        -11   -1    0    0    0    0  0.00000000000E+00  0.00000000000E+00  0.45593999997E+02  0.45594000000E+02  0.51100000000E-03 0.  1.
         11   -1    0    0    0    0 -0.00000000000E+00 -0.00000000000E+00 -0.45593999997E+02  0.45594000000E+02  0.51100000000E-03 0. -1.
    9900012    2    1    2    0    0 -0.47924499979E+00  0.71693438215E+00  0.80584493909E+00  0.90007721751E+02  0.89999982879E+02 0.  0.
         12    1    1    2    0    0  0.47924499979E+00 -0.71693438215E+00 -0.80584493909E+00  0.11802782485E+01  0.00000000000E+00 0. -1.
         11    1    3    3    0    0  0.12143654841E+02 -0.31645370924E+02 -0.16909553240E+02  0.37879161090E+02  0.51100000000E-03 0. -1.
        -11    1    3    3    0    0 -0.57826813585E+01  0.14488443480E+02 -0.99395929397E+01  0.18497294565E+02  0.51100000000E-03 0.  1.
        -12    1    3    3    0    0 -0.68402184824E+01  0.17873861826E+02  0.27654991119E+02  0.33631266097E+02  0.00000000000E+00 0.  1.
</event>
<event>
 7    1  0.2682188E-015  0.9000762E+02  0.7816164E-02  0.1186339E+00
        -11   -1    0    0    0    0  0.00000000000E+00  0.00000000000E+00  0.45593999997E+02  0.45594000000E+02  0.51100000000E-03 0.  1.
         11   -1    0    0    0    0 -0.00000000000E+00 -0.00000000000E+00 -0.45593999997E+02  0.45594000000E+02  0.51100000000E-03 0. -1.
    9900012    2    1    2    0    0 -0.51299521150E+00  0.89293906205E+00  0.57687682873E+00  0.90007622462E+02  0.89999882279E+02 0.  0.
         12    1    1    2    0    0  0.51299521150E+00 -0.89293906205E+00 -0.57687682873E+00  0.11803775375E+01  0.00000000000E+00 0. -1.
         11    1    3    3    0    0  0.18749781029E+02  0.34186127892E+02  0.16564290576E+02  0.42362971466E+02  0.51100000000E-03 0. -1.
        -11    1    3    3    0    0  0.44986432907E+01 -0.37797433664E+01 -0.61346835056E+01  0.84946214364E+01  0.51100000000E-03 0.  1.
        -12    1    3    3    0    0 -0.23761419532E+02 -0.29513445464E+02 -0.98527302417E+01  0.39150029560E+02  0.00000000000E+00 0.  1.
</event>
<event>
 7    1  0.2682188E-015  0.9000762E+02  0.7816164E-02  0.1186339E+00
        -11   -1    0    0    0    0  0.00000000000E+00  0.00000000000E+00  0.45593999997E+02  0.45594000000E+02  0.51100000000E-03 0.  1.
         11   -1    0    0    0    0 -0.00000000000E+00 -0.00000000000E+00 -0.45593999997E+02  0.45594000000E+02  0.51100000000E-03 0. -1.
    9900012    2    1    2    0    0 -0.81724892556E+00 -0.52595959376E+00  0.66989914044E+00  0.90007621180E+02  0.89999880979E+02 0.  0.
         12    1    1    2    0    0  0.81724892556E+00  0.52595959376E+00 -0.66989914044E+00  0.11803788201E+01  0.00000000000E+00 0. -1.
         11    1    3    3    0    0 -0.27135220776E+02  0.27780156617E+02 -0.31209713556E+01  0.38958924147E+02  0.51100000000E-03 0. -1.
        -11    1    3    3    0    0 -0.32900020546E+01 -0.19021992648E+02  0.51827943193E+01  0.19988038299E+02  0.51100000000E-03 0.  1.
        -12    1    3    3    0    0  0.29607973905E+02 -0.92841235628E+01 -0.13919238233E+01  0.31060658734E+02  0.00000000000E+00 0.  1.
</event>
<event>
 7    1  0.2682188E-015  0.9000771E+02  0.7816164E-02  0.1186339E+00
        -11   -1    0    0    0    0  0.00000000000E+00  0.00000000000E+00  0.45593999997E+02  0.45594000000E+02  0.51100000000E-03 0.  1.
         11   -1    0    0    0    0 -0.00000000000E+00 -0.00000000000E+00 -0.45593999997E+02  0.45594000000E+02  0.51100000000E-03 0. -1.
    9900012    2    1    2    0    0 -0.50620827052E+00  0.95505847415E+00  0.47401841278E+00  0.90007713188E+02  0.89999974202E+02 0.  0.
         12    1    1    2    0    0  0.50620827052E+00 -0.95505847415E+00 -0.47401841278E+00  0.11802868117E+01  0.00000000000E+00 0. -1.
         11    1    3    3    0    0 -0.52682919339E+01  0.36230014921E+02 -0.26826080778E+00  0.36612031427E+02  0.51100000000E-03 0. -1.
        -11    1    3    3    0    0 -0.43075179890E+01  0.65290401168E+01 -0.62997232813E+01  0.10043385373E+02  0.51100000000E-03 0.  1.
        -12    1    3    3    0    0  0.90696016524E+01 -0.41803996564E+02  0.70420025019E+01  0.43352296388E+02  0.00000000000E+00 0.  1.
</event>
<event>
 7    1  0.2682188E-015  0.9000779E+02  0.7816164E-02  0.1186339E+00
        -11   -1    0    0    0    0  0.00000000000E+00  0.00000000000E+00  0.45593999997E+02  0.45594000000E+02  0.51100000000E-03 0. -1.
         11   -1    0    0    0    0 -0.00000000000E+00 -0.00000000000E+00 -0.45593999997E+02  0.45594000000E+02  0.51100000000E-03 0.  1.
    9900012    2    1    2    0    0 -0.45424004732E+00  0.10861371752E+01 -0.82891554156E-01  0.90007788581E+02  0.90000050590E+02 0.  0.
         12    1    1    2    0    0  0.45424004732E+00 -0.10861371752E+01  0.82891554156E-01  0.11802114191E+01  0.00000000000E+00 0. -1.
         11    1    3    3    0    0  0.28095582263E+01 -0.35324003150E+01  0.12391473673E+02  0.13187876610E+02  0.51100000000E-03 0. -1.
        -11    1    3    3    0    0  0.33831134068E+02 -0.84036963048E+01 -0.13779699705E+02  0.37483968148E+02  0.51100000000E-03 0.  1.
         12    1    3    3    0    0 -0.37094932341E+02  0.13022233795E+02  0.13053344773E+01  0.39335943824E+02  0.00000000000E+00 0. -1.
</event>
<event>
 7    1  0.2682188E-015  0.9000783E+02  0.7816164E-02  0.1186339E+00
        -11   -1    0    0    0    0  0.00000000000E+00  0.00000000000E+00  0.45593999997E+02  0.45594000000E+02  0.51100000000E-03 0. -1.
         11   -1    0    0    0    0 -0.00000000000E+00 -0.00000000000E+00 -0.45593999997E+02  0.45594000000E+02  0.51100000000E-03 0.  1.
    9900012    2    1    2    0    0  0.11298909243E+01 -0.28943704401E+00  0.17994662658E+00  0.90007827092E+02  0.90000089610E+02 0.  0.
         12    1    1    2    0    0 -0.11298909243E+01  0.28943704401E+00 -0.17994662658E+00  0.11801729076E+01  0.00000000000E+00 0. -1.
         11    1    3    3    0    0 -0.22479177826E+00  0.10691138313E+02  0.18761440488E+01  0.10856835935E+02  0.51100000000E-03 0. -1.
        -11    1    3    3    0    0  0.11735898887E+02  0.26953498542E+02  0.18706620745E+02  0.34844799702E+02  0.51100000000E-03 0.  1.
         12    1    3    3    0    0 -0.10381216184E+02 -0.37934073899E+02 -0.20402818167E+02  0.44306191455E+02  0.00000000000E+00 0. -1.
</event>
<event>
 7    1  0.2682188E-015  0.9000785E+02  0.7816164E-02  0.1186339E+00
        -11   -1    0    0    0    0  0.00000000000E+00  0.00000000000E+00  0.45593999997E+02  0.45594000000E+02  0.51100000000E-03 0. -1.
         11   -1    0    0    0    0 -0.00000000000E+00 -0.00000000000E+00 -0.45593999997E+02  0.45594000000E+02  0.51100000000E-03 0.  1.
    9900012    2    1    2    0    0  0.89012633791E+00 -0.75175350027E+00 -0.18789158371E+00  0.90007846845E+02  0.90000109623E+02 0.  0.
         12    1    1    2    0    0 -0.89012633791E+00  0.75175350027E+00  0.18789158371E+00  0.11801531552E+01  0.00000000000E+00 0. -1.
         11    1    3    3    0    0 -0.41093695786E+01  0.37374586067E+02 -0.27892271210E+01  0.37703135018E+02  0.51100000000E-03 0. -1.
        -11    1    3    3    0    0  0.20581733570E+01  0.34861364850E+01 -0.82590580486E+01  0.91978946108E+01  0.51100000000E-03 0.  1.
        -12    1    3    3    0    0  0.29413225594E+01 -0.41612476052E+02  0.10860393586E+02  0.43106817216E+02  0.00000000000E+00 0.  1.
</event>
<event>
 7    1  0.2682188E-015  0.9000775E+02  0.7816164E-02  0.1186339E+00
        -11   -1    0    0    0    0  0.00000000000E+00  0.00000000000E+00  0.45593999997E+02  0.45594000000E+02  0.51100000000E-03 0. -1.
         11   -1    0    0    0    0 -0.00000000000E+00 -0.00000000000E+00 -0.45593999997E+02  0.45594000000E+02  0.51100000000E-03 0.  1.
    9900012    2    1    2    0    0  0.88526441351E-01 -0.75678264862E+00 -0.90134698574E+00  0.90007752866E+02  0.90000014404E+02 0.  0.
         12    1    1    2    0    0 -0.88526441351E-01  0.75678264862E+00  0.90134698574E+00  0.11802471338E+01  0.00000000000E+00 0. -1.
         11    1    3    3    0    0 -0.14240810753E+02  0.27560966582E+02  0.21624982983E+02  0.37815968309E+02  0.51100000000E-03 0. -1.
        -11    1    3    3    0    0 -0.93649863875E+01 -0.33419901970E-01 -0.86276527224E+00  0.94047036691E+01  0.51100000000E-03 0.  1.
        -12    1    3    3    0    0  0.23694323582E+02 -0.28284329329E+02 -0.21663564697E+02  0.42787080888E+02  0.00000000000E+00 0.  1.
</event>
<event>
 7    1  0.2682188E-015  0.9000773E+02  0.7816164E-02  0.1186339E+00
        -11   -1    0    0    0    0  0.00000000000E+00  0.00000000000E+00  0.45593999997E+02  0.45594000000E+02  0.51100000000E-03 0.  1.
         11   -1    0    0    0    0 -0.00000000000E+00 -0.00000000000E+00 -0.45593999997E+02  0.45594000000E+02  0.51100000000E-03 0. -1.
    9900012    2    1    2    0    0 -0.42699301753E+00 -0.11737493939E+00  0.10940425859E+01  0.90007733465E+02  0.89999994747E+02 0.  0.
         12    1    1    2    0    0  0.42699301753E+00  0.11737493939E+00 -0.10940425859E+01  0.11802665348E+01  0.00000000000E+00 0. -1.
         11    1    3    3    0    0 -0.68405072065E+01  0.98506030969E+01 -0.36579234016E+02  0.38495029311E+02  0.51100000000E-03 0. -1.
        -11    1    3    3    0    0 -0.84403933004E+01  0.40784005080E+01  0.87229920504E+00  0.94145895255E+01  0.51100000000E-03 0.  1.
        -12    1    3    3    0    0  0.14853907489E+02 -0.14046378544E+02  0.36800977397E+02  0.42098114629E+02  0.00000000000E+00 0.  1.
</event>
<event>
 7    1  0.2682188E-015  0.9000784E+02  0.7816164E-02  0.1186339E+00
        -11   -1    0    0    0    0  0.00000000000E+00  0.00000000000E+00  0.45593999997E+02  0.45594000000E+02  0.51100000000E-03 0.  1.
         11   -1    0    0    0    0 -0.00000000000E+00 -0.00000000000E+00 -0.45593999997E+02  0.45594000000E+02  0.51100000000E-03 0. -1.
    9900012    2    1    2    0    0  0.19115795203E-02 -0.95601792545E+00 -0.69196241819E+00  0.90007836488E+02  0.90000099129E+02 0.  0.
         12    1    1    2    0    0 -0.19115795203E-02  0.95601792545E+00  0.69196241819E+00  0.11801635124E+01  0.00000000000E+00 0. -1.
         11    1    3    3    0    0  0.10435752427E+02  0.47484265610E+01  0.73428773812E+01  0.13615077378E+02  0.51100000000E-03 0. -1.
        -11    1    3    3    0    0 -0.22557358009E+02 -0.16210082697E+02 -0.35202614914E+02  0.44842226511E+02  0.51100000000E-03 0.  1.
         12    1    3    3    0    0  0.12123517162E+02  0.10505638211E+02  0.27167775115E+02  0.31550532599E+02  0.00000000000E+00 0. -1.
</event>
<event>
 7    1  0.2682188E-015  0.9000769E+02  0.7816164E-02  0.1186339E+00
        -11   -1    0    0    0    0  0.00000000000E+00  0.00000000000E+00  0.45593999997E+02  0.45594000000E+02  0.51100000000E-03 0. -1.
         11   -1    0    0    0    0 -0.00000000000E+00 -0.00000000000E+00 -0.45593999997E+02  0.45594000000E+02  0.51100000000E-03 0.  1.
    9900012    2    1    2    0    0 -0.93761715182E+00  0.42607252480E+00 -0.57659177364E+00  0.90007694195E+02  0.89999954958E+02 0.  0.
         12    1    1    2    0    0  0.93761715182E+00 -0.42607252480E+00  0.57659177364E+00  0.11803058050E+01  0.00000000000E+00 0. -1.
         11    1    3    3    0    0 -0.16346817380E+02  0.34995513236E+02  0.14110555566E+02  0.41121918288E+02  0.51100000000E-03 0. -1.
        -11    1    3    3    0    0 -0.72769267033E+01 -0.37936564665E+01 -0.43077353449E+01  0.92683372669E+01  0.51100000000E-03 0.  1.
        -12    1    3    3    0    0  0.22686126931E+02 -0.30775784244E+02 -0.10379411995E+02  0.39617438640E+02  0.00000000000E+00 0.  1.
</event>
<event>
 7    1  0.2682188E-015  0.9000771E+02  0.7816164E-02  0.1186339E+00
        -11   -1    0    0    0    0  0.00000000000E+00  0.00000000000E+00  0.45593999997E+02  0.45594000000E+02  0.51100000000E-03 0. -1.
         11   -1    0    0    0    0 -0.00000000000E+00 -0.00000000000E+00 -0.45593999997E+02  0.45594000000E+02  0.51100000000E-03 0.  1.
    9900012    2    1    2    0    0  0.79293846031E+00 -0.73414063976E+00 -0.47473268930E+00  0.90007709778E+02  0.89999970748E+02 0.  0.
         12    1    1    2    0    0 -0.79293846031E+00  0.73414063976E+00  0.47473268930E+00  0.11802902215E+01  0.00000000000E+00 0. -1.
         11    1    3    3    0    0 -0.23779024845E+02 -0.13359998009E+02  0.31976434161E+02  0.42028846181E+02  0.51100000000E-03 0. -1.
        -11    1    3    3    0    0 -0.32151829949E+01  0.57925648682E+01 -0.47486830337E+01  0.81511471744E+01  0.51100000000E-03 0.  1.
        -12    1    3    3    0    0  0.27787146300E+02  0.68332925009E+01 -0.27702483816E+02  0.39827716423E+02  0.00000000000E+00 0.  1.
</event>
<event>
 7    1  0.2682188E-015  0.9000794E+02  0.7816164E-02  0.1186339E+00
        -11   -1    0    0    0    0  0.00000000000E+00  0.00000000000E+00  0.45593999997E+02  0.45594000000E+02  0.51100000000E-03 0.  1.
         11   -1    0    0    0    0 -0.00000000000E+00 -0.00000000000E+00 -0.45593999997E+02  0.45594000000E+02  0.51100000000E-03 0. -1.
    9900012    2    1    2    0    0 -0.38152600341E+00  0.36041145359E+00  0.10569247907E+01  0.90007937069E+02  0.90000201038E+02 0.  0.
         12    1    1    2    0    0  0.38152600341E+00 -0.36041145359E+00 -0.10569247907E+01  0.11800629307E+01  0.00000000000E+00 0. -1.
         11    1    3    3    0    0  0.56005871705E+01 -0.92751183217E+01 -0.57910886655E+01  0.12285402099E+02  0.51100000000E-03 0. -1.
        -11    1    3    3    0    0  0.18014427528E+02  0.36910733371E+02  0.27641000090E+01  0.41165059047E+02  0.51100000000E-03 0.  1.
         12    1    3    3    0    0 -0.23996540702E+02 -0.27275203596E+02  0.40839134472E+01  0.36557475924E+02  0.00000000000E+00 0. -1.
</event>
<event>
 7    1  0.2682188E-015  0.9000784E+02  0.7816164E-02  0.1186339E+00
        -11   -1    0    0    0    0  0.00000000000E+00  0.00000000000E+00  0.45593999997E+02  0.45594000000E+02  0.51100000000E-03 0. -1.
         11   -1    0    0    0    0 -0.00000000000E+00 -0.00000000000E+00 -0.45593999997E+02  0.45594000000E+02  0.51100000000E-03 0.  1.
    9900012    2    1    2    0    0  0.11617659935E+01 -0.69258260135E-01 -0.19563333614E+00  0.90007843514E+02  0.90000106248E+02 0.  0.
         12    1    1    2    0    0 -0.11617659935E+01  0.69258260135E-01  0.19563333614E+00  0.11801564864E+01  0.00000000000E+00 0. -1.
         11    1    3    3    0    0  0.25009232218E+02 -0.28100544586E+01  0.33336972719E+02  0.41769748054E+02  0.51100000000E-03 0. -1.
        -11    1    3    3    0    0 -0.88559769311E+01  0.40994536929E+01  0.17172228244E+01  0.99087185081E+01  0.51100000000E-03 0.  1.
        -12    1    3    3    0    0 -0.14991489294E+02 -0.13586574944E+01 -0.35249828880E+02  0.38329376951E+02  0.00000000000E+00 0.  1.
</event>
<event>
 7    1  0.2682188E-015  0.9000772E+02  0.7816164E-02  0.1186339E+00
        -11   -1    0    0    0    0  0.00000000000E+00  0.00000000000E+00  0.45593999997E+02  0.45594000000E+02  0.51100000000E-03 0.  1.
         11   -1    0    0    0    0 -0.00000000000E+00 -0.00000000000E+00 -0.45593999997E+02  0.45594000000E+02  0.51100000000E-03 0. -1.
    9900012    2    1    2    0    0 -0.98361014294E+00 -0.83084485651E-01  0.64705142849E+00  0.90007717197E+02  0.89999978264E+02 0.  0.
         12    1    1    2    0    0  0.98361014294E+00  0.83084485651E-01 -0.64705142849E+00  0.11802828035E+01  0.00000000000E+00 0. -1.
         11    1    3    3    0    0  0.89658390860E+01 -0.16424484698E+01 -0.32649799232E+00  0.91208831093E+01  0.51100000000E-03 0. -1.
        -11    1    3    3    0    0  0.31378795876E+02  0.12883001816E+02  0.13084768977E+02  0.36356729031E+02  0.51100000000E-03 0.  1.
         12    1    3    3    0    0 -0.41328245105E+02 -0.11323637832E+02 -0.12111219556E+02  0.44530105056E+02  0.00000000000E+00 0. -1.
</event>
<event>
 7    1  0.2682188E-015  0.9000775E+02  0.7816164E-02  0.1186339E+00
        -11   -1    0    0    0    0  0.00000000000E+00  0.00000000000E+00  0.45593999997E+02  0.45594000000E+02  0.51100000000E-03 0.  1.
         11   -1    0    0    0    0 -0.00000000000E+00 -0.00000000000E+00 -0.45593999997E+02  0.45594000000E+02  0.51100000000E-03 0. -1.
    9900012    2    1    2    0    0  0.24847807785E+00  0.26148800683E+00  0.11237789028E+01  0.90007747334E+02  0.90000008799E+02 0.  0.
         12    1    1    2    0    0 -0.24847807785E+00 -0.26148800683E+00 -0.11237789028E+01  0.11802526658E+01  0.00000000000E+00 0. -1.
         11    1    3    3    0    0  0.12884573964E+02  0.18133820841E+01 -0.12454241810E+02  0.18011350314E+02  0.51100000000E-03 0. -1.
        -11    1    3    3    0    0  0.23678563162E+02 -0.15827234486E+02  0.16416325514E+02  0.32873567627E+02  0.51100000000E-03 0.  1.
        -12    1    3    3    0    0 -0.36314659048E+02  0.14275340409E+02 -0.28383048017E+01  0.39122829393E+02  0.00000000000E+00 0.  1.
</event>
<event>
 7    1  0.2682188E-015  0.9000773E+02  0.7816164E-02  0.1186339E+00
        -11   -1    0    0    0    0  0.00000000000E+00  0.00000000000E+00  0.45593999997E+02  0.45594000000E+02  0.51100000000E-03 0.  1.
         11   -1    0    0    0    0 -0.00000000000E+00 -0.00000000000E+00 -0.45593999997E+02  0.45594000000E+02  0.51100000000E-03 0. -1.
    9900012    2    1    2    0    0 -0.66141546536E+00 -0.97300858004E+00 -0.93909650764E-01  0.90007730905E+02  0.89999992153E+02 0.  0.
         12    1    1    2    0    0  0.66141546536E+00  0.97300858004E+00  0.93909650764E-01  0.11802690952E+01  0.00000000000E+00 0. -1.
         11    1    3    3    0    0 -0.28276243222E+02 -0.18267600048E+02 -0.19995060442E+02  0.39154228183E+02  0.51100000000E-03 0. -1.
        -11    1    3    3    0    0 -0.47911605435E+01 -0.43321075332E+01  0.76514813835E+01  0.10013368197E+02  0.51100000000E-03 0.  1.
        -12    1    3    3    0    0  0.32405988300E+02  0.21626699001E+02  0.12249669407E+02  0.40840134525E+02  0.00000000000E+00 0.  1.
</event>
<event>
 7    1  0.2682188E-015  0.9000770E+02  0.7816164E-02  0.1186339E+00
        -11   -1    0    0    0    0  0.00000000000E+00  0.00000000000E+00  0.45593999997E+02  0.45594000000E+02  0.51100000000E-03 0.  1.
         11   -1    0    0    0    0 -0.00000000000E+00 -0.00000000000E+00 -0.45593999997E+02  0.45594000000E+02  0.51100000000E-03 0. -1.
    9900012    2    1    2    0    0 -0.75317781301E+00  0.89312452453E+00  0.16778892423E+00  0.90007702852E+02  0.89999963730E+02 0.  0.
         12    1    1    2    0    0  0.75317781301E+00 -0.89312452453E+00 -0.16778892423E+00  0.11802971479E+01  0.00000000000E+00 0. -1.
         11    1    3    3    0    0  0.66886977006E+01 -0.42374705644E+01  0.35664010372E+01  0.86841263426E+01  0.51100000000E-03 0. -1.
        -11    1    3    3    0    0  0.22191454319E+02 -0.21530943934E+02  0.18309106656E+02  0.35934183980E+02  0.51100000000E-03 0.  1.
         12    1    3    3    0    0 -0.29633329833E+02  0.26661539022E+02 -0.21707718769E+02  0.45389392530E+02  0.00000000000E+00 0. -1.
</event>
<event>
 7    1  0.2682188E-015  0.9000775E+02  0.7816164E-02  0.1186339E+00
        -11   -1    0    0    0    0  0.00000000000E+00  0.00000000000E+00  0.45593999997E+02  0.45594000000E+02  0.51100000000E-03 0. -1.
         11   -1    0    0    0    0 -0.00000000000E+00 -0.00000000000E+00 -0.45593999997E+02  0.45594000000E+02  0.51100000000E-03 0.  1.
    9900012    2    1    2    0    0  0.95514346824E+00 -0.42104874994E+00  0.55082522051E+00  0.90007750231E+02  0.90000011734E+02 0.  0.
         12    1    1    2    0    0 -0.95514346824E+00  0.42104874994E+00 -0.55082522051E+00  0.11802497695E+01  0.00000000000E+00 0. -1.
         11    1    3    3    0    0 -0.12587285677E+02  0.36065544175E+01  0.66463516841E+01  0.14684038492E+02  0.51100000000E-03 0. -1.
        -11    1    3    3    0    0 -0.61732875379E+01 -0.22054583492E+02 -0.31173727852E+02  0.38682236757E+02  0.51100000000E-03 0.  1.
         12    1    3    3    0    0  0.19715716683E+02  0.18026980324E+02  0.25078201389E+02  0.36641474982E+02  0.00000000000E+00 0. -1.
</event>
<event>
 7    1  0.2682188E-015  0.9000788E+02  0.7816164E-02  0.1186339E+00
        -11   -1    0    0    0    0  0.00000000000E+00  0.00000000000E+00  0.45593999997E+02  0.45594000000E+02  0.51100000000E-03 0.  1.
         11   -1    0    0    0    0 -0.00000000000E+00 -0.00000000000E+00 -0.45593999997E+02  0.45594000000E+02  0.51100000000E-03 0. -1.
    9900012    2    1    2    0    0  0.10213339337E+01  0.36569915671E+00  0.46456634567E+00  0.90007881037E+02  0.90000144267E+02 0.  0.
         12    1    1    2    0    0 -0.10213339337E+01 -0.36569915671E+00 -0.46456634567E+00  0.11801189630E+01  0.00000000000E+00 0. -1.
         11    1    3    3    0    0 -0.22226408344E+02  0.23573160882E+02  0.21666921774E+02  0.38976437001E+02  0.51100000000E-03 0. -1.
        -11    1    3    3    0    0  0.11388511881E+01 -0.45375781678E+01  0.84126287580E+01  0.96259503707E+01  0.51100000000E-03 0.  1.
        -12    1    3    3    0    0  0.22108891090E+02 -0.18669883558E+02 -0.29614984187E+02  0.41405493665E+02  0.00000000000E+00 0.  1.
</event>
<event>
 7    1  0.2682188E-015  0.9000780E+02  0.7816164E-02  0.1186339E+00
        -11   -1    0    0    0    0  0.00000000000E+00  0.00000000000E+00  0.45593999997E+02  0.45594000000E+02  0.51100000000E-03 0.  1.
         11   -1    0    0    0    0 -0.00000000000E+00 -0.00000000000E+00 -0.45593999997E+02  0.45594000000E+02  0.51100000000E-03 0. -1.
    9900012    2    1    2    0    0 -0.63247482090E+00 -0.56278333531E+00 -0.82227120527E+00  0.90007796875E+02  0.90000058994E+02 0.  0.
         12    1    1    2    0    0  0.63247482090E+00  0.56278333531E+00  0.82227120527E+00  0.11802031251E+01  0.00000000000E+00 0. -1.
         11    1    3    3    0    0 -0.12283748098E+02  0.29875991004E+01 -0.34066107500E+02  0.36336151367E+02  0.51100000000E-03 0. -1.
        -11    1    3    3    0    0 -0.79802964826E+01  0.37853711361E+01 -0.49359129112E+01  0.10118171926E+02  0.51100000000E-03 0.  1.
        -12    1    3    3    0    0  0.19631569760E+02 -0.73357535718E+01  0.38179749206E+02  0.43553473582E+02  0.00000000000E+00 0.  1.
</event>
<event>
 7    1  0.2682188E-015  0.9000773E+02  0.7816164E-02  0.1186339E+00
        -11   -1    0    0    0    0  0.00000000000E+00  0.00000000000E+00  0.45593999997E+02  0.45594000000E+02  0.51100000000E-03 0.  1.
         11   -1    0    0    0    0 -0.00000000000E+00 -0.00000000000E+00 -0.45593999997E+02  0.45594000000E+02  0.51100000000E-03 0. -1.
    9900012    2    1    2    0    0  0.97222918317E-02 -0.66467662061E+00  0.97527329438E+00  0.90007725654E+02  0.89999986833E+02 0.  0.
         12    1    1    2    0    0 -0.97222918317E-02  0.66467662061E+00 -0.97527329438E+00  0.11802743459E+01  0.00000000000E+00 0. -1.
         11    1    3    3    0    0 -0.10156736502E+01  0.43637574255E+00 -0.11002853442E+02  0.11058245832E+02  0.51100000000E-03 0. -1.
        -11    1    3    3    0    0 -0.22224714764E+02 -0.31272494922E+02  0.13912052697E+02  0.40809950937E+02  0.51100000000E-03 0.  1.
         12    1    3    3    0    0  0.23250110706E+02  0.30171442559E+02 -0.19339259604E+01  0.38139528885E+02  0.00000000000E+00 0. -1.
</event>
<event>
 7    1  0.2682188E-015  0.9000774E+02  0.7816164E-02  0.1186339E+00
        -11   -1    0    0    0    0  0.00000000000E+00  0.00000000000E+00  0.45593999997E+02  0.45594000000E+02  0.51100000000E-03 0.  1.
         11   -1    0    0    0    0 -0.00000000000E+00 -0.00000000000E+00 -0.45593999997E+02  0.45594000000E+02  0.51100000000E-03 0. -1.
    9900012    2    1    2    0    0 -0.72337265458E+00 -0.40933749940E+00  0.83796399064E+00  0.90007742047E+02  0.90000003442E+02 0.  0.
         12    1    1    2    0    0  0.72337265458E+00  0.40933749940E+00 -0.83796399064E+00  0.11802579529E+01  0.00000000000E+00 0. -1.
         11    1    3    3    0    0 -0.26327935601E+02  0.23853150715E+02  0.15990412613E+02  0.38959290135E+02  0.51100000000E-03 0. -1.
        -11    1    3    3    0    0 -0.75203641772E+01 -0.17862440181E+01 -0.64865136067E+01  0.10090659249E+02  0.51100000000E-03 0.  1.
        -12    1    3    3    0    0  0.33124927124E+02 -0.22476244197E+02 -0.86659350152E+01  0.40957792663E+02  0.00000000000E+00 0.  1.
</event>
<event>
 7    1  0.2682188E-015  0.9000746E+02  0.7816164E-02  0.1186340E+00
        -11   -1    0    0    0    0  0.00000000000E+00  0.00000000000E+00  0.45593999997E+02  0.45594000000E+02  0.51100000000E-03 0.  1.
         11   -1    0    0    0    0 -0.00000000000E+00 -0.00000000000E+00 -0.45593999997E+02  0.45594000000E+02  0.51100000000E-03 0. -1.
    9900012    2    1    2    0    0 -0.57463862902E+00 -0.75851880064E+00  0.69865626233E+00  0.90007457371E+02  0.89999715008E+02 0.  0.
         12    1    1    2    0    0  0.57463862902E+00  0.75851880064E+00 -0.69865626233E+00  0.11805426285E+01  0.00000000000E+00 0. -1.
         11    1    3    3    0    0  0.12082882791E+02 -0.19713755452E+01  0.39473935345E+01  0.12863292504E+02  0.51100000000E-03 0. -1.
        -11    1    3    3    0    0  0.22830060778E+02 -0.20659086407E+02 -0.14402006908E+02  0.33991577332E+02  0.51100000000E-03 0.  1.
         12    1    3    3    0    0 -0.35487582197E+02  0.21871943151E+02  0.11153269636E+02  0.43152587535E+02  0.00000000000E+00 0. -1.
</event>
<event>
 7    1  0.2682188E-015  0.9000769E+02  0.7816164E-02  0.1186339E+00
        -11   -1    0    0    0    0  0.00000000000E+00  0.00000000000E+00  0.45593999997E+02  0.45594000000E+02  0.51100000000E-03 0.  1.
         11   -1    0    0    0    0 -0.00000000000E+00 -0.00000000000E+00 -0.45593999997E+02  0.45594000000E+02  0.51100000000E-03 0. -1.
    9900012    2    1    2    0    0 -0.11326396850E+01 -0.25849696131E+00  0.20839140094E+00  0.90007694823E+02  0.89999955595E+02 0.  0.
         12    1    1    2    0    0  0.11326396850E+01  0.25849696131E+00 -0.20839140094E+00  0.11803051770E+01  0.00000000000E+00 0. -1.
         11    1    3    3    0    0  0.19920745428E+02 -0.81217828132E+01 -0.29063726286E+02  0.36159364490E+02  0.51100000000E-03 0. -1.
        -11    1    3    3    0    0  0.72130859667E+01 -0.31648455043E+01 -0.39870953245E+01  0.88284645107E+01  0.51100000000E-03 0.  1.
        -12    1    3    3    0    0 -0.28266471080E+02  0.11028131356E+02  0.33259213011E+02  0.45019865822E+02  0.00000000000E+00 0.  1.
</event>
<event>
 7    1  0.2682188E-015  0.9000774E+02  0.7816164E-02  0.1186339E+00
        -11   -1    0    0    0    0  0.00000000000E+00  0.00000000000E+00  0.45593999997E+02  0.45594000000E+02  0.51100000000E-03 0. -1.
         11   -1    0    0    0    0 -0.00000000000E+00 -0.00000000000E+00 -0.45593999997E+02  0.45594000000E+02  0.51100000000E-03 0.  1.
    9900012    2    1    2    0    0 -0.11638332871E+01  0.17297116301E+00 -0.92634026063E-01  0.90007742398E+02  0.90000003798E+02 0.  0.
         12    1    1    2    0    0  0.11638332871E+01 -0.17297116301E+00  0.92634026063E-01  0.11802576016E+01  0.00000000000E+00 0. -1.
         11    1    3    3    0    0 -0.20969829460E+01 -0.22556870523E+02  0.29543979261E+02  0.37229779158E+02  0.51100000000E-03 0. -1.
        -11    1    3    3    0    0  0.53781186191E+01 -0.65236751431E+01  0.27681583071E+01  0.88963586893E+01  0.51100000000E-03 0.  1.
        -12    1    3    3    0    0 -0.44449689603E+01  0.29253516830E+02 -0.32404771594E+02  0.43881604552E+02  0.00000000000E+00 0.  1.
</event>
<event>
 7    1  0.2682188E-015  0.9000797E+02  0.7816164E-02  0.1186339E+00
        -11   -1    0    0    0    0  0.00000000000E+00  0.00000000000E+00  0.45593999997E+02  0.45594000000E+02  0.51100000000E-03 0. -1.
         11   -1    0    0    0    0 -0.00000000000E+00 -0.00000000000E+00 -0.45593999997E+02  0.45594000000E+02  0.51100000000E-03 0.  1.
    9900012    2    1    2    0    0  0.99119581873E+00  0.34850904477E+00  0.53715627077E+00  0.90007972642E+02  0.90000237081E+02 0.  0.
         12    1    1    2    0    0 -0.99119581873E+00 -0.34850904477E+00 -0.53715627077E+00  0.11800273576E+01  0.00000000000E+00 0. -1.
         11    1    3    3    0    0  0.68924179367E+01 -0.11572153623E+02  0.52738731038E+01  0.14464919712E+02  0.51100000000E-03 0. -1.
        -11    1    3    3    0    0  0.17545494145E+02 -0.63316000421E+01 -0.30806970949E+02  0.36013927628E+02  0.51100000000E-03 0.  1.
         12    1    3    3    0    0 -0.23446716263E+02  0.18252262710E+02  0.26070254116E+02  0.39529125303E+02  0.00000000000E+00 0. -1.
</event>
<event>
 7    1  0.2682188E-015  0.9000784E+02  0.7816164E-02  0.1186339E+00
        -11   -1    0    0    0    0  0.00000000000E+00  0.00000000000E+00  0.45593999997E+02  0.45594000000E+02  0.51100000000E-03 0.  1.
         11   -1    0    0    0    0 -0.00000000000E+00 -0.00000000000E+00 -0.45593999997E+02  0.45594000000E+02  0.51100000000E-03 0. -1.
    9900012    2    1    2    0    0  0.41037272720E+00 -0.83648765541E+00  0.72432764999E+00  0.90007844113E+02  0.90000106855E+02 0.  0.
         12    1    1    2    0    0 -0.41037272720E+00  0.83648765541E+00 -0.72432764999E+00  0.11801558869E+01  0.00000000000E+00 0. -1.
         11    1    3    3    0    0  0.37445842552E+01 -0.20268276330E+02 -0.14109198940E+02  0.24977878845E+02  0.51100000000E-03 0. -1.
        -11    1    3    3    0    0  0.85351973325E-01 -0.20812517251E+02  0.13122873641E+02  0.24604429929E+02  0.51100000000E-03 0.  1.
        -12    1    3    3    0    0 -0.34195635013E+01  0.40244305925E+02  0.17106529486E+01  0.40425535339E+02  0.00000000000E+00 0.  1.
</event>
<event>
 7    1  0.2682188E-015  0.9000769E+02  0.7816164E-02  0.1186339E+00
        -11   -1    0    0    0    0  0.00000000000E+00  0.00000000000E+00  0.45593999997E+02  0.45594000000E+02  0.51100000000E-03 0. -1.
         11   -1    0    0    0    0 -0.00000000000E+00 -0.00000000000E+00 -0.45593999997E+02  0.45594000000E+02  0.51100000000E-03 0.  1.
    9900012    2    1    2    0    0 -0.10272512593E+01 -0.56839426939E+00 -0.12175255964E+00  0.90007686109E+02  0.89999946766E+02 0.  0.
         12    1    1    2    0    0  0.10272512593E+01  0.56839426939E+00  0.12175255964E+00  0.11803138908E+01  0.00000000000E+00 0. -1.
         11    1    3    3    0    0 -0.30146487339E+01 -0.78046675980E+01  0.38668895526E+01  0.92170373969E+01  0.51100000000E-03 0. -1.
        -11    1    3    3    0    0 -0.25356316461E+02  0.10765964617E+02 -0.31497036056E+02  0.41843901098E+02  0.51100000000E-03 0.  1.
         12    1    3    3    0    0  0.27343713935E+02 -0.35296912885E+01  0.27508393943E+02  0.38946747614E+02  0.00000000000E+00 0. -1.
</event>
<event>
 7    1  0.2682188E-015  0.9000763E+02  0.7816164E-02  0.1186339E+00
        -11   -1    0    0    0    0  0.00000000000E+00  0.00000000000E+00  0.45593999997E+02  0.45594000000E+02  0.51100000000E-03 0.  1.
         11   -1    0    0    0    0 -0.00000000000E+00 -0.00000000000E+00 -0.45593999997E+02  0.45594000000E+02  0.51100000000E-03 0. -1.
    9900012    2    1    2    0    0 -0.58504726488E+00  0.76940697121E+00  0.67750384223E+00  0.90007627666E+02  0.89999887552E+02 0.  0.
         12    1    1    2    0    0  0.58504726488E+00 -0.76940697121E+00 -0.67750384223E+00  0.11803723335E+01  0.00000000000E+00 0. -1.
         11    1    3    3    0    0 -0.31445053762E+01 -0.38013586814E+01  0.77824669592E+01  0.92143927699E+01  0.51100000000E-03 0. -1.
        -11    1    3    3    0    0 -0.22359779337E+02  0.32981417377E+02  0.69991333081E+01  0.40456414714E+02  0.51100000000E-03 0.  1.
         12    1    3    3    0    0  0.24919237449E+02 -0.28410651725E+02 -0.14104096425E+02  0.40336820182E+02  0.00000000000E+00 0. -1.
</event>
<event>
 7    1  0.2682188E-015  0.9000786E+02  0.7816164E-02  0.1186339E+00
        -11   -1    0    0    0    0  0.00000000000E+00  0.00000000000E+00  0.45593999997E+02  0.45594000000E+02  0.51100000000E-03 0. -1.
         11   -1    0    0    0    0 -0.00000000000E+00 -0.00000000000E+00 -0.45593999997E+02  0.45594000000E+02  0.51100000000E-03 0.  1.
    9900012    2    1    2    0    0 -0.34123712563E-01 -0.10950270393E+01 -0.43873879981E+00  0.90007855780E+02  0.90000118677E+02 0.  0.
         12    1    1    2    0    0  0.34123712563E-01  0.10950270393E+01  0.43873879981E+00  0.11801442196E+01  0.00000000000E+00 0. -1.
         11    1    3    3    0    0  0.23424592303E+02 -0.12033260332E+02  0.29237331904E+02  0.39348855840E+02  0.51100000000E-03 0. -1.
        -11    1    3    3    0    0 -0.67710051516E+01 -0.34136351426E+01  0.53578487702E+01  0.92847164391E+01  0.51100000000E-03 0.  1.
        -12    1    3    3    0    0 -0.16687710864E+02  0.14351868436E+02 -0.35033919474E+02  0.41374283501E+02  0.00000000000E+00 0.  1.
</event>
<event>
 7    1  0.2682188E-015  0.9000765E+02  0.7816164E-02  0.1186339E+00
        -11   -1    0    0    0    0  0.00000000000E+00  0.00000000000E+00  0.45593999997E+02  0.45594000000E+02  0.51100000000E-03 0. -1.
         11   -1    0    0    0    0 -0.00000000000E+00 -0.00000000000E+00 -0.45593999997E+02  0.45594000000E+02  0.51100000000E-03 0.  1.
    9900012    2    1    2    0    0 -0.10883163902E+01  0.36995454319E+00  0.26818793872E+00  0.90007651026E+02  0.89999911220E+02 0.  0.
         12    1    1    2    0    0  0.10883163902E+01 -0.36995454319E+00 -0.26818793872E+00  0.11803489737E+01  0.00000000000E+00 0. -1.
         11    1    3    3    0    0 -0.44962671523E+01 -0.70760930213E+01 -0.66464436333E+01  0.10698725344E+02  0.51100000000E-03 0. -1.
        -11    1    3    3    0    0 -0.32247557682E+02  0.12419717933E+02  0.21240577571E+02  0.40562501227E+02  0.51100000000E-03 0.  1.
         12    1    3    3    0    0  0.35655508444E+02 -0.49736703687E+01 -0.14325945999E+02  0.38746424455E+02  0.00000000000E+00 0. -1.
</event>
<event>
 7    1  0.2682188E-015  0.9000778E+02  0.7816164E-02  0.1186339E+00
        -11   -1    0    0    0    0  0.00000000000E+00  0.00000000000E+00  0.45593999997E+02  0.45594000000E+02  0.51100000000E-03 0. -1.
         11   -1    0    0    0    0 -0.00000000000E+00 -0.00000000000E+00 -0.45593999997E+02  0.45594000000E+02  0.51100000000E-03 0.  1.
    9900012    2    1    2    0    0 -0.94551447914E+00 -0.41183423374E+00 -0.57385388356E+00  0.90007782501E+02  0.90000044430E+02 0.  0.
         12    1    1    2    0    0  0.94551447914E+00  0.41183423374E+00  0.57385388356E+00  0.11802174995E+01  0.00000000000E+00 0. -1.
         11    1    3    3    0    0 -0.32204891200E+01  0.38501737015E+02 -0.25464507444E+01  0.38720016981E+02  0.51100000000E-03 0. -1.
        -11    1    3    3    0    0 -0.10308863957E+01  0.29477849336E+01  0.82575687591E+01  0.88283410020E+01  0.51100000000E-03 0.  1.
         12    1    3    3    0    0  0.33058610365E+01 -0.41861356182E+02 -0.62849718982E+01  0.42459424518E+02  0.00000000000E+00 0. -1.
</event>
<event>
 7    1  0.2682188E-015  0.9000771E+02  0.7816164E-02  0.1186339E+00
        -11   -1    0    0    0    0  0.00000000000E+00  0.00000000000E+00  0.45593999997E+02  0.45594000000E+02  0.51100000000E-03 0.  1.
         11   -1    0    0    0    0 -0.00000000000E+00 -0.00000000000E+00 -0.45593999997E+02  0.45594000000E+02  0.51100000000E-03 0. -1.
    9900012    2    1    2    0    0 -0.67118362693E+00 -0.66586311366E-01  0.96858470526E+00  0.90007712946E+02  0.89999973957E+02 0.  0.
         12    1    1    2    0    0  0.67118362693E+00  0.66586311366E-01 -0.96858470526E+00  0.11802870537E+01  0.00000000000E+00 0. -1.
         11    1    3    3    0    0  0.88340113722E+01 -0.86386263555E+01  0.96117212074E+01  0.15654098731E+02  0.51100000000E-03 0. -1.
        -11    1    3    3    0    0  0.25631799233E+02  0.42092347899E+01  0.16638593547E+02  0.30847197360E+02  0.51100000000E-03 0.  1.
         12    1    3    3    0    0 -0.35136994232E+02  0.43628052543E+01 -0.25281730049E+02  0.43506416856E+02  0.00000000000E+00 0. -1.
</event>
<event>
 7    1  0.2682188E-015  0.9000782E+02  0.7816164E-02  0.1186339E+00
        -11   -1    0    0    0    0  0.00000000000E+00  0.00000000000E+00  0.45593999997E+02  0.45594000000E+02  0.51100000000E-03 0. -1.
         11   -1    0    0    0    0 -0.00000000000E+00 -0.00000000000E+00 -0.45593999997E+02  0.45594000000E+02  0.51100000000E-03 0.  1.
    9900012    2    1    2    0    0 -0.43808339571E+00 -0.31228751091E+00 -0.10504259676E+01  0.90007815580E+02  0.90000077946E+02 0.  0.
         12    1    1    2    0    0  0.43808339571E+00  0.31228751091E+00  0.10504259676E+01  0.11801844197E+01  0.00000000000E+00 0. -1.
         11    1    3    3    0    0  0.49592446706E+01  0.30413681591E+01  0.34935301530E+01  0.67859252261E+01  0.51100000000E-03 0. -1.
        -11    1    3    3    0    0  0.38260904517E+02 -0.19812534665E+01 -0.88787476963E+01  0.39327526501E+02  0.51100000000E-03 0.  1.
         12    1    3    3    0    0 -0.43658232583E+02 -0.13724022035E+01  0.43347915756E+01  0.43894363854E+02  0.00000000000E+00 0. -1.
</event>
<event>
 7    1  0.2682188E-015  0.9000773E+02  0.7816164E-02  0.1186339E+00
        -11   -1    0    0    0    0  0.00000000000E+00  0.00000000000E+00  0.45593999997E+02  0.45594000000E+02  0.51100000000E-03 0. -1.
         11   -1    0    0    0    0 -0.00000000000E+00 -0.00000000000E+00 -0.45593999997E+02  0.45594000000E+02  0.51100000000E-03 0.  1.
    9900012    2    1    2    0    0  0.59306364032E+00 -0.94940040545E+00 -0.37411270726E+00  0.90007726333E+02  0.89999987521E+02 0.  0.
         12    1    1    2    0    0 -0.59306364032E+00  0.94940040545E+00  0.37411270726E+00  0.11802736670E+01  0.00000000000E+00 0. -1.
         11    1    3    3    0    0  0.67419134190E+01 -0.12444171819E+02  0.39710198428E+02  0.42156976508E+02  0.51100000000E-03 0. -1.
        -11    1    3    3    0    0 -0.32711263131E+01  0.84635751904E+01 -0.16901872123E+01  0.92297944416E+01  0.51100000000E-03 0.  1.
        -12    1    3    3    0    0 -0.28777234656E+01  0.30311962228E+01 -0.38394123923E+02  0.38620955383E+02  0.00000000000E+00 0.  1.
</event>
<event>
 7    1  0.2682188E-015  0.9000776E+02  0.7816164E-02  0.1186339E+00
        -11   -1    0    0    0    0  0.00000000000E+00  0.00000000000E+00  0.45593999997E+02  0.45594000000E+02  0.51100000000E-03 0. -1.
         11   -1    0    0    0    0 -0.00000000000E+00 -0.00000000000E+00 -0.45593999997E+02  0.45594000000E+02  0.51100000000E-03 0.  1.
    9900012    2    1    2    0    0 -0.11197160927E+01  0.11104667413E+00 -0.35617507800E+00  0.90007764355E+02  0.90000026044E+02 0.  0.
         12    1    1    2    0    0  0.11197160927E+01 -0.11104667413E+00  0.35617507800E+00  0.11802356452E+01  0.00000000000E+00 0. -1.
         11    1    3    3    0    0 -0.82853956596E+01 -0.41809714666E+01  0.14086719683E+02  0.16869024137E+02  0.51100000000E-03 0. -1.
        -11    1    3    3    0    0 -0.28898123607E+02 -0.39042337200E+01  0.75341047127E+01  0.30118222441E+02  0.51100000000E-03 0.  1.
         12    1    3    3    0    0  0.36063803174E+02  0.81962518607E+01 -0.21976999474E+02  0.43020517777E+02  0.00000000000E+00 0. -1.
</event>
<event>
 7    1  0.2682188E-015  0.9000771E+02  0.7816164E-02  0.1186339E+00
        -11   -1    0    0    0    0  0.00000000000E+00  0.00000000000E+00  0.45593999997E+02  0.45594000000E+02  0.51100000000E-03 0. -1.
         11   -1    0    0    0    0 -0.00000000000E+00 -0.00000000000E+00 -0.45593999997E+02  0.45594000000E+02  0.51100000000E-03 0.  1.
    9900012    2    1    2    0    0  0.76214470053E+00 -0.42711668894E+00  0.79359989631E+00  0.90007705966E+02  0.89999966885E+02 0.  0.
         12    1    1    2    0    0 -0.76214470053E+00  0.42711668894E+00 -0.79359989631E+00  0.11802940337E+01  0.00000000000E+00 0. -1.
         11    1    3    3    0    0 -0.25409877040E+01  0.18223151285E+01  0.89143601920E+01  0.94468655560E+01  0.51100000000E-03 0. -1.
        -11    1    3    3    0    0  0.27267808885E+02  0.24673302474E+02 -0.20925259968E+02  0.42310421427E+02  0.51100000000E-03 0.  1.
         12    1    3    3    0    0 -0.23964676481E+02 -0.26922734291E+02  0.12804499672E+02  0.38250418983E+02  0.00000000000E+00 0. -1.
</event>
<event>
 7    1  0.2682188E-015  0.9000775E+02  0.7816164E-02  0.1186339E+00
        -11   -1    0    0    0    0  0.00000000000E+00  0.00000000000E+00  0.45593999997E+02  0.45594000000E+02  0.51100000000E-03 0. -1.
         11   -1    0    0    0    0 -0.00000000000E+00 -0.00000000000E+00 -0.45593999997E+02  0.45594000000E+02  0.51100000000E-03 0.  1.
    9900012    2    1    2    0    0  0.89575502392E+00  0.27806701603E+00 -0.71645042097E+00  0.90007745988E+02  0.90000007435E+02 0.  0.
         12    1    1    2    0    0 -0.89575502392E+00 -0.27806701603E+00  0.71645042097E+00  0.11802540125E+01  0.00000000000E+00 0. -1.
         11    1    3    3    0    0  0.10282041477E+02  0.39151644275E+02 -0.95546125840E+01  0.41591612715E+02  0.51100000000E-03 0. -1.
        -11    1    3    3    0    0 -0.44019600080E+01  0.22557043864E+00  0.78327153684E+01  0.89877452255E+01  0.51100000000E-03 0.  1.
        -12    1    3    3    0    0 -0.49843264447E+01 -0.39099147697E+02  0.10054467946E+01  0.39428388047E+02  0.00000000000E+00 0.  1.
</event>
<event>
 7    1  0.2682188E-015  0.9000880E+02  0.7816164E-02  0.1186337E+00
        -11   -1    0    0    0    0  0.00000000000E+00  0.00000000000E+00  0.45593999997E+02  0.45594000000E+02  0.51100000000E-03 0.  1.
         11   -1    0    0    0    0 -0.00000000000E+00 -0.00000000000E+00 -0.45593999997E+02  0.45594000000E+02  0.51100000000E-03 0. -1.
    9900012    2    1    2    0    0 -0.20244849034E+00 -0.74400839784E+00  0.89217987875E+00  0.90008797378E+02  0.90001072697E+02 0.  0.
         12    1    1    2    0    0  0.20244849034E+00  0.74400839784E+00 -0.89217987875E+00  0.11792026218E+01  0.00000000000E+00 0. -1.
         11    1    3    3    0    0  0.80003618363E+01 -0.23513407375E+01  0.37988817454E+00  0.83473892962E+01  0.51100000000E-03 0. -1.
        -11    1    3    3    0    0  0.22146545994E+02 -0.10915580040E+02  0.29075145897E+02  0.38144245913E+02  0.51100000000E-03 0.  1.
         12    1    3    3    0    0 -0.30349356321E+02  0.12522912379E+02 -0.28562854193E+02  0.43517162169E+02  0.00000000000E+00 0. -1.
</event>
<event>
 7    1  0.2682188E-015  0.9000776E+02  0.7816164E-02  0.1186339E+00
        -11   -1    0    0    0    0  0.00000000000E+00  0.00000000000E+00  0.45593999997E+02  0.45594000000E+02  0.51100000000E-03 0.  1.
         11   -1    0    0    0    0 -0.00000000000E+00 -0.00000000000E+00 -0.45593999997E+02  0.45594000000E+02  0.51100000000E-03 0. -1.
    9900012    2    1    2    0    0 -0.28993340032E-01 -0.84562131472E+00  0.82282402010E+00  0.90007764689E+02  0.90000026383E+02 0.  0.
         12    1    1    2    0    0  0.28993340032E-01  0.84562131472E+00 -0.82282402010E+00  0.11802353112E+01  0.00000000000E+00 0. -1.
         11    1    3    3    0    0 -0.63189372432E+01  0.74061632298E+01 -0.36837273661E+02  0.38102033446E+02  0.51100000000E-03 0. -1.
        -11    1    3    3    0    0  0.30310962215E+01 -0.58629075152E+00 -0.63784868522E+01  0.70863513837E+01  0.51100000000E-03 0.  1.
        -12    1    3    3    0    0  0.32588476817E+01 -0.76654937930E+01  0.44038584533E+02  0.44819379859E+02  0.00000000000E+00 0.  1.
</event>
<event>
 7    1  0.2682188E-015  0.9000773E+02  0.7816164E-02  0.1186339E+00
        -11   -1    0    0    0    0  0.00000000000E+00  0.00000000000E+00  0.45593999997E+02  0.45594000000E+02  0.51100000000E-03 0. -1.
         11   -1    0    0    0    0 -0.00000000000E+00 -0.00000000000E+00 -0.45593999997E+02  0.45594000000E+02  0.51100000000E-03 0.  1.
    9900012    2    1    2    0    0 -0.23811145445E+00  0.24261864763E+00 -0.11302551948E+01  0.90007729828E+02  0.89999991062E+02 0.  0.
         12    1    1    2    0    0  0.23811145445E+00 -0.24261864763E+00  0.11302551948E+01  0.11802701717E+01  0.00000000000E+00 0. -1.
         11    1    3    3    0    0  0.30051490104E+01 -0.52263750032E+01 -0.55412099134E+01  0.81884628481E+01  0.51100000000E-03 0. -1.
        -11    1    3    3    0    0  0.53662253136E+01 -0.33066164382E+02  0.20397861510E+02  0.39220407386E+02  0.51100000000E-03 0.  1.
         12    1    3    3    0    0 -0.86094857785E+01  0.38535158033E+02 -0.15986906791E+02  0.42598859594E+02  0.00000000000E+00 0. -1.
</event>
<event>
 7    1  0.2682188E-015  0.9000784E+02  0.7816164E-02  0.1186339E+00
        -11   -1    0    0    0    0  0.00000000000E+00  0.00000000000E+00  0.45593999997E+02  0.45594000000E+02  0.51100000000E-03 0.  1.
         11   -1    0    0    0    0 -0.00000000000E+00 -0.00000000000E+00 -0.45593999997E+02  0.45594000000E+02  0.51100000000E-03 0. -1.
    9900012    2    1    2    0    0 -0.52000347837E+00  0.22057446917E+00  0.10362084603E+01  0.90007837008E+02  0.90000099657E+02 0.  0.
         12    1    1    2    0    0  0.52000347837E+00 -0.22057446917E+00 -0.10362084603E+01  0.11801629918E+01  0.00000000000E+00 0. -1.
         11    1    3    3    0    0 -0.58364787607E+01  0.48336431337E-01 -0.39429511996E+01  0.70436982586E+01  0.51100000000E-03 0. -1.
        -11    1    3    3    0    0 -0.16465637209E+02  0.24174930118E+02 -0.25251450662E+02  0.38641690125E+02  0.51100000000E-03 0.  1.
         12    1    3    3    0    0  0.21782112491E+02 -0.24002692080E+02  0.30230610322E+02  0.44322448625E+02  0.00000000000E+00 0. -1.
</event>
<event>
 7    1  0.2682188E-015  0.9000773E+02  0.7816164E-02  0.1186339E+00
        -11   -1    0    0    0    0  0.00000000000E+00  0.00000000000E+00  0.45593999997E+02  0.45594000000E+02  0.51100000000E-03 0.  1.
         11   -1    0    0    0    0 -0.00000000000E+00 -0.00000000000E+00 -0.45593999997E+02  0.45594000000E+02  0.51100000000E-03 0. -1.
    9900012    2    1    2    0    0 -0.95257655885E+00 -0.28250253623E+00  0.63704002048E+00  0.90007733178E+02  0.89999994456E+02 0.  0.
         12    1    1    2    0    0  0.95257655885E+00  0.28250253623E+00 -0.63704002048E+00  0.11802668220E+01  0.00000000000E+00 0. -1.
         11    1    3    3    0    0 -0.15954896306E+02 -0.27884669880E+02  0.68809860902E+01  0.32855159417E+02  0.51100000000E-03 0. -1.
        -11    1    3    3    0    0  0.13447901669E+02 -0.10977751573E+02 -0.65107981251E+01  0.18540430992E+02  0.51100000000E-03 0.  1.
        -12    1    3    3    0    0  0.15544180775E+01  0.38579918917E+02  0.26685205543E+00  0.38612142769E+02  0.00000000000E+00 0.  1.
</event>
<event>
 7    1  0.2682188E-015  0.9000772E+02  0.7816164E-02  0.1186339E+00
        -11   -1    0    0    0    0  0.00000000000E+00  0.00000000000E+00  0.45593999997E+02  0.45594000000E+02  0.51100000000E-03 0.  1.
         11   -1    0    0    0    0 -0.00000000000E+00 -0.00000000000E+00 -0.45593999997E+02  0.45594000000E+02  0.51100000000E-03 0. -1.
    9900012    2    1    2    0    0  0.91708707955E+00 -0.32753133570E+00  0.66688534839E+00  0.90007719713E+02  0.89999980813E+02 0.  0.
         12    1    1    2    0    0 -0.91708707955E+00  0.32753133570E+00 -0.66688534839E+00  0.11802802867E+01  0.00000000000E+00 0. -1.
         11    1    3    3    0    0  0.18731360594E+02  0.28402174980E+02  0.46197784923E+01  0.34334964204E+02  0.51100000000E-03 0. -1.
        -11    1    3    3    0    0 -0.76443518927E+01  0.25405128121E+01  0.15499194480E+02  0.17467551373E+02  0.51100000000E-03 0.  1.
        -12    1    3    3    0    0 -0.10169921622E+02 -0.31270219128E+02 -0.19452087623E+02  0.38205204135E+02  0.00000000000E+00 0.  1.
</event>
<event>
 7    1  0.2682188E-015  0.9000775E+02  0.7816164E-02  0.1186339E+00
        -11   -1    0    0    0    0  0.00000000000E+00  0.00000000000E+00  0.45593999997E+02  0.45594000000E+02  0.51100000000E-03 0. -1.
         11   -1    0    0    0    0 -0.00000000000E+00 -0.00000000000E+00 -0.45593999997E+02  0.45594000000E+02  0.51100000000E-03 0.  1.
    9900012    2    1    2    0    0 -0.27361272801E-01 -0.68961460700E+00  0.95742487902E+00  0.90007754541E+02  0.90000016101E+02 0.  0.
         12    1    1    2    0    0  0.27361272801E-01  0.68961460700E+00 -0.95742487902E+00  0.11802454594E+01  0.00000000000E+00 0. -1.
         11    1    3    3    0    0 -0.10827780516E+01  0.86575441311E+01  0.28499575851E+01  0.91786566113E+01  0.51100000000E-03 0. -1.
        -11    1    3    3    0    0 -0.36690860728E+02  0.81795109524E+01 -0.88889837041E+01  0.38628198145E+02  0.51100000000E-03 0.  1.
         12    1    3    3    0    0  0.37746277507E+02 -0.17526669691E+02  0.69964509980E+01  0.42200899784E+02  0.00000000000E+00 0. -1.
</event>
<event>
 7    1  0.2682188E-015  0.9000761E+02  0.7816164E-02  0.1186339E+00
        -11   -1    0    0    0    0  0.00000000000E+00  0.00000000000E+00  0.45593999997E+02  0.45594000000E+02  0.51100000000E-03 0.  1.
         11   -1    0    0    0    0 -0.00000000000E+00 -0.00000000000E+00 -0.45593999997E+02  0.45594000000E+02  0.51100000000E-03 0. -1.
    9900012    2    1    2    0    0  0.10007248182E+01  0.52168633644E+00  0.34599795373E+00  0.90007609650E+02  0.89999869297E+02 0.  0.
         12    1    1    2    0    0 -0.10007248182E+01 -0.52168633644E+00 -0.34599795373E+00  0.11803903504E+01  0.00000000000E+00 0. -1.
         11    1    3    3    0    0  0.84485376566E+01 -0.16323561734E+02 -0.50980506024E+01  0.19074238554E+02  0.51100000000E-03 0. -1.
        -11    1    3    3    0    0 -0.31057592696E+02  0.21984992033E+02 -0.13346439980E+02  0.40324203640E+02  0.51100000000E-03 0.  1.
         12    1    3    3    0    0  0.23609779858E+02 -0.51397439627E+01  0.18790488536E+02  0.30609167456E+02  0.00000000000E+00 0. -1.
</event>
<event>
 7    1  0.2682188E-015  0.9000770E+02  0.7816164E-02  0.1186339E+00
        -11   -1    0    0    0    0  0.00000000000E+00  0.00000000000E+00  0.45593999997E+02  0.45594000000E+02  0.51100000000E-03 0. -1.
         11   -1    0    0    0    0 -0.00000000000E+00 -0.00000000000E+00 -0.45593999997E+02  0.45594000000E+02  0.51100000000E-03 0.  1.
    9900012    2    1    2    0    0 -0.11264336700E+01 -0.32124051294E+00 -0.14509804761E+00  0.90007702697E+02  0.89999963573E+02 0.  0.
         12    1    1    2    0    0  0.11264336700E+01  0.32124051294E+00  0.14509804761E+00  0.11802973030E+01  0.00000000000E+00 0. -1.
         11    1    3    3    0    0  0.30077591463E+02 -0.19788390807E+02 -0.26938118112E+01  0.36103996196E+02  0.51100000000E-03 0. -1.
        -11    1    3    3    0    0 -0.33503280462E+01 -0.93186044578E+01 -0.77160392199E+01  0.12553818087E+02  0.51100000000E-03 0.  1.
        -12    1    3    3    0    0 -0.27853697087E+02  0.28785754752E+02  0.10264752983E+02  0.41349888414E+02  0.00000000000E+00 0.  1.
</event>
<event>
 7    1  0.2682188E-015  0.9000741E+02  0.7816164E-02  0.1186340E+00
        -11   -1    0    0    0    0  0.00000000000E+00  0.00000000000E+00  0.45593999997E+02  0.45594000000E+02  0.51100000000E-03 0.  1.
         11   -1    0    0    0    0 -0.00000000000E+00 -0.00000000000E+00 -0.45593999997E+02  0.45594000000E+02  0.51100000000E-03 0. -1.
    9900012    2    1    2    0    0  0.41513349816E+00  0.10318970415E+01 -0.39579320152E+00  0.90007407105E+02  0.89999664078E+02 0.  0.
         12    1    1    2    0    0 -0.41513349816E+00 -0.10318970415E+01  0.39579320152E+00  0.11805928951E+01  0.00000000000E+00 0. -1.
         11    1    3    3    0    0  0.16074354983E+02  0.36268565224E+02 -0.12434032246E+02  0.41574016761E+02  0.51100000000E-03 0. -1.
        -11    1    3    3    0    0 -0.80954723867E+01 -0.42918100284E+01 -0.68125980403E+01  0.11417871903E+02  0.51100000000E-03 0.  1.
        -12    1    3    3    0    0 -0.75637490978E+01 -0.30944858154E+02  0.18850837085E+02  0.37015518440E+02  0.00000000000E+00 0.  1.
</event>
<event>
 7    1  0.2682188E-015  0.9000771E+02  0.7816164E-02  0.1186339E+00
        -11   -1    0    0    0    0  0.00000000000E+00  0.00000000000E+00  0.45593999997E+02  0.45594000000E+02  0.51100000000E-03 0.  1.
         11   -1    0    0    0    0 -0.00000000000E+00 -0.00000000000E+00 -0.45593999997E+02  0.45594000000E+02  0.51100000000E-03 0. -1.
    9900012    2    1    2    0    0 -0.66785684364E+00  0.11815268803E+00 -0.96596073186E+00  0.90007714883E+02  0.89999975920E+02 0.  0.
         12    1    1    2    0    0  0.66785684364E+00 -0.11815268803E+00  0.96596073186E+00  0.11802851167E+01  0.00000000000E+00 0. -1.
         11    1    3    3    0    0  0.87707659323E+01 -0.89598142067E+01 -0.35151963900E+02  0.37321108933E+02  0.51100000000E-03 0. -1.
        -11    1    3    3    0    0 -0.81985064492E+01  0.29963575556E+01 -0.69047966917E+01  0.11129684821E+02  0.51100000000E-03 0.  1.
        -12    1    3    3    0    0 -0.12401163267E+01  0.60816093391E+01  0.41090799860E+02  0.41556921130E+02  0.00000000000E+00 0.  1.
</event>
<event>
 7    1  0.2682188E-015  0.9000774E+02  0.7816164E-02  0.1186339E+00
        -11   -1    0    0    0    0  0.00000000000E+00  0.00000000000E+00  0.45593999997E+02  0.45594000000E+02  0.51100000000E-03 0.  1.
         11   -1    0    0    0    0 -0.00000000000E+00 -0.00000000000E+00 -0.45593999997E+02  0.45594000000E+02  0.51100000000E-03 0. -1.
    9900012    2    1    2    0    0  0.62546614967E+00  0.86484529773E+00  0.50382563790E+00  0.90007743432E+02  0.90000004845E+02 0.  0.
         12    1    1    2    0    0 -0.62546614967E+00 -0.86484529773E+00 -0.50382563790E+00  0.11802565682E+01  0.00000000000E+00 0. -1.
         11    1    3    3    0    0  0.12696181386E+01  0.84442391756E+01 -0.47748172688E+00  0.85524905456E+01  0.51100000000E-03 0. -1.
        -11    1    3    3    0    0  0.99127460597E+01  0.25743421642E+02  0.26440772741E+02  0.38211264775E+02  0.51100000000E-03 0.  1.
         12    1    3    3    0    0 -0.10556898049E+02 -0.33322815519E+02 -0.25459465376E+02  0.43243988112E+02  0.00000000000E+00 0. -1.
</event>
<event>
 7    1  0.2682188E-015  0.9000781E+02  0.7816164E-02  0.1186339E+00
        -11   -1    0    0    0    0  0.00000000000E+00  0.00000000000E+00  0.45593999997E+02  0.45594000000E+02  0.51100000000E-03 0.  1.
         11   -1    0    0    0    0 -0.00000000000E+00 -0.00000000000E+00 -0.45593999997E+02  0.45594000000E+02  0.51100000000E-03 0. -1.
    9900012    2    1    2    0    0 -0.10219223381E+01  0.54003007979E+00  0.23850700469E+00  0.90007812158E+02  0.90000074478E+02 0.  0.
         12    1    1    2    0    0  0.10219223381E+01 -0.54003007979E+00 -0.23850700469E+00  0.11801878425E+01  0.00000000000E+00 0. -1.
         11    1    3    3    0    0  0.17554507035E+02  0.12173211231E+02 -0.22270747171E+02  0.30859908761E+02  0.51100000000E-03 0. -1.
        -11    1    3    3    0    0  0.92745795638E+00  0.93244545079E+01 -0.11408070488E+02  0.14763119679E+02  0.51100000000E-03 0.  1.
        -12    1    3    3    0    0 -0.19503887329E+02 -0.20957635659E+02  0.33917324664E+02  0.44384783718E+02  0.00000000000E+00 0.  1.
</event>
<event>
 7    1  0.2682188E-015  0.9000774E+02  0.7816164E-02  0.1186339E+00
        -11   -1    0    0    0    0  0.00000000000E+00  0.00000000000E+00  0.45593999997E+02  0.45594000000E+02  0.51100000000E-03 0. -1.
         11   -1    0    0    0    0 -0.00000000000E+00 -0.00000000000E+00 -0.45593999997E+02  0.45594000000E+02  0.51100000000E-03 0.  1.
    9900012    2    1    2    0    0 -0.61521703836E+00  0.96550279060E+00 -0.28692328677E+00  0.90007740446E+02  0.90000001820E+02 0.  0.
         12    1    1    2    0    0  0.61521703836E+00 -0.96550279060E+00  0.28692328677E+00  0.11802595543E+01  0.00000000000E+00 0. -1.
         11    1    3    3    0    0 -0.48258202647E+01  0.61414746701E+01 -0.43060735779E+01  0.89189978288E+01  0.51100000000E-03 0. -1.
        -11    1    3    3    0    0 -0.34557932198E+02  0.76053242448E+01 -0.11813453368E+02  0.37304816249E+02  0.51100000000E-03 0.  1.
         12    1    3    3    0    0  0.38768535424E+02 -0.12781296124E+02  0.15832603659E+02  0.43783926368E+02  0.00000000000E+00 0. -1.
</event>
<event>
 7    1  0.2682188E-015  0.9000770E+02  0.7816164E-02  0.1186339E+00
        -11   -1    0    0    0    0  0.00000000000E+00  0.00000000000E+00  0.45593999997E+02  0.45594000000E+02  0.51100000000E-03 0.  1.
         11   -1    0    0    0    0 -0.00000000000E+00 -0.00000000000E+00 -0.45593999997E+02  0.45594000000E+02  0.51100000000E-03 0. -1.
    9900012    2    1    2    0    0 -0.86802988311E+00  0.73286651752E+00  0.32020424271E+00  0.90007703441E+02  0.89999964326E+02 0.  0.
         12    1    1    2    0    0  0.86802988311E+00 -0.73286651752E+00 -0.32020424271E+00  0.11802965591E+01  0.00000000000E+00 0. -1.
         11    1    3    3    0    0  0.13462409434E+02 -0.13823950943E+01 -0.38443559654E+02  0.40756039591E+02  0.51100000000E-03 0. -1.
        -11    1    3    3    0    0 -0.18954054530E+01  0.90321540613E+01  0.14824998116E+01  0.93472014406E+01  0.51100000000E-03 0.  1.
        -12    1    3    3    0    0 -0.12435033864E+02 -0.69168924495E+01  0.37281264086E+02  0.39904462409E+02  0.00000000000E+00 0.  1.
</event>
<event>
 7    1  0.2682188E-015  0.9000791E+02  0.7816164E-02  0.1186339E+00
        -11   -1    0    0    0    0  0.00000000000E+00  0.00000000000E+00  0.45593999997E+02  0.45594000000E+02  0.51100000000E-03 0.  1.
         11   -1    0    0    0    0 -0.00000000000E+00 -0.00000000000E+00 -0.45593999997E+02  0.45594000000E+02  0.51100000000E-03 0. -1.
    9900012    2    1    2    0    0  0.10256927276E+01  0.27410600652E+00  0.51519118747E+00  0.90007914565E+02  0.90000178237E+02 0.  0.
         12    1    1    2    0    0 -0.10256927276E+01 -0.27410600652E+00 -0.51519118747E+00  0.11800854350E+01  0.00000000000E+00 0. -1.
         11    1    3    3    0    0 -0.28839935573E+02  0.21138161140E+02 -0.49730813336E+01  0.36101181123E+02  0.51100000000E-03 0. -1.
        -11    1    3    3    0    0 -0.39111583685E+01  0.76015119916E+01  0.46397820252E+01  0.97266500834E+01  0.51100000000E-03 0.  1.
        -12    1    3    3    0    0  0.33776786669E+02 -0.28465567125E+02  0.84849049584E+00  0.44180083359E+02  0.00000000000E+00 0.  1.
</event>
<event>
 7    1  0.2682188E-015  0.9000769E+02  0.7816164E-02  0.1186339E+00
        -11   -1    0    0    0    0  0.00000000000E+00  0.00000000000E+00  0.45593999997E+02  0.45594000000E+02  0.51100000000E-03 0. -1.
         11   -1    0    0    0    0 -0.00000000000E+00 -0.00000000000E+00 -0.45593999997E+02  0.45594000000E+02  0.51100000000E-03 0.  1.
    9900012    2    1    2    0    0  0.49599864556E+00  0.68714389310E+00 -0.82155548093E+00  0.90007688687E+02  0.89999949378E+02 0.  0.
         12    1    1    2    0    0 -0.49599864556E+00 -0.68714389310E+00  0.82155548093E+00  0.11803113125E+01  0.00000000000E+00 0. -1.
         11    1    3    3    0    0 -0.27268849198E+02 -0.17136191253E+02 -0.18079194908E+02  0.36933676720E+02  0.51100000000E-03 0. -1.
        -11    1    3    3    0    0  0.17404380639E+01 -0.21263656358E+01 -0.10038989623E+02  0.10408259623E+02  0.51100000000E-03 0.  1.
        -12    1    3    3    0    0  0.26024409779E+02  0.19949700782E+02  0.27296629050E+02  0.42665752345E+02  0.00000000000E+00 0.  1.
</event>
<event>
 7    1  0.2682188E-015  0.9000773E+02  0.7816164E-02  0.1186339E+00
        -11   -1    0    0    0    0  0.00000000000E+00  0.00000000000E+00  0.45593999997E+02  0.45594000000E+02  0.51100000000E-03 0. -1.
         11   -1    0    0    0    0 -0.00000000000E+00 -0.00000000000E+00 -0.45593999997E+02  0.45594000000E+02  0.51100000000E-03 0.  1.
    9900012    2    1    2    0    0  0.21495881661E+00 -0.11408827110E+01 -0.21264554055E+00  0.90007729362E+02  0.89999990590E+02 0.  0.
         12    1    1    2    0    0 -0.21495881661E+00  0.11408827110E+01  0.21264554055E+00  0.11802706380E+01  0.00000000000E+00 0. -1.
         11    1    3    3    0    0  0.64980211921E+01  0.16836513796E+01 -0.61114849364E+01  0.90779518489E+01  0.51100000000E-03 0. -1.
        -11    1    3    3    0    0 -0.31212513301E+02  0.16706261112E+02 -0.19424456978E+02  0.40381055906E+02  0.51100000000E-03 0.  1.
         12    1    3    3    0    0  0.24929450926E+02 -0.19530795203E+02  0.25323296374E+02  0.40548721607E+02  0.00000000000E+00 0. -1.
</event>
<event>
 7    1  0.2682188E-015  0.9000801E+02  0.7816164E-02  0.1186339E+00
        -11   -1    0    0    0    0  0.00000000000E+00  0.00000000000E+00  0.45593999997E+02  0.45594000000E+02  0.51100000000E-03 0.  1.
         11   -1    0    0    0    0 -0.00000000000E+00 -0.00000000000E+00 -0.45593999997E+02  0.45594000000E+02  0.51100000000E-03 0. -1.
    9900012    2    1    2    0    0 -0.17751937127E+00 -0.92649089041E+00  0.70885751818E+00  0.90008009543E+02  0.90000274469E+02 0.  0.
         12    1    1    2    0    0  0.17751937127E+00  0.92649089041E+00 -0.70885751818E+00  0.11799904569E+01  0.00000000000E+00 0. -1.
         11    1    3    3    0    0 -0.37579173643E+01  0.57497181533E+01  0.76486169088E+01  0.10280201488E+02  0.51100000000E-03 0. -1.
        -11    1    3    3    0    0  0.25343434917E+02 -0.40509188928E+01  0.28313758320E+02  0.38214768712E+02  0.51100000000E-03 0.  1.
         12    1    3    3    0    0 -0.21763036924E+02 -0.26252901510E+01 -0.35253517710E+02  0.41513039343E+02  0.00000000000E+00 0. -1.
</event>
<event>
 7    1  0.2682188E-015  0.9000715E+02  0.7816164E-02  0.1186340E+00
        -11   -1    0    0    0    0  0.00000000000E+00  0.00000000000E+00  0.45593999997E+02  0.45594000000E+02  0.51100000000E-03 0.  1.
         11   -1    0    0    0    0 -0.00000000000E+00 -0.00000000000E+00 -0.45593999997E+02  0.45594000000E+02  0.51100000000E-03 0. -1.
    9900012    2    1    2    0    0  0.10177927487E+01  0.37941253001E+00  0.46318550085E+00  0.90007154220E+02  0.89999407854E+02 0.  0.
         12    1    1    2    0    0 -0.10177927487E+01 -0.37941253001E+00 -0.46318550085E+00  0.11808457797E+01  0.00000000000E+00 0. -1.
         11    1    3    3    0    0 -0.27304882863E+01  0.97861247506E+01  0.16470837193E+01  0.10292555026E+02  0.51100000000E-03 0. -1.
        -11    1    3    3    0    0  0.38830385864E+02 -0.19100969327E+02  0.53112368383E+00  0.43277338044E+02  0.51100000000E-03 0.  1.
         12    1    3    3    0    0 -0.35082104829E+02  0.96942571059E+01 -0.17150219023E+01  0.36437261151E+02  0.00000000000E+00 0. -1.
</event>
<event>
 7    1  0.2682188E-015  0.9000828E+02  0.7816164E-02  0.1186338E+00
        -11   -1    0    0    0    0  0.00000000000E+00  0.00000000000E+00  0.45593999997E+02  0.45594000000E+02  0.51100000000E-03 0. -1.
         11   -1    0    0    0    0 -0.00000000000E+00 -0.00000000000E+00 -0.45593999997E+02  0.45594000000E+02  0.51100000000E-03 0.  1.
    9900012    2    1    2    0    0  0.11084776147E+00  0.10549523209E+01  0.51626231770E+00  0.90008280370E+02  0.90000548869E+02 0.  0.
         12    1    1    2    0    0 -0.11084776147E+00 -0.10549523209E+01 -0.51626231770E+00  0.11797196304E+01  0.00000000000E+00 0. -1.
         11    1    3    3    0    0  0.13448581641E+02 -0.24091034397E+02  0.19125480332E+02  0.33571212142E+02  0.51100000000E-03 0. -1.
        -11    1    3    3    0    0 -0.86391173995E+01 -0.12404740757E+02 -0.81552690828E+01  0.17176156636E+02  0.51100000000E-03 0.  1.
        -12    1    3    3    0    0 -0.46986164800E+01  0.37550727476E+02 -0.10453948932E+02  0.39260911592E+02  0.00000000000E+00 0.  1.
</event>
<event>
 7    1  0.2682188E-015  0.9000767E+02  0.7816164E-02  0.1186339E+00
        -11   -1    0    0    0    0  0.00000000000E+00  0.00000000000E+00  0.45593999997E+02  0.45594000000E+02  0.51100000000E-03 0.  1.
         11   -1    0    0    0    0 -0.00000000000E+00 -0.00000000000E+00 -0.45593999997E+02  0.45594000000E+02  0.51100000000E-03 0. -1.
    9900012    2    1    2    0    0  0.66935674229E+00 -0.29854523727E-01  0.97171887152E+00  0.90007674915E+02  0.89999935424E+02 0.  0.
         12    1    1    2    0    0 -0.66935674229E+00  0.29854523727E-01 -0.97171887152E+00  0.11803250850E+01  0.00000000000E+00 0. -1.
         11    1    3    3    0    0 -0.33682714034E+01 -0.32135986668E+01 -0.44561781397E+00  0.46766488146E+01  0.51100000000E-03 0. -1.
        -11    1    3    3    0    0 -0.40593044993E+02  0.27371995154E+01  0.89445677775E+00  0.40695056409E+02  0.51100000000E-03 0.  1.
         12    1    3    3    0    0  0.44630673138E+02  0.44654462769E+00  0.52287990774E+00  0.44635969691E+02  0.00000000000E+00 0. -1.
</event>
<event>
 7    1  0.2682188E-015  0.9000781E+02  0.7816164E-02  0.1186339E+00
        -11   -1    0    0    0    0  0.00000000000E+00  0.00000000000E+00  0.45593999997E+02  0.45594000000E+02  0.51100000000E-03 0.  1.
         11   -1    0    0    0    0 -0.00000000000E+00 -0.00000000000E+00 -0.45593999997E+02  0.45594000000E+02  0.51100000000E-03 0. -1.
    9900012    2    1    2    0    0 -0.65360675459E+00 -0.74633966165E+00  0.63923052222E+00  0.90007813430E+02  0.90000075767E+02 0.  0.
         12    1    1    2    0    0  0.65360675459E+00  0.74633966165E+00 -0.63923052222E+00  0.11801865703E+01  0.00000000000E+00 0. -1.
         11    1    3    3    0    0 -0.28703955274E+02  0.27357838405E+02  0.13725326916E+02  0.41961327074E+02  0.51100000000E-03 0. -1.
        -11    1    3    3    0    0 -0.26793221680E+01 -0.59207452720E+01 -0.71878764562E+01  0.96901785364E+01  0.51100000000E-03 0.  1.
        -12    1    3    3    0    0  0.30729670688E+02 -0.22183432794E+02 -0.58982199378E+01  0.38356307820E+02  0.00000000000E+00 0.  1.
</event>
<event>
 7    1  0.2682188E-015  0.9000769E+02  0.7816164E-02  0.1186339E+00
        -11   -1    0    0    0    0  0.00000000000E+00  0.00000000000E+00  0.45593999997E+02  0.45594000000E+02  0.51100000000E-03 0.  1.
         11   -1    0    0    0    0 -0.00000000000E+00 -0.00000000000E+00 -0.45593999997E+02  0.45594000000E+02  0.51100000000E-03 0. -1.
    9900012    2    1    2    0    0  0.72226790427E+00  0.15834199480E+00  0.91999439330E+00  0.90007689534E+02  0.89999950236E+02 0.  0.
         12    1    1    2    0    0 -0.72226790427E+00 -0.15834199480E+00 -0.91999439330E+00  0.11803104662E+01  0.00000000000E+00 0. -1.
         11    1    3    3    0    0 -0.43770067657E+00 -0.16912531846E+02 -0.12063343456E+02  0.20778584430E+02  0.51100000000E-03 0. -1.
        -11    1    3    3    0    0  0.28023009081E+02 -0.10028951401E+02  0.73499038589E+01  0.30657625335E+02  0.51100000000E-03 0.  1.
         12    1    3    3    0    0 -0.26863040500E+02  0.27099825242E+02  0.56334339902E+01  0.38571479769E+02  0.00000000000E+00 0. -1.
</event>
<event>
 7    1  0.2682188E-015  0.9000773E+02  0.7816164E-02  0.1186339E+00
        -11   -1    0    0    0    0  0.00000000000E+00  0.00000000000E+00  0.45593999997E+02  0.45594000000E+02  0.51100000000E-03 0. -1.
         11   -1    0    0    0    0 -0.00000000000E+00 -0.00000000000E+00 -0.45593999997E+02  0.45594000000E+02  0.51100000000E-03 0.  1.
    9900012    2    1    2    0    0  0.15421718934E+00  0.59850274522E+00 -0.10055086084E+01  0.90007730523E+02  0.89999991766E+02 0.  0.
         12    1    1    2    0    0 -0.15421718934E+00 -0.59850274522E+00  0.10055086084E+01  0.11802694773E+01  0.00000000000E+00 0. -1.
         11    1    3    3    0    0  0.89663318859E+01  0.80292665308E+01  0.17963801867E+01  0.12169273214E+02  0.51100000000E-03 0. -1.
        -11    1    3    3    0    0  0.16937519846E+02 -0.17882539063E+02 -0.30093637597E+02  0.38888196229E+02  0.51100000000E-03 0.  1.
         12    1    3    3    0    0 -0.25749634542E+02  0.10451775278E+02  0.27291748802E+02  0.38950261080E+02  0.00000000000E+00 0. -1.
</event>
<event>
 7    1  0.2682188E-015  0.9000775E+02  0.7816164E-02  0.1186339E+00
        -11   -1    0    0    0    0  0.00000000000E+00  0.00000000000E+00  0.45593999997E+02  0.45594000000E+02  0.51100000000E-03 0. -1.
         11   -1    0    0    0    0 -0.00000000000E+00 -0.00000000000E+00 -0.45593999997E+02  0.45594000000E+02  0.51100000000E-03 0.  1.
    9900012    2    1    2    0    0  0.42905128037E+00 -0.77911375240E+00 -0.77581380751E+00  0.90007749898E+02  0.90000011396E+02 0.  0.
         12    1    1    2    0    0 -0.42905128037E+00  0.77911375240E+00  0.77581380751E+00  0.11802501024E+01  0.00000000000E+00 0. -1.
         11    1    3    3    0    0 -0.27220778763E+02  0.23608932796E+02 -0.11586073697E+02  0.37849565496E+02  0.51100000000E-03 0. -1.
        -11    1    3    3    0    0 -0.84232815806E+01 -0.25898689817E+01  0.87858658260E+00  0.88561283060E+01  0.51100000000E-03 0.  1.
        -12    1    3    3    0    0  0.36073111624E+02 -0.21798177566E+02  0.99316733070E+01  0.43302056096E+02  0.00000000000E+00 0.  1.
</event>
<event>
 7    1  0.2682188E-015  0.9000777E+02  0.7816164E-02  0.1186339E+00
        -11   -1    0    0    0    0  0.00000000000E+00  0.00000000000E+00  0.45593999997E+02  0.45594000000E+02  0.51100000000E-03 0.  1.
         11   -1    0    0    0    0 -0.00000000000E+00 -0.00000000000E+00 -0.45593999997E+02  0.45594000000E+02  0.51100000000E-03 0. -1.
    9900012    2    1    2    0    0 -0.96232050236E+00 -0.33941446467E+00 -0.59303334796E+00  0.90007766345E+02  0.90000028061E+02 0.  0.
         12    1    1    2    0    0  0.96232050236E+00  0.33941446467E+00  0.59303334796E+00  0.11802336548E+01  0.00000000000E+00 0. -1.
         11    1    3    3    0    0  0.12020394708E+02 -0.34602800106E+02 -0.65606073838E+00  0.36637058835E+02  0.51100000000E-03 0. -1.
        -11    1    3    3    0    0 -0.16900279241E+01 -0.84243552116E+01  0.30403765728E+01  0.91142660199E+01  0.51100000000E-03 0.  1.
        -12    1    3    3    0    0 -0.11292687286E+02  0.42687740853E+02 -0.29773491824E+01  0.44256441491E+02  0.00000000000E+00 0.  1.
</event>
<event>
 7    1  0.2682188E-015  0.9000783E+02  0.7816164E-02  0.1186339E+00
        -11   -1    0    0    0    0  0.00000000000E+00  0.00000000000E+00  0.45593999997E+02  0.45594000000E+02  0.51100000000E-03 0. -1.
         11   -1    0    0    0    0 -0.00000000000E+00 -0.00000000000E+00 -0.45593999997E+02  0.45594000000E+02  0.51100000000E-03 0.  1.
    9900012    2    1    2    0    0 -0.77508160167E+00 -0.17238408820E-01 -0.88980936178E+00  0.90007826558E+02  0.90000089069E+02 0.  0.
         12    1    1    2    0    0  0.77508160167E+00  0.17238408820E-01  0.88980936178E+00  0.11801734416E+01  0.00000000000E+00 0. -1.
         11    1    3    3    0    0 -0.15624896183E+02  0.13555510534E+02 -0.83464727796E+01  0.22305892824E+02  0.51100000000E-03 0. -1.
        -11    1    3    3    0    0  0.56252082344E+00 -0.38223593667E+02 -0.88637374019E-01  0.38227835400E+02  0.51100000000E-03 0.  1.
         12    1    3    3    0    0  0.14287293758E+02  0.24650844725E+02  0.75453007918E+01  0.29474098334E+02  0.00000000000E+00 0. -1.
</event>
<event>
 7    1  0.2682188E-015  0.9000756E+02  0.7816164E-02  0.1186339E+00
        -11   -1    0    0    0    0  0.00000000000E+00  0.00000000000E+00  0.45593999997E+02  0.45594000000E+02  0.51100000000E-03 0.  1.
         11   -1    0    0    0    0 -0.00000000000E+00 -0.00000000000E+00 -0.45593999997E+02  0.45594000000E+02  0.51100000000E-03 0. -1.
    9900012    2    1    2    0    0 -0.10675621123E+01  0.27837250068E+00  0.41983173050E+00  0.90007559915E+02  0.89999818906E+02 0.  0.
         12    1    1    2    0    0  0.10675621123E+01 -0.27837250068E+00 -0.41983173050E+00  0.11804400851E+01  0.00000000000E+00 0. -1.
         11    1    3    3    0    0  0.63296729367E+01 -0.66796676472E+01  0.52237226397E+01  0.10581587681E+02  0.51100000000E-03 0. -1.
        -11    1    3    3    0    0 -0.28738971543E+01 -0.18939266122E+02  0.30130748352E+02  0.35704580695E+02  0.51100000000E-03 0.  1.
         12    1    3    3    0    0 -0.45233378947E+01  0.25897306270E+02 -0.34934639261E+02  0.43721391539E+02  0.00000000000E+00 0. -1.
</event>
<event>
 7    1  0.2682188E-015  0.9000776E+02  0.7816164E-02  0.1186339E+00
        -11   -1    0    0    0    0  0.00000000000E+00  0.00000000000E+00  0.45593999997E+02  0.45594000000E+02  0.51100000000E-03 0.  1.
         11   -1    0    0    0    0 -0.00000000000E+00 -0.00000000000E+00 -0.45593999997E+02  0.45594000000E+02  0.51100000000E-03 0. -1.
    9900012    2    1    2    0    0 -0.94828719370E+00  0.70105272151E+00 -0.47448413947E-01  0.90007756435E+02  0.90000018020E+02 0.  0.
         12    1    1    2    0    0  0.94828719370E+00 -0.70105272151E+00  0.47448413947E-01  0.11802435647E+01  0.00000000000E+00 0. -1.
         11    1    3    3    0    0  0.17738291301E+02 -0.26636062714E+02 -0.29642062550E+01  0.32138969090E+02  0.51100000000E-03 0. -1.
        -11    1    3    3    0    0  0.97394135439E+01 -0.54648912902E+01  0.85968921814E+01  0.14093536406E+02  0.51100000000E-03 0.  1.
        -12    1    3    3    0    0 -0.28425992039E+02  0.32802006726E+02 -0.56801343404E+01  0.43775250939E+02  0.00000000000E+00 0.  1.
</event>
<event>
 7    1  0.2682188E-015  0.9000771E+02  0.7816164E-02  0.1186339E+00
        -11   -1    0    0    0    0  0.00000000000E+00  0.00000000000E+00  0.45593999997E+02  0.45594000000E+02  0.51100000000E-03 0.  1.
         11   -1    0    0    0    0 -0.00000000000E+00 -0.00000000000E+00 -0.45593999997E+02  0.45594000000E+02  0.51100000000E-03 0. -1.
    9900012    2    1    2    0    0 -0.89941677648E+00 -0.61001465701E+00  0.46044673553E+00  0.90007712062E+02  0.89999973062E+02 0.  0.
         12    1    1    2    0    0  0.89941677648E+00  0.61001465701E+00 -0.46044673553E+00  0.11802879377E+01  0.00000000000E+00 0. -1.
         11    1    3    3    0    0 -0.77799394534E+01 -0.94944657258E+00  0.39770151817E+01  0.87889451421E+01  0.51100000000E-03 0. -1.
        -11    1    3    3    0    0 -0.21250047938E+02 -0.31867195109E+02  0.11576263893E+00  0.38302690020E+02  0.51100000000E-03 0.  1.
         12    1    3    3    0    0  0.28130570615E+02  0.32206627024E+02 -0.36323310851E+01  0.42916076901E+02  0.00000000000E+00 0. -1.
</event>
<event>
 7    1  0.2682188E-015  0.9000773E+02  0.7816164E-02  0.1186339E+00
        -11   -1    0    0    0    0  0.00000000000E+00  0.00000000000E+00  0.45593999997E+02  0.45594000000E+02  0.51100000000E-03 0.  1.
         11   -1    0    0    0    0 -0.00000000000E+00 -0.00000000000E+00 -0.45593999997E+02  0.45594000000E+02  0.51100000000E-03 0. -1.
    9900012    2    1    2    0    0  0.10703976658E+01 -0.42985018328E+00  0.25003289031E+00  0.90007729358E+02  0.89999990585E+02 0.  0.
         12    1    1    2    0    0 -0.10703976658E+01  0.42985018328E+00 -0.25003289031E+00  0.11802706424E+01  0.00000000000E+00 0. -1.
         11    1    3    3    0    0 -0.40201012007E+02  0.11188448573E+01 -0.18497587022E+01  0.40259095714E+02  0.51100000000E-03 0. -1.
        -11    1    3    3    0    0  0.26121995014E+01  0.90285002257E+01 -0.14570010243E+01  0.95110596048E+01  0.51100000000E-03 0.  1.
        -12    1    3    3    0    0  0.38659210171E+02 -0.10577195266E+02  0.35567926168E+01  0.40237574039E+02  0.00000000000E+00 0.  1.
</event>
<event>
 7    1  0.2682188E-015  0.9000765E+02  0.7816164E-02  0.1186339E+00
        -11   -1    0    0    0    0  0.00000000000E+00  0.00000000000E+00  0.45593999997E+02  0.45594000000E+02  0.51100000000E-03 0.  1.
         11   -1    0    0    0    0 -0.00000000000E+00 -0.00000000000E+00 -0.45593999997E+02  0.45594000000E+02  0.51100000000E-03 0. -1.
    9900012    2    1    2    0    0  0.95871070165E+00 -0.37511569454E-01  0.68752726991E+00  0.90007649597E+02  0.89999909771E+02 0.  0.
         12    1    1    2    0    0 -0.95871070165E+00  0.37511569454E-01 -0.68752726991E+00  0.11803504031E+01  0.00000000000E+00 0. -1.
         11    1    3    3    0    0 -0.29759781840E+02 -0.18561856072E+02  0.15524187589E+02  0.38356062318E+02  0.51100000000E-03 0. -1.
        -11    1    3    3    0    0 -0.21017400978E+01 -0.19490595002E+01  0.67643503496E+01  0.73466033163E+01  0.51100000000E-03 0.  1.
        -12    1    3    3    0    0  0.32820232640E+02  0.20473404003E+02 -0.21601010669E+02  0.44304983962E+02  0.00000000000E+00 0.  1.
</event>
<event>
 7    1  0.2682188E-015  0.9000773E+02  0.7816164E-02  0.1186339E+00
        -11   -1    0    0    0    0  0.00000000000E+00  0.00000000000E+00  0.45593999997E+02  0.45594000000E+02  0.51100000000E-03 0.  1.
         11   -1    0    0    0    0 -0.00000000000E+00 -0.00000000000E+00 -0.45593999997E+02  0.45594000000E+02  0.51100000000E-03 0. -1.
    9900012    2    1    2    0    0  0.21628340769E+00 -0.10799993463E+01 -0.42410428720E+00  0.90007728189E+02  0.89999989402E+02 0.  0.
         12    1    1    2    0    0 -0.21628340769E+00  0.10799993463E+01  0.42410428720E+00  0.11802718105E+01  0.00000000000E+00 0. -1.
         11    1    3    3    0    0 -0.11781845695E+02  0.66419108904E+01 -0.33337386501E+02  0.35976495205E+02  0.51100000000E-03 0. -1.
        -11    1    3    3    0    0 -0.35945080835E+01 -0.38346252780E+01 -0.82839979894E+01  0.98106810332E+01  0.51100000000E-03 0.  1.
        -12    1    3    3    0    0  0.15592637187E+02 -0.38872849587E+01  0.41197280203E+02  0.44220551951E+02  0.00000000000E+00 0.  1.
</event>
<event>
 7    1  0.2682188E-015  0.9000774E+02  0.7816164E-02  0.1186339E+00
        -11   -1    0    0    0    0  0.00000000000E+00  0.00000000000E+00  0.45593999997E+02  0.45594000000E+02  0.51100000000E-03 0.  1.
         11   -1    0    0    0    0 -0.00000000000E+00 -0.00000000000E+00 -0.45593999997E+02  0.45594000000E+02  0.51100000000E-03 0. -1.
    9900012    2    1    2    0    0  0.97177422938E+00  0.58572966890E+00  0.32494603323E+00  0.90007739723E+02  0.90000001087E+02 0.  0.
         12    1    1    2    0    0 -0.97177422938E+00 -0.58572966890E+00 -0.32494603323E+00  0.11802602774E+01  0.00000000000E+00 0. -1.
         11    1    3    3    0    0  0.80161546765E+00 -0.62503383970E+01  0.94421655677E+01  0.11351819603E+02  0.51100000000E-03 0. -1.
        -11    1    3    3    0    0  0.33543311292E+02 -0.79837877608E+01  0.11957699239E+02  0.36494947196E+02  0.51100000000E-03 0.  1.
         12    1    3    3    0    0 -0.33373152531E+02  0.14819855827E+02 -0.21074918774E+02  0.42160972924E+02  0.00000000000E+00 0. -1.
</event>
<event>
 7    1  0.2682188E-015  0.9000777E+02  0.7816164E-02  0.1186339E+00
        -11   -1    0    0    0    0  0.00000000000E+00  0.00000000000E+00  0.45593999997E+02  0.45594000000E+02  0.51100000000E-03 0.  1.
         11   -1    0    0    0    0 -0.00000000000E+00 -0.00000000000E+00 -0.45593999997E+02  0.45594000000E+02  0.51100000000E-03 0. -1.
    9900012    2    1    2    0    0 -0.31818125050E+00 -0.97640182980E-01  0.11323306832E+01  0.90007768798E+02  0.90000030546E+02 0.  0.
         12    1    1    2    0    0  0.31818125050E+00  0.97640182980E-01 -0.11323306832E+01  0.11802312018E+01  0.00000000000E+00 0. -1.
         11    1    3    3    0    0 -0.25352004898E+02 -0.34478697968E+02 -0.98283416918E+01  0.43910147649E+02  0.51100000000E-03 0. -1.
        -11    1    3    3    0    0 -0.51037386296E+00  0.72303495907E+01  0.24659286604E-01  0.72483822350E+01  0.51100000000E-03 0.  1.
        -12    1    3    3    0    0  0.25544197511E+02  0.27150708194E+02  0.10936013088E+02  0.38849238914E+02  0.00000000000E+00 0.  1.
</event>
<event>
 7    1  0.2682188E-015  0.9000773E+02  0.7816164E-02  0.1186339E+00
        -11   -1    0    0    0    0  0.00000000000E+00  0.00000000000E+00  0.45593999997E+02  0.45594000000E+02  0.51100000000E-03 0.  1.
         11   -1    0    0    0    0 -0.00000000000E+00 -0.00000000000E+00 -0.45593999997E+02  0.45594000000E+02  0.51100000000E-03 0. -1.
    9900012    2    1    2    0    0  0.95453727014E+00  0.95421626603E-01  0.68760593989E+00  0.90007725195E+02  0.89999986368E+02 0.  0.
         12    1    1    2    0    0 -0.95453727014E+00 -0.95421626603E-01 -0.68760593989E+00  0.11802748051E+01  0.00000000000E+00 0. -1.
         11    1    3    3    0    0  0.12567758244E+02  0.22822044007E+02  0.30403585914E+02  0.40039633822E+02  0.51100000000E-03 0. -1.
        -11    1    3    3    0    0 -0.73911344513E+01 -0.12625141003E+01  0.49445143985E+01  0.89817054744E+01  0.51100000000E-03 0.  1.
         12    1    3    3    0    0 -0.42220865222E+01 -0.21464108280E+02 -0.34660494373E+02  0.40986385898E+02  0.00000000000E+00 0. -1.
</event>
<event>
 7    1  0.2682188E-015  0.9000776E+02  0.7816164E-02  0.1186339E+00
        -11   -1    0    0    0    0  0.00000000000E+00  0.00000000000E+00  0.45593999997E+02  0.45594000000E+02  0.51100000000E-03 0. -1.
         11   -1    0    0    0    0 -0.00000000000E+00 -0.00000000000E+00 -0.45593999997E+02  0.45594000000E+02  0.51100000000E-03 0.  1.
    9900012    2    1    2    0    0  0.10972185216E+00  0.23004015049E+00 -0.11523916091E+01  0.90007761136E+02  0.90000022783E+02 0.  0.
         12    1    1    2    0    0 -0.10972185216E+00 -0.23004015049E+00  0.11523916091E+01  0.11802388641E+01  0.00000000000E+00 0. -1.
         11    1    3    3    0    0 -0.30432364631E+01  0.73784391458E+01 -0.30695078735E+01  0.85512882799E+01  0.51100000000E-03 0. -1.
        -11    1    3    3    0    0 -0.34493076612E+02  0.11642193441E+02 -0.99496171126E+01  0.37740003752E+02  0.51100000000E-03 0.  1.
         12    1    3    3    0    0  0.37646034927E+02 -0.18790592437E+02  0.11866733377E+02  0.43716469104E+02  0.00000000000E+00 0. -1.
</event>
<event>
 7    1  0.2682188E-015  0.9000776E+02  0.7816164E-02  0.1186339E+00
        -11   -1    0    0    0    0  0.00000000000E+00  0.00000000000E+00  0.45593999997E+02  0.45594000000E+02  0.51100000000E-03 0.  1.
         11   -1    0    0    0    0 -0.00000000000E+00 -0.00000000000E+00 -0.45593999997E+02  0.45594000000E+02  0.51100000000E-03 0. -1.
    9900012    2    1    2    0    0 -0.91352781305E+00  0.45628612795E+00 -0.59180995923E+00  0.90007758871E+02  0.90000020488E+02 0.  0.
         12    1    1    2    0    0  0.91352781305E+00 -0.45628612795E+00  0.59180995923E+00  0.11802411294E+01  0.00000000000E+00 0. -1.
         11    1    3    3    0    0 -0.29415689441E+01 -0.10132765830E+02 -0.11513855371E+02  0.15617126400E+02  0.51100000000E-03 0. -1.
        -11    1    3    3    0    0 -0.33204681895E+02 -0.59166331325E+01  0.11022531330E+02  0.35483145922E+02  0.51100000000E-03 0.  1.
         12    1    3    3    0    0  0.35232723026E+02  0.16505685091E+02 -0.10048591897E+00  0.38907486549E+02  0.00000000000E+00 0. -1.
</event>
<event>
 7    1  0.2682188E-015  0.9000774E+02  0.7816164E-02  0.1186339E+00
        -11   -1    0    0    0    0  0.00000000000E+00  0.00000000000E+00  0.45593999997E+02  0.45594000000E+02  0.51100000000E-03 0.  1.
         11   -1    0    0    0    0 -0.00000000000E+00 -0.00000000000E+00 -0.45593999997E+02  0.45594000000E+02  0.51100000000E-03 0. -1.
    9900012    2    1    2    0    0  0.72338868439E+00  0.90175642779E+00  0.23782930757E+00  0.90007737901E+02  0.89999999241E+02 0.  0.
         12    1    1    2    0    0 -0.72338868439E+00 -0.90175642779E+00 -0.23782930757E+00  0.11802620994E+01  0.00000000000E+00 0. -1.
         11    1    3    3    0    0  0.22958787995E+02  0.12522769962E+02  0.12875526813E+01  0.26183649591E+02  0.51100000000E-03 0. -1.
        -11    1    3    3    0    0  0.10428247178E+02  0.11729771869E+02 -0.14611540484E+02  0.21443717096E+02  0.51100000000E-03 0.  1.
        -12    1    3    3    0    0 -0.32663646489E+02 -0.23350785403E+02  0.13561817111E+02  0.42380371214E+02  0.00000000000E+00 0.  1.
</event>
<event>
 7    1  0.2682188E-015  0.9000736E+02  0.7816164E-02  0.1186340E+00
        -11   -1    0    0    0    0  0.00000000000E+00  0.00000000000E+00  0.45593999997E+02  0.45594000000E+02  0.51100000000E-03 0. -1.
         11   -1    0    0    0    0 -0.00000000000E+00 -0.00000000000E+00 -0.45593999997E+02  0.45594000000E+02  0.51100000000E-03 0.  1.
    9900012    2    1    2    0    0  0.59983009368E+00  0.28256666288E+00 -0.97686569598E+00  0.90007361762E+02  0.89999618137E+02 0.  0.
         12    1    1    2    0    0 -0.59983009368E+00 -0.28256666288E+00  0.97686569598E+00  0.11806382377E+01  0.00000000000E+00 0. -1.
         11    1    3    3    0    0 -0.58551797949E+01 -0.28646889399E+02  0.28274954862E+02  0.40674322064E+02  0.51100000000E-03 0. -1.
        -11    1    3    3    0    0  0.37155477825E+01  0.70728298040E+01  0.43939386160E+01  0.91179445920E+01  0.51100000000E-03 0.  1.
        -12    1    3    3    0    0  0.27394621061E+01  0.21856626258E+02 -0.33645759174E+02  0.40215095106E+02  0.00000000000E+00 0.  1.
</event>
<event>
 7    1  0.2682188E-015  0.9000774E+02  0.7816164E-02  0.1186339E+00
        -11   -1    0    0    0    0  0.00000000000E+00  0.00000000000E+00  0.45593999997E+02  0.45594000000E+02  0.51100000000E-03 0.  1.
         11   -1    0    0    0    0 -0.00000000000E+00 -0.00000000000E+00 -0.45593999997E+02  0.45594000000E+02  0.51100000000E-03 0. -1.
    9900012    2    1    2    0    0 -0.47075460260E-01 -0.11687429946E+01  0.15759009234E+00  0.90007741162E+02  0.90000002546E+02 0.  0.
         12    1    1    2    0    0  0.47075460259E-01  0.11687429946E+01 -0.15759009234E+00  0.11802588375E+01  0.00000000000E+00 0. -1.
         11    1    3    3    0    0 -0.24685766127E+02 -0.20528777479E+02 -0.20740215279E+02  0.38222693314E+02  0.51100000000E-03 0. -1.
        -11    1    3    3    0    0 -0.67217930861E+01  0.58988635546E+01 -0.37397790328E+01  0.96935566745E+01  0.51100000000E-03 0.  1.
        -12    1    3    3    0    0  0.31360483753E+02  0.13461170930E+02  0.24637584404E+02  0.42091491174E+02  0.00000000000E+00 0.  1.
</event>
<event>
 7    1  0.2682188E-015  0.9000778E+02  0.7816164E-02  0.1186339E+00
        -11   -1    0    0    0    0  0.00000000000E+00  0.00000000000E+00  0.45593999997E+02  0.45594000000E+02  0.51100000000E-03 0. -1.
         11   -1    0    0    0    0 -0.00000000000E+00 -0.00000000000E+00 -0.45593999997E+02  0.45594000000E+02  0.51100000000E-03 0.  1.
    9900012    2    1    2    0    0  0.11131279599E+01 -0.19203193106E+00  0.34203391527E+00  0.90007780818E+02  0.90000042725E+02 0.  0.
         12    1    1    2    0    0 -0.11131279599E+01  0.19203193106E+00 -0.34203391527E+00  0.11802191817E+01  0.00000000000E+00 0. -1.
         11    1    3    3    0    0  0.10794352199E+02 -0.28181009077E+02  0.13505078238E+02  0.33061676462E+02  0.51100000000E-03 0. -1.
        -11    1    3    3    0    0 -0.88382898195E+01 -0.10378469009E+02 -0.12603294647E+02  0.18565317722E+02  0.51100000000E-03 0.  1.
        -12    1    3    3    0    0 -0.84293441929E+00  0.38367446156E+02 -0.55974967607E+00  0.38380786634E+02  0.00000000000E+00 0.  1.
</event>
<event>
 7    1  0.2682188E-015  0.9000770E+02  0.7816164E-02  0.1186339E+00
        -11   -1    0    0    0    0  0.00000000000E+00  0.00000000000E+00  0.45593999997E+02  0.45594000000E+02  0.51100000000E-03 0.  1.
         11   -1    0    0    0    0 -0.00000000000E+00 -0.00000000000E+00 -0.45593999997E+02  0.45594000000E+02  0.51100000000E-03 0. -1.
    9900012    2    1    2    0    0  0.79375030454E-01  0.81413002539E+00  0.85087952119E+00  0.90007701710E+02  0.89999962573E+02 0.  0.
         12    1    1    2    0    0 -0.79375030454E-01 -0.81413002539E+00 -0.85087952119E+00  0.11802982900E+01  0.00000000000E+00 0. -1.
         11    1    3    3    0    0 -0.52952595453E+01  0.40032988160E+01 -0.66139141130E+01  0.93707008925E+01  0.51100000000E-03 0. -1.
        -11    1    3    3    0    0 -0.19329691652E+02  0.21117493066E+02  0.28253985872E+02  0.40222794665E+02  0.51100000000E-03 0.  1.
         12    1    3    3    0    0  0.24704326228E+02 -0.24306661857E+02 -0.20789192238E+02  0.40414206152E+02  0.00000000000E+00 0. -1.
</event>
<event>
 7    1  0.2682188E-015  0.9000783E+02  0.7816164E-02  0.1186339E+00
        -11   -1    0    0    0    0  0.00000000000E+00  0.00000000000E+00  0.45593999997E+02  0.45594000000E+02  0.51100000000E-03 0.  1.
         11   -1    0    0    0    0 -0.00000000000E+00 -0.00000000000E+00 -0.45593999997E+02  0.45594000000E+02  0.51100000000E-03 0. -1.
    9900012    2    1    2    0    0 -0.69635214304E+00  0.66732174560E+00 -0.68013773690E+00  0.90007825453E+02  0.90000087949E+02 0.  0.
         12    1    1    2    0    0  0.69635214304E+00 -0.66732174560E+00  0.68013773690E+00  0.11801745466E+01  0.00000000000E+00 0. -1.
         11    1    3    3    0    0 -0.11894790171E+02 -0.13459696407E+01  0.71347670378E+01  0.13935658163E+02  0.51100000000E-03 0. -1.
        -11    1    3    3    0    0  0.33266122622E+02 -0.23396013184E+02 -0.11374276257E+02  0.42230113756E+02  0.51100000000E-03 0.  1.
         12    1    3    3    0    0 -0.22067684594E+02  0.25409304570E+02  0.35593714824E+01  0.33842053534E+02  0.00000000000E+00 0. -1.
</event>
<event>
 7    1  0.2682188E-015  0.9000668E+02  0.7816164E-02  0.1186341E+00
        -11   -1    0    0    0    0  0.00000000000E+00  0.00000000000E+00  0.45593999997E+02  0.45594000000E+02  0.51100000000E-03 0. -1.
         11   -1    0    0    0    0 -0.00000000000E+00 -0.00000000000E+00 -0.45593999997E+02  0.45594000000E+02  0.51100000000E-03 0.  1.
    9900012    2    1    2    0    0  0.29098562680E+00 -0.88746914414E+00 -0.72336292093E+00  0.90006675306E+02  0.89998922614E+02 0.  0.
         12    1    1    2    0    0 -0.29098562680E+00  0.88746914414E+00  0.72336292093E+00  0.11813246938E+01  0.00000000000E+00 0. -1.
         11    1    3    3    0    0  0.20615975741E+02 -0.42271507885E+00  0.32368516422E+02  0.38378613829E+02  0.51100000000E-03 0. -1.
        -11    1    3    3    0    0 -0.48413139699E+01  0.12703649620E+02 -0.98823863184E+00  0.13630761185E+02  0.51100000000E-03 0.  1.
        -12    1    3    3    0    0 -0.15483676145E+02 -0.13168403686E+02 -0.32103640711E+02  0.37997300292E+02  0.00000000000E+00 0.  1.
</event>
<event>
 7    1  0.2682188E-015  0.9000796E+02  0.7816164E-02  0.1186339E+00
        -11   -1    0    0    0    0  0.00000000000E+00  0.00000000000E+00  0.45593999997E+02  0.45594000000E+02  0.51100000000E-03 0. -1.
         11   -1    0    0    0    0 -0.00000000000E+00 -0.00000000000E+00 -0.45593999997E+02  0.45594000000E+02  0.51100000000E-03 0.  1.
    9900012    2    1    2    0    0 -0.11353746518E+01 -0.21519421201E+00  0.23899932537E+00  0.90007955583E+02  0.90000219796E+02 0.  0.
         12    1    1    2    0    0  0.11353746518E+01  0.21519421201E+00 -0.23899932537E+00  0.11800444171E+01  0.00000000000E+00 0. -1.
         11    1    3    3    0    0  0.62784667270E+01 -0.63458354330E+00 -0.56391097732E+01  0.84629427512E+01  0.51100000000E-03 0. -1.
        -11    1    3    3    0    0 -0.87640643411E+01  0.38519342572E+02 -0.91777563002E+01  0.40555884738E+02  0.51100000000E-03 0.  1.
         12    1    3    3    0    0  0.13502229623E+01 -0.38099953240E+02  0.15055865399E+02  0.40989128094E+02  0.00000000000E+00 0. -1.
</event>
<event>
 7    1  0.2682188E-015  0.9000771E+02  0.7816164E-02  0.1186339E+00
        -11   -1    0    0    0    0  0.00000000000E+00  0.00000000000E+00  0.45593999997E+02  0.45594000000E+02  0.51100000000E-03 0.  1.
         11   -1    0    0    0    0 -0.00000000000E+00 -0.00000000000E+00 -0.45593999997E+02  0.45594000000E+02  0.51100000000E-03 0. -1.
    9900012    2    1    2    0    0  0.14305814354E+00  0.82231615623E+00  0.83450790774E+00  0.90007714890E+02  0.89999975926E+02 0.  0.
         12    1    1    2    0    0 -0.14305814354E+00 -0.82231615623E+00 -0.83450790774E+00  0.11802851102E+01  0.00000000000E+00 0. -1.
         11    1    3    3    0    0 -0.12105504742E+02  0.32884975363E+02 -0.30012373980E+01  0.35170616655E+02  0.51100000000E-03 0. -1.
        -11    1    3    3    0    0  0.20945476964E+01  0.10240929987E+02 -0.28178919182E+01  0.10826093117E+02  0.51100000000E-03 0.  1.
        -12    1    3    3    0    0  0.10154015189E+02 -0.42303589194E+02  0.66536372240E+01  0.44011005118E+02  0.00000000000E+00 0.  1.
</event>
<event>
 7    1  0.2682188E-015  0.9000793E+02  0.7816164E-02  0.1186339E+00
        -11   -1    0    0    0    0  0.00000000000E+00  0.00000000000E+00  0.45593999997E+02  0.45594000000E+02  0.51100000000E-03 0.  1.
         11   -1    0    0    0    0 -0.00000000000E+00 -0.00000000000E+00 -0.45593999997E+02  0.45594000000E+02  0.51100000000E-03 0. -1.
    9900012    2    1    2    0    0 -0.60838818119E+00 -0.70499334770E+00  0.72485648731E+00  0.90007928508E+02  0.90000192364E+02 0.  0.
         12    1    1    2    0    0  0.60838818119E+00  0.70499334770E+00 -0.72485648731E+00  0.11800714921E+01  0.00000000000E+00 0. -1.
         11    1    3    3    0    0 -0.31360057124E+02 -0.54289739781E+01  0.29437428224E+02  0.43353075116E+02  0.51100000000E-03 0. -1.
        -11    1    3    3    0    0  0.79042829019E+01 -0.50366311301E+01 -0.98435724344E+00  0.94241339537E+01  0.51100000000E-03 0.  1.
        -12    1    3    3    0    0  0.22847386041E+02  0.97606117605E+01 -0.27728214494E+02  0.37230719438E+02  0.00000000000E+00 0.  1.
</event>
<event>
 7    1  0.2682188E-015  0.9000774E+02  0.7816164E-02  0.1186339E+00
        -11   -1    0    0    0    0  0.00000000000E+00  0.00000000000E+00  0.45593999997E+02  0.45594000000E+02  0.51100000000E-03 0. -1.
         11   -1    0    0    0    0 -0.00000000000E+00 -0.00000000000E+00 -0.45593999997E+02  0.45594000000E+02  0.51100000000E-03 0.  1.
    9900012    2    1    2    0    0  0.61508776910E+00 -0.92815758008E+00  0.39140796992E+00  0.90007741699E+02  0.90000003090E+02 0.  0.
         12    1    1    2    0    0 -0.61508776910E+00  0.92815758008E+00 -0.39140796992E+00  0.11802583006E+01  0.00000000000E+00 0. -1.
         11    1    3    3    0    0  0.47333718402E+01  0.60278175457E+01  0.61693571072E+01  0.98387174327E+01  0.51100000000E-03 0. -1.
        -11    1    3    3    0    0  0.31892775259E+02 -0.72770852145E+01 -0.23258621549E+02  0.40138118535E+02  0.51100000000E-03 0.  1.
         12    1    3    3    0    0 -0.36011059330E+02  0.32111008877E+00  0.17480672412E+02  0.40030905732E+02  0.00000000000E+00 0. -1.
</event>
<event>
 7    1  0.2682188E-015  0.9000731E+02  0.7816164E-02  0.1186340E+00
        -11   -1    0    0    0    0  0.00000000000E+00  0.00000000000E+00  0.45593999997E+02  0.45594000000E+02  0.51100000000E-03 0. -1.
         11   -1    0    0    0    0 -0.00000000000E+00 -0.00000000000E+00 -0.45593999997E+02  0.45594000000E+02  0.51100000000E-03 0.  1.
    9900012    2    1    2    0    0 -0.11739121837E+01  0.95835394262E-01  0.82339005634E-01  0.90007307851E+02  0.89999563514E+02 0.  0.
         12    1    1    2    0    0  0.11739121837E+01 -0.95835394262E-01 -0.82339005634E-01  0.11806921485E+01  0.00000000000E+00 0. -1.
         11    1    3    3    0    0  0.12120849443E+01  0.67779546007E+00 -0.88870606449E+01  0.89949098808E+01  0.51100000000E-03 0. -1.
        -11    1    3    3    0    0 -0.21497975790E+02  0.27146147403E+02 -0.16914314583E+02  0.38537907571E+02  0.51100000000E-03 0.  1.
         12    1    3    3    0    0  0.19111978662E+02 -0.27728107468E+02  0.25883714234E+02  0.42474490399E+02  0.00000000000E+00 0. -1.
</event>
<event>
 7    1  0.2682188E-015  0.9000788E+02  0.7816164E-02  0.1186339E+00
        -11   -1    0    0    0    0  0.00000000000E+00  0.00000000000E+00  0.45593999997E+02  0.45594000000E+02  0.51100000000E-03 0.  1.
         11   -1    0    0    0    0 -0.00000000000E+00 -0.00000000000E+00 -0.45593999997E+02  0.45594000000E+02  0.51100000000E-03 0. -1.
    9900012    2    1    2    0    0  0.92877107231E+00 -0.72169799735E+00 -0.96031758275E-01  0.90007878903E+02  0.90000142105E+02 0.  0.
         12    1    1    2    0    0 -0.92877107231E+00  0.72169799735E+00  0.96031758275E-01  0.11801210966E+01  0.00000000000E+00 0. -1.
         11    1    3    3    0    0  0.40379817928E+00 -0.82268094605E+01  0.37832045298E+01  0.90639993184E+01  0.51100000000E-03 0. -1.
        -11    1    3    3    0    0  0.76928354571E+01  0.32794089342E+02  0.24959306505E+02  0.41923728300E+02  0.51100000000E-03 0.  1.
         12    1    3    3    0    0 -0.71678625641E+01 -0.25288977879E+02 -0.28838542793E+02  0.39020151285E+02  0.00000000000E+00 0. -1.
</event>
<event>
 7    1  0.2682188E-015  0.9000779E+02  0.7816164E-02  0.1186339E+00
        -11   -1    0    0    0    0  0.00000000000E+00  0.00000000000E+00  0.45593999997E+02  0.45594000000E+02  0.51100000000E-03 0.  1.
         11   -1    0    0    0    0 -0.00000000000E+00 -0.00000000000E+00 -0.45593999997E+02  0.45594000000E+02  0.51100000000E-03 0. -1.
    9900012    2    1    2    0    0  0.17588966886E+00  0.93619172790E-01  0.11632684268E+01  0.90007790206E+02  0.90000052237E+02 0.  0.
         12    1    1    2    0    0 -0.17588966886E+00 -0.93619172790E-01 -0.11632684268E+01  0.11802097940E+01  0.00000000000E+00 0. -1.
         11    1    3    3    0    0 -0.19226309624E+02  0.12777459720E+02 -0.29425175234E+02  0.37399938456E+02  0.51100000000E-03 0. -1.
        -11    1    3    3    0    0 -0.29139136986E+01  0.75603168040E+01 -0.18751170648E+01  0.83165706567E+01  0.51100000000E-03 0.  1.
        -12    1    3    3    0    0  0.22316112992E+02 -0.20244157351E+02  0.32463560726E+02  0.44291281094E+02  0.00000000000E+00 0.  1.
</event>
<event>
 7    1  0.2682188E-015  0.9000770E+02  0.7816164E-02  0.1186339E+00
        -11   -1    0    0    0    0  0.00000000000E+00  0.00000000000E+00  0.45593999997E+02  0.45594000000E+02  0.51100000000E-03 0. -1.
         11   -1    0    0    0    0 -0.00000000000E+00 -0.00000000000E+00 -0.45593999997E+02  0.45594000000E+02  0.51100000000E-03 0.  1.
    9900012    2    1    2    0    0 -0.95845379483E+00 -0.48945408864E+00 -0.48466270321E+00  0.90007704733E+02  0.89999965635E+02 0.  0.
         12    1    1    2    0    0  0.95845379483E+00  0.48945408864E+00  0.48466270321E+00  0.11802952671E+01  0.00000000000E+00 0. -1.
         11    1    3    3    0    0 -0.14135422845E+02  0.32733244903E+02  0.89563015472E+01  0.36762628286E+02  0.51100000000E-03 0. -1.
        -11    1    3    3    0    0 -0.11657521554E+02 -0.40030274258E+01  0.34317949450E+01  0.12794500934E+02  0.51100000000E-03 0.  1.
        -12    1    3    3    0    0  0.24834490604E+02 -0.29219671565E+02 -0.12872759195E+02  0.40450575512E+02  0.00000000000E+00 0.  1.
</event>
<event>
 7    1  0.2682188E-015  0.9000777E+02  0.7816164E-02  0.1186339E+00
        -11   -1    0    0    0    0  0.00000000000E+00  0.00000000000E+00  0.45593999997E+02  0.45594000000E+02  0.51100000000E-03 0. -1.
         11   -1    0    0    0    0 -0.00000000000E+00 -0.00000000000E+00 -0.45593999997E+02  0.45594000000E+02  0.51100000000E-03 0.  1.
    9900012    2    1    2    0    0 -0.10126860052E+01 -0.39390398878E+00 -0.46070873448E+00  0.90007768736E+02  0.90000030484E+02 0.  0.
         12    1    1    2    0    0  0.10126860052E+01  0.39390398878E+00  0.46070873448E+00  0.11802312636E+01  0.00000000000E+00 0. -1.
         11    1    3    3    0    0 -0.19762772140E+02 -0.20015002647E+02 -0.13088733767E+02  0.31023901197E+02  0.51100000000E-03 0. -1.
        -11    1    3    3    0    0 -0.60303971352E+01  0.13175822299E+02 -0.15315049180E+02  0.21083612463E+02  0.51100000000E-03 0.  1.
         12    1    3    3    0    0  0.24780483270E+02  0.64452763592E+01  0.27943074212E+02  0.37900255076E+02  0.00000000000E+00 0. -1.
</event>
<event>
 7    1  0.2682188E-015  0.9000774E+02  0.7816164E-02  0.1186339E+00
        -11   -1    0    0    0    0  0.00000000000E+00  0.00000000000E+00  0.45593999997E+02  0.45594000000E+02  0.51100000000E-03 0.  1.
         11   -1    0    0    0    0 -0.00000000000E+00 -0.00000000000E+00 -0.45593999997E+02  0.45594000000E+02  0.51100000000E-03 0. -1.
    9900012    2    1    2    0    0 -0.44900091116E+00 -0.30529468400E+00  0.10479531784E+01  0.90007740483E+02  0.90000001858E+02 0.  0.
         12    1    1    2    0    0  0.44900091116E+00  0.30529468400E+00 -0.10479531784E+01  0.11802595166E+01  0.00000000000E+00 0. -1.
         11    1    3    3    0    0  0.15160365964E+02  0.15454354492E+02 -0.29589653863E+02  0.36663624820E+02  0.51100000000E-03 0. -1.
        -11    1    3    3    0    0  0.10850758070E+02  0.17804323092E+01  0.33847745736E+01  0.11505024515E+02  0.51100000000E-03 0.  1.
        -12    1    3    3    0    0 -0.26460124946E+02 -0.17540081485E+02  0.27252832468E+02  0.41839091149E+02  0.00000000000E+00 0.  1.
</event>
<event>
 7    1  0.2682188E-015  0.9000773E+02  0.7816164E-02  0.1186339E+00
        -11   -1    0    0    0    0  0.00000000000E+00  0.00000000000E+00  0.45593999997E+02  0.45594000000E+02  0.51100000000E-03 0.  1.
         11   -1    0    0    0    0 -0.00000000000E+00 -0.00000000000E+00 -0.45593999997E+02  0.45594000000E+02  0.51100000000E-03 0. -1.
    9900012    2    1    2    0    0 -0.63021659817E+00 -0.95166530886E+00  0.30032662748E+00  0.90007730580E+02  0.89999991824E+02 0.  0.
         12    1    1    2    0    0  0.63021659817E+00  0.95166530886E+00 -0.30032662748E+00  0.11802694200E+01  0.00000000000E+00 0. -1.
         11    1    3    3    0    0 -0.81419802068E+01 -0.16671695456E+01 -0.47319158969E+01  0.95635936916E+01  0.51100000000E-03 0. -1.
        -11    1    3    3    0    0  0.15996491204E+02  0.38427269124E+02  0.20314435122E+01  0.41673366868E+02  0.51100000000E-03 0.  1.
         12    1    3    3    0    0 -0.84847275951E+01 -0.37711764887E+02  0.30007990122E+01  0.38770770020E+02  0.00000000000E+00 0. -1.
</event>
<event>
 7    1  0.2682188E-015  0.9000721E+02  0.7816164E-02  0.1186340E+00
        -11   -1    0    0    0    0  0.00000000000E+00  0.00000000000E+00  0.45593999997E+02  0.45594000000E+02  0.51100000000E-03 0. -1.
         11   -1    0    0    0    0 -0.00000000000E+00 -0.00000000000E+00 -0.45593999997E+02  0.45594000000E+02  0.51100000000E-03 0.  1.
    9900012    2    1    2    0    0 -0.94779656302E+00 -0.56970771155E+00 -0.41397342076E+00  0.90007212468E+02  0.89999466872E+02 0.  0.
         12    1    1    2    0    0  0.94779656302E+00  0.56970771155E+00  0.41397342076E+00  0.11807875315E+01  0.00000000000E+00 0. -1.
         11    1    3    3    0    0 -0.66373765251E+01  0.69145163796E+01 -0.22334424306E+01  0.98414210992E+01  0.51100000000E-03 0. -1.
        -11    1    3    3    0    0  0.26418589618E+02  0.27584379411E+02 -0.60637227993E+01  0.38673099169E+02  0.51100000000E-03 0.  1.
         12    1    3    3    0    0 -0.20729009656E+02 -0.35068603502E+02  0.78831918092E+01  0.41492692200E+02  0.00000000000E+00 0. -1.
</event>
<event>
 7    1  0.2682188E-015  0.9000779E+02  0.7816164E-02  0.1186339E+00
        -11   -1    0    0    0    0  0.00000000000E+00  0.00000000000E+00  0.45593999997E+02  0.45594000000E+02  0.51100000000E-03 0.  1.
         11   -1    0    0    0    0 -0.00000000000E+00 -0.00000000000E+00 -0.45593999997E+02  0.45594000000E+02  0.51100000000E-03 0. -1.
    9900012    2    1    2    0    0 -0.10590520061E+00 -0.11435921084E+01  0.27181557631E+00  0.90007787083E+02  0.90000049073E+02 0.  0.
         12    1    1    2    0    0  0.10590520061E+00  0.11435921084E+01 -0.27181557631E+00  0.11802129170E+01  0.00000000000E+00 0. -1.
         11    1    3    3    0    0 -0.33767857465E+02 -0.45511486886E+01 -0.12104694921E+02  0.36159435720E+02  0.51100000000E-03 0. -1.
        -11    1    3    3    0    0 -0.72819154250E+01 -0.62603915561E+01 -0.11163598136E+01  0.96677326290E+01  0.51100000000E-03 0.  1.
        -12    1    3    3    0    0  0.40943867689E+02  0.96679481363E+01  0.13492870311E+02  0.44180618734E+02  0.00000000000E+00 0.  1.
</event>
<event>
 7    1  0.2682188E-015  0.9000780E+02  0.7816164E-02  0.1186339E+00
        -11   -1    0    0    0    0  0.00000000000E+00  0.00000000000E+00  0.45593999997E+02  0.45594000000E+02  0.51100000000E-03 0.  1.
         11   -1    0    0    0    0 -0.00000000000E+00 -0.00000000000E+00 -0.45593999997E+02  0.45594000000E+02  0.51100000000E-03 0. -1.
    9900012    2    1    2    0    0 -0.62260103230E+00 -0.99867213809E+00  0.88815492711E-01  0.90007802442E+02  0.90000064634E+02 0.  0.
         12    1    1    2    0    0  0.62260103230E+00  0.99867213809E+00 -0.88815492711E-01  0.11801975583E+01  0.00000000000E+00 0. -1.
         11    1    3    3    0    0  0.10449796373E+02 -0.99547914811E+00  0.28925059883E+00  0.10501089903E+02  0.51100000000E-03 0. -1.
        -11    1    3    3    0    0 -0.18851285645E+02  0.13281117279E+01  0.36963384643E+02  0.41514174155E+02  0.51100000000E-03 0.  1.
         12    1    3    3    0    0  0.77788882395E+01 -0.13313047178E+01 -0.37163819749E+02  0.37992538384E+02  0.00000000000E+00 0. -1.
</event>
<event>
 7    1  0.2682188E-015  0.9000774E+02  0.7816164E-02  0.1186339E+00
        -11   -1    0    0    0    0  0.00000000000E+00  0.00000000000E+00  0.45593999997E+02  0.45594000000E+02  0.51100000000E-03 0. -1.
         11   -1    0    0    0    0 -0.00000000000E+00 -0.00000000000E+00 -0.45593999997E+02  0.45594000000E+02  0.51100000000E-03 0.  1.
    9900012    2    1    2    0    0  0.45022191536E+00  0.60601608935E+00 -0.90722641362E+00  0.90007739419E+02  0.90000000779E+02 0.  0.
         12    1    1    2    0    0 -0.45022191536E+00 -0.60601608935E+00  0.90722641362E+00  0.11802605811E+01  0.00000000000E+00 0. -1.
         11    1    3    3    0    0 -0.21788270255E+02 -0.21851832045E+02  0.23525909747E+02  0.38803346687E+02  0.51100000000E-03 0. -1.
        -11    1    3    3    0    0  0.72919468414E+01  0.29564022746E+01  0.75285176444E+01  0.10889967003E+02  0.51100000000E-03 0.  1.
        -12    1    3    3    0    0  0.14946545329E+02  0.19501445860E+02 -0.31961653805E+02  0.40314425729E+02  0.00000000000E+00 0.  1.
</event>
<event>
 7    1  0.2682188E-015  0.9000772E+02  0.7816164E-02  0.1186339E+00
        -11   -1    0    0    0    0  0.00000000000E+00  0.00000000000E+00  0.45593999997E+02  0.45594000000E+02  0.51100000000E-03 0.  1.
         11   -1    0    0    0    0 -0.00000000000E+00 -0.00000000000E+00 -0.45593999997E+02  0.45594000000E+02  0.51100000000E-03 0. -1.
    9900012    2    1    2    0    0  0.16499064756E+00  0.12358736245E+00  0.11621421184E+01  0.90007716113E+02  0.89999977166E+02 0.  0.
         12    1    1    2    0    0 -0.16499064756E+00 -0.12358736245E+00 -0.11621421184E+01  0.11802838868E+01  0.00000000000E+00 0. -1.
         11    1    3    3    0    0 -0.35921053501E+02  0.16904524371E+02 -0.24807391049E+01  0.39777369139E+02  0.51100000000E-03 0. -1.
        -11    1    3    3    0    0 -0.25690014933E+01 -0.60272548043E+01 -0.60884732137E+01  0.89441084230E+01  0.51100000000E-03 0.  1.
        -12    1    3    3    0    0  0.38655045642E+02 -0.10753682204E+02  0.97313544370E+01  0.41286238551E+02  0.00000000000E+00 0.  1.
</event>
<event>
 7    1  0.2682188E-015  0.9000770E+02  0.7816164E-02  0.1186339E+00
        -11   -1    0    0    0    0  0.00000000000E+00  0.00000000000E+00  0.45593999997E+02  0.45594000000E+02  0.51100000000E-03 0. -1.
         11   -1    0    0    0    0 -0.00000000000E+00 -0.00000000000E+00 -0.45593999997E+02  0.45594000000E+02  0.51100000000E-03 0.  1.
    9900012    2    1    2    0    0 -0.16080559160E+00 -0.35714581125E+00  0.11134170305E+01  0.90007699592E+02  0.89999960427E+02 0.  0.
         12    1    1    2    0    0  0.16080559160E+00  0.35714581125E+00 -0.11134170305E+01  0.11803004078E+01  0.00000000000E+00 0. -1.
         11    1    3    3    0    0  0.16006146376E+02  0.68671384850E+01  0.74616184678E+01  0.18948088642E+02  0.51100000000E-03 0. -1.
        -11    1    3    3    0    0 -0.22229293269E+01  0.14824150115E+02 -0.31460536336E+02  0.34849134684E+02  0.51100000000E-03 0.  1.
         12    1    3    3    0    0 -0.13944022640E+02 -0.22048434411E+02  0.25112334898E+02  0.36210476266E+02  0.00000000000E+00 0. -1.
</event>
<event>
 7    1  0.2682188E-015  0.9000774E+02  0.7816164E-02  0.1186339E+00
        -11   -1    0    0    0    0  0.00000000000E+00  0.00000000000E+00  0.45593999997E+02  0.45594000000E+02  0.51100000000E-03 0.  1.
         11   -1    0    0    0    0 -0.00000000000E+00 -0.00000000000E+00 -0.45593999997E+02  0.45594000000E+02  0.51100000000E-03 0. -1.
    9900012    2    1    2    0    0 -0.96488589874E+00  0.24276636004E+00  0.63488760478E+00  0.90007736227E+02  0.89999997545E+02 0.  0.
         12    1    1    2    0    0  0.96488589874E+00 -0.24276636004E+00 -0.63488760478E+00  0.11802637730E+01  0.00000000000E+00 0. -1.
         11    1    3    3    0    0 -0.33403453054E+01  0.10371374808E+02  0.48343246606E+01  0.11920319515E+02  0.51100000000E-03 0. -1.
        -11    1    3    3    0    0 -0.29936688423E+02  0.16882745359E+02 -0.94542178057E+01  0.35645681915E+02  0.51100000000E-03 0.  1.
         12    1    3    3    0    0  0.32312147830E+02 -0.27011353807E+02  0.52547807499E+01  0.42441734797E+02  0.00000000000E+00 0. -1.
</event>
<event>
 7    1  0.2682188E-015  0.9000727E+02  0.7816164E-02  0.1186340E+00
        -11   -1    0    0    0    0  0.00000000000E+00  0.00000000000E+00  0.45593999997E+02  0.45594000000E+02  0.51100000000E-03 0. -1.
         11   -1    0    0    0    0 -0.00000000000E+00 -0.00000000000E+00 -0.45593999997E+02  0.45594000000E+02  0.51100000000E-03 0.  1.
    9900012    2    1    2    0    0  0.11210684739E+01 -0.12974390722E+00 -0.34713272969E+00  0.90007267542E+02  0.89999522673E+02 0.  0.
         12    1    1    2    0    0 -0.11210684739E+01  0.12974390722E+00  0.34713272969E+00  0.11807324577E+01  0.00000000000E+00 0. -1.
         11    1    3    3    0    0  0.84096094272E+01 -0.56911508484E+01  0.35040425062E+02  0.36482079402E+02  0.51100000000E-03 0. -1.
        -11    1    3    3    0    0  0.76800239061E+01  0.41620844395E+01  0.52529764593E+01  0.10193109242E+02  0.51100000000E-03 0.  1.
        -12    1    3    3    0    0 -0.14968564859E+02  0.13993225016E+01 -0.40640534251E+02  0.43332078898E+02  0.00000000000E+00 0.  1.
</event>
<event>
 7    1  0.2682188E-015  0.9000771E+02  0.7816164E-02  0.1186339E+00
        -11   -1    0    0    0    0  0.00000000000E+00  0.00000000000E+00  0.45593999997E+02  0.45594000000E+02  0.51100000000E-03 0. -1.
         11   -1    0    0    0    0 -0.00000000000E+00 -0.00000000000E+00 -0.45593999997E+02  0.45594000000E+02  0.51100000000E-03 0.  1.
    9900012    2    1    2    0    0 -0.51776593033E+00  0.53891490043E+00  0.91354570188E+00  0.90007713349E+02  0.89999974365E+02 0.  0.
         12    1    1    2    0    0  0.51776593033E+00 -0.53891490043E+00 -0.91354570188E+00  0.11802866508E+01  0.00000000000E+00 0. -1.
         11    1    3    3    0    0 -0.32451664051E+02  0.20677195121E+02  0.62855116980E+01  0.38989287699E+02  0.51100000000E-03 0. -1.
        -11    1    3    3    0    0 -0.70447156081E+01 -0.52212589927E+01  0.89830022316E+00  0.88145622137E+01  0.51100000000E-03 0.  1.
        -12    1    3    3    0    0  0.38978613729E+02 -0.14917021227E+02 -0.62702662193E+01  0.42203863436E+02  0.00000000000E+00 0.  1.
</event>
<event>
 7    1  0.2682188E-015  0.9000791E+02  0.7816164E-02  0.1186339E+00
        -11   -1    0    0    0    0  0.00000000000E+00  0.00000000000E+00  0.45593999997E+02  0.45594000000E+02  0.51100000000E-03 0.  1.
         11   -1    0    0    0    0 -0.00000000000E+00 -0.00000000000E+00 -0.45593999997E+02  0.45594000000E+02  0.51100000000E-03 0. -1.
    9900012    2    1    2    0    0 -0.35166361662E+00  0.40293250471E+00  0.10519452367E+01  0.90007910731E+02  0.90000174352E+02 0.  0.
         12    1    1    2    0    0  0.35166361662E+00 -0.40293250471E+00 -0.10519452367E+01  0.11800892694E+01  0.00000000000E+00 0. -1.
         11    1    3    3    0    0 -0.19319251216E+01  0.90515437150E+01 -0.25440736434E+01  0.95987024782E+01  0.51100000000E-03 0. -1.
        -11    1    3    3    0    0  0.17211681818E+02  0.31788227384E+02  0.73695643160E+01  0.36892328060E+02  0.51100000000E-03 0.  1.
         12    1    3    3    0    0 -0.15631420313E+02 -0.40436838594E+02 -0.37735454359E+01  0.43516880192E+02  0.00000000000E+00 0. -1.
</event>
<event>
 7    1  0.2682188E-015  0.9000780E+02  0.7816164E-02  0.1186339E+00
        -11   -1    0    0    0    0  0.00000000000E+00  0.00000000000E+00  0.45593999997E+02  0.45594000000E+02  0.51100000000E-03 0.  1.
         11   -1    0    0    0    0 -0.00000000000E+00 -0.00000000000E+00 -0.45593999997E+02  0.45594000000E+02  0.51100000000E-03 0. -1.
    9900012    2    1    2    0    0  0.74714603720E+00  0.50964457897E+00  0.75822875541E+00  0.90007798473E+02  0.90000060613E+02 0.  0.
         12    1    1    2    0    0 -0.74714603720E+00 -0.50964457897E+00 -0.75822875541E+00  0.11802015266E+01  0.00000000000E+00 0. -1.
         11    1    3    3    0    0 -0.21950312806E+01 -0.16309658700E+01 -0.10650991609E+02  0.10996446449E+02  0.51100000000E-03 0. -1.
        -11    1    3    3    0    0 -0.22123536636E+02  0.11349258475E+02 -0.24069334785E+02  0.34606204913E+02  0.51100000000E-03 0.  1.
         12    1    3    3    0    0  0.25065713953E+02 -0.92086480262E+01  0.35478555150E+02  0.44405147111E+02  0.00000000000E+00 0. -1.
</event>
<event>
 7    1  0.2682188E-015  0.9000774E+02  0.7816164E-02  0.1186339E+00
        -11   -1    0    0    0    0  0.00000000000E+00  0.00000000000E+00  0.45593999997E+02  0.45594000000E+02  0.51100000000E-03 0.  1.
         11   -1    0    0    0    0 -0.00000000000E+00 -0.00000000000E+00 -0.45593999997E+02  0.45594000000E+02  0.51100000000E-03 0. -1.
    9900012    2    1    2    0    0 -0.87144515876E+00  0.79565533595E+00 -0.23038367625E-01  0.90007739501E+02  0.90000000863E+02 0.  0.
         12    1    1    2    0    0  0.87144515876E+00 -0.79565533595E+00  0.23038367625E-01  0.11802604987E+01  0.00000000000E+00 0. -1.
         11    1    3    3    0    0 -0.13513708020E+02  0.37103443303E+02 -0.27647576360E+01  0.39584462791E+02  0.51100000000E-03 0. -1.
        -11    1    3    3    0    0 -0.17799198631E+00 -0.57170010835E-01 -0.99349312126E+01  0.99366899930E+01  0.51100000000E-03 0.  1.
        -12    1    3    3    0    0  0.12820254848E+02 -0.36250617956E+02  0.12676650481E+02  0.40486586717E+02  0.00000000000E+00 0.  1.
</event>
<event>
 7    1  0.2682188E-015  0.9000744E+02  0.7816164E-02  0.1186340E+00
        -11   -1    0    0    0    0  0.00000000000E+00  0.00000000000E+00  0.45593999997E+02  0.45594000000E+02  0.51100000000E-03 0.  1.
         11   -1    0    0    0    0 -0.00000000000E+00 -0.00000000000E+00 -0.45593999997E+02  0.45594000000E+02  0.51100000000E-03 0. -1.
    9900012    2    1    2    0    0  0.64462300424E+00  0.95376663930E+00 -0.26174816945E+00  0.90007440080E+02  0.89999697489E+02 0.  0.
         12    1    1    2    0    0 -0.64462300424E+00 -0.95376663930E+00  0.26174816945E+00  0.11805599197E+01  0.00000000000E+00 0. -1.
         11    1    3    3    0    0  0.29186848723E+01  0.18278422827E+01  0.78520322865E+01  0.85740387265E+01  0.51100000000E-03 0. -1.
        -11    1    3    3    0    0 -0.15556499312E+02  0.70454024630E+01  0.33192069250E+02  0.37327681794E+02  0.51100000000E-03 0.  1.
         12    1    3    3    0    0  0.13282437444E+02 -0.79194781064E+01 -0.41305849706E+02  0.44105719560E+02  0.00000000000E+00 0. -1.
</event>
<event>
 7    1  0.2682188E-015  0.9000734E+02  0.7816164E-02  0.1186340E+00
        -11   -1    0    0    0    0  0.00000000000E+00  0.00000000000E+00  0.45593999997E+02  0.45594000000E+02  0.51100000000E-03 0. -1.
         11   -1    0    0    0    0 -0.00000000000E+00 -0.00000000000E+00 -0.45593999997E+02  0.45594000000E+02  0.51100000000E-03 0.  1.
    9900012    2    1    2    0    0  0.34750350099E+00 -0.95779912441E+00 -0.59650302746E+00  0.90007341833E+02  0.89999597944E+02 0.  0.
         12    1    1    2    0    0 -0.34750350099E+00  0.95779912441E+00  0.59650302746E+00  0.11806581672E+01  0.00000000000E+00 0. -1.
         11    1    3    3    0    0 -0.27415824940E+02  0.26815331652E+02  0.75522851229E+01  0.39086141784E+02  0.51100000000E-03 0. -1.
        -11    1    3    3    0    0  0.38078167057E+01 -0.14070473907E+01  0.10107400755E+02  0.10892143990E+02  0.51100000000E-03 0.  1.
        -12    1    3    3    0    0  0.23955511736E+02 -0.26366083385E+02 -0.18256188905E+02  0.40029056058E+02  0.00000000000E+00 0.  1.
</event>
<event>
 7    1  0.2682188E-015  0.9000772E+02  0.7816164E-02  0.1186339E+00
        -11   -1    0    0    0    0  0.00000000000E+00  0.00000000000E+00  0.45593999997E+02  0.45594000000E+02  0.51100000000E-03 0.  1.
         11   -1    0    0    0    0 -0.00000000000E+00 -0.00000000000E+00 -0.45593999997E+02  0.45594000000E+02  0.51100000000E-03 0. -1.
    9900012    2    1    2    0    0  0.50857697338E+00  0.70488391786E+00  0.79846406694E+00  0.90007721752E+02  0.89999982880E+02 0.  0.
         12    1    1    2    0    0 -0.50857697338E+00 -0.70488391786E+00 -0.79846406694E+00  0.11802782476E+01  0.00000000000E+00 0. -1.
         11    1    3    3    0    0 -0.99312641142E+01 -0.26175355275E+02 -0.26459426076E+02  0.38521168975E+02  0.51100000000E-03 0. -1.
        -11    1    3    3    0    0  0.52554393242E+01  0.27275117465E+01 -0.70524810751E+01  0.92084989218E+01  0.51100000000E-03 0.  1.
        -12    1    3    3    0    0  0.51844017634E+01  0.24152727446E+02  0.34310371218E+02  0.42278053856E+02  0.00000000000E+00 0.  1.
</event>
<event>
 7    1  0.2682188E-015  0.9000776E+02  0.7816164E-02  0.1186339E+00
        -11   -1    0    0    0    0  0.00000000000E+00  0.00000000000E+00  0.45593999997E+02  0.45594000000E+02  0.51100000000E-03 0.  1.
         11   -1    0    0    0    0 -0.00000000000E+00 -0.00000000000E+00 -0.45593999997E+02  0.45594000000E+02  0.51100000000E-03 0. -1.
    9900012    2    1    2    0    0 -0.36071832135E+00 -0.61427959359E+00  0.94101232393E+00  0.90007762176E+02  0.90000023837E+02 0.  0.
         12    1    1    2    0    0  0.36071832135E+00  0.61427959359E+00 -0.94101232393E+00  0.11802378236E+01  0.00000000000E+00 0. -1.
         11    1    3    3    0    0 -0.20141861004E+02 -0.60517539019E+01 -0.24986997791E+02  0.32659888991E+02  0.51100000000E-03 0. -1.
        -11    1    3    3    0    0 -0.13885034027E+02 -0.24653104774E+01 -0.39630055768E-01  0.14102251469E+02  0.51100000000E-03 0.  1.
        -12    1    3    3    0    0  0.33666176710E+02  0.79027847858E+01  0.25967640171E+02  0.43245621717E+02  0.00000000000E+00 0.  1.
</event>
<event>
 7    1  0.2840062E-015  0.9000784E+02  0.7816164E-02  0.1186339E+00
        -11   -1    0    0    0    0  0.00000000000E+00  0.00000000000E+00  0.45593999997E+02  0.45594000000E+02  0.51100000000E-03 0.  1.
         11   -1    0    0    0    0 -0.00000000000E+00 -0.00000000000E+00 -0.45593999997E+02  0.45594000000E+02  0.51100000000E-03 0. -1.
    9900012    2    1    2    0    0  0.29923621556E+00  0.21148477423E-01  0.11414019359E+01  0.90007835626E+02  0.90000098256E+02 0.  0.
         12    1    1    2    0    0 -0.29923621556E+00 -0.21148477423E-01 -0.11414019359E+01  0.11801643742E+01  0.00000000000E+00 0. -1.
         11    1    3    3    0    0  0.69758839879E+01  0.44024437454E+01 -0.52950035356E+01  0.98021187020E+01  0.51100000000E-03 0. -1.
        -11    1    3    3    0    0 -0.32378568898E+01  0.49507908974E+00  0.43017069196E+02  0.43141593190E+02  0.51100000000E-03 0.  1.
         12    1    3    3    0    0 -0.34387908826E+01 -0.48763743577E+01 -0.36580663724E+02  0.37064123733E+02  0.00000000000E+00 0. -1.
</event>
<event>
 7    1  0.2682188E-015  0.9000771E+02  0.7816164E-02  0.1186339E+00
        -11   -1    0    0    0    0  0.00000000000E+00  0.00000000000E+00  0.45593999997E+02  0.45594000000E+02  0.51100000000E-03 0. -1.
         11   -1    0    0    0    0 -0.00000000000E+00 -0.00000000000E+00 -0.45593999997E+02  0.45594000000E+02  0.51100000000E-03 0.  1.
    9900012    2    1    2    0    0 -0.57385869999E+00 -0.74769245262E+00  0.71044364152E+00  0.90007708519E+02  0.89999969472E+02 0.  0.
         12    1    1    2    0    0  0.57385869999E+00  0.74769245262E+00 -0.71044364152E+00  0.11802914805E+01  0.00000000000E+00 0. -1.
         11    1    3    3    0    0 -0.21781651205E+01  0.93451381936E+00 -0.92414872996E+01  0.95405873582E+01  0.51100000000E-03 0. -1.
        -11    1    3    3    0    0 -0.99855687625E+01 -0.39121071992E+02  0.84287730535E+01  0.41245776423E+02  0.51100000000E-03 0.  1.
         12    1    3    3    0    0  0.11589875183E+02  0.37438865720E+02  0.15231578876E+01  0.39221344738E+02  0.00000000000E+00 0. -1.
</event>
<event>
 7    1  0.2682188E-015  0.9000784E+02  0.7816164E-02  0.1186339E+00
        -11   -1    0    0    0    0  0.00000000000E+00  0.00000000000E+00  0.45593999997E+02  0.45594000000E+02  0.51100000000E-03 0.  1.
         11   -1    0    0    0    0 -0.00000000000E+00 -0.00000000000E+00 -0.45593999997E+02  0.45594000000E+02  0.51100000000E-03 0. -1.
    9900012    2    1    2    0    0  0.22131929398E+00 -0.93325557570E+00  0.68761741843E+00  0.90007844962E+02  0.90000107715E+02 0.  0.
         12    1    1    2    0    0 -0.22131929398E+00  0.93325557570E+00 -0.68761741843E+00  0.11801550379E+01  0.00000000000E+00 0. -1.
         11    1    3    3    0    0 -0.53798443837E+01  0.64550080941E+01  0.28044998888E+01  0.88586158612E+01  0.51100000000E-03 0. -1.
        -11    1    3    3    0    0  0.13358011992E+02 -0.32003173501E+02  0.25730101457E+02  0.43181914268E+02  0.51100000000E-03 0.  1.
         12    1    3    3    0    0 -0.77568483145E+01  0.24614909831E+02 -0.27846983928E+02  0.37967314833E+02  0.00000000000E+00 0. -1.
</event>
<event>
 7    1  0.2682188E-015  0.9000777E+02  0.7816164E-02  0.1186339E+00
        -11   -1    0    0    0    0  0.00000000000E+00  0.00000000000E+00  0.45593999997E+02  0.45594000000E+02  0.51100000000E-03 0.  1.
         11   -1    0    0    0    0 -0.00000000000E+00 -0.00000000000E+00 -0.45593999997E+02  0.45594000000E+02  0.51100000000E-03 0. -1.
    9900012    2    1    2    0    0 -0.10773748881E+01  0.23972758214E+00  0.41802053527E+00  0.90007768188E+02  0.90000029928E+02 0.  0.
         12    1    1    2    0    0  0.10773748881E+01 -0.23972758214E+00 -0.41802053527E+00  0.11802318124E+01  0.00000000000E+00 0. -1.
         11    1    3    3    0    0 -0.28165587353E+02  0.18580459093E+02 -0.19393341835E+02  0.38918318037E+02  0.51100000000E-03 0. -1.
        -11    1    3    3    0    0 -0.60783579516E+01  0.28324059734E+01  0.70335541939E+01  0.97180164563E+01  0.51100000000E-03 0.  1.
        -12    1    3    3    0    0  0.33166570416E+02 -0.21173137485E+02  0.12777808176E+02  0.41371433694E+02  0.00000000000E+00 0.  1.
</event>
<event>
 7    1  0.2682188E-015  0.9000771E+02  0.7816164E-02  0.1186339E+00
        -11   -1    0    0    0    0  0.00000000000E+00  0.00000000000E+00  0.45593999997E+02  0.45594000000E+02  0.51100000000E-03 0.  1.
         11   -1    0    0    0    0 -0.00000000000E+00 -0.00000000000E+00 -0.45593999997E+02  0.45594000000E+02  0.51100000000E-03 0. -1.
    9900012    2    1    2    0    0  0.28364531840E+00 -0.71764646100E+00  0.89308838021E+00  0.90007712762E+02  0.89999973770E+02 0.  0.
         12    1    1    2    0    0 -0.28364531840E+00  0.71764646100E+00 -0.89308838021E+00  0.11802872381E+01  0.00000000000E+00 0. -1.
         11    1    3    3    0    0  0.50047558132E+01  0.19855384964E+02  0.30486038723E+02  0.36724412181E+02  0.51100000000E-03 0. -1.
        -11    1    3    3    0    0 -0.21408615169E+00 -0.13913649227E+01  0.94477267018E+01  0.95520295917E+01  0.51100000000E-03 0.  1.
        -12    1    3    3    0    0 -0.45070243431E+01 -0.19181666502E+02 -0.39040677044E+02  0.43731270989E+02  0.00000000000E+00 0.  1.
</event>
<event>
 7    1  0.2682188E-015  0.9000776E+02  0.7816164E-02  0.1186339E+00
        -11   -1    0    0    0    0  0.00000000000E+00  0.00000000000E+00  0.45593999997E+02  0.45594000000E+02  0.51100000000E-03 0. -1.
         11   -1    0    0    0    0 -0.00000000000E+00 -0.00000000000E+00 -0.45593999997E+02  0.45594000000E+02  0.51100000000E-03 0.  1.
    9900012    2    1    2    0    0 -0.13170366731E+00  0.53462788395E+00 -0.10439346257E+01  0.90007757511E+02  0.90000019110E+02 0.  0.
         12    1    1    2    0    0  0.13170366731E+00 -0.53462788395E+00  0.10439346257E+01  0.11802424891E+01  0.00000000000E+00 0. -1.
         11    1    3    3    0    0 -0.10529235066E+02 -0.21413468910E+01  0.40685368103E+01  0.11489262362E+02  0.51100000000E-03 0. -1.
        -11    1    3    3    0    0 -0.85431402869E+01  0.28717687426E+02  0.21390178329E+02  0.36813456049E+02  0.51100000000E-03 0.  1.
         12    1    3    3    0    0  0.18940671686E+02 -0.26041712651E+02 -0.26502649765E+02  0.41705039100E+02  0.00000000000E+00 0. -1.
</event>
<event>
 7    1  0.2682188E-015  0.9000778E+02  0.7816164E-02  0.1186339E+00
        -11   -1    0    0    0    0  0.00000000000E+00  0.00000000000E+00  0.45593999997E+02  0.45594000000E+02  0.51100000000E-03 0. -1.
         11   -1    0    0    0    0 -0.00000000000E+00 -0.00000000000E+00 -0.45593999997E+02  0.45594000000E+02  0.51100000000E-03 0.  1.
    9900012    2    1    2    0    0 -0.65247610051E+00  0.77087966293E+00  0.61068859699E+00  0.90007779224E+02  0.90000041110E+02 0.  0.
         12    1    1    2    0    0  0.65247610051E+00 -0.77087966293E+00 -0.61068859699E+00  0.11802207755E+01  0.00000000000E+00 0. -1.
         11    1    3    3    0    0 -0.29277399675E+02  0.28338510825E+02  0.73999473953E+01  0.41412516819E+02  0.51100000000E-03 0. -1.
        -11    1    3    3    0    0 -0.20899995229E+01 -0.91951243027E+01  0.53014412391E+01  0.10817748769E+02  0.51100000000E-03 0.  1.
        -12    1    3    3    0    0  0.30714923098E+02 -0.18372506860E+02 -0.12090700037E+02  0.37777513637E+02  0.00000000000E+00 0.  1.
</event>
<event>
 7    1  0.2682188E-015  0.9000772E+02  0.7816164E-02  0.1186339E+00
        -11   -1    0    0    0    0  0.00000000000E+00  0.00000000000E+00  0.45593999997E+02  0.45594000000E+02  0.51100000000E-03 0.  1.
         11   -1    0    0    0    0 -0.00000000000E+00 -0.00000000000E+00 -0.45593999997E+02  0.45594000000E+02  0.51100000000E-03 0. -1.
    9900012    2    1    2    0    0 -0.78773785758E+00 -0.64304022531E+00 -0.59918221892E+00  0.90007724187E+02  0.89999985346E+02 0.  0.
         12    1    1    2    0    0  0.78773785758E+00  0.64304022531E+00  0.59918221892E+00  0.11802758131E+01  0.00000000000E+00 0. -1.
         11    1    3    3    0    0  0.73318391464E+01 -0.27959778917E+01 -0.40990170611E+01  0.88529824787E+01  0.51100000000E-03 0. -1.
        -11    1    3    3    0    0 -0.32033123622E+02 -0.25212726715E+02  0.14366938785E+02  0.43222812585E+02  0.51100000000E-03 0.  1.
         12    1    3    3    0    0  0.23913546618E+02  0.27365664382E+02 -0.10867103942E+02  0.37931929123E+02  0.00000000000E+00 0. -1.
</event>
<event>
 7    1  0.2682188E-015  0.9000776E+02  0.7816164E-02  0.1186339E+00
        -11   -1    0    0    0    0  0.00000000000E+00  0.00000000000E+00  0.45593999997E+02  0.45594000000E+02  0.51100000000E-03 0.  1.
         11   -1    0    0    0    0 -0.00000000000E+00 -0.00000000000E+00 -0.45593999997E+02  0.45594000000E+02  0.51100000000E-03 0. -1.
    9900012    2    1    2    0    0  0.37183403026E+00 -0.10946276927E+01  0.23770533642E+00  0.90007756737E+02  0.90000018326E+02 0.  0.
         12    1    1    2    0    0 -0.37183403026E+00  0.10946276927E+01 -0.23770533642E+00  0.11802432625E+01  0.00000000000E+00 0. -1.
         11    1    3    3    0    0  0.13726993636E+01 -0.62979521935E+01  0.60027621307E+01  0.88080451199E+01  0.51100000000E-03 0. -1.
        -11    1    3    3    0    0  0.37777877599E+02 -0.37636599596E+00  0.98206361964E+01  0.39035299189E+02  0.51100000000E-03 0.  1.
         12    1    3    3    0    0 -0.38778742932E+02  0.55796904967E+01 -0.15585692991E+02  0.42164412428E+02  0.00000000000E+00 0. -1.
</event>
<event>
 7    1  0.2682188E-015  0.9000776E+02  0.7816164E-02  0.1186339E+00
        -11   -1    0    0    0    0  0.00000000000E+00  0.00000000000E+00  0.45593999997E+02  0.45594000000E+02  0.51100000000E-03 0. -1.
         11   -1    0    0    0    0 -0.00000000000E+00 -0.00000000000E+00 -0.45593999997E+02  0.45594000000E+02  0.51100000000E-03 0.  1.
    9900012    2    1    2    0    0  0.70176113223E+00 -0.94341977617E+00 -0.10231472870E+00  0.90007755168E+02  0.90000016736E+02 0.  0.
         12    1    1    2    0    0 -0.70176113223E+00  0.94341977617E+00  0.10231472870E+00  0.11802448324E+01  0.00000000000E+00 0. -1.
         11    1    3    3    0    0 -0.72307419023E+01  0.31755286427E+01  0.11469720247E+02  0.13925591313E+02  0.51100000000E-03 0. -1.
        -11    1    3    3    0    0  0.49563460107E+01 -0.38831107584E+02  0.67727563443E+00  0.39151998475E+02  0.51100000000E-03 0.  1.
         12    1    3    3    0    0  0.29761570239E+01  0.34712159166E+02 -0.12249310610E+02  0.36930165380E+02  0.00000000000E+00 0. -1.
</event>
<event>
 7    1  0.2682188E-015  0.9000780E+02  0.7816164E-02  0.1186339E+00
        -11   -1    0    0    0    0  0.00000000000E+00  0.00000000000E+00  0.45593999997E+02  0.45594000000E+02  0.51100000000E-03 0. -1.
         11   -1    0    0    0    0 -0.00000000000E+00 -0.00000000000E+00 -0.45593999997E+02  0.45594000000E+02  0.51100000000E-03 0.  1.
    9900012    2    1    2    0    0  0.11652588404E+01  0.58162628162E-01 -0.17792185013E+00  0.90007802033E+02  0.90000064220E+02 0.  0.
         12    1    1    2    0    0 -0.11652588404E+01 -0.58162628162E-01  0.17792185013E+00  0.11801979669E+01  0.00000000000E+00 0. -1.
         11    1    3    3    0    0 -0.50409224330E+01  0.28597922905E+01  0.93492656094E+01  0.10999912664E+02  0.51100000000E-03 0. -1.
        -11    1    3    3    0    0 -0.14183302884E+02  0.25634722738E+02 -0.27049827019E+02  0.39874781913E+02  0.51100000000E-03 0.  1.
         12    1    3    3    0    0  0.20389484158E+02 -0.28436352400E+02  0.17522639560E+02  0.39133107456E+02  0.00000000000E+00 0. -1.
</event>
<event>
 7    1  0.2682188E-015  0.9000756E+02  0.7816164E-02  0.1186339E+00
        -11   -1    0    0    0    0  0.00000000000E+00  0.00000000000E+00  0.45593999997E+02  0.45594000000E+02  0.51100000000E-03 0. -1.
         11   -1    0    0    0    0 -0.00000000000E+00 -0.00000000000E+00 -0.45593999997E+02  0.45594000000E+02  0.51100000000E-03 0.  1.
    9900012    2    1    2    0    0  0.87695046357E+00 -0.65519500293E+00  0.44171152091E+00  0.90007562930E+02  0.89999821961E+02 0.  0.
         12    1    1    2    0    0 -0.87695046357E+00  0.65519500293E+00 -0.44171152091E+00  0.11804370695E+01  0.00000000000E+00 0. -1.
         11    1    3    3    0    0 -0.16556869680E+01  0.64940133328E+01  0.77494145214E+01  0.10245337193E+02  0.51100000000E-03 0. -1.
        -11    1    3    3    0    0 -0.26939954550E+02  0.17467882698E+02 -0.21700019423E+02  0.38752792420E+02  0.51100000000E-03 0.  1.
         12    1    3    3    0    0  0.29472591982E+02 -0.24617091033E+02  0.14392316423E+02  0.41009433318E+02  0.00000000000E+00 0. -1.
</event>
<event>
 7    1  0.2682188E-015  0.9000787E+02  0.7816164E-02  0.1186339E+00
        -11   -1    0    0    0    0  0.00000000000E+00  0.00000000000E+00  0.45593999997E+02  0.45594000000E+02  0.51100000000E-03 0. -1.
         11   -1    0    0    0    0 -0.00000000000E+00 -0.00000000000E+00 -0.45593999997E+02  0.45594000000E+02  0.51100000000E-03 0.  1.
    9900012    2    1    2    0    0  0.12422349429E+00 -0.81794028641E+00 -0.84157313481E+00  0.90007871562E+02  0.90000134667E+02 0.  0.
         12    1    1    2    0    0 -0.12422349429E+00  0.81794028641E+00  0.84157313481E+00  0.11801284379E+01  0.00000000000E+00 0. -1.
         11    1    3    3    0    0  0.13715952757E+02  0.21993191112E+02  0.18374477702E+02  0.31771831021E+02  0.51100000000E-03 0. -1.
        -11    1    3    3    0    0 -0.35339496921E+01  0.15224158737E+02 -0.51991426223E+01  0.16471031964E+02  0.51100000000E-03 0.  1.
        -12    1    3    3    0    0 -0.10057779571E+02 -0.38035290136E+02 -0.14016908214E+02  0.41765008578E+02  0.00000000000E+00 0.  1.
</event>
<event>
 7    1  0.2682188E-015  0.9000761E+02  0.7816164E-02  0.1186339E+00
        -11   -1    0    0    0    0  0.00000000000E+00  0.00000000000E+00  0.45593999997E+02  0.45594000000E+02  0.51100000000E-03 0. -1.
         11   -1    0    0    0    0 -0.00000000000E+00 -0.00000000000E+00 -0.45593999997E+02  0.45594000000E+02  0.51100000000E-03 0.  1.
    9900012    2    1    2    0    0  0.11505066547E+01 -0.24830043563E+00 -0.89478545183E-01  0.90007608082E+02  0.89999867709E+02 0.  0.
         12    1    1    2    0    0 -0.11505066547E+01  0.24830043563E+00  0.89478545183E-01  0.11803919175E+01  0.00000000000E+00 0. -1.
         11    1    3    3    0    0  0.63280097010E+01 -0.12237658584E+01  0.65035280648E+01  0.91562649155E+01  0.51100000000E-03 0. -1.
        -11    1    3    3    0    0  0.34303235359E+01 -0.38861274043E+02 -0.89545874477E+01  0.40026870680E+02  0.51100000000E-03 0.  1.
         12    1    3    3    0    0 -0.86078265822E+01  0.39836739466E+02  0.23615808377E+01  0.40824472487E+02  0.00000000000E+00 0. -1.
</event>
<event>
 7    1  0.4608866E-015  0.9000781E+02  0.7816164E-02  0.1186339E+00
        -11   -1    0    0    0    0  0.00000000000E+00  0.00000000000E+00  0.45593999997E+02  0.45594000000E+02  0.51100000000E-03 0. -1.
         11   -1    0    0    0    0 -0.00000000000E+00 -0.00000000000E+00 -0.45593999997E+02  0.45594000000E+02  0.51100000000E-03 0.  1.
    9900012    2    1    2    0    0  0.11773177377E+01  0.79042492823E-01 -0.22976617127E-01  0.90007808195E+02  0.90000070463E+02 0.  0.
         12    1    1    2    0    0 -0.11773177377E+01 -0.79042492823E-01  0.22976617127E-01  0.11801918048E+01  0.00000000000E+00 0. -1.
         11    1    3    3    0    0  0.19889317998E+01  0.28769076664E+01  0.92140751203E+01  0.98555379360E+01  0.51100000000E-03 0. -1.
        -11    1    3    3    0    0 -0.21909076403E+02  0.30499013313E+02 -0.14759981815E+02  0.40349157431E+02  0.51100000000E-03 0.  1.
         12    1    3    3    0    0  0.21097462341E+02 -0.33296878487E+02  0.55229300776E+01  0.39803112829E+02  0.00000000000E+00 0. -1.
</event>
<event>
 7    1  0.2682188E-015  0.9000764E+02  0.7816164E-02  0.1186339E+00
        -11   -1    0    0    0    0  0.00000000000E+00  0.00000000000E+00  0.45593999997E+02  0.45594000000E+02  0.51100000000E-03 0.  1.
         11   -1    0    0    0    0 -0.00000000000E+00 -0.00000000000E+00 -0.45593999997E+02  0.45594000000E+02  0.51100000000E-03 0. -1.
    9900012    2    1    2    0    0  0.90389044074E+00  0.46206087547E+00 -0.60227627724E+00  0.90007637812E+02  0.89999897831E+02 0.  0.
         12    1    1    2    0    0 -0.90389044074E+00 -0.46206087547E+00  0.60227627724E+00  0.11803621883E+01  0.00000000000E+00 0. -1.
         11    1    3    3    0    0  0.17148845662E+02 -0.17076991569E+02 -0.31313127464E+02  0.39575478525E+02  0.51100000000E-03 0. -1.
        -11    1    3    3    0    0 -0.45717298540E+01 -0.78546533923E+01  0.24886437682E+00  0.90916570278E+01  0.51100000000E-03 0.  1.
        -12    1    3    3    0    0 -0.11673225367E+02  0.25393705837E+02  0.30461986810E+02  0.41340502259E+02  0.00000000000E+00 0.  1.
</event>
<event>
 7    1  0.2682188E-015  0.9000774E+02  0.7816164E-02  0.1186339E+00
        -11   -1    0    0    0    0  0.00000000000E+00  0.00000000000E+00  0.45593999997E+02  0.45594000000E+02  0.51100000000E-03 0.  1.
         11   -1    0    0    0    0 -0.00000000000E+00 -0.00000000000E+00 -0.45593999997E+02  0.45594000000E+02  0.51100000000E-03 0. -1.
    9900012    2    1    2    0    0 -0.23478191425E+00 -0.10868061930E+01 -0.39589708213E+00  0.90007743779E+02  0.90000005197E+02 0.  0.
         12    1    1    2    0    0  0.23478191425E+00  0.10868061930E+01  0.39589708213E+00  0.11802562214E+01  0.00000000000E+00 0. -1.
         11    1    3    3    0    0  0.43381551082E+01  0.29618091261E+01 -0.77234784503E+01  0.93404508818E+01  0.51100000000E-03 0. -1.
        -11    1    3    3    0    0  0.26000506124E+02  0.26410636119E+02  0.55437001450E+01  0.37473732540E+02  0.51100000000E-03 0.  1.
         12    1    3    3    0    0 -0.30573443147E+02 -0.30459251438E+02  0.17838812232E+01  0.43193560356E+02  0.00000000000E+00 0. -1.
</event>
<event>
 7    1  0.2682188E-015  0.9000751E+02  0.7816164E-02  0.1186340E+00
        -11   -1    0    0    0    0  0.00000000000E+00  0.00000000000E+00  0.45593999997E+02  0.45594000000E+02  0.51100000000E-03 0.  1.
         11   -1    0    0    0    0 -0.00000000000E+00 -0.00000000000E+00 -0.45593999997E+02  0.45594000000E+02  0.51100000000E-03 0. -1.
    9900012    2    1    2    0    0 -0.42200150006E-01 -0.11797296149E+01 -0.49901597109E-02  0.90007505308E+02  0.89999763577E+02 0.  0.
         12    1    1    2    0    0  0.42200150006E-01  0.11797296149E+01  0.49901597109E-02  0.11804946923E+01  0.00000000000E+00 0. -1.
         11    1    3    3    0    0  0.58684712460E+01 -0.83054503544E+01  0.65834239323E+01  0.12114492614E+02  0.51100000000E-03 0. -1.
        -11    1    3    3    0    0 -0.24289556089E+02 -0.84461555548E+01  0.26525129430E+02  0.36944587834E+02  0.51100000000E-03 0.  1.
         12    1    3    3    0    0  0.18378884693E+02  0.15571876294E+02 -0.33113543522E+02  0.40948424860E+02  0.00000000000E+00 0. -1.
</event>
<event>
 7    1  0.2682188E-015  0.9000785E+02  0.7816164E-02  0.1186339E+00
        -11   -1    0    0    0    0  0.00000000000E+00  0.00000000000E+00  0.45593999997E+02  0.45594000000E+02  0.51100000000E-03 0. -1.
         11   -1    0    0    0    0 -0.00000000000E+00 -0.00000000000E+00 -0.45593999997E+02  0.45594000000E+02  0.51100000000E-03 0.  1.
    9900012    2    1    2    0    0  0.36474246623E+00  0.50123016112E-01 -0.11212526416E+01  0.90007848794E+02  0.90000111598E+02 0.  0.
         12    1    1    2    0    0 -0.36474246623E+00 -0.50123016112E-01  0.11212526416E+01  0.11801512063E+01  0.00000000000E+00 0. -1.
         11    1    3    3    0    0 -0.14612634337E+02 -0.35411875789E+02 -0.14622491298E+02  0.41004234918E+02  0.51100000000E-03 0. -1.
        -11    1    3    3    0    0 -0.49058935496E+01 -0.96128911657E+00 -0.89835454744E+00  0.50792626866E+01  0.51100000000E-03 0.  1.
        -12    1    3    3    0    0  0.19883270353E+02  0.36423287922E+02  0.14399593204E+02  0.43924351189E+02  0.00000000000E+00 0.  1.
</event>
<event>
 7    1  0.2682188E-015  0.9000808E+02  0.7816164E-02  0.1186338E+00
        -11   -1    0    0    0    0  0.00000000000E+00  0.00000000000E+00  0.45593999997E+02  0.45594000000E+02  0.51100000000E-03 0.  1.
         11   -1    0    0    0    0 -0.00000000000E+00 -0.00000000000E+00 -0.45593999997E+02  0.45594000000E+02  0.51100000000E-03 0. -1.
    9900012    2    1    2    0    0 -0.24598852319E+00 -0.48538832844E+00  0.10469526474E+01  0.90008075414E+02  0.90000341209E+02 0.  0.
         12    1    1    2    0    0  0.24598852319E+00  0.48538832844E+00 -0.10469526474E+01  0.11799245861E+01  0.00000000000E+00 0. -1.
         11    1    3    3    0    0  0.56078397487E+01  0.39806913401E+00  0.86269816956E+01  0.10297142279E+02  0.51100000000E-03 0. -1.
        -11    1    3    3    0    0 -0.25882892731E+02  0.93286658571E+01  0.26946026196E+02  0.38510212552E+02  0.51100000000E-03 0.  1.
         12    1    3    3    0    0  0.20029064459E+02 -0.10212123319E+02 -0.34526055244E+02  0.41200720583E+02  0.00000000000E+00 0. -1.
</event>
<event>
 7    1  0.2682188E-015  0.9000770E+02  0.7816164E-02  0.1186339E+00
        -11   -1    0    0    0    0  0.00000000000E+00  0.00000000000E+00  0.45593999997E+02  0.45594000000E+02  0.51100000000E-03 0.  1.
         11   -1    0    0    0    0 -0.00000000000E+00 -0.00000000000E+00 -0.45593999997E+02  0.45594000000E+02  0.51100000000E-03 0. -1.
    9900012    2    1    2    0    0 -0.93510820449E+00 -0.70590569612E+00 -0.14272660053E+00  0.90007702966E+02  0.89999963845E+02 0.  0.
         12    1    1    2    0    0  0.93510820449E+00  0.70590569612E+00  0.14272660053E+00  0.11802970340E+01  0.00000000000E+00 0. -1.
         11    1    3    3    0    0  0.34782815627E+01 -0.81473684137E+01  0.92743032182E+01  0.12825394931E+02  0.51100000000E-03 0. -1.
        -11    1    3    3    0    0 -0.18343832483E+02 -0.30646437809E+02 -0.80009893369E+01  0.36602133424E+02  0.51100000000E-03 0.  1.
         12    1    3    3    0    0  0.13930442716E+02  0.38087900527E+02 -0.14160404819E+01  0.40580174611E+02  0.00000000000E+00 0. -1.
</event>
<event>
 7    1  0.3539270E-015  0.9000778E+02  0.7816164E-02  0.1186339E+00
        -11   -1    0    0    0    0  0.00000000000E+00  0.00000000000E+00  0.45593999997E+02  0.45594000000E+02  0.51100000000E-03 0. -1.
         11   -1    0    0    0    0 -0.00000000000E+00 -0.00000000000E+00 -0.45593999997E+02  0.45594000000E+02  0.51100000000E-03 0.  1.
    9900012    2    1    2    0    0  0.64681439877E+00 -0.94113192408E+00  0.29800910230E+00  0.90007784939E+02  0.90000046900E+02 0.  0.
         12    1    1    2    0    0 -0.64681439877E+00  0.94113192408E+00 -0.29800910230E+00  0.11802150609E+01  0.00000000000E+00 0. -1.
         11    1    3    3    0    0 -0.47054823854E+01  0.57061109172E+01  0.60543028248E+01  0.95580253836E+01  0.51100000000E-03 0. -1.
        -11    1    3    3    0    0 -0.99149014795E+01  0.34041032282E+02  0.46602595861E+01  0.35760525302E+02  0.51100000000E-03 0.  1.
         12    1    3    3    0    0  0.15267198264E+02 -0.40688275124E+02 -0.10416553309E+02  0.44689234254E+02  0.00000000000E+00 0. -1.
</event>
<event>
 7    1  0.2682188E-015  0.9000778E+02  0.7816164E-02  0.1186339E+00
        -11   -1    0    0    0    0  0.00000000000E+00  0.00000000000E+00  0.45593999997E+02  0.45594000000E+02  0.51100000000E-03 0.  1.
         11   -1    0    0    0    0 -0.00000000000E+00 -0.00000000000E+00 -0.45593999997E+02  0.45594000000E+02  0.51100000000E-03 0. -1.
    9900012    2    1    2    0    0  0.80869527629E+00 -0.85490084619E+00  0.89907899870E-01  0.90007776743E+02  0.90000038596E+02 0.  0.
         12    1    1    2    0    0 -0.80869527629E+00  0.85490084619E+00 -0.89907899870E-01  0.11802232573E+01  0.00000000000E+00 0. -1.
         11    1    3    3    0    0 -0.19040062562E+02 -0.28262528922E+02 -0.20973409628E+02  0.40014727728E+02  0.51100000000E-03 0. -1.
        -11    1    3    3    0    0  0.76459993206E+01 -0.37833433578E+01 -0.26754007844E+01  0.89405124121E+01  0.51100000000E-03 0.  1.
        -12    1    3    3    0    0  0.12202758517E+02  0.31190971434E+02  0.23738718313E+02  0.41052536603E+02  0.00000000000E+00 0.  1.
</event>
<event>
 7    1  0.2682188E-015  0.9000780E+02  0.7816164E-02  0.1186339E+00
        -11   -1    0    0    0    0  0.00000000000E+00  0.00000000000E+00  0.45593999997E+02  0.45594000000E+02  0.51100000000E-03 0. -1.
         11   -1    0    0    0    0 -0.00000000000E+00 -0.00000000000E+00 -0.45593999997E+02  0.45594000000E+02  0.51100000000E-03 0.  1.
    9900012    2    1    2    0    0 -0.19303381961E+00 -0.37450231482E+00 -0.11024363944E+01  0.90007796609E+02  0.90000058725E+02 0.  0.
         12    1    1    2    0    0  0.19303381961E+00  0.37450231482E+00  0.11024363944E+01  0.11802033905E+01  0.00000000000E+00 0. -1.
         11    1    3    3    0    0  0.24585389138E-01  0.24507870719E+02  0.27599108746E+02  0.36909986934E+02  0.51100000000E-03 0. -1.
        -11    1    3    3    0    0 -0.14129203632E+01  0.95600068651E+01 -0.30420048877E+01  0.10131331068E+02  0.51100000000E-03 0.  1.
        -12    1    3    3    0    0  0.11953011545E+01 -0.34442379899E+02 -0.25659540252E+02  0.42966478608E+02  0.00000000000E+00 0.  1.
</event>
<event>
 7    1  0.2682188E-015  0.9000777E+02  0.7816164E-02  0.1186339E+00
        -11   -1    0    0    0    0  0.00000000000E+00  0.00000000000E+00  0.45593999997E+02  0.45594000000E+02  0.51100000000E-03 0. -1.
         11   -1    0    0    0    0 -0.00000000000E+00 -0.00000000000E+00 -0.45593999997E+02  0.45594000000E+02  0.51100000000E-03 0.  1.
    9900012    2    1    2    0    0 -0.11306101091E+01 -0.32968145798E+00 -0.77337870700E-01  0.90007766875E+02  0.90000028598E+02 0.  0.
         12    1    1    2    0    0  0.11306101091E+01  0.32968145798E+00  0.77337870700E-01  0.11802331248E+01  0.00000000000E+00 0. -1.
         11    1    3    3    0    0  0.55122401760E+01 -0.24362068386E+01  0.29632481038E+01  0.67157080866E+01  0.51100000000E-03 0. -1.
        -11    1    3    3    0    0  0.12634848118E+02  0.37486244400E+02  0.10251887462E+02  0.40865133096E+02  0.51100000000E-03 0.  1.
         12    1    3    3    0    0 -0.19277698404E+02 -0.35379719019E+02 -0.13292473437E+02  0.42426925692E+02  0.00000000000E+00 0. -1.
</event>
<event>
 7    1  0.2682188E-015  0.9000774E+02  0.7816164E-02  0.1186339E+00
        -11   -1    0    0    0    0  0.00000000000E+00  0.00000000000E+00  0.45593999997E+02  0.45594000000E+02  0.51100000000E-03 0.  1.
         11   -1    0    0    0    0 -0.00000000000E+00 -0.00000000000E+00 -0.45593999997E+02  0.45594000000E+02  0.51100000000E-03 0. -1.
    9900012    2    1    2    0    0  0.11306479537E+00  0.45763895030E+00  0.10820355117E+01  0.90007738205E+02  0.89999999549E+02 0.  0.
         12    1    1    2    0    0 -0.11306479537E+00 -0.45763895030E+00 -0.10820355117E+01  0.11802617953E+01  0.00000000000E+00 0. -1.
         11    1    3    3    0    0  0.18160154431E+02 -0.16881949645E+02 -0.24308652063E+02  0.34723219870E+02  0.51100000000E-03 0. -1.
        -11    1    3    3    0    0  0.64319585972E+01 -0.50992082041E+01 -0.55406917190E+01  0.99030945008E+01  0.51100000000E-03 0.  1.
        -12    1    3    3    0    0 -0.24479048233E+02  0.22438796799E+02  0.30931379293E+02  0.45381423834E+02  0.00000000000E+00 0.  1.
</event>
<event>
 7    1  0.2682188E-015  0.9000772E+02  0.7816164E-02  0.1186339E+00
        -11   -1    0    0    0    0  0.00000000000E+00  0.00000000000E+00  0.45593999997E+02  0.45594000000E+02  0.51100000000E-03 0. -1.
         11   -1    0    0    0    0 -0.00000000000E+00 -0.00000000000E+00 -0.45593999997E+02  0.45594000000E+02  0.51100000000E-03 0.  1.
    9900012    2    1    2    0    0  0.18022576344E+00  0.53452561373E+00 -0.10367499139E+01  0.90007724887E+02  0.89999986056E+02 0.  0.
         12    1    1    2    0    0 -0.18022576344E+00 -0.53452561373E+00  0.10367499139E+01  0.11802751126E+01  0.00000000000E+00 0. -1.
         11    1    3    3    0    0 -0.28080203722E+01  0.75420768660E+01  0.41281513064E+01  0.90448623722E+01  0.51100000000E-03 0. -1.
        -11    1    3    3    0    0 -0.29430013513E+02 -0.28190031314E+02  0.46384065653E+01  0.41016074612E+02  0.51100000000E-03 0.  1.
         12    1    3    3    0    0  0.32418259649E+02  0.21182480062E+02 -0.98033077856E+01  0.39946787903E+02  0.00000000000E+00 0. -1.
</event>
<event>
 7    1  0.2682188E-015  0.9000757E+02  0.7816164E-02  0.1186339E+00
        -11   -1    0    0    0    0  0.00000000000E+00  0.00000000000E+00  0.45593999997E+02  0.45594000000E+02  0.51100000000E-03 0.  1.
         11   -1    0    0    0    0 -0.00000000000E+00 -0.00000000000E+00 -0.45593999997E+02  0.45594000000E+02  0.51100000000E-03 0. -1.
    9900012    2    1    2    0    0 -0.22849122982E+00 -0.10531477659E+01  0.48176454639E+00  0.90007565530E+02  0.89999824595E+02 0.  0.
         12    1    1    2    0    0  0.22849122982E+00  0.10531477659E+01 -0.48176454639E+00  0.11804344696E+01  0.00000000000E+00 0. -1.
         11    1    3    3    0    0  0.99992982799E+01 -0.26389035991E+02 -0.25862081793E+02  0.38278119880E+02  0.51100000000E-03 0. -1.
        -11    1    3    3    0    0 -0.82201362546E+01 -0.48742542901E+01 -0.25363725736E+01  0.98874759683E+01  0.51100000000E-03 0.  1.
        -12    1    3    3    0    0 -0.20076532551E+01  0.30210142515E+02  0.28880218913E+02  0.41841969682E+02  0.00000000000E+00 0.  1.
</event>
<event>
 7    1  0.2682188E-015  0.9000776E+02  0.7816164E-02  0.1186339E+00
        -11   -1    0    0    0    0  0.00000000000E+00  0.00000000000E+00  0.45593999997E+02  0.45594000000E+02  0.51100000000E-03 0.  1.
         11   -1    0    0    0    0 -0.00000000000E+00 -0.00000000000E+00 -0.45593999997E+02  0.45594000000E+02  0.51100000000E-03 0. -1.
    9900012    2    1    2    0    0  0.89051374103E+00  0.33160011572E+00 -0.69999256110E+00  0.90007761488E+02  0.90000023140E+02 0.  0.
         12    1    1    2    0    0 -0.89051374103E+00 -0.33160011572E+00  0.69999256110E+00  0.11802385120E+01  0.00000000000E+00 0. -1.
         11    1    3    3    0    0 -0.23301953712E+02  0.11083798293E+01 -0.32027836474E+02  0.39623122821E+02  0.51100000000E-03 0. -1.
        -11    1    3    3    0    0  0.32766954188E+01  0.94681208556E+01 -0.15036202416E+01  0.10131284198E+02  0.51100000000E-03 0.  1.
        -12    1    3    3    0    0  0.20915772034E+02 -0.10244900569E+02  0.32831464155E+02  0.40253354469E+02  0.00000000000E+00 0.  1.
</event>
<event>
 7    1  0.2682188E-015  0.9000795E+02  0.7816164E-02  0.1186339E+00
        -11   -1    0    0    0    0  0.00000000000E+00  0.00000000000E+00  0.45593999997E+02  0.45594000000E+02  0.51100000000E-03 0. -1.
         11   -1    0    0    0    0 -0.00000000000E+00 -0.00000000000E+00 -0.45593999997E+02  0.45594000000E+02  0.51100000000E-03 0.  1.
    9900012    2    1    2    0    0  0.10889909786E+01 -0.30744875513E+00 -0.33478544799E+00  0.90007954499E+02  0.90000218698E+02 0.  0.
         12    1    1    2    0    0 -0.10889909786E+01  0.30744875513E+00  0.33478544799E+00  0.11800455011E+01  0.00000000000E+00 0. -1.
         11    1    3    3    0    0 -0.16506202397E+02 -0.33196395740E+02 -0.11523124274E+02  0.38823160626E+02  0.51100000000E-03 0. -1.
        -11    1    3    3    0    0 -0.30794568782E+01 -0.37804408488E+01  0.74756439685E+01  0.89252473736E+01  0.51100000000E-03 0.  1.
        -12    1    3    3    0    0  0.20674650254E+02  0.36669387834E+02  0.37126948573E+01  0.42259546499E+02  0.00000000000E+00 0.  1.
</event>
<event>
 7    1  0.2682188E-015  0.9000773E+02  0.7816164E-02  0.1186339E+00
        -11   -1    0    0    0    0  0.00000000000E+00  0.00000000000E+00  0.45593999997E+02  0.45594000000E+02  0.51100000000E-03 0. -1.
         11   -1    0    0    0    0 -0.00000000000E+00 -0.00000000000E+00 -0.45593999997E+02  0.45594000000E+02  0.51100000000E-03 0.  1.
    9900012    2    1    2    0    0 -0.11470414618E+01  0.94353530523E-01  0.26160493777E+00  0.90007727215E+02  0.89999988414E+02 0.  0.
         12    1    1    2    0    0  0.11470414618E+01 -0.94353530523E-01 -0.26160493777E+00  0.11802727851E+01  0.00000000000E+00 0. -1.
         11    1    3    3    0    0 -0.17889701647E+02  0.25172299539E+02  0.30947188951E+02  0.43719727737E+02  0.51100000000E-03 0. -1.
        -11    1    3    3    0    0  0.80445513054E+01 -0.36566947772E+01 -0.13535542128E+01  0.89397053456E+01  0.51100000000E-03 0.  1.
        -12    1    3    3    0    0  0.86981088802E+01 -0.21421251231E+02 -0.29332029801E+02  0.37348294133E+02  0.00000000000E+00 0.  1.
</event>
<event>
 7    1  0.2682188E-015  0.9000751E+02  0.7816164E-02  0.1186339E+00
        -11   -1    0    0    0    0  0.00000000000E+00  0.00000000000E+00  0.45593999997E+02  0.45594000000E+02  0.51100000000E-03 0. -1.
         11   -1    0    0    0    0 -0.00000000000E+00 -0.00000000000E+00 -0.45593999997E+02  0.45594000000E+02  0.51100000000E-03 0.  1.
    9900012    2    1    2    0    0  0.43446517131E+00  0.82039665186E+00 -0.72920430239E+00  0.90007512996E+02  0.89999771367E+02 0.  0.
         12    1    1    2    0    0 -0.43446517131E+00 -0.82039665186E+00  0.72920430239E+00  0.11804870038E+01  0.00000000000E+00 0. -1.
         11    1    3    3    0    0  0.56807920624E+01  0.44873266221E+01 -0.87632778598E+01  0.11366729423E+02  0.51100000000E-03 0. -1.
        -11    1    3    3    0    0  0.21179370647E+02 -0.97449996071E+01 -0.26133327111E+02  0.35021158526E+02  0.51100000000E-03 0.  1.
         12    1    3    3    0    0 -0.26425697538E+02  0.60780696369E+01  0.34167400668E+02  0.43619625048E+02  0.00000000000E+00 0. -1.
</event>
<event>
 7    1  0.2682188E-015  0.9000774E+02  0.7816164E-02  0.1186339E+00
        -11   -1    0    0    0    0  0.00000000000E+00  0.00000000000E+00  0.45593999997E+02  0.45594000000E+02  0.51100000000E-03 0.  1.
         11   -1    0    0    0    0 -0.00000000000E+00 -0.00000000000E+00 -0.45593999997E+02  0.45594000000E+02  0.51100000000E-03 0. -1.
    9900012    2    1    2    0    0  0.67765260731E+00  0.19923641517E+00  0.94557536957E+00  0.90007736900E+02  0.89999998227E+02 0.  0.
         12    1    1    2    0    0 -0.67765260731E+00 -0.19923641517E+00 -0.94557536957E+00  0.11802630998E+01  0.00000000000E+00 0. -1.
         11    1    3    3    0    0  0.28254494332E-01  0.16149595197E+02  0.80366785298E+01  0.18038803325E+02  0.51100000000E-03 0. -1.
        -11    1    3    3    0    0  0.71719980099E+01 -0.64905117199E+01  0.30847450907E+02  0.32328463087E+02  0.51100000000E-03 0.  1.
         12    1    3    3    0    0 -0.65225998969E+01 -0.94598470617E+01 -0.37938554067E+02  0.39640470489E+02  0.00000000000E+00 0. -1.
</event>
<event>
 7    1  0.2682188E-015  0.9000765E+02  0.7816164E-02  0.1186339E+00
        -11   -1    0    0    0    0  0.00000000000E+00  0.00000000000E+00  0.45593999997E+02  0.45594000000E+02  0.51100000000E-03 0.  1.
         11   -1    0    0    0    0 -0.00000000000E+00 -0.00000000000E+00 -0.45593999997E+02  0.45594000000E+02  0.51100000000E-03 0. -1.
    9900012    2    1    2    0    0  0.11231586173E+01 -0.32932076374E+00  0.15260557800E+00  0.90007650091E+02  0.89999910272E+02 0.  0.
         12    1    1    2    0    0 -0.11231586173E+01  0.32932076374E+00 -0.15260557800E+00  0.11803499090E+01  0.00000000000E+00 0. -1.
         11    1    3    3    0    0  0.94356647787E+01  0.26344088531E+01 -0.18918822915E+02  0.21304782106E+02  0.51100000000E-03 0. -1.
        -11    1    3    3    0    0  0.18012969825E+02 -0.25530597353E+02  0.10762847313E+02  0.33047199059E+02  0.51100000000E-03 0.  1.
         12    1    3    3    0    0 -0.26325475986E+02  0.22566867736E+02  0.83085811802E+01  0.35655668926E+02  0.00000000000E+00 0. -1.
</event>
<event>
 7    1  0.2682188E-015  0.9000768E+02  0.7816164E-02  0.1186339E+00
        -11   -1    0    0    0    0  0.00000000000E+00  0.00000000000E+00  0.45593999997E+02  0.45594000000E+02  0.51100000000E-03 0.  1.
         11   -1    0    0    0    0 -0.00000000000E+00 -0.00000000000E+00 -0.45593999997E+02  0.45594000000E+02  0.51100000000E-03 0. -1.
    9900012    2    1    2    0    0  0.71762945931E+00 -0.54848320627E+00  0.75981555414E+00  0.90007684133E+02  0.89999944764E+02 0.  0.
         12    1    1    2    0    0 -0.71762945931E+00  0.54848320627E+00 -0.75981555414E+00  0.11803158665E+01  0.00000000000E+00 0. -1.
         11    1    3    3    0    0 -0.14855355268E+02  0.22955077629E+02 -0.21446867348E+02  0.34750327889E+02  0.51100000000E-03 0. -1.
        -11    1    3    3    0    0 -0.46689318914E+01  0.64810611890E+01 -0.54922762742E+01  0.96937184854E+01  0.51100000000E-03 0.  1.
        -12    1    3    3    0    0  0.20241916619E+02 -0.29984622024E+02  0.27698959177E+02  0.45563637759E+02  0.00000000000E+00 0.  1.
</event>
<event>
 7    1  0.2682188E-015  0.9000775E+02  0.7816164E-02  0.1186339E+00
        -11   -1    0    0    0    0  0.00000000000E+00  0.00000000000E+00  0.45593999997E+02  0.45594000000E+02  0.51100000000E-03 0. -1.
         11   -1    0    0    0    0 -0.00000000000E+00 -0.00000000000E+00 -0.45593999997E+02  0.45594000000E+02  0.51100000000E-03 0.  1.
    9900012    2    1    2    0    0 -0.36279423744E+00  0.11210605944E+01  0.67720336870E-01  0.90007753179E+02  0.90000014721E+02 0.  0.
         12    1    1    2    0    0  0.36279423744E+00 -0.11210605944E+01 -0.67720336870E-01  0.11802468213E+01  0.00000000000E+00 0. -1.
         11    1    3    3    0    0  0.11012383017E+01 -0.90824861064E+01  0.25364080463E+01  0.94940847746E+01  0.51100000000E-03 0. -1.
        -11    1    3    3    0    0 -0.12684421647E+02 -0.30868095751E+02 -0.14324626612E+02  0.36317059567E+02  0.51100000000E-03 0.  1.
         12    1    3    3    0    0  0.11220389108E+02  0.41071642452E+02  0.11855938902E+02  0.44196608837E+02  0.00000000000E+00 0. -1.
</event>
<event>
 7    1  0.2682188E-015  0.9000773E+02  0.7816164E-02  0.1186339E+00
        -11   -1    0    0    0    0  0.00000000000E+00  0.00000000000E+00  0.45593999997E+02  0.45594000000E+02  0.51100000000E-03 0. -1.
         11   -1    0    0    0    0 -0.00000000000E+00 -0.00000000000E+00 -0.45593999997E+02  0.45594000000E+02  0.51100000000E-03 0.  1.
    9900012    2    1    2    0    0  0.94400226449E+00 -0.64851328360E+00 -0.28516384463E+00  0.90007733855E+02  0.89999995142E+02 0.  0.
         12    1    1    2    0    0 -0.94400226449E+00  0.64851328360E+00  0.28516384463E+00  0.11802661448E+01  0.00000000000E+00 0. -1.
         11    1    3    3    0    0  0.32452955536E+01  0.24816474423E+01  0.14434540174E+02  0.15001548838E+02  0.51100000000E-03 0. -1.
        -11    1    3    3    0    0  0.34078839833E+02  0.60323333583E+01 -0.14409948179E+02  0.37488704657E+02  0.51100000000E-03 0.  1.
        -12    1    3    3    0    0 -0.36380133122E+02 -0.91624940841E+01 -0.30975583987E+00  0.37517480359E+02  0.00000000000E+00 0.  1.
</event>
<event>
 7    1  0.2682188E-015  0.9000775E+02  0.7816164E-02  0.1186339E+00
        -11   -1    0    0    0    0  0.00000000000E+00  0.00000000000E+00  0.45593999997E+02  0.45594000000E+02  0.51100000000E-03 0. -1.
         11   -1    0    0    0    0 -0.00000000000E+00 -0.00000000000E+00 -0.45593999997E+02  0.45594000000E+02  0.51100000000E-03 0.  1.
    9900012    2    1    2    0    0 -0.54451990703E+00 -0.12783632339E+00 -0.10393001952E+01  0.90007750471E+02  0.90000011977E+02 0.  0.
         12    1    1    2    0    0  0.54451990703E+00  0.12783632339E+00  0.10393001952E+01  0.11802495289E+01  0.00000000000E+00 0. -1.
         11    1    3    3    0    0 -0.24502953724E+02  0.25082015728E+02  0.13310448492E+02  0.37505603495E+02  0.51100000000E-03 0. -1.
        -11    1    3    3    0    0 -0.11744423078E+01  0.40245185741E+01  0.72027876979E+01  0.83340395589E+01  0.51100000000E-03 0.  1.
        -12    1    3    3    0    0  0.25132876125E+02 -0.29234370626E+02 -0.21552536385E+02  0.44168107417E+02  0.00000000000E+00 0.  1.
</event>
<event>
 7    1  0.2682188E-015  0.9000775E+02  0.7816164E-02  0.1186339E+00
        -11   -1    0    0    0    0  0.00000000000E+00  0.00000000000E+00  0.45593999997E+02  0.45594000000E+02  0.51100000000E-03 0. -1.
         11   -1    0    0    0    0 -0.00000000000E+00 -0.00000000000E+00 -0.45593999997E+02  0.45594000000E+02  0.51100000000E-03 0.  1.
    9900012    2    1    2    0    0  0.10649477980E+01 -0.17135960661E+00 -0.47906291751E+00  0.90007754599E+02  0.90000016160E+02 0.  0.
         12    1    1    2    0    0 -0.10649477980E+01  0.17135960661E+00  0.47906291751E+00  0.11802454008E+01  0.00000000000E+00 0. -1.
         11    1    3    3    0    0 -0.29282610842E+02 -0.21320983885E+02 -0.64240955376E+01  0.36787561149E+02  0.51100000000E-03 0. -1.
        -11    1    3    3    0    0 -0.12142154409E+01 -0.84167736718E+01  0.51977025552E+01  0.99665696352E+01  0.51100000000E-03 0.  1.
        -12    1    3    3    0    0  0.31561774081E+02  0.29566397950E+02  0.74733006484E+00  0.43253623815E+02  0.00000000000E+00 0.  1.
</event>
<event>
 7    1  0.2682188E-015  0.9000776E+02  0.7816164E-02  0.1186339E+00
        -11   -1    0    0    0    0  0.00000000000E+00  0.00000000000E+00  0.45593999997E+02  0.45594000000E+02  0.51100000000E-03 0. -1.
         11   -1    0    0    0    0 -0.00000000000E+00 -0.00000000000E+00 -0.45593999997E+02  0.45594000000E+02  0.51100000000E-03 0.  1.
    9900012    2    1    2    0    0  0.50070392743E+00 -0.30081846637E+00 -0.10255568794E+01  0.90007761429E+02  0.90000023079E+02 0.  0.
         12    1    1    2    0    0 -0.50070392743E+00  0.30081846637E+00  0.10255568794E+01  0.11802385714E+01  0.00000000000E+00 0. -1.
         11    1    3    3    0    0 -0.40719072920E+01  0.70139233581E+01  0.42780531146E+01  0.91693668582E+01  0.51100000000E-03 0. -1.
        -11    1    3    3    0    0  0.36764894662E+02 -0.16170952242E+02  0.13680901691E+02  0.42430227990E+02  0.51100000000E-03 0.  1.
         12    1    3    3    0    0 -0.32192283442E+02  0.88562104180E+01 -0.18984511685E+02  0.38408166581E+02  0.00000000000E+00 0. -1.
</event>
<event>
 7    1  0.2682188E-015  0.9000754E+02  0.7816164E-02  0.1186339E+00
        -11   -1    0    0    0    0  0.00000000000E+00  0.00000000000E+00  0.45593999997E+02  0.45594000000E+02  0.51100000000E-03 0.  1.
         11   -1    0    0    0    0 -0.00000000000E+00 -0.00000000000E+00 -0.45593999997E+02  0.45594000000E+02  0.51100000000E-03 0. -1.
    9900012    2    1    2    0    0  0.85067280850E+00 -0.31025582515E+00  0.75734672397E+00  0.90007543747E+02  0.89999802525E+02 0.  0.
         12    1    1    2    0    0 -0.85067280850E+00  0.31025582515E+00 -0.75734672397E+00  0.11804562527E+01  0.00000000000E+00 0. -1.
         11    1    3    3    0    0 -0.28155800316E+02 -0.28830898270E+02 -0.21886322250E+01  0.40357897589E+02  0.51100000000E-03 0. -1.
        -11    1    3    3    0    0  0.17820206305E+01  0.97977216138E+00 -0.89184469594E+01  0.91473628683E+01  0.51100000000E-03 0.  1.
        -12    1    3    3    0    0  0.27224452494E+02  0.27540870284E+02  0.11864425908E+02  0.40502283290E+02  0.00000000000E+00 0.  1.
</event>
<event>
 7    1  0.2682188E-015  0.9000769E+02  0.7816164E-02  0.1186339E+00
        -11   -1    0    0    0    0  0.00000000000E+00  0.00000000000E+00  0.45593999997E+02  0.45594000000E+02  0.51100000000E-03 0. -1.
         11   -1    0    0    0    0 -0.00000000000E+00 -0.00000000000E+00 -0.45593999997E+02  0.45594000000E+02  0.51100000000E-03 0.  1.
    9900012    2    1    2    0    0 -0.24631562358E-01  0.11208884907E+01 -0.36894992218E+00  0.90007694206E+02  0.89999954969E+02 0.  0.
         12    1    1    2    0    0  0.24631562358E-01 -0.11208884907E+01  0.36894992218E+00  0.11803057940E+01  0.00000000000E+00 0. -1.
         11    1    3    3    0    0  0.81676399941E+00  0.35898075479E+01  0.37997266894E+02  0.38175202859E+02  0.51100000000E-03 0. -1.
        -11    1    3    3    0    0  0.70453001690E+01  0.64469946837E+00  0.43352291400E+01  0.82973552313E+01  0.51100000000E-03 0.  1.
        -12    1    3    3    0    0 -0.78866957308E+01 -0.31136185256E+01 -0.42701445956E+02  0.43535136116E+02  0.00000000000E+00 0.  1.
</event>
<event>
 7    1  0.2682188E-015  0.9000766E+02  0.7816164E-02  0.1186339E+00
        -11   -1    0    0    0    0  0.00000000000E+00  0.00000000000E+00  0.45593999997E+02  0.45594000000E+02  0.51100000000E-03 0. -1.
         11   -1    0    0    0    0 -0.00000000000E+00 -0.00000000000E+00 -0.45593999997E+02  0.45594000000E+02  0.51100000000E-03 0.  1.
    9900012    2    1    2    0    0  0.15114699289E+00  0.32868651841E-01 -0.11701571898E+01  0.90007663772E+02  0.89999924134E+02 0.  0.
         12    1    1    2    0    0 -0.15114699289E+00 -0.32868651841E-01  0.11701571898E+01  0.11803362278E+01  0.00000000000E+00 0. -1.
         11    1    3    3    0    0  0.61637335104E+00  0.45183757830E+01  0.77991263793E+01  0.90344899339E+01  0.51100000000E-03 0. -1.
        -11    1    3    3    0    0  0.26106071309E+02  0.16467242999E+02  0.19704873747E+02  0.36619381492E+02  0.51100000000E-03 0.  1.
         12    1    3    3    0    0 -0.26571297667E+02 -0.20952750130E+02 -0.28674157316E+02  0.44353792347E+02  0.00000000000E+00 0. -1.
</event>
<event>
 7    1  0.2682188E-015  0.9000775E+02  0.7816164E-02  0.1186339E+00
        -11   -1    0    0    0    0  0.00000000000E+00  0.00000000000E+00  0.45593999997E+02  0.45594000000E+02  0.51100000000E-03 0.  1.
         11   -1    0    0    0    0 -0.00000000000E+00 -0.00000000000E+00 -0.45593999997E+02  0.45594000000E+02  0.51100000000E-03 0. -1.
    9900012    2    1    2    0    0  0.30652489514E+00 -0.10577989837E+01  0.42436402965E+00  0.90007753826E+02  0.90000015377E+02 0.  0.
         12    1    1    2    0    0 -0.30652489514E+00  0.10577989837E+01 -0.42436402965E+00  0.11802461739E+01  0.00000000000E+00 0. -1.
         11    1    3    3    0    0  0.21793063394E+02 -0.14154894945E+02 -0.31908161305E+02  0.41151299143E+02  0.51100000000E-03 0. -1.
        -11    1    3    3    0    0  0.90303086007E+00 -0.66848154192E+01  0.62742508116E+01  0.92124071464E+01  0.51100000000E-03 0.  1.
        -12    1    3    3    0    0 -0.22389569359E+02  0.19781911380E+02  0.26058274523E+02  0.39644047537E+02  0.00000000000E+00 0.  1.
</event>
<event>
 7    1  0.2682188E-015  0.9000778E+02  0.7816164E-02  0.1186339E+00
        -11   -1    0    0    0    0  0.00000000000E+00  0.00000000000E+00  0.45593999997E+02  0.45594000000E+02  0.51100000000E-03 0. -1.
         11   -1    0    0    0    0 -0.00000000000E+00 -0.00000000000E+00 -0.45593999997E+02  0.45594000000E+02  0.51100000000E-03 0.  1.
    9900012    2    1    2    0    0 -0.42650550776E-01  0.21863431832E+00 -0.11590124911E+01  0.90007775450E+02  0.90000037286E+02 0.  0.
         12    1    1    2    0    0  0.42650550776E-01 -0.21863431832E+00  0.11590124911E+01  0.11802245503E+01  0.00000000000E+00 0. -1.
         11    1    3    3    0    0  0.54912792933E+01 -0.12819084284E+02  0.34954252521E+02  0.37633533447E+02  0.51100000000E-03 0. -1.
        -11    1    3    3    0    0 -0.52823989138E+01 -0.68903668013E+01  0.24018250817E+01  0.90083104368E+01  0.51100000000E-03 0.  1.
        -12    1    3    3    0    0 -0.25153093034E+00  0.19928085403E+02 -0.38515090094E+02  0.43365931566E+02  0.00000000000E+00 0.  1.
</event>
<event>
 7    1  0.2682188E-015  0.9000779E+02  0.7816164E-02  0.1186339E+00
        -11   -1    0    0    0    0  0.00000000000E+00  0.00000000000E+00  0.45593999997E+02  0.45594000000E+02  0.51100000000E-03 0.  1.
         11   -1    0    0    0    0 -0.00000000000E+00 -0.00000000000E+00 -0.45593999997E+02  0.45594000000E+02  0.51100000000E-03 0. -1.
    9900012    2    1    2    0    0 -0.11308222525E+01  0.11699999718E+00  0.31691929010E+00  0.90007794169E+02  0.90000056252E+02 0.  0.
         12    1    1    2    0    0  0.11308222525E+01 -0.11699999718E+00 -0.31691929010E+00  0.11802058306E+01  0.00000000000E+00 0. -1.
         11    1    3    3    0    0 -0.28164732849E+01 -0.13264937976E+01 -0.88421635148E+01  0.93742180177E+01  0.51100000000E-03 0. -1.
        -11    1    3    3    0    0  0.85181279260E+00 -0.36466527769E+02 -0.10450503589E+02  0.37943988432E+02  0.51100000000E-03 0.  1.
         12    1    3    3    0    0  0.83383823974E+00  0.37910021564E+02  0.19609586394E+02  0.42689587720E+02  0.00000000000E+00 0. -1.
</event>
<event>
 7    1  0.2682188E-015  0.9000778E+02  0.7816164E-02  0.1186339E+00
        -11   -1    0    0    0    0  0.00000000000E+00  0.00000000000E+00  0.45593999997E+02  0.45594000000E+02  0.51100000000E-03 0.  1.
         11   -1    0    0    0    0 -0.00000000000E+00 -0.00000000000E+00 -0.45593999997E+02  0.45594000000E+02  0.51100000000E-03 0. -1.
    9900012    2    1    2    0    0  0.54253834612E+00 -0.22016482885E+00  0.10247440059E+01  0.90007779391E+02  0.90000041279E+02 0.  0.
         12    1    1    2    0    0 -0.54253834612E+00  0.22016482885E+00 -0.10247440059E+01  0.11802206092E+01  0.00000000000E+00 0. -1.
         11    1    3    3    0    0  0.35423931969E+02  0.11121554962E+02  0.92969293616E+00  0.37140385972E+02  0.51100000000E-03 0. -1.
        -11    1    3    3    0    0  0.34401924116E-01  0.10302492610E+02 -0.50368102411E+01  0.11467867943E+02  0.51100000000E-03 0.  1.
        -12    1    3    3    0    0 -0.34915795547E+02 -0.21644212401E+02  0.51318613109E+01  0.41399525476E+02  0.00000000000E+00 0.  1.
</event>
<event>
 7    1  0.2682188E-015  0.9000729E+02  0.7816164E-02  0.1186340E+00
        -11   -1    0    0    0    0  0.00000000000E+00  0.00000000000E+00  0.45593999997E+02  0.45594000000E+02  0.51100000000E-03 0.  1.
         11   -1    0    0    0    0 -0.00000000000E+00 -0.00000000000E+00 -0.45593999997E+02  0.45594000000E+02  0.51100000000E-03 0. -1.
    9900012    2    1    2    0    0 -0.82112002924E-01 -0.30409366656E+00  0.11379236050E+01  0.90007286034E+02  0.89999541408E+02 0.  0.
         12    1    1    2    0    0  0.82112002924E-01  0.30409366656E+00 -0.11379236050E+01  0.11807139661E+01  0.00000000000E+00 0. -1.
         11    1    3    3    0    0  0.20276809542E+02  0.30850354574E+02  0.71559007619E+01  0.37604524974E+02  0.51100000000E-03 0. -1.
        -11    1    3    3    0    0 -0.42262262318E+01  0.56800244814E+01  0.71764781750E+01  0.10080947650E+02  0.51100000000E-03 0.  1.
        -12    1    3    3    0    0 -0.16132695314E+02 -0.36834472722E+02 -0.13194455332E+02  0.42321813410E+02  0.00000000000E+00 0.  1.
</event>
<event>
 7    1  0.2682188E-015  0.9000776E+02  0.7816164E-02  0.1186339E+00
        -11   -1    0    0    0    0  0.00000000000E+00  0.00000000000E+00  0.45593999997E+02  0.45594000000E+02  0.51100000000E-03 0. -1.
         11   -1    0    0    0    0 -0.00000000000E+00 -0.00000000000E+00 -0.45593999997E+02  0.45594000000E+02  0.51100000000E-03 0.  1.
    9900012    2    1    2    0    0  0.78908254582E+00  0.21738934934E+00 -0.85032930953E+00  0.90007758784E+02  0.90000020400E+02 0.  0.
         12    1    1    2    0    0 -0.78908254582E+00 -0.21738934934E+00  0.85032930953E+00  0.11802412160E+01  0.00000000000E+00 0. -1.
         11    1    3    3    0    0  0.42502039859E+00  0.26293426967E+02  0.23277518935E+02  0.35119337010E+02  0.51100000000E-03 0. -1.
        -11    1    3    3    0    0  0.12975517065E+01  0.11569884640E+02 -0.55452860645E+01  0.12895583307E+02  0.51100000000E-03 0.  1.
        -12    1    3    3    0    0 -0.93348955926E+00 -0.37645922257E+02 -0.18582562180E+02  0.41992838467E+02  0.00000000000E+00 0.  1.
</event>
<event>
 7    1  0.2682188E-015  0.9000770E+02  0.7816164E-02  0.1186339E+00
        -11   -1    0    0    0    0  0.00000000000E+00  0.00000000000E+00  0.45593999997E+02  0.45594000000E+02  0.51100000000E-03 0. -1.
         11   -1    0    0    0    0 -0.00000000000E+00 -0.00000000000E+00 -0.45593999997E+02  0.45594000000E+02  0.51100000000E-03 0.  1.
    9900012    2    1    2    0    0  0.35459829102E+00  0.10790792416E+01  0.32088478381E+00  0.90007695377E+02  0.89999956156E+02 0.  0.
         12    1    1    2    0    0 -0.35459829102E+00 -0.10790792416E+01 -0.32088478381E+00  0.11803046226E+01  0.00000000000E+00 0. -1.
         11    1    3    3    0    0 -0.37541567528E+01 -0.21853410887E+01  0.54870577342E+01  0.69983720563E+01  0.51100000000E-03 0. -1.
        -11    1    3    3    0    0  0.29741400738E+02 -0.21275765877E+02  0.17871226354E+02  0.40701226802E+02  0.51100000000E-03 0.  1.
         12    1    3    3    0    0 -0.25632645694E+02  0.24540186207E+02 -0.23037399305E+02  0.42308096519E+02  0.00000000000E+00 0. -1.
</event>
<event>
 7    1  0.2682188E-015  0.9000761E+02  0.7816164E-02  0.1186339E+00
        -11   -1    0    0    0    0  0.00000000000E+00  0.00000000000E+00  0.45593999997E+02  0.45594000000E+02  0.51100000000E-03 0.  1.
         11   -1    0    0    0    0 -0.00000000000E+00 -0.00000000000E+00 -0.45593999997E+02  0.45594000000E+02  0.51100000000E-03 0. -1.
    9900012    2    1    2    0    0  0.21776292766E+00 -0.10024554358E+01 -0.58394164227E+00  0.90007607932E+02  0.89999867556E+02 0.  0.
         12    1    1    2    0    0 -0.21776292766E+00  0.10024554358E+01  0.58394164227E+00  0.11803920684E+01  0.00000000000E+00 0. -1.
         11    1    3    3    0    0  0.29750587134E+02 -0.27224889862E+02  0.25607216118E+01  0.40408530760E+02  0.51100000000E-03 0. -1.
        -11    1    3    3    0    0 -0.46799845330E+00  0.17556250962E+01  0.94120588752E+01  0.95858277974E+01  0.51100000000E-03 0.  1.
        -12    1    3    3    0    0 -0.29064825753E+02  0.24466809330E+02 -0.12556722129E+02  0.40013249374E+02  0.00000000000E+00 0.  1.
</event>
<event>
 7    1  0.2682188E-015  0.9000774E+02  0.7816164E-02  0.1186339E+00
        -11   -1    0    0    0    0  0.00000000000E+00  0.00000000000E+00  0.45593999997E+02  0.45594000000E+02  0.51100000000E-03 0.  1.
         11   -1    0    0    0    0 -0.00000000000E+00 -0.00000000000E+00 -0.45593999997E+02  0.45594000000E+02  0.51100000000E-03 0. -1.
    9900012    2    1    2    0    0 -0.84390814451E+00 -0.74936275428E+00  0.34539644558E+00  0.90007735539E+02  0.89999996848E+02 0.  0.
         12    1    1    2    0    0  0.84390814451E+00  0.74936275428E+00 -0.34539644558E+00  0.11802644612E+01  0.00000000000E+00 0. -1.
         11    1    3    3    0    0  0.15678034113E+02 -0.20456124620E+02 -0.29988462764E+02  0.39541897872E+02  0.51100000000E-03 0. -1.
        -11    1    3    3    0    0 -0.33188315007E+01  0.50666340799E+01 -0.63778837345E+01  0.87956139423E+01  0.51100000000E-03 0.  1.
        -12    1    3    3    0    0 -0.13203110757E+02  0.14640127786E+02  0.36711742944E+02  0.41670223724E+02  0.00000000000E+00 0.  1.
</event>
<event>
 7    1  0.3209898E-015  0.9000774E+02  0.7816164E-02  0.1186339E+00
        -11   -1    0    0    0    0  0.00000000000E+00  0.00000000000E+00  0.45593999997E+02  0.45594000000E+02  0.51100000000E-03 0. -1.
         11   -1    0    0    0    0 -0.00000000000E+00 -0.00000000000E+00 -0.45593999997E+02  0.45594000000E+02  0.51100000000E-03 0.  1.
    9900012    2    1    2    0    0 -0.11394187621E+01 -0.23876247669E+00 -0.19425934816E+00  0.90007737601E+02  0.89999998938E+02 0.  0.
         12    1    1    2    0    0  0.11394187621E+01  0.23876247669E+00  0.19425934816E+00  0.11802623988E+01  0.00000000000E+00 0. -1.
         11    1    3    3    0    0 -0.13821066182E+01  0.91558999582E+01  0.25716623411E+01  0.96101077105E+01  0.51100000000E-03 0. -1.
        -11    1    3    3    0    0  0.29668761962E+02 -0.74936150703E+01 -0.28082478464E+02  0.41533303506E+02  0.51100000000E-03 0.  1.
         12    1    3    3    0    0 -0.29426074106E+02 -0.19010473646E+01  0.25316556775E+02  0.38864326384E+02  0.00000000000E+00 0. -1.
</event>
<event>
 7    1  0.2682188E-015  0.9000794E+02  0.7816164E-02  0.1186339E+00
        -11   -1    0    0    0    0  0.00000000000E+00  0.00000000000E+00  0.45593999997E+02  0.45594000000E+02  0.51100000000E-03 0.  1.
         11   -1    0    0    0    0 -0.00000000000E+00 -0.00000000000E+00 -0.45593999997E+02  0.45594000000E+02  0.51100000000E-03 0. -1.
    9900012    2    1    2    0    0  0.11615098690E+01  0.10284428519E+00  0.18126458119E+00  0.90007941115E+02  0.90000205138E+02 0.  0.
         12    1    1    2    0    0 -0.11615098690E+01 -0.10284428519E+00 -0.18126458119E+00  0.11800588846E+01  0.00000000000E+00 0. -1.
         11    1    3    3    0    0  0.15743741978E+02  0.35286629503E+00 -0.24144308283E+01  0.15931710598E+02  0.51100000000E-03 0. -1.
        -11    1    3    3    0    0  0.72852319217E+01  0.31767949419E+02  0.11007818557E+02  0.34401297709E+02  0.51100000000E-03 0.  1.
         12    1    3    3    0    0 -0.21867464030E+02 -0.32017971429E+02 -0.84121231474E+01  0.39674932809E+02  0.00000000000E+00 0. -1.
</event>
<event>
 7    1  0.2682188E-015  0.9000776E+02  0.7816164E-02  0.1186339E+00
        -11   -1    0    0    0    0  0.00000000000E+00  0.00000000000E+00  0.45593999997E+02  0.45594000000E+02  0.51100000000E-03 0. -1.
         11   -1    0    0    0    0 -0.00000000000E+00 -0.00000000000E+00 -0.45593999997E+02  0.45594000000E+02  0.51100000000E-03 0.  1.
    9900012    2    1    2    0    0  0.14899661795E+00 -0.90226743586E-01 -0.11673138815E+01  0.90007761653E+02  0.90000023307E+02 0.  0.
         12    1    1    2    0    0 -0.14899661795E+00  0.90226743586E-01  0.11673138815E+01  0.11802383469E+01  0.00000000000E+00 0. -1.
         11    1    3    3    0    0 -0.10920703836E+01  0.27343227737E+01 -0.75113857005E+01  0.80678407369E+01  0.51100000000E-03 0. -1.
        -11    1    3    3    0    0  0.63959633931E+01  0.35566200537E+02 -0.13302122957E+02  0.38507264818E+02  0.51100000000E-03 0.  1.
         12    1    3    3    0    0 -0.51548963915E+01 -0.38390750054E+02  0.19646194776E+02  0.43432656098E+02  0.00000000000E+00 0. -1.
</event>
<event>
 7    1  0.2682188E-015  0.9000772E+02  0.7816164E-02  0.1186339E+00
        -11   -1    0    0    0    0  0.00000000000E+00  0.00000000000E+00  0.45593999997E+02  0.45594000000E+02  0.51100000000E-03 0.  1.
         11   -1    0    0    0    0 -0.00000000000E+00 -0.00000000000E+00 -0.45593999997E+02  0.45594000000E+02  0.51100000000E-03 0. -1.
    9900012    2    1    2    0    0 -0.11520140425E+01  0.25662886250E+00  0.76675043102E-02  0.90007723118E+02  0.89999984263E+02 0.  0.
         12    1    1    2    0    0  0.11520140425E+01 -0.25662886250E+00 -0.76675043102E-02  0.11802768818E+01  0.00000000000E+00 0. -1.
         11    1    3    3    0    0 -0.32163068066E+02 -0.23744979999E+02  0.20191762437E+01  0.40029540286E+02  0.51100000000E-03 0. -1.
        -11    1    3    3    0    0 -0.50827832731E+01  0.44703700302E+01 -0.55958803897E+01  0.87825264933E+01  0.51100000000E-03 0.  1.
        -12    1    3    3    0    0  0.36093837296E+02  0.19531238831E+02  0.35843716504E+01  0.41195656339E+02  0.00000000000E+00 0.  1.
</event>
<event>
 7    1  0.2682188E-015  0.9000767E+02  0.7816164E-02  0.1186339E+00
        -11   -1    0    0    0    0  0.00000000000E+00  0.00000000000E+00  0.45593999997E+02  0.45594000000E+02  0.51100000000E-03 0. -1.
         11   -1    0    0    0    0 -0.00000000000E+00 -0.00000000000E+00 -0.45593999997E+02  0.45594000000E+02  0.51100000000E-03 0.  1.
    9900012    2    1    2    0    0 -0.44644215296E+00 -0.10814510395E+01  0.15602320508E+00  0.90007665222E+02  0.89999925603E+02 0.  0.
         12    1    1    2    0    0  0.44644215296E+00  0.10814510395E+01 -0.15602320508E+00  0.11803347777E+01  0.00000000000E+00 0. -1.
         11    1    3    3    0    0  0.30988635094E+01  0.80845551723E+01 -0.38859020437E+00  0.86668327543E+01  0.51100000000E-03 0. -1.
        -11    1    3    3    0    0 -0.14116190243E+02 -0.16571427368E+02 -0.36285598498E+02  0.42314580118E+02  0.51100000000E-03 0.  1.
         12    1    3    3    0    0  0.10570884581E+02  0.74054211566E+01  0.36830211907E+02  0.39026252350E+02  0.00000000000E+00 0. -1.
</event>
<event>
 7    1  0.2682188E-015  0.9000767E+02  0.7816164E-02  0.1186339E+00
        -11   -1    0    0    0    0  0.00000000000E+00  0.00000000000E+00  0.45593999997E+02  0.45594000000E+02  0.51100000000E-03 0.  1.
         11   -1    0    0    0    0 -0.00000000000E+00 -0.00000000000E+00 -0.45593999997E+02  0.45594000000E+02  0.51100000000E-03 0. -1.
    9900012    2    1    2    0    0  0.11523734305E+00  0.82604187501E+00  0.83519899274E+00  0.90007668613E+02  0.89999929039E+02 0.  0.
         12    1    1    2    0    0 -0.11523734305E+00 -0.82604187501E+00 -0.83519899274E+00  0.11803313865E+01  0.00000000000E+00 0. -1.
         11    1    3    3    0    0 -0.32549193150E+02  0.11101734115E+02  0.15234929801E+02  0.37613848000E+02  0.51100000000E-03 0. -1.
        -11    1    3    3    0    0 -0.73595302131E+01 -0.30241763465E+01  0.25103185281E+01  0.83432623659E+01  0.51100000000E-03 0.  1.
        -12    1    3    3    0    0  0.40023960706E+02 -0.72515158936E+01 -0.16910049337E+02  0.44050558247E+02  0.00000000000E+00 0.  1.
</event>
<event>
 7    1  0.2682188E-015  0.9000796E+02  0.7816164E-02  0.1186339E+00
        -11   -1    0    0    0    0  0.00000000000E+00  0.00000000000E+00  0.45593999997E+02  0.45594000000E+02  0.51100000000E-03 0.  1.
         11   -1    0    0    0    0 -0.00000000000E+00 -0.00000000000E+00 -0.45593999997E+02  0.45594000000E+02  0.51100000000E-03 0. -1.
    9900012    2    1    2    0    0  0.94040680523E+00 -0.21367905055E+00 -0.68005151243E+00  0.90007960274E+02  0.90000224549E+02 0.  0.
         12    1    1    2    0    0 -0.94040680523E+00  0.21367905055E+00  0.68005151243E+00  0.11800397262E+01  0.00000000000E+00 0. -1.
         11    1    3    3    0    0 -0.84877617788E+01 -0.42156163955E+00  0.14696548981E+01  0.86243666440E+01  0.51100000000E-03 0. -1.
        -11    1    3    3    0    0 -0.25754238611E+02  0.23658071900E+02  0.11724203910E+02  0.36884171809E+02  0.51100000000E-03 0.  1.
         12    1    3    3    0    0  0.35182407195E+02 -0.23450189311E+02 -0.13873910320E+02  0.44499421820E+02  0.00000000000E+00 0. -1.
</event>
<event>
 7    1  0.2682188E-015  0.9000779E+02  0.7816164E-02  0.1186339E+00
        -11   -1    0    0    0    0  0.00000000000E+00  0.00000000000E+00  0.45593999997E+02  0.45594000000E+02  0.51100000000E-03 0.  1.
         11   -1    0    0    0    0 -0.00000000000E+00 -0.00000000000E+00 -0.45593999997E+02  0.45594000000E+02  0.51100000000E-03 0. -1.
    9900012    2    1    2    0    0  0.33268226435E+00  0.11311558565E+01  0.52021234874E-01  0.90007789311E+02  0.90000051330E+02 0.  0.
         12    1    1    2    0    0 -0.33268226435E+00 -0.11311558565E+01 -0.52021234874E-01  0.11802106886E+01  0.00000000000E+00 0. -1.
         11    1    3    3    0    0 -0.17365547311E+02 -0.95178207311E+01  0.16409123278E+02  0.25717901778E+02  0.51100000000E-03 0. -1.
        -11    1    3    3    0    0 -0.73323257275E+01 -0.16267486914E+02  0.86537072334E+01  0.19831308081E+02  0.51100000000E-03 0.  1.
         12    1    3    3    0    0  0.25030555303E+02  0.26916463502E+02 -0.25010809276E+02  0.44458579452E+02  0.00000000000E+00 0. -1.
</event>
<event>
 7    1  0.2682188E-015  0.9000772E+02  0.7816164E-02  0.1186339E+00
        -11   -1    0    0    0    0  0.00000000000E+00  0.00000000000E+00  0.45593999997E+02  0.45594000000E+02  0.51100000000E-03 0. -1.
         11   -1    0    0    0    0 -0.00000000000E+00 -0.00000000000E+00 -0.45593999997E+02  0.45594000000E+02  0.51100000000E-03 0.  1.
    9900012    2    1    2    0    0  0.93951399270E+00 -0.13094537733E-01 -0.71427773816E+00  0.90007724313E+02  0.89999985474E+02 0.  0.
         12    1    1    2    0    0 -0.93951399270E+00  0.13094537733E-01  0.71427773816E+00  0.11802756867E+01  0.00000000000E+00 0. -1.
         11    1    3    3    0    0 -0.13611910247E+01 -0.40704263825E+01  0.84150326411E+01  0.94463742544E+01  0.51100000000E-03 0. -1.
        -11    1    3    3    0    0  0.60888420982E+01 -0.37586166761E+02 -0.18830238629E+01  0.38122692835E+02  0.51100000000E-03 0.  1.
         12    1    3    3    0    0 -0.37881370808E+01  0.41643498606E+02 -0.72462865164E+01  0.42438657224E+02  0.00000000000E+00 0. -1.
</event>
<event>
 7    1  0.2682188E-015  0.9000770E+02  0.7816164E-02  0.1186339E+00
        -11   -1    0    0    0    0  0.00000000000E+00  0.00000000000E+00  0.45593999997E+02  0.45594000000E+02  0.51100000000E-03 0. -1.
         11   -1    0    0    0    0 -0.00000000000E+00 -0.00000000000E+00 -0.45593999997E+02  0.45594000000E+02  0.51100000000E-03 0.  1.
    9900012    2    1    2    0    0 -0.53793249263E+00  0.68467253390E+00 -0.79684041190E+00  0.90007702373E+02  0.89999963245E+02 0.  0.
         12    1    1    2    0    0  0.53793249263E+00 -0.68467253390E+00  0.79684041190E+00  0.11802976266E+01  0.00000000000E+00 0. -1.
         11    1    3    3    0    0 -0.18346132422E+02  0.14430748777E+02  0.28918658854E+02  0.37163367921E+02  0.51100000000E-03 0. -1.
        -11    1    3    3    0    0  0.78376592952E+00  0.62095712076E+01  0.59069684098E+01  0.86061222203E+01  0.51100000000E-03 0.  1.
        -12    1    3    3    0    0  0.17024433999E+02 -0.19955647451E+02 -0.35622467676E+02  0.44238212232E+02  0.00000000000E+00 0.  1.
</event>
<event>
 7    1  0.2682188E-015  0.9000773E+02  0.7816164E-02  0.1186339E+00
        -11   -1    0    0    0    0  0.00000000000E+00  0.00000000000E+00  0.45593999997E+02  0.45594000000E+02  0.51100000000E-03 0. -1.
         11   -1    0    0    0    0 -0.00000000000E+00 -0.00000000000E+00 -0.45593999997E+02  0.45594000000E+02  0.51100000000E-03 0.  1.
    9900012    2    1    2    0    0 -0.36401895874E+00 -0.59070236012E+00 -0.95477826652E+00  0.90007728583E+02  0.89999989800E+02 0.  0.
         12    1    1    2    0    0  0.36401895874E+00  0.59070236012E+00  0.95477826652E+00  0.11802714174E+01  0.00000000000E+00 0. -1.
         11    1    3    3    0    0  0.10410907551E+01 -0.36134894902E+01 -0.11028873799E+02  0.11652348853E+02  0.51100000000E-03 0. -1.
        -11    1    3    3    0    0 -0.14445832154E+02 -0.13744776489E+02 -0.28226234805E+02  0.34558953672E+02  0.51100000000E-03 0.  1.
         12    1    3    3    0    0  0.13040722440E+02  0.16767563619E+02  0.38300330338E+02  0.43796426058E+02  0.00000000000E+00 0. -1.
</event>
<event>
 7    1  0.2682188E-015  0.9000770E+02  0.7816164E-02  0.1186339E+00
        -11   -1    0    0    0    0  0.00000000000E+00  0.00000000000E+00  0.45593999997E+02  0.45594000000E+02  0.51100000000E-03 0. -1.
         11   -1    0    0    0    0 -0.00000000000E+00 -0.00000000000E+00 -0.45593999997E+02  0.45594000000E+02  0.51100000000E-03 0.  1.
    9900012    2    1    2    0    0 -0.53378667300E+00  0.94883759734E+00 -0.45594631620E+00  0.90007700020E+02  0.89999960861E+02 0.  0.
         12    1    1    2    0    0  0.53378667300E+00 -0.94883759734E+00  0.45594631620E+00  0.11802999795E+01  0.00000000000E+00 0. -1.
         11    1    3    3    0    0  0.34395812067E+02 -0.56027112214E+01 -0.38319280585E+01  0.35059177596E+02  0.51100000000E-03 0. -1.
        -11    1    3    3    0    0  0.74644386369E+01 -0.70960895500E+01  0.24706282741E+00  0.10302105191E+02  0.51100000000E-03 0.  1.
        -12    1    3    3    0    0 -0.42394037377E+02  0.13647638369E+02  0.31289189149E+01  0.44646417233E+02  0.00000000000E+00 0.  1.
</event>
<event>
 7    1  0.2682188E-015  0.9000777E+02  0.7816164E-02  0.1186339E+00
        -11   -1    0    0    0    0  0.00000000000E+00  0.00000000000E+00  0.45593999997E+02  0.45594000000E+02  0.51100000000E-03 0.  1.
         11   -1    0    0    0    0 -0.00000000000E+00 -0.00000000000E+00 -0.45593999997E+02  0.45594000000E+02  0.51100000000E-03 0. -1.
    9900012    2    1    2    0    0  0.27264617796E+00 -0.44319005365E+00  0.10593399728E+01  0.90007765049E+02  0.90000026747E+02 0.  0.
         12    1    1    2    0    0 -0.27264617796E+00  0.44319005365E+00 -0.10593399728E+01  0.11802349512E+01  0.00000000000E+00 0. -1.
         11    1    3    3    0    0 -0.52587081531E+01  0.72907718529E+01 -0.29944741979E+01  0.94750325400E+01  0.51100000000E-03 0. -1.
        -11    1    3    3    0    0 -0.13825199055E+02  0.18435402598E+02  0.30756400185E+02  0.38431189813E+02  0.51100000000E-03 0.  1.
         12    1    3    3    0    0  0.19356553386E+02 -0.26169364505E+02 -0.26702586014E+02  0.42101542696E+02  0.00000000000E+00 0. -1.
</event>
<event>
 7    1  0.2682188E-015  0.9000784E+02  0.7816164E-02  0.1186339E+00
        -11   -1    0    0    0    0  0.00000000000E+00  0.00000000000E+00  0.45593999997E+02  0.45594000000E+02  0.51100000000E-03 0.  1.
         11   -1    0    0    0    0 -0.00000000000E+00 -0.00000000000E+00 -0.45593999997E+02  0.45594000000E+02  0.51100000000E-03 0. -1.
    9900012    2    1    2    0    0 -0.32463189889E+00 -0.20515363260E+00  0.11159298216E+01  0.90007841854E+02  0.90000104566E+02 0.  0.
         12    1    1    2    0    0  0.32463189889E+00  0.20515363260E+00 -0.11159298216E+01  0.11801581459E+01  0.00000000000E+00 0. -1.
         11    1    3    3    0    0 -0.67123603262E+01 -0.27774053339E+02 -0.23528340818E+02  0.37014006024E+02  0.51100000000E-03 0. -1.
        -11    1    3    3    0    0 -0.25531174202E+01 -0.82790837386E+01  0.14894707516E+00  0.86650921290E+01  0.51100000000E-03 0.  1.
        -12    1    3    3    0    0  0.89408458475E+01  0.35847983445E+02  0.24495323565E+02  0.44328743701E+02  0.00000000000E+00 0.  1.
</event>
<event>
 7    1  0.2861488E-015  0.9000771E+02  0.7816164E-02  0.1186339E+00
        -11   -1    0    0    0    0  0.00000000000E+00  0.00000000000E+00  0.45593999997E+02  0.45594000000E+02  0.51100000000E-03 0. -1.
         11   -1    0    0    0    0 -0.00000000000E+00 -0.00000000000E+00 -0.45593999997E+02  0.45594000000E+02  0.51100000000E-03 0.  1.
    9900012    2    1    2    0    0 -0.94163667568E+00  0.14121400862E+00 -0.69746431104E+00  0.90007712963E+02  0.89999973974E+02 0.  0.
         12    1    1    2    0    0  0.94163667568E+00 -0.14121400862E+00  0.69746431104E+00  0.11802870373E+01  0.00000000000E+00 0. -1.
         11    1    3    3    0    0 -0.52817009207E+01  0.65362571067E+01  0.60530325828E+01  0.10356554702E+02  0.51100000000E-03 0. -1.
        -11    1    3    3    0    0 -0.81262430470E+01 -0.36117876142E+01 -0.41597218629E+02  0.42537153569E+02  0.51100000000E-03 0.  1.
         12    1    3    3    0    0  0.12466307292E+02 -0.27832554839E+01  0.34846721735E+02  0.37114004692E+02  0.00000000000E+00 0. -1.
</event>
<event>
 7    1  0.2682188E-015  0.9000817E+02  0.7816164E-02  0.1186338E+00
        -11   -1    0    0    0    0  0.00000000000E+00  0.00000000000E+00  0.45593999997E+02  0.45594000000E+02  0.51100000000E-03 0.  1.
         11   -1    0    0    0    0 -0.00000000000E+00 -0.00000000000E+00 -0.45593999997E+02  0.45594000000E+02  0.51100000000E-03 0. -1.
    9900012    2    1    2    0    0 -0.90462511006E+00  0.69669792042E-02  0.75735906785E+00  0.90008174637E+02  0.90000441742E+02 0.  0.
         12    1    1    2    0    0  0.90462511006E+00 -0.69669792042E-02 -0.75735906785E+00  0.11798253626E+01  0.00000000000E+00 0. -1.
         11    1    3    3    0    0  0.55357310966E+01 -0.29417320251E+02 -0.31399972437E+02  0.43381808617E+02  0.51100000000E-03 0. -1.
        -11    1    3    3    0    0  0.47151382005E+01  0.65604412547E+01  0.54733666104E+01  0.97585685435E+01  0.51100000000E-03 0.  1.
        -12    1    3    3    0    0 -0.11155494407E+02  0.22863845976E+02  0.26683964895E+02  0.36867797477E+02  0.00000000000E+00 0.  1.
</event>
<event>
 7    1  0.2682188E-015  0.9000801E+02  0.7816164E-02  0.1186339E+00
        -11   -1    0    0    0    0  0.00000000000E+00  0.00000000000E+00  0.45593999997E+02  0.45594000000E+02  0.51100000000E-03 0. -1.
         11   -1    0    0    0    0 -0.00000000000E+00 -0.00000000000E+00 -0.45593999997E+02  0.45594000000E+02  0.51100000000E-03 0.  1.
    9900012    2    1    2    0    0  0.87631973449E+00 -0.72260670290E+00 -0.31981461727E+00  0.90008009274E+02  0.90000274196E+02 0.  0.
         12    1    1    2    0    0 -0.87631973449E+00  0.72260670290E+00  0.31981461727E+00  0.11799907260E+01  0.00000000000E+00 0. -1.
         11    1    3    3    0    0 -0.27644998101E+02 -0.30312760076E+02 -0.53638149895E+00  0.41029221889E+02  0.51100000000E-03 0. -1.
        -11    1    3    3    0    0 -0.14972528207E+01 -0.69141328508E-01 -0.61248578116E+01  0.63055872055E+01  0.51100000000E-03 0.  1.
        -12    1    3    3    0    0  0.30018570656E+02  0.29659294702E+02  0.63414246933E+01  0.42673200180E+02  0.00000000000E+00 0.  1.
</event>
<event>
 7    1  0.2682188E-015  0.9000777E+02  0.7816164E-02  0.1186339E+00
        -11   -1    0    0    0    0  0.00000000000E+00  0.00000000000E+00  0.45593999997E+02  0.45594000000E+02  0.51100000000E-03 0.  1.
         11   -1    0    0    0    0 -0.00000000000E+00 -0.00000000000E+00 -0.45593999997E+02  0.45594000000E+02  0.51100000000E-03 0. -1.
    9900012    2    1    2    0    0 -0.10699452017E+01  0.43891752099E+00  0.23561760143E+00  0.90007768252E+02  0.90000029993E+02 0.  0.
         12    1    1    2    0    0  0.10699452017E+01 -0.43891752099E+00 -0.23561760143E+00  0.11802317480E+01  0.00000000000E+00 0. -1.
         11    1    3    3    0    0  0.36551123631E+01  0.23262793985E+01 -0.92709247952E+01  0.10233350822E+02  0.51100000000E-03 0. -1.
        -11    1    3    3    0    0  0.33625325917E+02  0.12082009356E+02  0.14688384830E+02  0.38631413931E+02  0.51100000000E-03 0.  1.
         12    1    3    3    0    0 -0.38350383482E+02 -0.13969371234E+02 -0.51818424337E+01  0.41143003499E+02  0.00000000000E+00 0. -1.
</event>
<event>
 7    1  0.2682188E-015  0.9000775E+02  0.7816164E-02  0.1186339E+00
        -11   -1    0    0    0    0  0.00000000000E+00  0.00000000000E+00  0.45593999997E+02  0.45594000000E+02  0.51100000000E-03 0.  1.
         11   -1    0    0    0    0 -0.00000000000E+00 -0.00000000000E+00 -0.45593999997E+02  0.45594000000E+02  0.51100000000E-03 0. -1.
    9900012    2    1    2    0    0 -0.80808515086E+00 -0.73540310910E+00 -0.44629186726E+00  0.90007747580E+02  0.90000009048E+02 0.  0.
         12    1    1    2    0    0  0.80808515086E+00  0.73540310910E+00  0.44629186726E+00  0.11802524199E+01  0.00000000000E+00 0. -1.
         11    1    3    3    0    0  0.43641465968E+01  0.31523355350E+02 -0.64929243537E+01  0.32479620917E+02  0.51100000000E-03 0. -1.
        -11    1    3    3    0    0  0.58011272337E+01  0.10203649206E+02  0.69889107579E+01  0.13660615218E+02  0.51100000000E-03 0.  1.
        -12    1    3    3    0    0 -0.10973358981E+02 -0.42462407664E+02 -0.94227827148E+00  0.43867511445E+02  0.00000000000E+00 0.  1.
</event>
<event>
 7    1  0.2682188E-015  0.9000790E+02  0.7816164E-02  0.1186339E+00
        -11   -1    0    0    0    0  0.00000000000E+00  0.00000000000E+00  0.45593999997E+02  0.45594000000E+02  0.51100000000E-03 0.  1.
         11   -1    0    0    0    0 -0.00000000000E+00 -0.00000000000E+00 -0.45593999997E+02  0.45594000000E+02  0.51100000000E-03 0. -1.
    9900012    2    1    2    0    0  0.20330662737E+00  0.11225367659E+00  0.11570211699E+01  0.90007901504E+02  0.90000165004E+02 0.  0.
         12    1    1    2    0    0 -0.20330662737E+00 -0.11225367659E+00 -0.11570211699E+01  0.11800984960E+01  0.00000000000E+00 0. -1.
         11    1    3    3    0    0 -0.59023389931E+01  0.33770498759E+01 -0.48843185259E+01  0.83724930085E+01  0.51100000000E-03 0. -1.
        -11    1    3    3    0    0 -0.20920211825E+02 -0.33738283443E+02 -0.33386895733E+01  0.39838095848E+02  0.51100000000E-03 0.  1.
         12    1    3    3    0    0  0.27025857445E+02  0.30473487244E+02  0.93800292691E+01  0.41797312647E+02  0.00000000000E+00 0. -1.
</event>
<event>
 7    1  0.2682188E-015  0.9000769E+02  0.7816164E-02  0.1186339E+00
        -11   -1    0    0    0    0  0.00000000000E+00  0.00000000000E+00  0.45593999997E+02  0.45594000000E+02  0.51100000000E-03 0.  1.
         11   -1    0    0    0    0 -0.00000000000E+00 -0.00000000000E+00 -0.45593999997E+02  0.45594000000E+02  0.51100000000E-03 0. -1.
    9900012    2    1    2    0    0  0.80224674753E+00  0.77214789690E+00  0.39154732324E+00  0.90007694309E+02  0.89999955074E+02 0.  0.
         12    1    1    2    0    0 -0.80224674753E+00 -0.77214789690E+00 -0.39154732324E+00  0.11803056913E+01  0.00000000000E+00 0. -1.
         11    1    3    3    0    0 -0.18082132745E+02 -0.29478572370E+02 -0.12744791750E+02  0.36856199893E+02  0.51100000000E-03 0. -1.
        -11    1    3    3    0    0 -0.46420472666E+01 -0.24304361877E+01 -0.65011730463E+01  0.83499026418E+01  0.51100000000E-03 0.  1.
        -12    1    3    3    0    0  0.23526426759E+02  0.32681156454E+02  0.19637512119E+02  0.44801591774E+02  0.00000000000E+00 0.  1.
</event>
<event>
 7    1  0.2682188E-015  0.9000772E+02  0.7816164E-02  0.1186339E+00
        -11   -1    0    0    0    0  0.00000000000E+00  0.00000000000E+00  0.45593999997E+02  0.45594000000E+02  0.51100000000E-03 0.  1.
         11   -1    0    0    0    0 -0.00000000000E+00 -0.00000000000E+00 -0.45593999997E+02  0.45594000000E+02  0.51100000000E-03 0. -1.
    9900012    2    1    2    0    0 -0.26605159170E+00  0.37044013116E+00  0.10886016500E+01  0.90007719147E+02  0.89999980239E+02 0.  0.
         12    1    1    2    0    0  0.26605159170E+00 -0.37044013116E+00 -0.10886016500E+01  0.11802808533E+01  0.00000000000E+00 0. -1.
         11    1    3    3    0    0 -0.61943862644E+01  0.67579548526E+01 -0.36981537619E+01  0.98851766039E+01  0.51100000000E-03 0. -1.
        -11    1    3    3    0    0  0.40769829540E+00 -0.23469800719E+02  0.36665988156E+02  0.43536105148E+02  0.51100000000E-03 0.  1.
         12    1    3    3    0    0  0.55206363773E+01  0.17082285998E+02 -0.31879232744E+02  0.36586437395E+02  0.00000000000E+00 0. -1.
</event>
<event>
 7    1  0.2947795E-015  0.9000781E+02  0.7816164E-02  0.1186339E+00
        -11   -1    0    0    0    0  0.00000000000E+00  0.00000000000E+00  0.45593999997E+02  0.45594000000E+02  0.51100000000E-03 0. -1.
         11   -1    0    0    0    0 -0.00000000000E+00 -0.00000000000E+00 -0.45593999997E+02  0.45594000000E+02  0.51100000000E-03 0.  1.
    9900012    2    1    2    0    0  0.71481963133E+00  0.45252323069E+00 -0.82285918250E+00  0.90007812890E+02  0.90000075220E+02 0.  0.
         12    1    1    2    0    0 -0.71481963133E+00 -0.45252323069E+00  0.82285918250E+00  0.11801871097E+01  0.00000000000E+00 0. -1.
         11    1    3    3    0    0 -0.72950657734E+01  0.41185264739E+01  0.40352415115E+01  0.92985708188E+01  0.51100000000E-03 0. -1.
        -11    1    3    3    0    0 -0.21419270749E+02  0.29339962704E+02 -0.13993113427E+01  0.36353495614E+02  0.51100000000E-03 0.  1.
         12    1    3    3    0    0  0.29429156154E+02 -0.33005965947E+02 -0.34587893513E+01  0.44355746457E+02  0.00000000000E+00 0. -1.
</event>
<event>
 7    1  0.2682188E-015  0.9000770E+02  0.7816164E-02  0.1186339E+00
        -11   -1    0    0    0    0  0.00000000000E+00  0.00000000000E+00  0.45593999997E+02  0.45594000000E+02  0.51100000000E-03 0.  1.
         11   -1    0    0    0    0 -0.00000000000E+00 -0.00000000000E+00 -0.45593999997E+02  0.45594000000E+02  0.51100000000E-03 0. -1.
    9900012    2    1    2    0    0 -0.10853303492E+01 -0.46077081558E+00 -0.53498054625E-01  0.90007697601E+02  0.89999958409E+02 0.  0.
         12    1    1    2    0    0  0.10853303492E+01  0.46077081558E+00  0.53498054625E-01  0.11803023991E+01  0.00000000000E+00 0. -1.
         11    1    3    3    0    0 -0.25102508765E+01  0.82011979616E+01 -0.32980692825E+02  0.34077662874E+02  0.51100000000E-03 0. -1.
        -11    1    3    3    0    0  0.76712698638E+01  0.56569646753E+01 -0.77956867615E+01  0.12313503279E+02  0.51100000000E-03 0.  1.
        -12    1    3    3    0    0 -0.62463493366E+01 -0.14318933452E+02  0.40722881532E+02  0.43616531448E+02  0.00000000000E+00 0.  1.
</event>
<event>
 7    1  0.2682188E-015  0.9000770E+02  0.7816164E-02  0.1186339E+00
        -11   -1    0    0    0    0  0.00000000000E+00  0.00000000000E+00  0.45593999997E+02  0.45594000000E+02  0.51100000000E-03 0. -1.
         11   -1    0    0    0    0 -0.00000000000E+00 -0.00000000000E+00 -0.45593999997E+02  0.45594000000E+02  0.51100000000E-03 0.  1.
    9900012    2    1    2    0    0  0.56499122453E+00 -0.10230994456E+01  0.16478186382E+00  0.90007703164E+02  0.89999964045E+02 0.  0.
         12    1    1    2    0    0 -0.56499122453E+00  0.10230994456E+01 -0.16478186382E+00  0.11802968364E+01  0.00000000000E+00 0. -1.
         11    1    3    3    0    0  0.94877930750E+01  0.42494837512E+01 -0.49161210876E+01  0.11499764189E+02  0.51100000000E-03 0. -1.
        -11    1    3    3    0    0 -0.24448105379E+02 -0.13400664108E+02 -0.28973640752E+02  0.40208948181E+02  0.51100000000E-03 0.  1.
         12    1    3    3    0    0  0.15525303528E+02  0.81280809110E+01  0.34054543704E+02  0.38298990794E+02  0.00000000000E+00 0. -1.
</event>
<event>
 7    1  0.2682188E-015  0.9000774E+02  0.7816164E-02  0.1186339E+00
        -11   -1    0    0    0    0  0.00000000000E+00  0.00000000000E+00  0.45593999997E+02  0.45594000000E+02  0.51100000000E-03 0. -1.
         11   -1    0    0    0    0 -0.00000000000E+00 -0.00000000000E+00 -0.45593999997E+02  0.45594000000E+02  0.51100000000E-03 0.  1.
    9900012    2    1    2    0    0  0.69786056524E+00 -0.27972678289E+00 -0.90980571509E+00  0.90007744570E+02  0.90000005998E+02 0.  0.
         12    1    1    2    0    0 -0.69786056524E+00  0.27972678289E+00  0.90980571509E+00  0.11802554303E+01  0.00000000000E+00 0. -1.
         11    1    3    3    0    0 -0.80457456076E+01  0.28685212755E+01  0.16990246905E+01  0.87091401327E+01  0.51100000000E-03 0. -1.
        -11    1    3    3    0    0 -0.12992364864E+02 -0.90844959198E+01 -0.36960281144E+02  0.40216812322E+02  0.51100000000E-03 0.  1.
         12    1    3    3    0    0  0.21735971037E+02  0.59362478613E+01  0.34351450738E+02  0.41081792115E+02  0.00000000000E+00 0. -1.
</event>
<event>
 7    1  0.2682188E-015  0.9000784E+02  0.7816164E-02  0.1186339E+00
        -11   -1    0    0    0    0  0.00000000000E+00  0.00000000000E+00  0.45593999997E+02  0.45594000000E+02  0.51100000000E-03 0.  1.
         11   -1    0    0    0    0 -0.00000000000E+00 -0.00000000000E+00 -0.45593999997E+02  0.45594000000E+02  0.51100000000E-03 0. -1.
    9900012    2    1    2    0    0 -0.58421696693E+00 -0.76759435322E+00  0.67990651744E+00  0.90007837542E+02  0.90000100197E+02 0.  0.
         12    1    1    2    0    0  0.58421696693E+00  0.76759435322E+00 -0.67990651744E+00  0.11801624583E+01  0.00000000000E+00 0. -1.
         11    1    3    3    0    0  0.15945259866E+02  0.57770112215E+01  0.37590286191E+02  0.41238995950E+02  0.51100000000E-03 0. -1.
        -11    1    3    3    0    0 -0.12763105833E+00  0.82094334321E+01 -0.39613912102E+01  0.91161234933E+01  0.51100000000E-03 0.  1.
        -12    1    3    3    0    0 -0.16401845774E+02 -0.14754039007E+02 -0.32948988463E+02  0.39652718098E+02  0.00000000000E+00 0.  1.
</event>
<event>
 7    1  0.2682188E-015  0.9000762E+02  0.7816164E-02  0.1186339E+00
        -11   -1    0    0    0    0  0.00000000000E+00  0.00000000000E+00  0.45593999997E+02  0.45594000000E+02  0.51100000000E-03 0. -1.
         11   -1    0    0    0    0 -0.00000000000E+00 -0.00000000000E+00 -0.45593999997E+02  0.45594000000E+02  0.51100000000E-03 0.  1.
    9900012    2    1    2    0    0  0.68431981159E+00  0.50130138387E+00 -0.82078720388E+00  0.90007623655E+02  0.89999883487E+02 0.  0.
         12    1    1    2    0    0 -0.68431981159E+00 -0.50130138387E+00  0.82078720388E+00  0.11803763451E+01  0.00000000000E+00 0. -1.
         11    1    3    3    0    0  0.10755721561E+02  0.15762808790E+02  0.30717232532E+02  0.36162135749E+02  0.51100000000E-03 0. -1.
        -11    1    3    3    0    0 -0.72068872964E+01  0.48827636595E+01  0.63938721736E+01  0.10801028057E+02  0.51100000000E-03 0.  1.
        -12    1    3    3    0    0 -0.28645144526E+01 -0.20144271065E+02 -0.37931891910E+02  0.43044459849E+02  0.00000000000E+00 0.  1.
</event>
<event>
 7    1  0.2682188E-015  0.9000754E+02  0.7816164E-02  0.1186339E+00
        -11   -1    0    0    0    0  0.00000000000E+00  0.00000000000E+00  0.45593999997E+02  0.45594000000E+02  0.51100000000E-03 0. -1.
         11   -1    0    0    0    0 -0.00000000000E+00 -0.00000000000E+00 -0.45593999997E+02  0.45594000000E+02  0.51100000000E-03 0.  1.
    9900012    2    1    2    0    0  0.93447036323E-01  0.85533054772E+00  0.80818796090E+00  0.90007538025E+02  0.89999796727E+02 0.  0.
         12    1    1    2    0    0 -0.93447036323E-01 -0.85533054772E+00 -0.80818796090E+00  0.11804619751E+01  0.00000000000E+00 0. -1.
         11    1    3    3    0    0 -0.37022994721E+01  0.81074916773E+01  0.21019846194E+01  0.91573348895E+01  0.51100000000E-03 0. -1.
        -11    1    3    3    0    0  0.15235637700E+02  0.31653021635E+02 -0.14783895950E+02  0.38113016339E+02  0.51100000000E-03 0.  1.
         12    1    3    3    0    0 -0.11439891191E+02 -0.38905182764E+02  0.13490099292E+02  0.42737186797E+02  0.00000000000E+00 0. -1.
</event>
<event>
 7    1  0.2682188E-015  0.9000777E+02  0.7816164E-02  0.1186339E+00
        -11   -1    0    0    0    0  0.00000000000E+00  0.00000000000E+00  0.45593999997E+02  0.45594000000E+02  0.51100000000E-03 0. -1.
         11   -1    0    0    0    0 -0.00000000000E+00 -0.00000000000E+00 -0.45593999997E+02  0.45594000000E+02  0.51100000000E-03 0.  1.
    9900012    2    1    2    0    0  0.40838332378E+00 -0.10832806979E+01 -0.22949553464E+00  0.90007770272E+02  0.90000032040E+02 0.  0.
         12    1    1    2    0    0 -0.40838332378E+00  0.10832806979E+01  0.22949553464E+00  0.11802297276E+01  0.00000000000E+00 0. -1.
         11    1    3    3    0    0  0.35176528523E+01  0.18669452004E+02  0.32577808118E+02  0.37712543030E+02  0.51100000000E-03 0. -1.
        -11    1    3    3    0    0 -0.84305373116E+00  0.88745865618E+01 -0.29899744513E+00  0.89195530140E+01  0.51100000000E-03 0.  1.
        -12    1    3    3    0    0 -0.22662157974E+01 -0.28627319264E+02 -0.32508306208E+02  0.43375674228E+02  0.00000000000E+00 0.  1.
</event>
<event>
 7    1  0.2682188E-015  0.9000771E+02  0.7816164E-02  0.1186339E+00
        -11   -1    0    0    0    0  0.00000000000E+00  0.00000000000E+00  0.45593999997E+02  0.45594000000E+02  0.51100000000E-03 0.  1.
         11   -1    0    0    0    0 -0.00000000000E+00 -0.00000000000E+00 -0.45593999997E+02  0.45594000000E+02  0.51100000000E-03 0. -1.
    9900012    2    1    2    0    0 -0.71169885578E+00  0.91228381997E+00  0.23303613203E+00  0.90007710684E+02  0.89999971666E+02 0.  0.
         12    1    1    2    0    0  0.71169885578E+00 -0.91228381997E+00 -0.23303613203E+00  0.11802893155E+01  0.00000000000E+00 0. -1.
         11    1    3    3    0    0 -0.28905700929E+02 -0.11297858990E+02 -0.21371665021E+02  0.37681948330E+02  0.51100000000E-03 0. -1.
        -11    1    3    3    0    0 -0.66893121510E+01  0.73307218813E+01 -0.17312219601E+01  0.10073902426E+02  0.51100000000E-03 0.  1.
        -12    1    3    3    0    0  0.34883314224E+02  0.48794209283E+01  0.23335923113E+02  0.42251859928E+02  0.00000000000E+00 0.  1.
</event>
<event>
 7    1  0.2682188E-015  0.9000757E+02  0.7816164E-02  0.1186339E+00
        -11   -1    0    0    0    0  0.00000000000E+00  0.00000000000E+00  0.45593999997E+02  0.45594000000E+02  0.51100000000E-03 0.  1.
         11   -1    0    0    0    0 -0.00000000000E+00 -0.00000000000E+00 -0.45593999997E+02  0.45594000000E+02  0.51100000000E-03 0. -1.
    9900012    2    1    2    0    0  0.83562252791E+00  0.24936636310E+00  0.79559694858E+00  0.90007566564E+02  0.89999825642E+02 0.  0.
         12    1    1    2    0    0 -0.83562252791E+00 -0.24936636310E+00 -0.79559694858E+00  0.11804334360E+01  0.00000000000E+00 0. -1.
         11    1    3    3    0    0 -0.35495206284E+01  0.26340757115E+00  0.11480471172E+02  0.12019554852E+02  0.51100000000E-03 0. -1.
        -11    1    3    3    0    0 -0.33310287923E+02  0.60140600378E+01  0.90170847651E+01  0.35029302271E+02  0.51100000000E-03 0.  1.
         12    1    3    3    0    0  0.37695431079E+02 -0.60281012459E+01 -0.19701958989E+02  0.42958709441E+02  0.00000000000E+00 0. -1.
</event>
<event>
 7    1  0.2682188E-015  0.9000772E+02  0.7816164E-02  0.1186339E+00
        -11   -1    0    0    0    0  0.00000000000E+00  0.00000000000E+00  0.45593999997E+02  0.45594000000E+02  0.51100000000E-03 0.  1.
         11   -1    0    0    0    0 -0.00000000000E+00 -0.00000000000E+00 -0.45593999997E+02  0.45594000000E+02  0.51100000000E-03 0. -1.
    9900012    2    1    2    0    0  0.66978002545E+00 -0.15910507364E+00  0.95871651766E+00  0.90007721614E+02  0.89999982739E+02 0.  0.
         12    1    1    2    0    0 -0.66978002545E+00  0.15910507364E+00 -0.95871651766E+00  0.11802783859E+01  0.00000000000E+00 0. -1.
         11    1    3    3    0    0 -0.32468952735E+01  0.21680676126E+02  0.33868245157E+02  0.40344170291E+02  0.51100000000E-03 0. -1.
        -11    1    3    3    0    0  0.56982420941E+01 -0.25458520470E+01  0.43908048256E+01  0.76308907007E+01  0.51100000000E-03 0.  1.
        -12    1    3    3    0    0 -0.17815667952E+01 -0.19293929153E+02 -0.37300333465E+02  0.42032660622E+02  0.00000000000E+00 0.  1.
</event>
<event>
 7    1  0.2682188E-015  0.9000789E+02  0.7816164E-02  0.1186339E+00
        -11   -1    0    0    0    0  0.00000000000E+00  0.00000000000E+00  0.45593999997E+02  0.45594000000E+02  0.51100000000E-03 0.  1.
         11   -1    0    0    0    0 -0.00000000000E+00 -0.00000000000E+00 -0.45593999997E+02  0.45594000000E+02  0.51100000000E-03 0. -1.
    9900012    2    1    2    0    0 -0.15857441624E+00 -0.11142159161E+01 -0.35502589245E+00  0.90007887151E+02  0.90000150461E+02 0.  0.
         12    1    1    2    0    0  0.15857441624E+00  0.11142159161E+01  0.35502589245E+00  0.11801128495E+01  0.00000000000E+00 0. -1.
         11    1    3    3    0    0  0.19219719274E+02  0.32023642165E+02 -0.89098248072E+01  0.38396565534E+02  0.51100000000E-03 0. -1.
        -11    1    3    3    0    0  0.73460273204E+01  0.83272277276E+00  0.32088166615E+01  0.80594074991E+01  0.51100000000E-03 0.  1.
        -12    1    3    3    0    0 -0.26724321010E+02 -0.33970580854E+02  0.53459822533E+01  0.43551914117E+02  0.00000000000E+00 0.  1.
</event>
<event>
 7    1  0.2682188E-015  0.9000777E+02  0.7816164E-02  0.1186339E+00
        -11   -1    0    0    0    0  0.00000000000E+00  0.00000000000E+00  0.45593999997E+02  0.45594000000E+02  0.51100000000E-03 0.  1.
         11   -1    0    0    0    0 -0.00000000000E+00 -0.00000000000E+00 -0.45593999997E+02  0.45594000000E+02  0.51100000000E-03 0. -1.
    9900012    2    1    2    0    0  0.30116889770E+00  0.74518642475E+00  0.86425944492E+00  0.90007767014E+02  0.90000028739E+02 0.  0.
         12    1    1    2    0    0 -0.30116889770E+00 -0.74518642475E+00 -0.86425944492E+00  0.11802329858E+01  0.00000000000E+00 0. -1.
         11    1    3    3    0    0  0.41918500236E+01 -0.32638807737E+02 -0.20580642485E+02  0.38812706972E+02  0.51100000000E-03 0. -1.
        -11    1    3    3    0    0 -0.43610868687E+01  0.30159571921E+01 -0.75363056031E+01  0.92147153437E+01  0.51100000000E-03 0.  1.
        -12    1    3    3    0    0  0.47040574285E+00  0.30368036970E+02  0.28981207533E+02  0.41980344699E+02  0.00000000000E+00 0.  1.
</event>
<event>
 7    1  0.2682188E-015  0.9000767E+02  0.7816164E-02  0.1186339E+00
        -11   -1    0    0    0    0  0.00000000000E+00  0.00000000000E+00  0.45593999997E+02  0.45594000000E+02  0.51100000000E-03 0.  1.
         11   -1    0    0    0    0 -0.00000000000E+00 -0.00000000000E+00 -0.45593999997E+02  0.45594000000E+02  0.51100000000E-03 0. -1.
    9900012    2    1    2    0    0 -0.10416654595E+01  0.25665637630E+00  0.49217114202E+00  0.90007672987E+02  0.89999933470E+02 0.  0.
         12    1    1    2    0    0  0.10416654595E+01 -0.25665637630E+00 -0.49217114202E+00  0.11803270132E+01  0.00000000000E+00 0. -1.
         11    1    3    3    0    0 -0.42059332830E+01 -0.35580443777E+02 -0.11729538367E+02  0.37699335866E+02  0.51100000000E-03 0. -1.
        -11    1    3    3    0    0 -0.75512755480E+00 -0.60808569244E+01  0.78832134622E+01  0.99845927964E+01  0.51100000000E-03 0.  1.
        -12    1    3    3    0    0  0.39193953783E+01  0.41917957078E+02  0.43384960464E+01  0.42323744325E+02  0.00000000000E+00 0.  1.
</event>
<event>
 7    1  0.2736002E-015  0.9000770E+02  0.7816164E-02  0.1186339E+00
        -11   -1    0    0    0    0  0.00000000000E+00  0.00000000000E+00  0.45593999997E+02  0.45594000000E+02  0.51100000000E-03 0. -1.
         11   -1    0    0    0    0 -0.00000000000E+00 -0.00000000000E+00 -0.45593999997E+02  0.45594000000E+02  0.51100000000E-03 0.  1.
    9900012    2    1    2    0    0 -0.89761004354E+00  0.13188358375E+00 -0.75498513522E+00  0.90007703586E+02  0.89999964474E+02 0.  0.
         12    1    1    2    0    0  0.89761004354E+00 -0.13188358375E+00  0.75498513522E+00  0.11802964138E+01  0.00000000000E+00 0. -1.
         11    1    3    3    0    0  0.48291741137E+01  0.12187898324E+01 -0.72623035860E+01  0.88061015729E+01  0.51100000000E-03 0. -1.
        -11    1    3    3    0    0 -0.12022824808E+02 -0.14765006677E+02 -0.33456419234E+02  0.38495268888E+02  0.51100000000E-03 0.  1.
         12    1    3    3    0    0  0.62960406506E+01  0.13678100429E+02  0.39963737685E+02  0.42706333125E+02  0.00000000000E+00 0. -1.
</event>
<event>
 7    1  0.2682188E-015  0.9000777E+02  0.7816164E-02  0.1186339E+00
        -11   -1    0    0    0    0  0.00000000000E+00  0.00000000000E+00  0.45593999997E+02  0.45594000000E+02  0.51100000000E-03 0.  1.
         11   -1    0    0    0    0 -0.00000000000E+00 -0.00000000000E+00 -0.45593999997E+02  0.45594000000E+02  0.51100000000E-03 0. -1.
    9900012    2    1    2    0    0  0.33903463344E+00  0.27529193373E+00  0.10964557865E+01  0.90007768911E+02  0.90000030661E+02 0.  0.
         12    1    1    2    0    0 -0.33903463344E+00 -0.27529193373E+00 -0.10964557865E+01  0.11802310889E+01  0.00000000000E+00 0. -1.
         11    1    3    3    0    0  0.25538361874E+02  0.26044046386E+02 -0.13123015757E+02  0.38764852923E+02  0.51100000000E-03 0. -1.
        -11    1    3    3    0    0 -0.98655721334E+00  0.77803913110E+01  0.18232744055E+01  0.80518391630E+01  0.51100000000E-03 0.  1.
        -12    1    3    3    0    0 -0.24212770027E+02 -0.33549145763E+02  0.12396197138E+02  0.43191076825E+02  0.00000000000E+00 0.  1.
</event>
<event>
 7    1  0.2682188E-015  0.9000792E+02  0.7816164E-02  0.1186339E+00
        -11   -1    0    0    0    0  0.00000000000E+00  0.00000000000E+00  0.45593999997E+02  0.45594000000E+02  0.51100000000E-03 0. -1.
         11   -1    0    0    0    0 -0.00000000000E+00 -0.00000000000E+00 -0.45593999997E+02  0.45594000000E+02  0.51100000000E-03 0.  1.
    9900012    2    1    2    0    0 -0.82601598142E+00  0.35070441687E+00 -0.76635203839E+00  0.90007918886E+02  0.90000182615E+02 0.  0.
         12    1    1    2    0    0  0.82601598142E+00 -0.35070441687E+00  0.76635203839E+00  0.11800811143E+01  0.00000000000E+00 0. -1.
         11    1    3    3    0    0  0.36221032455E+02 -0.31454466249E+01 -0.60300642989E+01  0.36854018808E+02  0.51100000000E-03 0. -1.
        -11    1    3    3    0    0  0.75695020568E+01  0.27535827964E+01  0.25497449661E+01  0.84487146512E+01  0.51100000000E-03 0.  1.
        -12    1    3    3    0    0 -0.44616550493E+02  0.74256824538E+00  0.27139672944E+01  0.44705185426E+02  0.00000000000E+00 0.  1.
</event>
<event>
 7    1  0.2682188E-015  0.9000773E+02  0.7816164E-02  0.1186339E+00
        -11   -1    0    0    0    0  0.00000000000E+00  0.00000000000E+00  0.45593999997E+02  0.45594000000E+02  0.51100000000E-03 0.  1.
         11   -1    0    0    0    0 -0.00000000000E+00 -0.00000000000E+00 -0.45593999997E+02  0.45594000000E+02  0.51100000000E-03 0. -1.
    9900012    2    1    2    0    0  0.90915391525E+00  0.75203929948E+00 -0.30114876057E-01  0.90007732719E+02  0.89999993991E+02 0.  0.
         12    1    1    2    0    0 -0.90915391525E+00 -0.75203929948E+00  0.30114876057E-01  0.11802672813E+01  0.00000000000E+00 0. -1.
         11    1    3    3    0    0  0.15654000527E+01 -0.18524988014E+02  0.67473234268E+00  0.18603250314E+02  0.51100000000E-03 0. -1.
        -11    1    3    3    0    0  0.22162728073E+02  0.12253344721E+02  0.25510696566E+02  0.35946162689E+02  0.51100000000E-03 0.  1.
         12    1    3    3    0    0 -0.22818974210E+02  0.70236825923E+01 -0.26215543785E+02  0.35458319716E+02  0.00000000000E+00 0. -1.
</event>
<event>
 7    1  0.2682188E-015  0.9000802E+02  0.7816164E-02  0.1186338E+00
        -11   -1    0    0    0    0  0.00000000000E+00  0.00000000000E+00  0.45593999997E+02  0.45594000000E+02  0.51100000000E-03 0.  1.
         11   -1    0    0    0    0 -0.00000000000E+00 -0.00000000000E+00 -0.45593999997E+02  0.45594000000E+02  0.51100000000E-03 0. -1.
    9900012    2    1    2    0    0  0.12927359593E+00 -0.99738797981E+00  0.61713416597E+00  0.90008021600E+02  0.90000286685E+02 0.  0.
         12    1    1    2    0    0 -0.12927359593E+00  0.99738797981E+00 -0.61713416597E+00  0.11799783997E+01  0.00000000000E+00 0. -1.
         11    1    3    3    0    0  0.52651444029E+00  0.15198948283E+02 -0.35856272250E+02  0.38948138676E+02  0.51100000000E-03 0. -1.
        -11    1    3    3    0    0 -0.29593922325E+01 -0.84095712113E+01 -0.39952030178E+01  0.97693673162E+01  0.51100000000E-03 0.  1.
        -12    1    3    3    0    0  0.25621513881E+01 -0.77867650512E+01  0.40468609434E+02  0.41290515608E+02  0.00000000000E+00 0.  1.
</event>
<event>
 7    1  0.2682188E-015  0.9000777E+02  0.7816164E-02  0.1186339E+00
        -11   -1    0    0    0    0  0.00000000000E+00  0.00000000000E+00  0.45593999997E+02  0.45594000000E+02  0.51100000000E-03 0.  1.
         11   -1    0    0    0    0 -0.00000000000E+00 -0.00000000000E+00 -0.45593999997E+02  0.45594000000E+02  0.51100000000E-03 0. -1.
    9900012    2    1    2    0    0 -0.75363764403E+00  0.80440817472E+00  0.42178029125E+00  0.90007770859E+02  0.90000032635E+02 0.  0.
         12    1    1    2    0    0  0.75363764403E+00 -0.80440817472E+00 -0.42178029125E+00  0.11802291405E+01  0.00000000000E+00 0. -1.
         11    1    3    3    0    0 -0.37347499375E+01  0.46003798191E+01  0.63773208794E+01  0.87052899685E+01  0.51100000000E-03 0. -1.
        -11    1    3    3    0    0  0.39093797507E+01  0.85513424525E+01  0.36181784367E+02  0.37383555583E+02  0.51100000000E-03 0.  1.
         12    1    3    3    0    0 -0.92826745722E+00 -0.12347314097E+02 -0.42137324955E+02  0.43918925308E+02  0.00000000000E+00 0. -1.
</event>
<event>
 7    1  0.2682188E-015  0.9000774E+02  0.7816164E-02  0.1186339E+00
        -11   -1    0    0    0    0  0.00000000000E+00  0.00000000000E+00  0.45593999997E+02  0.45594000000E+02  0.51100000000E-03 0. -1.
         11   -1    0    0    0    0 -0.00000000000E+00 -0.00000000000E+00 -0.45593999997E+02  0.45594000000E+02  0.51100000000E-03 0.  1.
    9900012    2    1    2    0    0  0.12410085377E-01 -0.11614962601E+01 -0.20927024064E+00  0.90007736637E+02  0.89999997961E+02 0.  0.
         12    1    1    2    0    0 -0.12410085377E-01  0.11614962601E+01  0.20927024064E+00  0.11802633630E+01  0.00000000000E+00 0. -1.
         11    1    3    3    0    0 -0.64556749865E+01  0.10799469113E+02  0.70927314186E+01  0.14443376056E+02  0.51100000000E-03 0. -1.
        -11    1    3    3    0    0 -0.14767231774E+02  0.11842558713E+01  0.28377918190E+02  0.32012182639E+02  0.51100000000E-03 0.  1.
        -12    1    3    3    0    0  0.21235316846E+02 -0.13145221244E+02 -0.35679919849E+02  0.43552177943E+02  0.00000000000E+00 0.  1.
</event>
<event>
 7    1  0.2682188E-015  0.9000791E+02  0.7816164E-02  0.1186339E+00
        -11   -1    0    0    0    0  0.00000000000E+00  0.00000000000E+00  0.45593999997E+02  0.45594000000E+02  0.51100000000E-03 0.  1.
         11   -1    0    0    0    0 -0.00000000000E+00 -0.00000000000E+00 -0.45593999997E+02  0.45594000000E+02  0.51100000000E-03 0. -1.
    9900012    2    1    2    0    0 -0.30810730940E+00 -0.91291086093E+00 -0.68138656297E+00  0.90007905088E+02  0.90000168635E+02 0.  0.
         12    1    1    2    0    0  0.30810730940E+00  0.91291086093E+00  0.68138656297E+00  0.11800949124E+01  0.00000000000E+00 0. -1.
         11    1    3    3    0    0  0.17691814192E+02 -0.14788901520E+02 -0.14927681957E+02  0.27469029587E+02  0.51100000000E-03 0. -1.
        -11    1    3    3    0    0  0.19135528519E+02 -0.24160811468E+01 -0.75187646430E+00  0.19302103986E+02  0.51100000000E-03 0.  1.
        -12    1    3    3    0    0 -0.37135450020E+02  0.16292071806E+02  0.14998171858E+02  0.43236771515E+02  0.00000000000E+00 0.  1.
</event>
<event>
 7    1  0.2682188E-015  0.9000770E+02  0.7816164E-02  0.1186339E+00
        -11   -1    0    0    0    0  0.00000000000E+00  0.00000000000E+00  0.45593999997E+02  0.45594000000E+02  0.51100000000E-03 0. -1.
         11   -1    0    0    0    0 -0.00000000000E+00 -0.00000000000E+00 -0.45593999997E+02  0.45594000000E+02  0.51100000000E-03 0.  1.
    9900012    2    1    2    0    0  0.88526427401E+00 -0.76052469320E+00 -0.17612401669E+00  0.90007699058E+02  0.89999959886E+02 0.  0.
         12    1    1    2    0    0 -0.88526427401E+00  0.76052469320E+00  0.17612401669E+00  0.11803009417E+01  0.00000000000E+00 0. -1.
         11    1    3    3    0    0  0.10880686091E+02 -0.64403964821E+01  0.50181422866E+01  0.13603300663E+02  0.51100000000E-03 0. -1.
        -11    1    3    3    0    0 -0.16799454976E+02 -0.31932120287E+02  0.59985257445E+01  0.36576827430E+02  0.51100000000E-03 0.  1.
         12    1    3    3    0    0  0.68040331588E+01  0.37611992076E+02 -0.11192792048E+02  0.39827570965E+02  0.00000000000E+00 0. -1.
</event>
<event>
 7    1  0.2682188E-015  0.9000763E+02  0.7816164E-02  0.1186339E+00
        -11   -1    0    0    0    0  0.00000000000E+00  0.00000000000E+00  0.45593999997E+02  0.45594000000E+02  0.51100000000E-03 0. -1.
         11   -1    0    0    0    0 -0.00000000000E+00 -0.00000000000E+00 -0.45593999997E+02  0.45594000000E+02  0.51100000000E-03 0.  1.
    9900012    2    1    2    0    0 -0.12957541437E+00 -0.80386457263E+00 -0.85456712575E+00  0.90007630138E+02  0.89999890056E+02 0.  0.
         12    1    1    2    0    0  0.12957541437E+00  0.80386457263E+00  0.85456712575E+00  0.11803698622E+01  0.00000000000E+00 0. -1.
         11    1    3    3    0    0  0.32007440750E+02  0.11622673750E+02 -0.27882586800E+02  0.44011378703E+02  0.51100000000E-03 0. -1.
        -11    1    3    3    0    0 -0.89241520560E+01 -0.66901591758E+01  0.19079952613E+01  0.11315439271E+02  0.51100000000E-03 0.  1.
        -12    1    3    3    0    0 -0.23212864108E+02 -0.57363791469E+01  0.25120024413E+02  0.34680812164E+02  0.00000000000E+00 0.  1.
</event>
<event>
 7    1  0.2682188E-015  0.9000767E+02  0.7816164E-02  0.1186339E+00
        -11   -1    0    0    0    0  0.00000000000E+00  0.00000000000E+00  0.45593999997E+02  0.45594000000E+02  0.51100000000E-03 0.  1.
         11   -1    0    0    0    0 -0.00000000000E+00 -0.00000000000E+00 -0.45593999997E+02  0.45594000000E+02  0.51100000000E-03 0. -1.
    9900012    2    1    2    0    0  0.11413521339E+01  0.11329699860E+00  0.27869296606E+00  0.90007665017E+02  0.89999925395E+02 0.  0.
         12    1    1    2    0    0 -0.11413521339E+01 -0.11329699860E+00 -0.27869296606E+00  0.11803349833E+01  0.00000000000E+00 0. -1.
         11    1    3    3    0    0 -0.92893397905E+01  0.76569173379E+00  0.92985400724E+00  0.93671098163E+01  0.51100000000E-03 0. -1.
        -11    1    3    3    0    0 -0.77301133434E+01 -0.32600266320E+02  0.19462974815E+02  0.38747121252E+02  0.51100000000E-03 0.  1.
         12    1    3    3    0    0  0.18160805268E+02  0.31947871585E+02 -0.20114135856E+02  0.41893433948E+02  0.00000000000E+00 0. -1.
</event>
<event>
 7    1  0.2682188E-015  0.9000706E+02  0.7816164E-02  0.1186340E+00
        -11   -1    0    0    0    0  0.00000000000E+00  0.00000000000E+00  0.45593999997E+02  0.45594000000E+02  0.51100000000E-03 0. -1.
         11   -1    0    0    0    0 -0.00000000000E+00 -0.00000000000E+00 -0.45593999997E+02  0.45594000000E+02  0.51100000000E-03 0.  1.
    9900012    2    1    2    0    0  0.95038887832E+00 -0.70095553435E+00 -0.61251981644E-02  0.90007061729E+02  0.89999314142E+02 0.  0.
         12    1    1    2    0    0 -0.95038887832E+00  0.70095553435E+00  0.61251981644E-02  0.11809382707E+01  0.00000000000E+00 0. -1.
         11    1    3    3    0    0 -0.99769822961E+01  0.27774198743E+02  0.28833475244E+02  0.41259127311E+02  0.51100000000E-03 0. -1.
        -11    1    3    3    0    0 -0.64459187679E+01 -0.95641530409E+01 -0.21911150674E+01  0.11739841466E+02  0.51100000000E-03 0.  1.
        -12    1    3    3    0    0  0.17373289942E+02 -0.18911001237E+02 -0.26648485374E+02  0.37008092952E+02  0.00000000000E+00 0.  1.
</event>
<event>
 7    1  0.2682188E-015  0.9000775E+02  0.7816164E-02  0.1186339E+00
        -11   -1    0    0    0    0  0.00000000000E+00  0.00000000000E+00  0.45593999997E+02  0.45594000000E+02  0.51100000000E-03 0. -1.
         11   -1    0    0    0    0 -0.00000000000E+00 -0.00000000000E+00 -0.45593999997E+02  0.45594000000E+02  0.51100000000E-03 0.  1.
    9900012    2    1    2    0    0 -0.92341410241E+00 -0.60674360321E+00 -0.41492690154E+00  0.90007747596E+02  0.90000009064E+02 0.  0.
         12    1    1    2    0    0  0.92341410241E+00  0.60674360321E+00  0.41492690154E+00  0.11802524044E+01  0.00000000000E+00 0. -1.
         11    1    3    3    0    0  0.11046788148E+02  0.30356794455E+02  0.24150509485E+02  0.40333777490E+02  0.51100000000E-03 0. -1.
        -11    1    3    3    0    0 -0.81940440808E+01  0.27295058438E+01 -0.86383030683E+01  0.12215270800E+02  0.51100000000E-03 0.  1.
        -12    1    3    3    0    0 -0.37761581700E+01 -0.33693043902E+02 -0.15927133319E+02  0.37458699305E+02  0.00000000000E+00 0.  1.
</event>
<event>
 7    1  0.2682188E-015  0.9000774E+02  0.7816164E-02  0.1186339E+00
        -11   -1    0    0    0    0  0.00000000000E+00  0.00000000000E+00  0.45593999997E+02  0.45594000000E+02  0.51100000000E-03 0.  1.
         11   -1    0    0    0    0 -0.00000000000E+00 -0.00000000000E+00 -0.45593999997E+02  0.45594000000E+02  0.51100000000E-03 0. -1.
    9900012    2    1    2    0    0  0.11354490911E+01 -0.13883714966E+00  0.29066085896E+00  0.90007744042E+02  0.90000005463E+02 0.  0.
         12    1    1    2    0    0 -0.11354490911E+01  0.13883714966E+00 -0.29066085896E+00  0.11802559585E+01  0.00000000000E+00 0. -1.
         11    1    3    3    0    0  0.39107342131E+02 -0.15891085548E+02  0.76730793785E+00  0.42219658575E+02  0.51100000000E-03 0. -1.
        -11    1    3    3    0    0 -0.38524825815E+01 -0.56292924546E+01 -0.29822993107E+01  0.74447743431E+01  0.51100000000E-03 0.  1.
        -12    1    3    3    0    0 -0.34119410459E+02  0.21381540853E+02  0.25056522318E+01  0.40343311123E+02  0.00000000000E+00 0.  1.
</event>
<event>
 7    1  0.2682188E-015  0.9000779E+02  0.7816164E-02  0.1186339E+00
        -11   -1    0    0    0    0  0.00000000000E+00  0.00000000000E+00  0.45593999997E+02  0.45594000000E+02  0.51100000000E-03 0.  1.
         11   -1    0    0    0    0 -0.00000000000E+00 -0.00000000000E+00 -0.45593999997E+02  0.45594000000E+02  0.51100000000E-03 0. -1.
    9900012    2    1    2    0    0 -0.67511074393E+00 -0.92114144964E+00  0.29770351825E+00  0.90007786684E+02  0.90000048668E+02 0.  0.
         12    1    1    2    0    0  0.67511074393E+00  0.92114144964E+00 -0.29770351825E+00  0.11802133161E+01  0.00000000000E+00 0. -1.
         11    1    3    3    0    0 -0.73698892846E+01 -0.67995211436E+01  0.19734635791E+01  0.10219751201E+02  0.51100000000E-03 0. -1.
        -11    1    3    3    0    0 -0.30827194820E+01  0.36878324704E+02 -0.20418554561E+02  0.42266196457E+02  0.51100000000E-03 0.  1.
         12    1    3    3    0    0  0.97774980226E+01 -0.30999945010E+02  0.18742794500E+02  0.37521839026E+02  0.00000000000E+00 0. -1.
</event>
<event>
 7    1  0.2682188E-015  0.9000786E+02  0.7816164E-02  0.1186339E+00
        -11   -1    0    0    0    0  0.00000000000E+00  0.00000000000E+00  0.45593999997E+02  0.45594000000E+02  0.51100000000E-03 0. -1.
         11   -1    0    0    0    0 -0.00000000000E+00 -0.00000000000E+00 -0.45593999997E+02  0.45594000000E+02  0.51100000000E-03 0.  1.
    9900012    2    1    2    0    0  0.10898848215E+01 -0.22930559380E-01 -0.45205547908E+00  0.90007860648E+02  0.90000123608E+02 0.  0.
         12    1    1    2    0    0 -0.10898848215E+01  0.22930559380E-01  0.45205547908E+00  0.11801393523E+01  0.00000000000E+00 0. -1.
         11    1    3    3    0    0 -0.99058567959E+01 -0.73651515293E-01  0.65302863268E+00  0.99276316442E+01  0.51100000000E-03 0. -1.
        -11    1    3    3    0    0 -0.30916968907E+02 -0.14498394745E+02  0.73145164617E+01  0.34922264645E+02  0.51100000000E-03 0.  1.
         12    1    3    3    0    0  0.41912710525E+02  0.14549115701E+02 -0.84196005735E+01  0.45157964359E+02  0.00000000000E+00 0. -1.
</event>
<event>
 7    1  0.2682188E-015  0.9000772E+02  0.7816164E-02  0.1186339E+00
        -11   -1    0    0    0    0  0.00000000000E+00  0.00000000000E+00  0.45593999997E+02  0.45594000000E+02  0.51100000000E-03 0.  1.
         11   -1    0    0    0    0 -0.00000000000E+00 -0.00000000000E+00 -0.45593999997E+02  0.45594000000E+02  0.51100000000E-03 0. -1.
    9900012    2    1    2    0    0  0.67712501160E-01  0.91441413358E+00  0.74318618825E+00  0.90007718720E+02  0.89999979807E+02 0.  0.
         12    1    1    2    0    0 -0.67712501160E-01 -0.91441413358E+00 -0.74318618825E+00  0.11802812804E+01  0.00000000000E+00 0. -1.
         11    1    3    3    0    0 -0.18108756603E+02  0.32554736033E+02 -0.26895820620E+01  0.37349320688E+02  0.51100000000E-03 0. -1.
        -11    1    3    3    0    0 -0.11328992809E+02 -0.37217789503E+01  0.93513922668E+00  0.11961279290E+02  0.51100000000E-03 0.  1.
        -12    1    3    3    0    0  0.29505461913E+02 -0.27918542949E+02  0.24976290236E+01  0.40697118742E+02  0.00000000000E+00 0.  1.
</event>
<event>
 7    1  0.2682188E-015  0.9000775E+02  0.7816164E-02  0.1186339E+00
        -11   -1    0    0    0    0  0.00000000000E+00  0.00000000000E+00  0.45593999997E+02  0.45594000000E+02  0.51100000000E-03 0.  1.
         11   -1    0    0    0    0 -0.00000000000E+00 -0.00000000000E+00 -0.45593999997E+02  0.45594000000E+02  0.51100000000E-03 0. -1.
    9900012    2    1    2    0    0  0.57011596245E+00 -0.10321006541E+01 -0.52268770816E-01  0.90007747487E+02  0.90000008953E+02 0.  0.
         12    1    1    2    0    0 -0.57011596245E+00  0.10321006541E+01  0.52268770816E-01  0.11802525134E+01  0.00000000000E+00 0. -1.
         11    1    3    3    0    0  0.51448456491E+01 -0.66556674001E+01 -0.60034585673E+01  0.10334837218E+02  0.51100000000E-03 0. -1.
        -11    1    3    3    0    0  0.32085753514E+02  0.16153230540E+02  0.17309011967E+02  0.39875109166E+02  0.51100000000E-03 0.  1.
         12    1    3    3    0    0 -0.36660483201E+02 -0.10529663794E+02 -0.11357822171E+02  0.39797801103E+02  0.00000000000E+00 0. -1.
</event>
<event>
 7    1  0.2682188E-015  0.9000871E+02  0.7816164E-02  0.1186337E+00
        -11   -1    0    0    0    0  0.00000000000E+00  0.00000000000E+00  0.45593999997E+02  0.45594000000E+02  0.51100000000E-03 0.  1.
         11   -1    0    0    0    0 -0.00000000000E+00 -0.00000000000E+00 -0.45593999997E+02  0.45594000000E+02  0.51100000000E-03 0. -1.
    9900012    2    1    2    0    0  0.76962364556E+00  0.37408251475E+00  0.81145308129E+00  0.90008714459E+02  0.90000988685E+02 0.  0.
         12    1    1    2    0    0 -0.76962364556E+00 -0.37408251475E+00 -0.81145308129E+00  0.11792855408E+01  0.00000000000E+00 0. -1.
         11    1    3    3    0    0  0.11992209959E+02 -0.24511201015E+02 -0.25755996366E+02  0.37523105202E+02  0.51100000000E-03 0. -1.
        -11    1    3    3    0    0  0.16485431972E+00  0.39372254053E+01 -0.89088325343E+01  0.97414689972E+01  0.51100000000E-03 0.  1.
        -12    1    3    3    0    0 -0.11387440633E+02  0.20948058125E+02  0.35476281981E+02  0.42744140260E+02  0.00000000000E+00 0.  1.
</event>
<event>
 7    1  0.2682188E-015  0.9000772E+02  0.7816164E-02  0.1186339E+00
        -11   -1    0    0    0    0  0.00000000000E+00  0.00000000000E+00  0.45593999997E+02  0.45594000000E+02  0.51100000000E-03 0. -1.
         11   -1    0    0    0    0 -0.00000000000E+00 -0.00000000000E+00 -0.45593999997E+02  0.45594000000E+02  0.51100000000E-03 0.  1.
    9900012    2    1    2    0    0  0.62981702859E+00  0.95051274258E+00 -0.30483899846E+00  0.90007715806E+02  0.89999976855E+02 0.  0.
         12    1    1    2    0    0 -0.62981702859E+00 -0.95051274258E+00  0.30483899846E+00  0.11802841939E+01  0.00000000000E+00 0. -1.
         11    1    3    3    0    0  0.35407433195E+01  0.21539044143E+02  0.27251675230E+02  0.34915914551E+02  0.51100000000E-03 0. -1.
        -11    1    3    3    0    0 -0.13826394912E+01  0.67476372278E+01  0.77792733051E+01  0.10390350982E+02  0.51100000000E-03 0.  1.
        -12    1    3    3    0    0 -0.15282867997E+01 -0.27336168629E+02 -0.35335787534E+02  0.44701450272E+02  0.00000000000E+00 0.  1.
</event>
<event>
 7    1  0.2682188E-015  0.9000770E+02  0.7816164E-02  0.1186339E+00
        -11   -1    0    0    0    0  0.00000000000E+00  0.00000000000E+00  0.45593999997E+02  0.45594000000E+02  0.51100000000E-03 0. -1.
         11   -1    0    0    0    0 -0.00000000000E+00 -0.00000000000E+00 -0.45593999997E+02  0.45594000000E+02  0.51100000000E-03 0.  1.
    9900012    2    1    2    0    0 -0.10763990658E+00 -0.33572265253E+00  0.11264104755E+01  0.90007704864E+02  0.89999965768E+02 0.  0.
         12    1    1    2    0    0  0.10763990658E+00  0.33572265253E+00 -0.11264104755E+01  0.11802951361E+01  0.00000000000E+00 0. -1.
         11    1    3    3    0    0  0.25420016130E+02 -0.23266194064E+02 -0.17644055756E+02  0.38714412175E+02  0.51100000000E-03 0. -1.
        -11    1    3    3    0    0  0.26437047097E+00 -0.71090991903E+01  0.70175146313E+01  0.99927321042E+01  0.51100000000E-03 0.  1.
        -12    1    3    3    0    0 -0.25792026508E+02  0.30039570601E+02  0.11752951600E+02  0.41300560585E+02  0.00000000000E+00 0.  1.
</event>
<event>
 7    1  0.2682188E-015  0.9000772E+02  0.7816164E-02  0.1186339E+00
        -11   -1    0    0    0    0  0.00000000000E+00  0.00000000000E+00  0.45593999997E+02  0.45594000000E+02  0.51100000000E-03 0. -1.
         11   -1    0    0    0    0 -0.00000000000E+00 -0.00000000000E+00 -0.45593999997E+02  0.45594000000E+02  0.51100000000E-03 0.  1.
    9900012    2    1    2    0    0  0.48601800290E+00 -0.70263064210E+00  0.81434348669E+00  0.90007720951E+02  0.89999982068E+02 0.  0.
         12    1    1    2    0    0 -0.48601800290E+00  0.70263064210E+00 -0.81434348669E+00  0.11802790486E+01  0.00000000000E+00 0. -1.
         11    1    3    3    0    0  0.21903996822E+02 -0.10448833099E+02 -0.17726411925E+02  0.30053100837E+02  0.51100000000E-03 0. -1.
        -11    1    3    3    0    0 -0.18925850978E+02  0.14880791605E+02 -0.13369136214E+02  0.27538329605E+02  0.51100000000E-03 0.  1.
         12    1    3    3    0    0 -0.24921278411E+01 -0.51345891480E+01  0.31909891625E+02  0.32416290510E+02  0.00000000000E+00 0. -1.
</event>
<event>
 7    1  0.2682188E-015  0.9000776E+02  0.7816164E-02  0.1186339E+00
        -11   -1    0    0    0    0  0.00000000000E+00  0.00000000000E+00  0.45593999997E+02  0.45594000000E+02  0.51100000000E-03 0.  1.
         11   -1    0    0    0    0 -0.00000000000E+00 -0.00000000000E+00 -0.45593999997E+02  0.45594000000E+02  0.51100000000E-03 0. -1.
    9900012    2    1    2    0    0  0.16490522663E+00  0.10282817216E+01  0.55534358250E+00  0.90007761241E+02  0.90000022890E+02 0.  0.
         12    1    1    2    0    0 -0.16490522663E+00 -0.10282817216E+01 -0.55534358250E+00  0.11802387586E+01  0.00000000000E+00 0. -1.
         11    1    3    3    0    0  0.22539118670E+02 -0.34158946935E+01 -0.32427269981E+02  0.39638466742E+02  0.51100000000E-03 0. -1.
        -11    1    3    3    0    0 -0.60087712913E+01  0.26466352687E+01 -0.54664833272E+01  0.85435619565E+01  0.51100000000E-03 0.  1.
        -12    1    3    3    0    0 -0.16365442152E+02  0.17975411464E+01  0.38449096891E+02  0.41825732543E+02  0.00000000000E+00 0.  1.
</event>
<event>
 7    1  0.2682188E-015  0.9000767E+02  0.7816164E-02  0.1186339E+00
        -11   -1    0    0    0    0  0.00000000000E+00  0.00000000000E+00  0.45593999997E+02  0.45594000000E+02  0.51100000000E-03 0. -1.
         11   -1    0    0    0    0 -0.00000000000E+00 -0.00000000000E+00 -0.45593999997E+02  0.45594000000E+02  0.51100000000E-03 0.  1.
    9900012    2    1    2    0    0  0.17936055377E+00 -0.11622079177E+01  0.10139978103E+00  0.90007669806E+02  0.89999930247E+02 0.  0.
         12    1    1    2    0    0 -0.17936055377E+00  0.11622079177E+01 -0.10139978103E+00  0.11803301944E+01  0.00000000000E+00 0. -1.
         11    1    3    3    0    0  0.62408577033E+01 -0.34325706860E+01 -0.54714028756E+01  0.89814862955E+01  0.51100000000E-03 0. -1.
        -11    1    3    3    0    0 -0.21633014845E+02 -0.34183104542E+02  0.82869241073E+01  0.41293402365E+02  0.51100000000E-03 0.  1.
         12    1    3    3    0    0  0.15571517696E+02  0.36453467310E+02 -0.27141214507E+01  0.39732781145E+02  0.00000000000E+00 0. -1.
</event>
<event>
 7    1  0.2682188E-015  0.9000781E+02  0.7816164E-02  0.1186339E+00
        -11   -1    0    0    0    0  0.00000000000E+00  0.00000000000E+00  0.45593999997E+02  0.45594000000E+02  0.51100000000E-03 0. -1.
         11   -1    0    0    0    0 -0.00000000000E+00 -0.00000000000E+00 -0.45593999997E+02  0.45594000000E+02  0.51100000000E-03 0.  1.
    9900012    2    1    2    0    0 -0.24970270693E+00 -0.11357651508E+01  0.20136081244E+00  0.90007805060E+02  0.90000067287E+02 0.  0.
         12    1    1    2    0    0  0.24970270693E+00  0.11357651508E+01 -0.20136081244E+00  0.11801949400E+01  0.00000000000E+00 0. -1.
         11    1    3    3    0    0 -0.19439361719E+02 -0.28297173402E+02  0.19346442213E+02  0.39406898294E+02  0.51100000000E-03 0. -1.
        -11    1    3    3    0    0 -0.72302029213E+01 -0.14007244021E+01 -0.61054958666E+01  0.95663442950E+01  0.51100000000E-03 0.  1.
        -12    1    3    3    0    0  0.26419861933E+02  0.28562132654E+02 -0.13039585534E+02  0.41034562471E+02  0.00000000000E+00 0.  1.
</event>
<event>
 7    1  0.2682188E-015  0.9000762E+02  0.7816164E-02  0.1186339E+00
        -11   -1    0    0    0    0  0.00000000000E+00  0.00000000000E+00  0.45593999997E+02  0.45594000000E+02  0.51100000000E-03 0. -1.
         11   -1    0    0    0    0 -0.00000000000E+00 -0.00000000000E+00 -0.45593999997E+02  0.45594000000E+02  0.51100000000E-03 0.  1.
    9900012    2    1    2    0    0  0.48866770888E+00 -0.55375135372E+00 -0.92079616963E+00  0.90007617741E+02  0.89999877495E+02 0.  0.
         12    1    1    2    0    0 -0.48866770888E+00  0.55375135372E+00  0.92079616963E+00  0.11803822590E+01  0.00000000000E+00 0. -1.
         11    1    3    3    0    0  0.16695441253E+02  0.37342725223E+01 -0.38450105980E+02  0.42084358140E+02  0.51100000000E-03 0. -1.
        -11    1    3    3    0    0 -0.10240643162E+01 -0.92322660236E+01  0.28042076504E+01  0.97029389600E+01  0.51100000000E-03 0.  1.
        -12    1    3    3    0    0 -0.15182709228E+02  0.49442421476E+01  0.34725102160E+02  0.38220320641E+02  0.00000000000E+00 0.  1.
</event>
<event>
 7    1  0.2682188E-015  0.9000774E+02  0.7816164E-02  0.1186339E+00
        -11   -1    0    0    0    0  0.00000000000E+00  0.00000000000E+00  0.45593999997E+02  0.45594000000E+02  0.51100000000E-03 0. -1.
         11   -1    0    0    0    0 -0.00000000000E+00 -0.00000000000E+00 -0.45593999997E+02  0.45594000000E+02  0.51100000000E-03 0.  1.
    9900012    2    1    2    0    0  0.69351153444E+00 -0.79294837688E+00 -0.53225937079E+00  0.90007735024E+02  0.89999996326E+02 0.  0.
         12    1    1    2    0    0 -0.69351153444E+00  0.79294837688E+00  0.53225937079E+00  0.11802649764E+01  0.00000000000E+00 0. -1.
         11    1    3    3    0    0  0.14640124306E+02  0.31641035351E+02 -0.15822563537E+02  0.38286314460E+02  0.51100000000E-03 0. -1.
        -11    1    3    3    0    0 -0.73656699412E+01  0.39001028168E+01 -0.48680401805E+01  0.96520314507E+01  0.51100000000E-03 0.  1.
        -12    1    3    3    0    0 -0.65809428308E+01 -0.36334086544E+02  0.20158344347E+02  0.42069389113E+02  0.00000000000E+00 0.  1.
</event>
<event>
 7    1  0.2682188E-015  0.9000767E+02  0.7816164E-02  0.1186339E+00
        -11   -1    0    0    0    0  0.00000000000E+00  0.00000000000E+00  0.45593999997E+02  0.45594000000E+02  0.51100000000E-03 0. -1.
         11   -1    0    0    0    0 -0.00000000000E+00 -0.00000000000E+00 -0.45593999997E+02  0.45594000000E+02  0.51100000000E-03 0.  1.
    9900012    2    1    2    0    0 -0.93378064303E+00 -0.39205185981E+00 -0.60623608242E+00  0.90007672445E+02  0.89999932921E+02 0.  0.
         12    1    1    2    0    0  0.93378064303E+00  0.39205185981E+00  0.60623608242E+00  0.11803275553E+01  0.00000000000E+00 0. -1.
         11    1    3    3    0    0 -0.40113295839E+01  0.72216046081E+01  0.57111787645E+01  0.10042903031E+02  0.51100000000E-03 0. -1.
        -11    1    3    3    0    0  0.10563664488E+02 -0.24338659919E+02  0.29534225593E+02  0.39701786556E+02  0.51100000000E-03 0.  1.
         12    1    3    3    0    0 -0.74861155477E+01  0.16725003451E+02 -0.35851640440E+02  0.40262982858E+02  0.00000000000E+00 0. -1.
</event>
<event>
 7    1  0.2682188E-015  0.9000773E+02  0.7816164E-02  0.1186339E+00
        -11   -1    0    0    0    0  0.00000000000E+00  0.00000000000E+00  0.45593999997E+02  0.45594000000E+02  0.51100000000E-03 0.  1.
         11   -1    0    0    0    0 -0.00000000000E+00 -0.00000000000E+00 -0.45593999997E+02  0.45594000000E+02  0.51100000000E-03 0. -1.
    9900012    2    1    2    0    0  0.61522555592E+00  0.10057676249E+01 -0.54450962776E-01  0.90007730579E+02  0.89999991822E+02 0.  0.
         12    1    1    2    0    0 -0.61522555592E+00 -0.10057676249E+01  0.54450962776E-01  0.11802694214E+01  0.00000000000E+00 0. -1.
         11    1    3    3    0    0 -0.55103126544E+01  0.14180995373E+02 -0.36895112585E+02  0.39908814919E+02  0.51100000000E-03 0. -1.
        -11    1    3    3    0    0 -0.49557922755E+01 -0.60758474443E+01 -0.28040021962E+01  0.83269578972E+01  0.51100000000E-03 0.  1.
        -12    1    3    3    0    0  0.11081330486E+02 -0.70993803039E+01  0.39644663818E+02  0.41771957762E+02  0.00000000000E+00 0.  1.
</event>
<event>
 7    1  0.2682188E-015  0.9000753E+02  0.7816164E-02  0.1186339E+00
        -11   -1    0    0    0    0  0.00000000000E+00  0.00000000000E+00  0.45593999997E+02  0.45594000000E+02  0.51100000000E-03 0.  1.
         11   -1    0    0    0    0 -0.00000000000E+00 -0.00000000000E+00 -0.45593999997E+02  0.45594000000E+02  0.51100000000E-03 0. -1.
    9900012    2    1    2    0    0  0.35525041172E+00  0.11223459495E+01  0.87493111167E-01  0.90007526227E+02  0.89999784772E+02 0.  0.
         12    1    1    2    0    0 -0.35525041172E+00 -0.11223459495E+01 -0.87493111167E-01  0.11804737735E+01  0.00000000000E+00 0. -1.
         11    1    3    3    0    0 -0.72572943878E+01  0.29571740893E+02 -0.18732793385E+02  0.35750157056E+02  0.51100000000E-03 0. -1.
        -11    1    3    3    0    0 -0.96747982614E+01 -0.48188715348E+00 -0.74109503537E+01  0.12196561894E+02  0.51100000000E-03 0.  1.
        -12    1    3    3    0    0  0.17287343061E+02 -0.27967507790E+02  0.26231236849E+02  0.42060807277E+02  0.00000000000E+00 0.  1.
</event>
<event>
 7    1  0.2682188E-015  0.9000772E+02  0.7816164E-02  0.1186339E+00
        -11   -1    0    0    0    0  0.00000000000E+00  0.00000000000E+00  0.45593999997E+02  0.45594000000E+02  0.51100000000E-03 0. -1.
         11   -1    0    0    0    0 -0.00000000000E+00 -0.00000000000E+00 -0.45593999997E+02  0.45594000000E+02  0.51100000000E-03 0.  1.
    9900012    2    1    2    0    0  0.83627586708E+00 -0.82425580296E+00 -0.11956249496E+00  0.90007724547E+02  0.89999985711E+02 0.  0.
         12    1    1    2    0    0 -0.83627586708E+00  0.82425580296E+00  0.11956249496E+00  0.11802754529E+01  0.00000000000E+00 0. -1.
         11    1    3    3    0    0 -0.39863830774E+01 -0.57990934819E+01  0.27839814035E+01  0.75677795930E+01  0.51100000000E-03 0. -1.
        -11    1    3    3    0    0  0.25232465653E+00  0.25673681782E+02 -0.35345677900E+02  0.43686594631E+02  0.51100000000E-03 0.  1.
         12    1    3    3    0    0  0.45703342880E+01 -0.20698844103E+02  0.32442134001E+02  0.38753350323E+02  0.00000000000E+00 0. -1.
</event>
<event>
 7    1  0.2682188E-015  0.9000773E+02  0.7816164E-02  0.1186339E+00
        -11   -1    0    0    0    0  0.00000000000E+00  0.00000000000E+00  0.45593999997E+02  0.45594000000E+02  0.51100000000E-03 0.  1.
         11   -1    0    0    0    0 -0.00000000000E+00 -0.00000000000E+00 -0.45593999997E+02  0.45594000000E+02  0.51100000000E-03 0. -1.
    9900012    2    1    2    0    0  0.97605085271E+00  0.66257900794E+00 -0.36612366917E-01  0.90007734490E+02  0.89999995785E+02 0.  0.
         12    1    1    2    0    0 -0.97605085271E+00 -0.66257900794E+00  0.36612366917E-01  0.11802655101E+01  0.00000000000E+00 0. -1.
         11    1    3    3    0    0 -0.64670330112E+01  0.54119767663E+00  0.73423929518E+01  0.97992931078E+01  0.51100000000E-03 0. -1.
        -11    1    3    3    0    0 -0.26330989492E+01  0.33710237794E+02  0.16657990787E+02  0.37693527289E+02  0.51100000000E-03 0.  1.
         12    1    3    3    0    0  0.10076182813E+02 -0.33588856463E+02 -0.24036996106E+02  0.42514914093E+02  0.00000000000E+00 0. -1.
</event>
<event>
 7    1  0.2682188E-015  0.9000768E+02  0.7816164E-02  0.1186339E+00
        -11   -1    0    0    0    0  0.00000000000E+00  0.00000000000E+00  0.45593999997E+02  0.45594000000E+02  0.51100000000E-03 0.  1.
         11   -1    0    0    0    0 -0.00000000000E+00 -0.00000000000E+00 -0.45593999997E+02  0.45594000000E+02  0.51100000000E-03 0. -1.
    9900012    2    1    2    0    0  0.30816456104E+00  0.68337984844E+00  0.91169020125E+00  0.90007681214E+02  0.89999941806E+02 0.  0.
         12    1    1    2    0    0 -0.30816456104E+00 -0.68337984844E+00 -0.91169020125E+00  0.11803187862E+01  0.00000000000E+00 0. -1.
         11    1    3    3    0    0  0.69562003381E+01  0.11293378105E+02 -0.25091332770E+02  0.28381403993E+02  0.51100000000E-03 0. -1.
        -11    1    3    3    0    0  0.11049784801E+02  0.10427967985E+02 -0.85788026495E+01  0.17448097765E+02  0.51100000000E-03 0.  1.
        -12    1    3    3    0    0 -0.17697820578E+02 -0.21037966241E+02  0.34581825621E+02  0.44178179456E+02  0.00000000000E+00 0.  1.
</event>
<event>
 7    1  0.2682188E-015  0.9000786E+02  0.7816164E-02  0.1186339E+00
        -11   -1    0    0    0    0  0.00000000000E+00  0.00000000000E+00  0.45593999997E+02  0.45594000000E+02  0.51100000000E-03 0.  1.
         11   -1    0    0    0    0 -0.00000000000E+00 -0.00000000000E+00 -0.45593999997E+02  0.45594000000E+02  0.51100000000E-03 0. -1.
    9900012    2    1    2    0    0 -0.61500080474E+00 -0.85637031098E+00  0.53022774060E+00  0.90007856976E+02  0.90000119888E+02 0.  0.
         12    1    1    2    0    0  0.61500080474E+00  0.85637031098E+00 -0.53022774060E+00  0.11801430236E+01  0.00000000000E+00 0. -1.
         11    1    3    3    0    0  0.37743995441E+02 -0.59979217314E+01 -0.18773583621E+02  0.42579709947E+02  0.51100000000E-03 0. -1.
        -11    1    3    3    0    0 -0.81277457794E+01  0.79579296697E+01  0.11289055702E+02  0.16025968769E+02  0.51100000000E-03 0.  1.
        -12    1    3    3    0    0 -0.30231250466E+02 -0.28163782492E+01  0.80147556592E+01  0.31402178260E+02  0.00000000000E+00 0.  1.
</event>
<event>
 7    1  0.2682188E-015  0.9000858E+02  0.7816164E-02  0.1186337E+00
        -11   -1    0    0    0    0  0.00000000000E+00  0.00000000000E+00  0.45593999997E+02  0.45594000000E+02  0.51100000000E-03 0. -1.
         11   -1    0    0    0    0 -0.00000000000E+00 -0.00000000000E+00 -0.45593999997E+02  0.45594000000E+02  0.51100000000E-03 0.  1.
    9900012    2    1    2    0    0  0.70359918043E+00 -0.31771510314E+00 -0.89164216768E+00  0.90008584701E+02  0.90000857214E+02 0.  0.
         12    1    1    2    0    0 -0.70359918043E+00  0.31771510314E+00  0.89164216768E+00  0.11794152995E+01  0.00000000000E+00 0. -1.
         11    1    3    3    0    0 -0.17789327867E+02 -0.28265618909E+02  0.16594464972E+02  0.37293185252E+02  0.51100000000E-03 0. -1.
        -11    1    3    3    0    0 -0.71785786557E+01  0.29125954691E+01  0.60446430357E+01  0.98261342130E+01  0.51100000000E-03 0.  1.
        -12    1    3    3    0    0  0.25671505703E+02  0.25035308337E+02 -0.23530750175E+02  0.42889265235E+02  0.00000000000E+00 0.  1.
</event>
<event>
 7    1  0.2682188E-015  0.9000772E+02  0.7816164E-02  0.1186339E+00
        -11   -1    0    0    0    0  0.00000000000E+00  0.00000000000E+00  0.45593999997E+02  0.45594000000E+02  0.51100000000E-03 0.  1.
         11   -1    0    0    0    0 -0.00000000000E+00 -0.00000000000E+00 -0.45593999997E+02  0.45594000000E+02  0.51100000000E-03 0. -1.
    9900012    2    1    2    0    0 -0.87653395636E+00 -0.22202964282E+00  0.75858648822E+00  0.90007719356E+02  0.89999980451E+02 0.  0.
         12    1    1    2    0    0  0.87653395636E+00  0.22202964282E+00 -0.75858648822E+00  0.11802806442E+01  0.00000000000E+00 0. -1.
         11    1    3    3    0    0 -0.50199359582E+01  0.17583343019E+02 -0.33483559870E+02  0.38151310470E+02  0.51100000000E-03 0. -1.
        -11    1    3    3    0    0  0.83295565002E+01  0.37063500165E+01 -0.21573850418E+01  0.93687166898E+01  0.51100000000E-03 0.  1.
        -12    1    3    3    0    0 -0.41861544984E+01 -0.21511722678E+02  0.36399531400E+02  0.42487692196E+02  0.00000000000E+00 0.  1.
</event>
<event>
 7    1  0.2682188E-015  0.9000778E+02  0.7816164E-02  0.1186339E+00
        -11   -1    0    0    0    0  0.00000000000E+00  0.00000000000E+00  0.45593999997E+02  0.45594000000E+02  0.51100000000E-03 0. -1.
         11   -1    0    0    0    0 -0.00000000000E+00 -0.00000000000E+00 -0.45593999997E+02  0.45594000000E+02  0.51100000000E-03 0.  1.
    9900012    2    1    2    0    0  0.10883368600E+01 -0.28279084186E+00  0.35842172649E+00  0.90007782259E+02  0.90000044185E+02 0.  0.
         12    1    1    2    0    0 -0.10883368600E+01  0.28279084186E+00 -0.35842172649E+00  0.11802177405E+01  0.00000000000E+00 0. -1.
         11    1    3    3    0    0 -0.31125058706E+01 -0.64347007026E+01 -0.74613445405E+01  0.10332701899E+02  0.51100000000E-03 0. -1.
        -11    1    3    3    0    0  0.77980067154E+01 -0.29106843220E+02  0.26038469577E+02  0.39824855670E+02  0.51100000000E-03 0.  1.
         12    1    3    3    0    0 -0.35971639849E+01  0.35258753081E+02 -0.18218703310E+02  0.39850224690E+02  0.00000000000E+00 0. -1.
</event>
<event>
 7    1  0.2682188E-015  0.9000768E+02  0.7816164E-02  0.1186339E+00
        -11   -1    0    0    0    0  0.00000000000E+00  0.00000000000E+00  0.45593999997E+02  0.45594000000E+02  0.51100000000E-03 0.  1.
         11   -1    0    0    0    0 -0.00000000000E+00 -0.00000000000E+00 -0.45593999997E+02  0.45594000000E+02  0.51100000000E-03 0. -1.
    9900012    2    1    2    0    0  0.43225945265E+00  0.86597017264E+00  0.67558043707E+00  0.90007677374E+02  0.89999937915E+02 0.  0.
         12    1    1    2    0    0 -0.43225945265E+00 -0.86597017264E+00 -0.67558043707E+00  0.11803226259E+01  0.00000000000E+00 0. -1.
         11    1    3    3    0    0  0.80271642323E+01  0.34411109373E+00  0.62794476963E+01  0.10197315416E+02  0.51100000000E-03 0. -1.
        -11    1    3    3    0    0 -0.69840946475E+01  0.17448567142E+02  0.32819178474E+02  0.37819684680E+02  0.51100000000E-03 0.  1.
         12    1    3    3    0    0 -0.61081013212E+00 -0.16926708063E+02 -0.38423045733E+02  0.41990677278E+02  0.00000000000E+00 0. -1.
</event>
<event>
 7    1  0.2682188E-015  0.9000770E+02  0.7816164E-02  0.1186339E+00
        -11   -1    0    0    0    0  0.00000000000E+00  0.00000000000E+00  0.45593999997E+02  0.45594000000E+02  0.51100000000E-03 0.  1.
         11   -1    0    0    0    0 -0.00000000000E+00 -0.00000000000E+00 -0.45593999997E+02  0.45594000000E+02  0.51100000000E-03 0. -1.
    9900012    2    1    2    0    0 -0.43646318930E+00 -0.87151628531E+00  0.66563050143E+00  0.90007701429E+02  0.89999962288E+02 0.  0.
         12    1    1    2    0    0  0.43646318930E+00  0.87151628531E+00 -0.66563050143E+00  0.11802985705E+01  0.00000000000E+00 0. -1.
         11    1    3    3    0    0 -0.50150796207E+01  0.50895047649E+01  0.97658607603E+01  0.12100666056E+02  0.51100000000E-03 0. -1.
        -11    1    3    3    0    0 -0.13255899759E+02  0.11352060620E+02  0.28152542648E+02  0.33123312282E+02  0.51100000000E-03 0.  1.
         12    1    3    3    0    0  0.17834516190E+02 -0.17313081670E+02 -0.37252772907E+02  0.44783723091E+02  0.00000000000E+00 0. -1.
</event>
<event>
 7    1  0.2682188E-015  0.9000781E+02  0.7816164E-02  0.1186339E+00
        -11   -1    0    0    0    0  0.00000000000E+00  0.00000000000E+00  0.45593999997E+02  0.45594000000E+02  0.51100000000E-03 0.  1.
         11   -1    0    0    0    0 -0.00000000000E+00 -0.00000000000E+00 -0.45593999997E+02  0.45594000000E+02  0.51100000000E-03 0. -1.
    9900012    2    1    2    0    0 -0.76252083633E+00  0.73086006795E+00  0.52654152886E+00  0.90007813385E+02  0.90000075722E+02 0.  0.
         12    1    1    2    0    0  0.76252083633E+00 -0.73086006795E+00 -0.52654152886E+00  0.11801866151E+01  0.00000000000E+00 0. -1.
         11    1    3    3    0    0 -0.63523046017E+01  0.13818882901E+01  0.67214720870E+01  0.93509131253E+01  0.51100000000E-03 0. -1.
        -11    1    3    3    0    0  0.12355145124E+02  0.38278917778E+02  0.21154089310E+01  0.40279028197E+02  0.51100000000E-03 0.  1.
         12    1    3    3    0    0 -0.67653613586E+01 -0.38929946000E+02 -0.83103394892E+01  0.40377872063E+02  0.00000000000E+00 0. -1.
</event>
<event>
 7    1  0.2682188E-015  0.9000806E+02  0.7816164E-02  0.1186338E+00
        -11   -1    0    0    0    0  0.00000000000E+00  0.00000000000E+00  0.45593999997E+02  0.45594000000E+02  0.51100000000E-03 0.  1.
         11   -1    0    0    0    0 -0.00000000000E+00 -0.00000000000E+00 -0.45593999997E+02  0.45594000000E+02  0.51100000000E-03 0. -1.
    9900012    2    1    2    0    0  0.42152800511E+00  0.87802240936E-01  0.10985733986E+01  0.90008059915E+02  0.90000325505E+02 0.  0.
         12    1    1    2    0    0 -0.42152800511E+00 -0.87802240936E-01 -0.10985733986E+01  0.11799400852E+01  0.00000000000E+00 0. -1.
         11    1    3    3    0    0 -0.18579488548E+02 -0.22842798666E+02  0.23269174371E+02  0.37529259542E+02  0.51100000000E-03 0. -1.
        -11    1    3    3    0    0  0.62110393074E+01 -0.57322439233E+01  0.59508007913E+01  0.10336714178E+02  0.51100000000E-03 0.  1.
        -12    1    3    3    0    0  0.12789977245E+02  0.28662844831E+02 -0.28121401764E+02  0.42142086195E+02  0.00000000000E+00 0.  1.
</event>
<event>
 7    1  0.2682188E-015  0.9000773E+02  0.7816164E-02  0.1186339E+00
        -11   -1    0    0    0    0  0.00000000000E+00  0.00000000000E+00  0.45593999997E+02  0.45594000000E+02  0.51100000000E-03 0. -1.
         11   -1    0    0    0    0 -0.00000000000E+00 -0.00000000000E+00 -0.45593999997E+02  0.45594000000E+02  0.51100000000E-03 0.  1.
    9900012    2    1    2    0    0 -0.41075934781E+00 -0.10370474229E+01 -0.38580376191E+00  0.90007730903E+02  0.89999992151E+02 0.  0.
         12    1    1    2    0    0  0.41075934781E+00  0.10370474229E+01  0.38580376191E+00  0.11802690972E+01  0.00000000000E+00 0. -1.
         11    1    3    3    0    0 -0.22534845886E+02  0.78890264772E+01 -0.32884043595E+02  0.40637622239E+02  0.51100000000E-03 0. -1.
        -11    1    3    3    0    0 -0.66462852839E+01  0.98278327538E+00  0.64790147240E+01  0.93336275422E+01  0.51100000000E-03 0.  1.
        -12    1    3    3    0    0  0.28770371822E+02 -0.99088571754E+01  0.26019225109E+02  0.40036481121E+02  0.00000000000E+00 0.  1.
</event>
<event>
 7    1  0.2682188E-015  0.9000781E+02  0.7816164E-02  0.1186339E+00
        -11   -1    0    0    0    0  0.00000000000E+00  0.00000000000E+00  0.45593999997E+02  0.45594000000E+02  0.51100000000E-03 0.  1.
         11   -1    0    0    0    0 -0.00000000000E+00 -0.00000000000E+00 -0.45593999997E+02  0.45594000000E+02  0.51100000000E-03 0. -1.
    9900012    2    1    2    0    0  0.10647853167E+01  0.39613987749E+00 -0.31963158317E+00  0.90007805558E+02  0.90000067791E+02 0.  0.
         12    1    1    2    0    0 -0.10647853167E+01 -0.39613987749E+00  0.31963158317E+00  0.11801944425E+01  0.00000000000E+00 0. -1.
         11    1    3    3    0    0  0.58601466914E+01  0.25299499664E+02 -0.26966595351E+02  0.37437992301E+02  0.51100000000E-03 0. -1.
        -11    1    3    3    0    0  0.92681814930E+00 -0.46730382984E+01 -0.95715001624E+01  0.10691580540E+02  0.51100000000E-03 0.  1.
        -12    1    3    3    0    0 -0.57221795241E+01 -0.20230321488E+02  0.36218463930E+02  0.41878232716E+02  0.00000000000E+00 0.  1.
</event>
<event>
 7    1  0.2682188E-015  0.9000777E+02  0.7816164E-02  0.1186339E+00
        -11   -1    0    0    0    0  0.00000000000E+00  0.00000000000E+00  0.45593999997E+02  0.45594000000E+02  0.51100000000E-03 0. -1.
         11   -1    0    0    0    0 -0.00000000000E+00 -0.00000000000E+00 -0.45593999997E+02  0.45594000000E+02  0.51100000000E-03 0.  1.
    9900012    2    1    2    0    0 -0.10080793149E+01  0.51094397662E+00 -0.34007385966E+00  0.90007772106E+02  0.90000033898E+02 0.  0.
         12    1    1    2    0    0  0.10080793149E+01 -0.51094397662E+00  0.34007385966E+00  0.11802278943E+01  0.00000000000E+00 0. -1.
         11    1    3    3    0    0 -0.13473995417E+02  0.19549180278E+02  0.24051163591E+02  0.33796116232E+02  0.51100000000E-03 0. -1.
        -11    1    3    3    0    0 -0.14539633811E+02 -0.32756407071E+01  0.23241243814E+01  0.15084174747E+02  0.51100000000E-03 0.  1.
        -12    1    3    3    0    0  0.27005549913E+02 -0.15762595594E+02 -0.26715361832E+02  0.41127481126E+02  0.00000000000E+00 0.  1.
</event>
<event>
 7    1  0.2682188E-015  0.9000781E+02  0.7816164E-02  0.1186339E+00
        -11   -1    0    0    0    0  0.00000000000E+00  0.00000000000E+00  0.45593999997E+02  0.45594000000E+02  0.51100000000E-03 0.  1.
         11   -1    0    0    0    0 -0.00000000000E+00 -0.00000000000E+00 -0.45593999997E+02  0.45594000000E+02  0.51100000000E-03 0. -1.
    9900012    2    1    2    0    0 -0.21774568312E+00  0.91831459025E+00  0.70862091703E+00  0.90007805748E+02  0.90000067984E+02 0.  0.
         12    1    1    2    0    0  0.21774568312E+00 -0.91831459025E+00 -0.70862091703E+00  0.11801942523E+01  0.00000000000E+00 0. -1.
         11    1    3    3    0    0 -0.26477805090E+02  0.12135483722E+01 -0.35594110937E+00  0.26507990425E+02  0.51100000000E-03 0. -1.
        -11    1    3    3    0    0 -0.17015611130E+02 -0.40813084644E+00  0.93774553392E+01  0.19432814047E+02  0.51100000000E-03 0.  1.
        -12    1    3    3    0    0  0.43275670537E+02  0.11289706447E+00 -0.83128933128E+01  0.44067001275E+02  0.00000000000E+00 0.  1.
</event>
<event>
 7    1  0.2682188E-015  0.9000776E+02  0.7816164E-02  0.1186339E+00
        -11   -1    0    0    0    0  0.00000000000E+00  0.00000000000E+00  0.45593999997E+02  0.45594000000E+02  0.51100000000E-03 0.  1.
         11   -1    0    0    0    0 -0.00000000000E+00 -0.00000000000E+00 -0.45593999997E+02  0.45594000000E+02  0.51100000000E-03 0. -1.
    9900012    2    1    2    0    0  0.59537030868E+00  0.94469824227E+00  0.38216611823E+00  0.90007757857E+02  0.90000019461E+02 0.  0.
         12    1    1    2    0    0 -0.59537030868E+00 -0.94469824227E+00 -0.38216611823E+00  0.11802421427E+01  0.00000000000E+00 0. -1.
         11    1    3    3    0    0 -0.21996169988E+01 -0.80296737835E+01  0.42604137957E+01  0.93522779034E+01  0.51100000000E-03 0. -1.
        -11    1    3    3    0    0 -0.25360463662E+02 -0.15433803779E+01  0.27338150983E+02  0.37321704671E+02  0.51100000000E-03 0.  1.
         12    1    3    3    0    0  0.28155450970E+02  0.10517752404E+02 -0.31216398660E+02  0.43333775283E+02  0.00000000000E+00 0. -1.
</event>
<event>
 7    1  0.2682188E-015  0.9000770E+02  0.7816164E-02  0.1186339E+00
        -11   -1    0    0    0    0  0.00000000000E+00  0.00000000000E+00  0.45593999997E+02  0.45594000000E+02  0.51100000000E-03 0.  1.
         11   -1    0    0    0    0 -0.00000000000E+00 -0.00000000000E+00 -0.45593999997E+02  0.45594000000E+02  0.51100000000E-03 0. -1.
    9900012    2    1    2    0    0 -0.33543870074E+00 -0.10957961835E+01 -0.28252196354E+00  0.90007700437E+02  0.89999961283E+02 0.  0.
         12    1    1    2    0    0  0.33543870074E+00  0.10957961835E+01  0.28252196354E+00  0.11802995626E+01  0.00000000000E+00 0. -1.
         11    1    3    3    0    0  0.10470041796E+02  0.17378275914E+02 -0.36374667673E+02  0.41650242467E+02  0.51100000000E-03 0. -1.
        -11    1    3    3    0    0  0.57668069945E+01  0.58248490508E+00  0.24541070141E+01  0.62942825702E+01  0.51100000000E-03 0.  1.
        -12    1    3    3    0    0 -0.16572287491E+02 -0.19056557002E+02  0.33638038696E+02  0.42063175400E+02  0.00000000000E+00 0.  1.
</event>
<event>
 7    1  0.2682188E-015  0.9000792E+02  0.7816164E-02  0.1186339E+00
        -11   -1    0    0    0    0  0.00000000000E+00  0.00000000000E+00  0.45593999997E+02  0.45594000000E+02  0.51100000000E-03 0.  1.
         11   -1    0    0    0    0 -0.00000000000E+00 -0.00000000000E+00 -0.45593999997E+02  0.45594000000E+02  0.51100000000E-03 0. -1.
    9900012    2    1    2    0    0 -0.10207047038E+01 -0.29590767012E+00  0.51302664586E+00  0.90007917045E+02  0.90000180750E+02 0.  0.
         12    1    1    2    0    0  0.10207047038E+01  0.29590767012E+00 -0.51302664586E+00  0.11800829551E+01  0.00000000000E+00 0. -1.
         11    1    3    3    0    0 -0.16238794228E+01 -0.88469796357E+01 -0.86520407550E+00  0.90362941192E+01  0.51100000000E-03 0. -1.
        -11    1    3    3    0    0  0.68681468628E+01 -0.31525731200E+02  0.18216063125E+02  0.37052235089E+02  0.51100000000E-03 0.  1.
         12    1    3    3    0    0 -0.62649721438E+01  0.40076803166E+02 -0.16837832404E+02  0.43919387837E+02  0.00000000000E+00 0. -1.
</event>
<event>
 7    1  0.2682188E-015  0.9000769E+02  0.7816164E-02  0.1186339E+00
        -11   -1    0    0    0    0  0.00000000000E+00  0.00000000000E+00  0.45593999997E+02  0.45594000000E+02  0.51100000000E-03 0. -1.
         11   -1    0    0    0    0 -0.00000000000E+00 -0.00000000000E+00 -0.45593999997E+02  0.45594000000E+02  0.51100000000E-03 0.  1.
    9900012    2    1    2    0    0 -0.22200267926E+00  0.11223606392E+01 -0.29007700029E+00  0.90007693574E+02  0.89999954329E+02 0.  0.
         12    1    1    2    0    0  0.22200267926E+00 -0.11223606392E+01  0.29007700029E+00  0.11803064264E+01  0.00000000000E+00 0. -1.
         11    1    3    3    0    0  0.12797579246E+02 -0.87093888879E+01  0.84720081784E+01  0.17646711087E+02  0.51100000000E-03 0. -1.
        -11    1    3    3    0    0  0.25228705883E+02  0.42856625084E+01 -0.19586430630E+02  0.32225498735E+02  0.51100000000E-03 0.  1.
        -12    1    3    3    0    0 -0.38248287808E+02  0.55460870186E+01  0.10824345452E+02  0.40135483751E+02  0.00000000000E+00 0.  1.
</event>
<event>
 7    1  0.2682188E-015  0.9000773E+02  0.7816164E-02  0.1186339E+00
        -11   -1    0    0    0    0  0.00000000000E+00  0.00000000000E+00  0.45593999997E+02  0.45594000000E+02  0.51100000000E-03 0. -1.
         11   -1    0    0    0    0 -0.00000000000E+00 -0.00000000000E+00 -0.45593999997E+02  0.45594000000E+02  0.51100000000E-03 0.  1.
    9900012    2    1    2    0    0  0.39754504352E+00 -0.27607607141E+00 -0.10764704716E+01  0.90007725144E+02  0.89999986316E+02 0.  0.
         12    1    1    2    0    0 -0.39754504352E+00  0.27607607141E+00  0.10764704716E+01  0.11802748557E+01  0.00000000000E+00 0. -1.
         11    1    3    3    0    0 -0.25080446503E+00  0.10654167465E+02  0.75700896949E+00  0.10683971644E+02  0.51100000000E-03 0. -1.
        -11    1    3    3    0    0 -0.36906990423E+01 -0.62265635719E+01 -0.39987232090E+02  0.40637053089E+02  0.51100000000E-03 0.  1.
         12    1    3    3    0    0  0.43390485509E+01 -0.47036799643E+01  0.38153752648E+02  0.38686700411E+02  0.00000000000E+00 0. -1.
</event>
<event>
 7    1  0.2682188E-015  0.9000799E+02  0.7816164E-02  0.1186339E+00
        -11   -1    0    0    0    0  0.00000000000E+00  0.00000000000E+00  0.45593999997E+02  0.45594000000E+02  0.51100000000E-03 0.  1.
         11   -1    0    0    0    0 -0.00000000000E+00 -0.00000000000E+00 -0.45593999997E+02  0.45594000000E+02  0.51100000000E-03 0. -1.
    9900012    2    1    2    0    0 -0.53244478793E+00 -0.97289960662E+00  0.40296599151E+00  0.90007994624E+02  0.90000259353E+02 0.  0.
         12    1    1    2    0    0  0.53244478793E+00  0.97289960662E+00 -0.40296599151E+00  0.11800053759E+01  0.00000000000E+00 0. -1.
         11    1    3    3    0    0  0.10325483251E+02 -0.27452574967E+02 -0.22684680985E+02  0.37079026798E+02  0.51100000000E-03 0. -1.
        -11    1    3    3    0    0 -0.35786038106E+01 -0.84668165493E+01 -0.18604094687E+01  0.93784066539E+01  0.51100000000E-03 0.  1.
        -12    1    3    3    0    0 -0.72793242285E+01  0.34946491909E+02  0.24948056445E+02  0.43550561172E+02  0.00000000000E+00 0.  1.
</event>
<event>
 7    1  0.2682188E-015  0.9000773E+02  0.7816164E-02  0.1186339E+00
        -11   -1    0    0    0    0  0.00000000000E+00  0.00000000000E+00  0.45593999997E+02  0.45594000000E+02  0.51100000000E-03 0. -1.
         11   -1    0    0    0    0 -0.00000000000E+00 -0.00000000000E+00 -0.45593999997E+02  0.45594000000E+02  0.51100000000E-03 0.  1.
    9900012    2    1    2    0    0 -0.82645571333E+00  0.79171304584E+00  0.28844421037E+00  0.90007729414E+02  0.89999990643E+02 0.  0.
         12    1    1    2    0    0  0.82645571333E+00 -0.79171304584E+00 -0.28844421037E+00  0.11802705857E+01  0.00000000000E+00 0. -1.
         11    1    3    3    0    0 -0.17291480230E+00  0.14161147439E+02 -0.42868765268E+01  0.14796800564E+02  0.51100000000E-03 0. -1.
        -11    1    3    3    0    0  0.32915683743E+02 -0.19826232175E+02 -0.71229650426E+01  0.39080152888E+02  0.51100000000E-03 0.  1.
         12    1    3    3    0    0 -0.33569224654E+02  0.64567977813E+01  0.11698285780E+02  0.36130775962E+02  0.00000000000E+00 0. -1.
</event>
<event>
 7    1  0.2682188E-015  0.9000819E+02  0.7816164E-02  0.1186338E+00
        -11   -1    0    0    0    0  0.00000000000E+00  0.00000000000E+00  0.45593999997E+02  0.45594000000E+02  0.51100000000E-03 0. -1.
         11   -1    0    0    0    0 -0.00000000000E+00 -0.00000000000E+00 -0.45593999997E+02  0.45594000000E+02  0.51100000000E-03 0.  1.
    9900012    2    1    2    0    0  0.49689946374E+00 -0.58201726685E+00 -0.89794047815E+00  0.90008190575E+02  0.90000457890E+02 0.  0.
         12    1    1    2    0    0 -0.49689946374E+00  0.58201726685E+00  0.89794047815E+00  0.11798094246E+01  0.00000000000E+00 0. -1.
         11    1    3    3    0    0 -0.49217739264E+00 -0.51260650633E+01  0.35609594699E+02  0.35980022464E+02  0.51100000000E-03 0. -1.
        -11    1    3    3    0    0  0.18854311190E+02  0.93133384005E+01 -0.16063568132E+02  0.26462455366E+02  0.51100000000E-03 0.  1.
        -12    1    3    3    0    0 -0.17865234333E+02 -0.47692906040E+01 -0.20443967045E+02  0.27565712745E+02  0.00000000000E+00 0.  1.
</event>
<event>
 7    1  0.2682188E-015  0.9000777E+02  0.7816164E-02  0.1186339E+00
        -11   -1    0    0    0    0  0.00000000000E+00  0.00000000000E+00  0.45593999997E+02  0.45594000000E+02  0.51100000000E-03 0. -1.
         11   -1    0    0    0    0 -0.00000000000E+00 -0.00000000000E+00 -0.45593999997E+02  0.45594000000E+02  0.51100000000E-03 0.  1.
    9900012    2    1    2    0    0  0.88808473401E+00  0.74161339476E+00 -0.23294916391E+00  0.90007766873E+02  0.90000028595E+02 0.  0.
         12    1    1    2    0    0 -0.88808473401E+00 -0.74161339476E+00  0.23294916391E+00  0.11802331274E+01  0.00000000000E+00 0. -1.
         11    1    3    3    0    0 -0.51937578852E+01  0.76226799326E+01 -0.96317565056E-02  0.92239071633E+01  0.51100000000E-03 0. -1.
        -11    1    3    3    0    0  0.33177599126E+02  0.17892754112E+02 -0.15838316454E+02  0.40887112906E+02  0.51100000000E-03 0.  1.
         12    1    3    3    0    0 -0.27095756507E+02 -0.24773820650E+02  0.15614999047E+02  0.39896746803E+02  0.00000000000E+00 0. -1.
</event>
<event>
 7    1  0.2682188E-015  0.9000774E+02  0.7816164E-02  0.1186339E+00
        -11   -1    0    0    0    0  0.00000000000E+00  0.00000000000E+00  0.45593999997E+02  0.45594000000E+02  0.51100000000E-03 0. -1.
         11   -1    0    0    0    0 -0.00000000000E+00 -0.00000000000E+00 -0.45593999997E+02  0.45594000000E+02  0.51100000000E-03 0.  1.
    9900012    2    1    2    0    0 -0.54190589042E+00  0.10463728678E+01  0.66667900830E-01  0.90007744612E+02  0.90000006041E+02 0.  0.
         12    1    1    2    0    0  0.54190589042E+00 -0.10463728678E+01 -0.66667900830E-01  0.11802553882E+01  0.00000000000E+00 0. -1.
         11    1    3    3    0    0 -0.64129275027E+01  0.15617248647E+02  0.36173714397E+02  0.39919440226E+02  0.51100000000E-03 0. -1.
        -11    1    3    3    0    0 -0.22165757309E+01  0.84197230418E+01 -0.35096646171E+01  0.93873686440E+01  0.51100000000E-03 0.  1.
        -12    1    3    3    0    0  0.80875973432E+01 -0.22990598821E+02 -0.32597381879E+02  0.40700935742E+02  0.00000000000E+00 0.  1.
</event>
<event>
 7    1  0.2682188E-015  0.9000768E+02  0.7816164E-02  0.1186339E+00
        -11   -1    0    0    0    0  0.00000000000E+00  0.00000000000E+00  0.45593999997E+02  0.45594000000E+02  0.51100000000E-03 0. -1.
         11   -1    0    0    0    0 -0.00000000000E+00 -0.00000000000E+00 -0.45593999997E+02  0.45594000000E+02  0.51100000000E-03 0.  1.
    9900012    2    1    2    0    0  0.77279370055E+00 -0.87976627498E+00 -0.14817596520E+00  0.90007680162E+02  0.89999940741E+02 0.  0.
         12    1    1    2    0    0 -0.77279370055E+00  0.87976627498E+00  0.14817596520E+00  0.11803198375E+01  0.00000000000E+00 0. -1.
         11    1    3    3    0    0  0.53406436310E+01  0.41175109570E+01 -0.61599525745E+01  0.91335309085E+01  0.51100000000E-03 0. -1.
        -11    1    3    3    0    0 -0.56498869346E+01 -0.41797295344E+02 -0.49352213931E+01  0.42465180218E+02  0.51100000000E-03 0.  1.
         12    1    3    3    0    0  0.10820370042E+01  0.36800018112E+02  0.10946998002E+02  0.38408969036E+02  0.00000000000E+00 0. -1.
</event>
<event>
 7    1  0.2682188E-015  0.9000761E+02  0.7816164E-02  0.1186339E+00
        -11   -1    0    0    0    0  0.00000000000E+00  0.00000000000E+00  0.45593999997E+02  0.45594000000E+02  0.51100000000E-03 0.  1.
         11   -1    0    0    0    0 -0.00000000000E+00 -0.00000000000E+00 -0.45593999997E+02  0.45594000000E+02  0.51100000000E-03 0. -1.
    9900012    2    1    2    0    0 -0.10803499644E+01 -0.41216399014E+00 -0.23726285229E+00  0.90007606480E+02  0.89999866086E+02 0.  0.
         12    1    1    2    0    0  0.10803499644E+01  0.41216399014E+00  0.23726285229E+00  0.11803935197E+01  0.00000000000E+00 0. -1.
         11    1    3    3    0    0  0.17809184824E+02 -0.11783351977E+01 -0.29196906004E+02  0.34220094366E+02  0.51100000000E-03 0. -1.
        -11    1    3    3    0    0  0.39695968058E+01 -0.11141156937E+02 -0.52623867282E+01  0.12945106837E+02  0.51100000000E-03 0.  1.
        -12    1    3    3    0    0 -0.22859131595E+02  0.11907328144E+02  0.34222029880E+02  0.42842405277E+02  0.00000000000E+00 0.  1.
</event>
<event>
 7    1  0.2682188E-015  0.9000780E+02  0.7816164E-02  0.1186339E+00
        -11   -1    0    0    0    0  0.00000000000E+00  0.00000000000E+00  0.45593999997E+02  0.45594000000E+02  0.51100000000E-03 0. -1.
         11   -1    0    0    0    0 -0.00000000000E+00 -0.00000000000E+00 -0.45593999997E+02  0.45594000000E+02  0.51100000000E-03 0.  1.
    9900012    2    1    2    0    0 -0.36575776549E+00 -0.10928233696E+01 -0.25464089070E+00  0.90007795084E+02  0.90000057179E+02 0.  0.
         12    1    1    2    0    0  0.36575776549E+00  0.10928233696E+01  0.25464089070E+00  0.11802049159E+01  0.00000000000E+00 0. -1.
         11    1    3    3    0    0 -0.14702471965E+02  0.26676137008E+02  0.24564879921E+02  0.39130707805E+02  0.51100000000E-03 0. -1.
        -11    1    3    3    0    0  0.60240849410E+01  0.66544744150E+01 -0.56906184321E+01  0.10628018043E+02  0.51100000000E-03 0.  1.
        -12    1    3    3    0    0  0.83126292590E+01 -0.34423434792E+02 -0.19128902380E+02  0.40249069236E+02  0.00000000000E+00 0.  1.
</event>
<event>
 7    1  0.2682188E-015  0.9000773E+02  0.7816164E-02  0.1186339E+00
        -11   -1    0    0    0    0  0.00000000000E+00  0.00000000000E+00  0.45593999997E+02  0.45594000000E+02  0.51100000000E-03 0. -1.
         11   -1    0    0    0    0 -0.00000000000E+00 -0.00000000000E+00 -0.45593999997E+02  0.45594000000E+02  0.51100000000E-03 0.  1.
    9900012    2    1    2    0    0 -0.12307858954E-01 -0.10379458618E+01 -0.56174074373E+00  0.90007730642E+02  0.89999991886E+02 0.  0.
         12    1    1    2    0    0  0.12307858954E-01  0.10379458618E+01  0.56174074373E+00  0.11802693585E+01  0.00000000000E+00 0. -1.
         11    1    3    3    0    0  0.26842113569E+02  0.15518579438E+02 -0.25638613379E+02  0.40232621899E+02  0.51100000000E-03 0. -1.
        -11    1    3    3    0    0  0.10614959991E+01  0.15393020833E+01 -0.47432691758E+01  0.50985122727E+01  0.51100000000E-03 0.  1.
        -12    1    3    3    0    0 -0.27915917427E+02 -0.18095827383E+02  0.29820141811E+02  0.44676596470E+02  0.00000000000E+00 0.  1.
</event>
<event>
 7    1  0.2682188E-015  0.9000745E+02  0.7816164E-02  0.1186340E+00
        -11   -1    0    0    0    0  0.00000000000E+00  0.00000000000E+00  0.45593999997E+02  0.45594000000E+02  0.51100000000E-03 0.  1.
         11   -1    0    0    0    0 -0.00000000000E+00 -0.00000000000E+00 -0.45593999997E+02  0.45594000000E+02  0.51100000000E-03 0. -1.
    9900012    2    1    2    0    0  0.82043629522E+00 -0.61972053807E+00  0.58011271208E+00  0.90007449273E+02  0.89999706803E+02 0.  0.
         12    1    1    2    0    0 -0.82043629522E+00  0.61972053807E+00 -0.58011271208E+00  0.11805507268E+01  0.00000000000E+00 0. -1.
         11    1    3    3    0    0  0.93077005355E+01 -0.20765920369E+02 -0.87744888579E+01  0.24389513997E+02  0.51100000000E-03 0. -1.
        -11    1    3    3    0    0 -0.50207831906E+01 -0.37745264850E+01 -0.23784891958E+02  0.24600333326E+02  0.51100000000E-03 0.  1.
        -12    1    3    3    0    0 -0.34664810497E+01  0.23920726316E+02  0.33139493528E+02  0.41017601950E+02  0.00000000000E+00 0.  1.
</event>
<event>
 7    1  0.2682188E-015  0.9000775E+02  0.7816164E-02  0.1186339E+00
        -11   -1    0    0    0    0  0.00000000000E+00  0.00000000000E+00  0.45593999997E+02  0.45594000000E+02  0.51100000000E-03 0. -1.
         11   -1    0    0    0    0 -0.00000000000E+00 -0.00000000000E+00 -0.45593999997E+02  0.45594000000E+02  0.51100000000E-03 0.  1.
    9900012    2    1    2    0    0 -0.11536628701E+01 -0.15161817764E+00 -0.19766564910E+00  0.90007746723E+02  0.90000008180E+02 0.  0.
         12    1    1    2    0    0  0.11536628701E+01  0.15161817764E+00  0.19766564910E+00  0.11802532772E+01  0.00000000000E+00 0. -1.
         11    1    3    3    0    0 -0.10686925895E+02  0.29096566527E+02 -0.26203178458E+02  0.40588509831E+02  0.51100000000E-03 0. -1.
        -11    1    3    3    0    0 -0.68148487724E+01 -0.70167643879E+01 -0.21290300441E+01  0.10010490271E+02  0.51100000000E-03 0.  1.
        -12    1    3    3    0    0  0.16348111798E+02 -0.22231420317E+02  0.28134542853E+02  0.39408746621E+02  0.00000000000E+00 0.  1.
</event>
<event>
 7    1  0.2682188E-015  0.9000783E+02  0.7816164E-02  0.1186339E+00
        -11   -1    0    0    0    0  0.00000000000E+00  0.00000000000E+00  0.45593999997E+02  0.45594000000E+02  0.51100000000E-03 0.  1.
         11   -1    0    0    0    0 -0.00000000000E+00 -0.00000000000E+00 -0.45593999997E+02  0.45594000000E+02  0.51100000000E-03 0. -1.
    9900012    2    1    2    0    0 -0.91695640535E+00  0.67773112306E+00 -0.30443378693E+00  0.90007826938E+02  0.90000089454E+02 0.  0.
         12    1    1    2    0    0  0.91695640535E+00 -0.67773112306E+00  0.30443378693E+00  0.11801730615E+01  0.00000000000E+00 0. -1.
         11    1    3    3    0    0 -0.28090320153E+02 -0.21199370431E+02  0.11106871803E+02  0.36903143422E+02  0.51100000000E-03 0. -1.
        -11    1    3    3    0    0 -0.48201476717E+01 -0.23991598951E+01  0.70769271653E+01  0.88922826172E+01  0.51100000000E-03 0.  1.
        -12    1    3    3    0    0  0.31993511419E+02  0.24276261449E+02 -0.18488232755E+02  0.44212400899E+02  0.00000000000E+00 0.  1.
</event>
<event>
 7    1  0.2682188E-015  0.9000771E+02  0.7816164E-02  0.1186339E+00
        -11   -1    0    0    0    0  0.00000000000E+00  0.00000000000E+00  0.45593999997E+02  0.45594000000E+02  0.51100000000E-03 0.  1.
         11   -1    0    0    0    0 -0.00000000000E+00 -0.00000000000E+00 -0.45593999997E+02  0.45594000000E+02  0.51100000000E-03 0. -1.
    9900012    2    1    2    0    0 -0.25492845626E-01  0.11690323955E+01  0.16062820060E+00  0.90007708491E+02  0.89999969443E+02 0.  0.
         12    1    1    2    0    0  0.25492845626E-01 -0.11690323955E+01 -0.16062820060E+00  0.11802915088E+01  0.00000000000E+00 0. -1.
         11    1    3    3    0    0  0.17106601184E+01 -0.94357404495E+01  0.73004604881E+01  0.12052231307E+02  0.51100000000E-03 0. -1.
        -11    1    3    3    0    0 -0.23607773811E+02  0.33057867713E+02  0.10541391589E+02  0.41967493837E+02  0.51100000000E-03 0.  1.
         12    1    3    3    0    0  0.21871620847E+02 -0.22453094868E+02 -0.17681223876E+02  0.35987983347E+02  0.00000000000E+00 0. -1.
</event>
<event>
 7    1  0.2682188E-015  0.9000760E+02  0.7816164E-02  0.1186339E+00
        -11   -1    0    0    0    0  0.00000000000E+00  0.00000000000E+00  0.45593999997E+02  0.45594000000E+02  0.51100000000E-03 0. -1.
         11   -1    0    0    0    0 -0.00000000000E+00 -0.00000000000E+00 -0.45593999997E+02  0.45594000000E+02  0.51100000000E-03 0.  1.
    9900012    2    1    2    0    0 -0.11258772133E+01 -0.16149729908E+00 -0.31569628492E+00  0.90007599635E+02  0.89999859150E+02 0.  0.
         12    1    1    2    0    0  0.11258772133E+01  0.16149729908E+00  0.31569628492E+00  0.11804003649E+01  0.00000000000E+00 0. -1.
         11    1    3    3    0    0  0.15883624484E+02 -0.32728249085E+02 -0.19931958757E+02  0.41481451217E+02  0.51100000000E-03 0. -1.
        -11    1    3    3    0    0 -0.64747848688E+01 -0.24280182417E+01  0.70621867723E+01  0.98839563914E+01  0.51100000000E-03 0.  1.
        -12    1    3    3    0    0 -0.10534716828E+02  0.34994770028E+02  0.12554075700E+02  0.38642192027E+02  0.00000000000E+00 0.  1.
</event>
<event>
 7    1  0.2682188E-015  0.9000770E+02  0.7816164E-02  0.1186339E+00
        -11   -1    0    0    0    0  0.00000000000E+00  0.00000000000E+00  0.45593999997E+02  0.45594000000E+02  0.51100000000E-03 0.  1.
         11   -1    0    0    0    0 -0.00000000000E+00 -0.00000000000E+00 -0.45593999997E+02  0.45594000000E+02  0.51100000000E-03 0. -1.
    9900012    2    1    2    0    0  0.97971318675E+00 -0.25122850812E+00 -0.60840470445E+00  0.90007699201E+02  0.89999960031E+02 0.  0.
         12    1    1    2    0    0 -0.97971318675E+00  0.25122850812E+00  0.60840470445E+00  0.11803007989E+01  0.00000000000E+00 0. -1.
         11    1    3    3    0    0 -0.43257256277E+01 -0.94105383026E+01  0.49483990049E+01  0.11478535896E+02  0.51100000000E-03 0. -1.
        -11    1    3    3    0    0 -0.60404125610E+01  0.13672654916E+02  0.33994637904E+02  0.37135744005E+02  0.51100000000E-03 0.  1.
         12    1    3    3    0    0  0.11345851376E+02 -0.45133451212E+01 -0.39551441613E+02  0.41393419299E+02  0.00000000000E+00 0. -1.
</event>
<event>
 7    1  0.2682188E-015  0.9000773E+02  0.7816164E-02  0.1186339E+00
        -11   -1    0    0    0    0  0.00000000000E+00  0.00000000000E+00  0.45593999997E+02  0.45594000000E+02  0.51100000000E-03 0.  1.
         11   -1    0    0    0    0 -0.00000000000E+00 -0.00000000000E+00 -0.45593999997E+02  0.45594000000E+02  0.51100000000E-03 0. -1.
    9900012    2    1    2    0    0  0.57793861774E+00  0.75632958262E+00  0.69784807069E+00  0.90007729093E+02  0.89999990317E+02 0.  0.
         12    1    1    2    0    0 -0.57793861774E+00 -0.75632958262E+00 -0.69784807069E+00  0.11802709067E+01  0.00000000000E+00 0. -1.
         11    1    3    3    0    0 -0.19103617690E+01  0.37505096402E+02  0.15659110935E+01  0.37586351459E+02  0.51100000000E-03 0. -1.
        -11    1    3    3    0    0  0.46990443276E+01  0.69186936449E+01  0.20155357091E+01  0.86030066721E+01  0.51100000000E-03 0.  1.
        -12    1    3    3    0    0 -0.22107439409E+01 -0.43667460464E+02 -0.28835987318E+01  0.43818370962E+02  0.00000000000E+00 0.  1.
</event>
<event>
 7    1  0.2682188E-015  0.9000777E+02  0.7816164E-02  0.1186339E+00
        -11   -1    0    0    0    0  0.00000000000E+00  0.00000000000E+00  0.45593999997E+02  0.45594000000E+02  0.51100000000E-03 0.  1.
         11   -1    0    0    0    0 -0.00000000000E+00 -0.00000000000E+00 -0.45593999997E+02  0.45594000000E+02  0.51100000000E-03 0. -1.
    9900012    2    1    2    0    0 -0.52083826643E+00  0.10057600773E+01  0.33184369108E+00  0.90007768638E+02  0.90000030384E+02 0.  0.
         12    1    1    2    0    0  0.52083826643E+00 -0.10057600773E+01 -0.33184369108E+00  0.11802313622E+01  0.00000000000E+00 0. -1.
         11    1    3    3    0    0 -0.10410607192E+02 -0.20630852929E+01  0.97020987133E+00  0.10657315351E+02  0.51100000000E-03 0. -1.
        -11    1    3    3    0    0  0.19098219948E+02 -0.33821127418E+02  0.95288781482E+01  0.39992626621E+02  0.51100000000E-03 0.  1.
         12    1    3    3    0    0 -0.92084510225E+01  0.36889972789E+02 -0.10167244328E+02  0.39357826665E+02  0.00000000000E+00 0. -1.
</event>
<event>
 7    1  0.2682188E-015  0.9000848E+02  0.7816164E-02  0.1186338E+00
        -11   -1    0    0    0    0  0.00000000000E+00  0.00000000000E+00  0.45593999997E+02  0.45594000000E+02  0.51100000000E-03 0.  1.
         11   -1    0    0    0    0 -0.00000000000E+00 -0.00000000000E+00 -0.45593999997E+02  0.45594000000E+02  0.51100000000E-03 0. -1.
    9900012    2    1    2    0    0  0.49513607327E+00 -0.96882296473E+00  0.45552207715E+00  0.90008475506E+02  0.90000746580E+02 0.  0.
         12    1    1    2    0    0 -0.49513607327E+00  0.96882296473E+00 -0.45552207715E+00  0.11795244935E+01  0.00000000000E+00 0. -1.
         11    1    3    3    0    0 -0.57264390306E+01  0.98418940535E+01 -0.35215401574E+02  0.37010532161E+02  0.51100000000E-03 0. -1.
        -11    1    3    3    0    0 -0.58633874903E+01  0.54604174152E+01 -0.36164298650E+01  0.87905651945E+01  0.51100000000E-03 0.  1.
        -12    1    3    3    0    0  0.12084962594E+02 -0.16271134433E+02  0.39287353517E+02  0.44207378151E+02  0.00000000000E+00 0.  1.
</event>
<event>
 7    1  0.2682188E-015  0.9000775E+02  0.7816164E-02  0.1186339E+00
        -11   -1    0    0    0    0  0.00000000000E+00  0.00000000000E+00  0.45593999997E+02  0.45594000000E+02  0.51100000000E-03 0. -1.
         11   -1    0    0    0    0 -0.00000000000E+00 -0.00000000000E+00 -0.45593999997E+02  0.45594000000E+02  0.51100000000E-03 0.  1.
    9900012    2    1    2    0    0 -0.64422474215E-01 -0.39782926904E+00 -0.11093137866E+01  0.90007747714E+02  0.90000009183E+02 0.  0.
         12    1    1    2    0    0  0.64422474215E-01  0.39782926904E+00  0.11093137866E+01  0.11802522864E+01  0.00000000000E+00 0. -1.
         11    1    3    3    0    0 -0.41709365462E+02 -0.13866497686E+01  0.11802418465E+02  0.43369240790E+02  0.51100000000E-03 0. -1.
        -11    1    3    3    0    0  0.56706699959E+01 -0.14098809173E+01 -0.85009631458E+01  0.10315553164E+02  0.51100000000E-03 0.  1.
        -12    1    3    3    0    0  0.35974272992E+02  0.23987014168E+01 -0.44107691056E+01  0.36322953760E+02  0.00000000000E+00 0.  1.
</event>
<event>
 7    1  0.2682188E-015  0.9000732E+02  0.7816164E-02  0.1186340E+00
        -11   -1    0    0    0    0  0.00000000000E+00  0.00000000000E+00  0.45593999997E+02  0.45594000000E+02  0.51100000000E-03 0.  1.
         11   -1    0    0    0    0 -0.00000000000E+00 -0.00000000000E+00 -0.45593999997E+02  0.45594000000E+02  0.51100000000E-03 0. -1.
    9900012    2    1    2    0    0  0.86620918206E+00  0.72528205996E+00  0.34300750412E+00  0.90007319450E+02  0.89999575266E+02 0.  0.
         12    1    1    2    0    0 -0.86620918206E+00 -0.72528205996E+00 -0.34300750412E+00  0.11806805501E+01  0.00000000000E+00 0. -1.
         11    1    3    3    0    0 -0.70803194331E+01 -0.50711734905E+01 -0.29772759108E+01  0.92039065595E+01  0.51100000000E-03 0. -1.
        -11    1    3    3    0    0  0.31239620241E+00 -0.27893499472E+02 -0.23970743009E+02  0.36779633289E+02  0.51100000000E-03 0.  1.
         12    1    3    3    0    0  0.76341324127E+01  0.33689955023E+02  0.27291026424E+02  0.44023779602E+02  0.00000000000E+00 0. -1.
</event>
<event>
 7    1  0.2682188E-015  0.9000705E+02  0.7816164E-02  0.1186340E+00
        -11   -1    0    0    0    0  0.00000000000E+00  0.00000000000E+00  0.45593999997E+02  0.45594000000E+02  0.51100000000E-03 0.  1.
         11   -1    0    0    0    0 -0.00000000000E+00 -0.00000000000E+00 -0.45593999997E+02  0.45594000000E+02  0.51100000000E-03 0. -1.
    9900012    2    1    2    0    0  0.67530944911E+00 -0.73345003378E+00  0.63296426702E+00  0.90007053106E+02  0.89999305404E+02 0.  0.
         12    1    1    2    0    0 -0.67530944911E+00  0.73345003378E+00 -0.63296426702E+00  0.11809468944E+01  0.00000000000E+00 0. -1.
         11    1    3    3    0    0  0.92507400639E-01 -0.61507972779E+01 -0.93450533229E+01  0.11187979560E+02  0.51100000000E-03 0. -1.
        -11    1    3    3    0    0 -0.34651304011E+02  0.17019884960E+02 -0.47709371994E+01  0.38899244154E+02  0.51100000000E-03 0.  1.
         12    1    3    3    0    0  0.35234106059E+02 -0.11602537716E+02  0.14748954789E+02  0.39919829391E+02  0.00000000000E+00 0. -1.
</event>
<event>
 7    1  0.2682188E-015  0.9000768E+02  0.7816164E-02  0.1186339E+00
        -11   -1    0    0    0    0  0.00000000000E+00  0.00000000000E+00  0.45593999997E+02  0.45594000000E+02  0.51100000000E-03 0.  1.
         11   -1    0    0    0    0 -0.00000000000E+00 -0.00000000000E+00 -0.45593999997E+02  0.45594000000E+02  0.51100000000E-03 0. -1.
    9900012    2    1    2    0    0  0.99031272717E+00  0.78203334861E-01  0.63742363390E+00  0.90007684810E+02  0.89999945449E+02 0.  0.
         12    1    1    2    0    0 -0.99031272717E+00 -0.78203334861E-01 -0.63742363390E+00  0.11803151902E+01  0.00000000000E+00 0. -1.
         11    1    3    3    0    0 -0.37266295085E+01 -0.65596608130E+01  0.27217561674E+01  0.80202789460E+01  0.51100000000E-03 0. -1.
        -11    1    3    3    0    0  0.20571726395E+02 -0.12572125763E+02  0.31817005053E+02  0.39919620288E+02  0.51100000000E-03 0.  1.
         12    1    3    3    0    0 -0.15854784159E+02  0.19209989911E+02 -0.33901337587E+02  0.42067785576E+02  0.00000000000E+00 0. -1.
</event>
<event>
 7    1  0.2682188E-015  0.9000772E+02  0.7816164E-02  0.1186339E+00
        -11   -1    0    0    0    0  0.00000000000E+00  0.00000000000E+00  0.45593999997E+02  0.45594000000E+02  0.51100000000E-03 0.  1.
         11   -1    0    0    0    0 -0.00000000000E+00 -0.00000000000E+00 -0.45593999997E+02  0.45594000000E+02  0.51100000000E-03 0. -1.
    9900012    2    1    2    0    0  0.61403990018E+00  0.74720632567E+00  0.67653885563E+00  0.90007717358E+02  0.89999978427E+02 0.  0.
         12    1    1    2    0    0 -0.61403990018E+00 -0.74720632567E+00 -0.67653885563E+00  0.11802826421E+01  0.00000000000E+00 0. -1.
         11    1    3    3    0    0  0.12911735546E+02  0.10598639348E+01  0.63600617908E+01  0.14432138186E+02  0.51100000000E-03 0. -1.
        -11    1    3    3    0    0 -0.27667935583E+02 -0.58716784618E+01  0.26956255648E+02  0.39072125438E+02  0.51100000000E-03 0.  1.
         12    1    3    3    0    0  0.15370239937E+02  0.55590208526E+01 -0.32639778583E+02  0.36503453734E+02  0.00000000000E+00 0. -1.
</event>
<event>
 7    1  0.2682188E-015  0.9000770E+02  0.7816164E-02  0.1186339E+00
        -11   -1    0    0    0    0  0.00000000000E+00  0.00000000000E+00  0.45593999997E+02  0.45594000000E+02  0.51100000000E-03 0.  1.
         11   -1    0    0    0    0 -0.00000000000E+00 -0.00000000000E+00 -0.45593999997E+02  0.45594000000E+02  0.51100000000E-03 0. -1.
    9900012    2    1    2    0    0 -0.99366406052E+00  0.19649876892E-02  0.63698061545E+00  0.90007696467E+02  0.89999957260E+02 0.  0.
         12    1    1    2    0    0  0.99366406052E+00 -0.19649876892E-02 -0.63698061545E+00  0.11803035333E+01  0.00000000000E+00 0. -1.
         11    1    3    3    0    0 -0.30617173159E+02  0.15720667178E+02 -0.18706291703E+00  0.34417810238E+02  0.51100000000E-03 0. -1.
        -11    1    3    3    0    0  0.45898136170E+01  0.75133694657E+01 -0.15431003700E+02  0.17766062738E+02  0.51100000000E-03 0.  1.
        -12    1    3    3    0    0  0.25033695482E+02 -0.23232071656E+02  0.16255047232E+02  0.37823823491E+02  0.00000000000E+00 0.  1.
</event>
<event>
 7    1  0.2682188E-015  0.9000762E+02  0.7816164E-02  0.1186339E+00
        -11   -1    0    0    0    0  0.00000000000E+00  0.00000000000E+00  0.45593999997E+02  0.45594000000E+02  0.51100000000E-03 0.  1.
         11   -1    0    0    0    0 -0.00000000000E+00 -0.00000000000E+00 -0.45593999997E+02  0.45594000000E+02  0.51100000000E-03 0. -1.
    9900012    2    1    2    0    0 -0.52852011771E+00  0.16551907145E+00  0.10423840424E+01  0.90007621006E+02  0.89999880803E+02 0.  0.
         12    1    1    2    0    0  0.52852011771E+00 -0.16551907145E+00 -0.10423840424E+01  0.11803789941E+01  0.00000000000E+00 0. -1.
         11    1    3    3    0    0 -0.10160877396E+02  0.38606066879E+01  0.24799598913E+01  0.11148897470E+02  0.51100000000E-03 0. -1.
        -11    1    3    3    0    0 -0.10235150433E+02 -0.11172366417E+02  0.34184031009E+02  0.37391550543E+02  0.51100000000E-03 0.  1.
         12    1    3    3    0    0  0.19867507711E+02  0.74772788007E+01 -0.35621606858E+02  0.41467172993E+02  0.00000000000E+00 0. -1.
</event>
<event>
 7    1  0.2682188E-015  0.9000784E+02  0.7816164E-02  0.1186339E+00
        -11   -1    0    0    0    0  0.00000000000E+00  0.00000000000E+00  0.45593999997E+02  0.45594000000E+02  0.51100000000E-03 0. -1.
         11   -1    0    0    0    0 -0.00000000000E+00 -0.00000000000E+00 -0.45593999997E+02  0.45594000000E+02  0.51100000000E-03 0.  1.
    9900012    2    1    2    0    0  0.87215226948E+00  0.39078572425E+00 -0.69239592246E+00  0.90007841037E+02  0.90000103739E+02 0.  0.
         12    1    1    2    0    0 -0.87215226948E+00 -0.39078572425E+00  0.69239592246E+00  0.11801589625E+01  0.00000000000E+00 0. -1.
         11    1    3    3    0    0  0.67881156492E+01  0.23412611511E+01  0.56578537776E+01  0.91417354738E+01  0.51100000000E-03 0. -1.
        -11    1    3    3    0    0  0.11859292609E+02 -0.36202062765E+02 -0.15629918790E+02  0.41176771744E+02  0.51100000000E-03 0.  1.
         12    1    3    3    0    0 -0.17775255989E+02  0.34251587338E+02  0.92796690896E+01  0.39689333820E+02  0.00000000000E+00 0. -1.
</event>
<event>
 7    1  0.2682188E-015  0.9000777E+02  0.7816164E-02  0.1186339E+00
        -11   -1    0    0    0    0  0.00000000000E+00  0.00000000000E+00  0.45593999997E+02  0.45594000000E+02  0.51100000000E-03 0. -1.
         11   -1    0    0    0    0 -0.00000000000E+00 -0.00000000000E+00 -0.45593999997E+02  0.45594000000E+02  0.51100000000E-03 0.  1.
    9900012    2    1    2    0    0 -0.74717212776E+00  0.69935974387E+00 -0.58785138770E+00  0.90007771423E+02  0.90000033206E+02 0.  0.
         12    1    1    2    0    0  0.74717212776E+00 -0.69935974387E+00  0.58785138770E+00  0.11802285770E+01  0.00000000000E+00 0. -1.
         11    1    3    3    0    0  0.24799859227E+02 -0.31294149795E+02  0.10433996763E+01  0.39943028331E+02  0.51100000000E-03 0. -1.
        -11    1    3    3    0    0  0.63235283879E+01  0.66883166048E+01  0.11439664927E+01  0.92751954090E+01  0.51100000000E-03 0.  1.
        -12    1    3    3    0    0 -0.31870559742E+02  0.25305192934E+02 -0.27752175566E+01  0.40789547683E+02  0.00000000000E+00 0.  1.
</event>
<event>
 7    1  0.2682188E-015  0.9000775E+02  0.7816164E-02  0.1186339E+00
        -11   -1    0    0    0    0  0.00000000000E+00  0.00000000000E+00  0.45593999997E+02  0.45594000000E+02  0.51100000000E-03 0.  1.
         11   -1    0    0    0    0 -0.00000000000E+00 -0.00000000000E+00 -0.45593999997E+02  0.45594000000E+02  0.51100000000E-03 0. -1.
    9900012    2    1    2    0    0  0.38803432978E+00 -0.61026511962E+00  0.93274064146E+00  0.90007746103E+02  0.90000007551E+02 0.  0.
         12    1    1    2    0    0 -0.38803432978E+00  0.61026511962E+00 -0.93274064146E+00  0.11802538971E+01  0.00000000000E+00 0. -1.
         11    1    3    3    0    0  0.23137814632E+01  0.32520047272E+02  0.24659769846E+02  0.40878005190E+02  0.51100000000E-03 0. -1.
        -11    1    3    3    0    0  0.63612979933E+01 -0.62163447671E+01  0.38710168441E+01  0.97001972192E+01  0.51100000000E-03 0.  1.
        -12    1    3    3    0    0 -0.82870451268E+01 -0.26913967624E+02 -0.27598046048E+02  0.39429543694E+02  0.00000000000E+00 0.  1.
</event>
<event>
 7    1  0.2682188E-015  0.9000772E+02  0.7816164E-02  0.1186339E+00
        -11   -1    0    0    0    0  0.00000000000E+00  0.00000000000E+00  0.45593999997E+02  0.45594000000E+02  0.51100000000E-03 0.  1.
         11   -1    0    0    0    0 -0.00000000000E+00 -0.00000000000E+00 -0.45593999997E+02  0.45594000000E+02  0.51100000000E-03 0. -1.
    9900012    2    1    2    0    0  0.63223204596E+00  0.46861998114E-01  0.99555901582E+00  0.90007724117E+02  0.89999985275E+02 0.  0.
         12    1    1    2    0    0 -0.63223204596E+00 -0.46861998114E-01 -0.99555901582E+00  0.11802758833E+01  0.00000000000E+00 0. -1.
         11    1    3    3    0    0  0.11106252842E+02  0.38860311253E+01 -0.21865903017E+02  0.24830783417E+02  0.51100000000E-03 0. -1.
        -11    1    3    3    0    0  0.16632311238E+02  0.87344162266E+01 -0.95661339227E+01  0.21081620489E+02  0.51100000000E-03 0.  1.
        -12    1    3    3    0    0 -0.27106332034E+02 -0.12573585354E+02  0.32427595956E+02  0.44095320211E+02  0.00000000000E+00 0.  1.
</event>
<event>
 7    1  0.2682188E-015  0.9000771E+02  0.7816164E-02  0.1186339E+00
        -11   -1    0    0    0    0  0.00000000000E+00  0.00000000000E+00  0.45593999997E+02  0.45594000000E+02  0.51100000000E-03 0.  1.
         11   -1    0    0    0    0 -0.00000000000E+00 -0.00000000000E+00 -0.45593999997E+02  0.45594000000E+02  0.51100000000E-03 0. -1.
    9900012    2    1    2    0    0  0.76672515830E-01 -0.10791625897E+01  0.47182013270E+00  0.90007709863E+02  0.89999970833E+02 0.  0.
         12    1    1    2    0    0 -0.76672515830E-01  0.10791625897E+01 -0.47182013270E+00  0.11802901369E+01  0.00000000000E+00 0. -1.
         11    1    3    3    0    0  0.57470248625E+01 -0.68467818703E+01  0.37453705311E+01  0.96919821206E+01  0.51100000000E-03 0. -1.
        -11    1    3    3    0    0  0.57105654206E+01 -0.17593786548E+02  0.31725611830E+02  0.36724192690E+02  0.51100000000E-03 0.  1.
         12    1    3    3    0    0 -0.11380917767E+02  0.23361405829E+02 -0.34999162228E+02  0.43591535052E+02  0.00000000000E+00 0. -1.
</event>
<event>
 7    1  0.2682188E-015  0.9000780E+02  0.7816164E-02  0.1186339E+00
        -11   -1    0    0    0    0  0.00000000000E+00  0.00000000000E+00  0.45593999997E+02  0.45594000000E+02  0.51100000000E-03 0.  1.
         11   -1    0    0    0    0 -0.00000000000E+00 -0.00000000000E+00 -0.45593999997E+02  0.45594000000E+02  0.51100000000E-03 0. -1.
    9900012    2    1    2    0    0 -0.11545774170E+01  0.14294492016E-02  0.24458414687E+00  0.90007799822E+02  0.90000061980E+02 0.  0.
         12    1    1    2    0    0  0.11545774170E+01 -0.14294492016E-02 -0.24458414687E+00  0.11802001780E+01  0.00000000000E+00 0. -1.
         11    1    3    3    0    0  0.12110854300E+02  0.76798006022E+01 -0.41067550032E+02  0.43499376950E+02  0.51100000000E-03 0. -1.
        -11    1    3    3    0    0  0.13044780399E+01 -0.59052878396E+01  0.74040529406E+01  0.95600255038E+01  0.51100000000E-03 0.  1.
        -12    1    3    3    0    0 -0.14569909757E+02 -0.17730833134E+01  0.33908081239E+02  0.36948397368E+02  0.00000000000E+00 0.  1.
</event>
<event>
 7    1  0.2682188E-015  0.9000778E+02  0.7816164E-02  0.1186339E+00
        -11   -1    0    0    0    0  0.00000000000E+00  0.00000000000E+00  0.45593999997E+02  0.45594000000E+02  0.51100000000E-03 0.  1.
         11   -1    0    0    0    0 -0.00000000000E+00 -0.00000000000E+00 -0.45593999997E+02  0.45594000000E+02  0.51100000000E-03 0. -1.
    9900012    2    1    2    0    0  0.69677676071E+00 -0.80204756536E+00  0.51394004759E+00  0.90007782849E+02  0.90000044782E+02 0.  0.
         12    1    1    2    0    0 -0.69677676071E+00  0.80204756536E+00 -0.51394004759E+00  0.11802171512E+01  0.00000000000E+00 0. -1.
         11    1    3    3    0    0  0.34138625144E+01 -0.24885575154E+02 -0.23436518988E+02  0.34354282565E+02  0.51100000000E-03 0. -1.
        -11    1    3    3    0    0 -0.22533480356E+01 -0.12939119198E+02  0.49347793443E+01  0.14030339641E+02  0.51100000000E-03 0.  1.
        -12    1    3    3    0    0 -0.46373771810E+00  0.37022646787E+02  0.19015679691E+02  0.41623160643E+02  0.00000000000E+00 0.  1.
</event>
<event>
 7    1  0.2682188E-015  0.9000749E+02  0.7816164E-02  0.1186340E+00
        -11   -1    0    0    0    0  0.00000000000E+00  0.00000000000E+00  0.45593999997E+02  0.45594000000E+02  0.51100000000E-03 0.  1.
         11   -1    0    0    0    0 -0.00000000000E+00 -0.00000000000E+00 -0.45593999997E+02  0.45594000000E+02  0.51100000000E-03 0. -1.
    9900012    2    1    2    0    0  0.87092248178E+00 -0.55352532256E+00 -0.57332433647E+00  0.90007492886E+02  0.89999750992E+02 0.  0.
         12    1    1    2    0    0 -0.87092248178E+00  0.55352532256E+00  0.57332433647E+00  0.11805071142E+01  0.00000000000E+00 0. -1.
         11    1    3    3    0    0 -0.26545443556E+02  0.12247919452E+02 -0.69050527338E+01  0.30039172059E+02  0.51100000000E-03 0. -1.
        -11    1    3    3    0    0 -0.73131308398E+01 -0.13478777380E+02  0.17700242264E+02  0.23419178013E+02  0.51100000000E-03 0.  1.
         12    1    3    3    0    0  0.34729496878E+02  0.67733260570E+00 -0.11368513867E+02  0.36549142813E+02  0.00000000000E+00 0. -1.
</event>
<event>
 7    1  0.2682188E-015  0.9000688E+02  0.7816164E-02  0.1186341E+00
        -11   -1    0    0    0    0  0.00000000000E+00  0.00000000000E+00  0.45593999997E+02  0.45594000000E+02  0.51100000000E-03 0.  1.
         11   -1    0    0    0    0 -0.00000000000E+00 -0.00000000000E+00 -0.45593999997E+02  0.45594000000E+02  0.51100000000E-03 0. -1.
    9900012    2    1    2    0    0 -0.97086249956E+00 -0.18845039888E+00  0.64572875459E+00  0.90006876310E+02  0.89999126273E+02 0.  0.
         12    1    1    2    0    0  0.97086249956E+00  0.18845039888E+00 -0.64572875459E+00  0.11811236897E+01  0.00000000000E+00 0. -1.
         11    1    3    3    0    0 -0.33185616520E+00 -0.62992006062E+01 -0.79131807820E+01  0.10119707858E+02  0.51100000000E-03 0. -1.
        -11    1    3    3    0    0  0.19578120985E+02 -0.18580755995E+02 -0.22661144676E+02  0.35243081490E+02  0.51100000000E-03 0.  1.
        -12    1    3    3    0    0 -0.20217127320E+02  0.24691506202E+02  0.31220054213E+02  0.44644086961E+02  0.00000000000E+00 0.  1.
</event>
<event>
 7    1  0.2682188E-015  0.9000770E+02  0.7816164E-02  0.1186339E+00
        -11   -1    0    0    0    0  0.00000000000E+00  0.00000000000E+00  0.45593999997E+02  0.45594000000E+02  0.51100000000E-03 0. -1.
         11   -1    0    0    0    0 -0.00000000000E+00 -0.00000000000E+00 -0.45593999997E+02  0.45594000000E+02  0.51100000000E-03 0.  1.
    9900012    2    1    2    0    0  0.58410116168E+00  0.10080812448E+01  0.18896289880E+00  0.90007699640E+02  0.89999960475E+02 0.  0.
         12    1    1    2    0    0 -0.58410116168E+00 -0.10080812448E+01 -0.18896289880E+00  0.11803003602E+01  0.00000000000E+00 0. -1.
         11    1    3    3    0    0  0.19157856681E+02  0.27895886901E+02  0.27881700573E+02  0.43847385392E+02  0.51100000000E-03 0. -1.
        -11    1    3    3    0    0  0.52576675154E+00 -0.11374086254E+02 -0.41886078697E+01  0.12132217643E+02  0.51100000000E-03 0.  1.
        -12    1    3    3    0    0 -0.19099522271E+02 -0.15513719402E+02 -0.23504129805E+02  0.34028096605E+02  0.00000000000E+00 0.  1.
</event>
<event>
 7    1  0.2682188E-015  0.9000727E+02  0.7816164E-02  0.1186340E+00
        -11   -1    0    0    0    0  0.00000000000E+00  0.00000000000E+00  0.45593999997E+02  0.45594000000E+02  0.51100000000E-03 0.  1.
         11   -1    0    0    0    0 -0.00000000000E+00 -0.00000000000E+00 -0.45593999997E+02  0.45594000000E+02  0.51100000000E-03 0. -1.
    9900012    2    1    2    0    0  0.75080846144E+00  0.76615724392E+00  0.49336202575E+00  0.90007272954E+02  0.89999528156E+02 0.  0.
         12    1    1    2    0    0 -0.75080846144E+00 -0.76615724392E+00 -0.49336202575E+00  0.11807270458E+01  0.00000000000E+00 0. -1.
         11    1    3    3    0    0 -0.87740376462E+01  0.14037786298E+01 -0.89449798278E+00  0.89305351442E+01  0.51100000000E-03 0. -1.
        -11    1    3    3    0    0 -0.33192317428E+02 -0.12107065764E+02  0.83429575180E+01  0.36303111686E+02  0.51100000000E-03 0.  1.
         12    1    3    3    0    0  0.42717163536E+02  0.11469444378E+02 -0.69550975095E+01  0.44773626124E+02  0.00000000000E+00 0. -1.
</event>
<event>
 7    1  0.3242291E-015  0.9000793E+02  0.7816164E-02  0.1186339E+00
        -11   -1    0    0    0    0  0.00000000000E+00  0.00000000000E+00  0.45593999997E+02  0.45594000000E+02  0.51100000000E-03 0. -1.
         11   -1    0    0    0    0 -0.00000000000E+00 -0.00000000000E+00 -0.45593999997E+02  0.45594000000E+02  0.51100000000E-03 0.  1.
    9900012    2    1    2    0    0 -0.36120880419E+00  0.10152178496E+01 -0.48106283677E+00  0.90007931979E+02  0.90000195880E+02 0.  0.
         12    1    1    2    0    0  0.36120880419E+00 -0.10152178496E+01  0.48106283677E+00  0.11800680215E+01  0.00000000000E+00 0. -1.
         11    1    3    3    0    0  0.55641563718E-01  0.85344519925E+00 -0.10087169767E+02  0.10123362034E+02  0.51100000000E-03 0. -1.
        -11    1    3    3    0    0  0.37425861448E+02 -0.11951432972E+01 -0.77353632635E+01  0.38235576597E+02  0.51100000000E-03 0.  1.
         12    1    3    3    0    0 -0.37842711815E+02  0.13569159475E+01  0.17341470194E+02  0.41648993348E+02  0.00000000000E+00 0. -1.
</event>
<event>
 7    1  0.2682188E-015  0.9000770E+02  0.7816164E-02  0.1186339E+00
        -11   -1    0    0    0    0  0.00000000000E+00  0.00000000000E+00  0.45593999997E+02  0.45594000000E+02  0.51100000000E-03 0. -1.
         11   -1    0    0    0    0 -0.00000000000E+00 -0.00000000000E+00 -0.45593999997E+02  0.45594000000E+02  0.51100000000E-03 0.  1.
    9900012    2    1    2    0    0 -0.66600553045E+00 -0.61987091300E+00 -0.75187197634E+00  0.90007697164E+02  0.89999957967E+02 0.  0.
         12    1    1    2    0    0  0.66600553045E+00  0.61987091300E+00  0.75187197634E+00  0.11803028358E+01  0.00000000000E+00 0. -1.
         11    1    3    3    0    0 -0.63891442465E+01  0.21056032347E+02  0.14846769131E+02  0.26544382010E+02  0.51100000000E-03 0. -1.
        -11    1    3    3    0    0 -0.14508601404E+01  0.12766709149E+02  0.12884965417E+02  0.18196598355E+02  0.51100000000E-03 0.  1.
        -12    1    3    3    0    0  0.71739988564E+01 -0.34442612409E+02 -0.28483606524E+02  0.45266716799E+02  0.00000000000E+00 0.  1.
</event>
<event>
 7    1  0.2682188E-015  0.9000780E+02  0.7816164E-02  0.1186339E+00
        -11   -1    0    0    0    0  0.00000000000E+00  0.00000000000E+00  0.45593999997E+02  0.45594000000E+02  0.51100000000E-03 0. -1.
         11   -1    0    0    0    0 -0.00000000000E+00 -0.00000000000E+00 -0.45593999997E+02  0.45594000000E+02  0.51100000000E-03 0.  1.
    9900012    2    1    2    0    0 -0.20635775830E+00 -0.16412561965E-01 -0.11619043001E+01  0.90007798958E+02  0.90000061104E+02 0.  0.
         12    1    1    2    0    0  0.20635775830E+00  0.16412561965E-01  0.11619043001E+01  0.11802010419E+01  0.00000000000E+00 0. -1.
         11    1    3    3    0    0 -0.48537173380E+01  0.95132110697E+01  0.44972711412E+01  0.11588149327E+02  0.51100000000E-03 0. -1.
        -11    1    3    3    0    0 -0.22872942139E+01  0.31024422379E+02 -0.17387351867E+02  0.35637992424E+02  0.51100000000E-03 0.  1.
         12    1    3    3    0    0  0.69346537937E+01 -0.40554046011E+02  0.11728176426E+02  0.42781657207E+02  0.00000000000E+00 0. -1.
</event>
<event>
 7    1  0.2682188E-015  0.9000771E+02  0.7816164E-02  0.1186339E+00
        -11   -1    0    0    0    0  0.00000000000E+00  0.00000000000E+00  0.45593999997E+02  0.45594000000E+02  0.51100000000E-03 0. -1.
         11   -1    0    0    0    0 -0.00000000000E+00 -0.00000000000E+00 -0.45593999997E+02  0.45594000000E+02  0.51100000000E-03 0.  1.
    9900012    2    1    2    0    0 -0.11059147938E+01  0.39959238563E+00  0.10179821136E+00  0.90007710001E+02  0.89999970973E+02 0.  0.
         12    1    1    2    0    0  0.11059147938E+01 -0.39959238563E+00 -0.10179821136E+00  0.11802899990E+01  0.00000000000E+00 0. -1.
         11    1    3    3    0    0 -0.18850112788E+01 -0.32421358791E+02  0.11874082132E+02  0.34578773838E+02  0.51100000000E-03 0. -1.
        -11    1    3    3    0    0  0.61648752910E+01 -0.77366815963E+01  0.51511561151E+01  0.11153310677E+02  0.51100000000E-03 0.  1.
        -12    1    3    3    0    0 -0.53857788060E+01  0.40557632773E+02 -0.16923440036E+02  0.44275625486E+02  0.00000000000E+00 0.  1.
</event>
<event>
 7    1  0.2682188E-015  0.9000782E+02  0.7816164E-02  0.1186339E+00
        -11   -1    0    0    0    0  0.00000000000E+00  0.00000000000E+00  0.45593999997E+02  0.45594000000E+02  0.51100000000E-03 0. -1.
         11   -1    0    0    0    0 -0.00000000000E+00 -0.00000000000E+00 -0.45593999997E+02  0.45594000000E+02  0.51100000000E-03 0.  1.
    9900012    2    1    2    0    0  0.10232613476E+01  0.25759876178E+00 -0.52857977911E+00  0.90007823111E+02  0.90000085576E+02 0.  0.
         12    1    1    2    0    0 -0.10232613476E+01 -0.25759876178E+00  0.52857977911E+00  0.11801768894E+01  0.00000000000E+00 0. -1.
         11    1    3    3    0    0 -0.82388506497E+01  0.99570997847E+01  0.46124592607E+01  0.13722145490E+02  0.51100000000E-03 0. -1.
        -11    1    3    3    0    0 -0.20777321147E+02 -0.16408202690E+02 -0.27552974236E+02  0.38211157782E+02  0.51100000000E-03 0.  1.
         12    1    3    3    0    0  0.30039433144E+02  0.67087016671E+01  0.22411935197E+02  0.38074519838E+02  0.00000000000E+00 0. -1.
</event>
<event>
 7    1  0.2682188E-015  0.9000769E+02  0.7816164E-02  0.1186339E+00
        -11   -1    0    0    0    0  0.00000000000E+00  0.00000000000E+00  0.45593999997E+02  0.45594000000E+02  0.51100000000E-03 0.  1.
         11   -1    0    0    0    0 -0.00000000000E+00 -0.00000000000E+00 -0.45593999997E+02  0.45594000000E+02  0.51100000000E-03 0. -1.
    9900012    2    1    2    0    0  0.10504348348E+01 -0.36759885584E+00 -0.39316458692E+00  0.90007694678E+02  0.89999955448E+02 0.  0.
         12    1    1    2    0    0 -0.10504348348E+01  0.36759885584E+00  0.39316458692E+00  0.11803053221E+01  0.00000000000E+00 0. -1.
         11    1    3    3    0    0  0.31818085743E+01  0.70650392546E+01 -0.31510054179E+01  0.83646590413E+01  0.51100000000E-03 0. -1.
        -11    1    3    3    0    0 -0.35890526137E+01  0.31534206626E+02 -0.18999072309E+02  0.36989893689E+02  0.51100000000E-03 0.  1.
         12    1    3    3    0    0  0.14576788742E+01 -0.38966844737E+02  0.21756913140E+02  0.44653141948E+02  0.00000000000E+00 0. -1.
</event>
<event>
 7    1  0.2682188E-015  0.9000773E+02  0.7816164E-02  0.1186339E+00
        -11   -1    0    0    0    0  0.00000000000E+00  0.00000000000E+00  0.45593999997E+02  0.45594000000E+02  0.51100000000E-03 0. -1.
         11   -1    0    0    0    0 -0.00000000000E+00 -0.00000000000E+00 -0.45593999997E+02  0.45594000000E+02  0.51100000000E-03 0.  1.
    9900012    2    1    2    0    0  0.23418699110E+00 -0.64323710621E+00 -0.96147308628E+00  0.90007733921E+02  0.89999995209E+02 0.  0.
         12    1    1    2    0    0 -0.23418699110E+00  0.64323710621E+00  0.96147308628E+00  0.11802660790E+01  0.00000000000E+00 0. -1.
         11    1    3    3    0    0 -0.16353933176E+02  0.60764487131E+01  0.69612778933E+01  0.18783869395E+02  0.51100000000E-03 0. -1.
        -11    1    3    3    0    0 -0.12200230631E+02 -0.29657526362E+02  0.44822306664E+01  0.32380625216E+02  0.51100000000E-03 0.  1.
         12    1    3    3    0    0  0.28788350798E+02  0.22937840543E+02 -0.12404981646E+02  0.38843239310E+02  0.00000000000E+00 0. -1.
</event>
<event>
 7    1  0.2682188E-015  0.9000774E+02  0.7816164E-02  0.1186339E+00
        -11   -1    0    0    0    0  0.00000000000E+00  0.00000000000E+00  0.45593999997E+02  0.45594000000E+02  0.51100000000E-03 0.  1.
         11   -1    0    0    0    0 -0.00000000000E+00 -0.00000000000E+00 -0.45593999997E+02  0.45594000000E+02  0.51100000000E-03 0. -1.
    9900012    2    1    2    0    0 -0.11352896080E+01 -0.31596041588E+00  0.65537040504E-01  0.90007742154E+02  0.90000003551E+02 0.  0.
         12    1    1    2    0    0  0.11352896080E+01  0.31596041588E+00 -0.65537040504E-01  0.11802578456E+01  0.00000000000E+00 0. -1.
         11    1    3    3    0    0  0.23013791256E+02  0.17642254708E+02 -0.28369820524E+02  0.40567603528E+02  0.51100000000E-03 0. -1.
        -11    1    3    3    0    0  0.82783759430E+00  0.22200188272E+01  0.14062646162E+02  0.14260849064E+02  0.51100000000E-03 0.  1.
        -12    1    3    3    0    0 -0.24976918458E+02 -0.20178233951E+02  0.14372711403E+02  0.35179289563E+02  0.00000000000E+00 0.  1.
</event>
<event>
 7    1  0.2682188E-015  0.9000767E+02  0.7816164E-02  0.1186339E+00
        -11   -1    0    0    0    0  0.00000000000E+00  0.00000000000E+00  0.45593999997E+02  0.45594000000E+02  0.51100000000E-03 0. -1.
         11   -1    0    0    0    0 -0.00000000000E+00 -0.00000000000E+00 -0.45593999997E+02  0.45594000000E+02  0.51100000000E-03 0.  1.
    9900012    2    1    2    0    0  0.92303406153E+00 -0.51026138370E+00 -0.52991491611E+00  0.90007674462E+02  0.89999934964E+02 0.  0.
         12    1    1    2    0    0 -0.92303406153E+00  0.51026138370E+00  0.52991491611E+00  0.11803255385E+01  0.00000000000E+00 0. -1.
         11    1    3    3    0    0 -0.19244884263E+02  0.34624594673E+01  0.27154684659E+02  0.33462383284E+02  0.51100000000E-03 0. -1.
        -11    1    3    3    0    0  0.87417108308E+01  0.51804352541E+01  0.11124350802E+02  0.15066704971E+02  0.51100000000E-03 0.  1.
        -12    1    3    3    0    0  0.11426207494E+02 -0.91531561051E+01 -0.38808950376E+02  0.41478586206E+02  0.00000000000E+00 0.  1.
</event>
<event>
 7    1  0.2682188E-015  0.9000886E+02  0.7816164E-02  0.1186337E+00
        -11   -1    0    0    0    0  0.00000000000E+00  0.00000000000E+00  0.45593999997E+02  0.45594000000E+02  0.51100000000E-03 0.  1.
         11   -1    0    0    0    0 -0.00000000000E+00 -0.00000000000E+00 -0.45593999997E+02  0.45594000000E+02  0.51100000000E-03 0. -1.
    9900012    2    1    2    0    0  0.78877642981E-01  0.17565308489E+00  0.11633093985E+01  0.90008862839E+02  0.90001139021E+02 0.  0.
         12    1    1    2    0    0 -0.78877642981E-01 -0.17565308489E+00 -0.11633093985E+01  0.11791371614E+01  0.00000000000E+00 0. -1.
         11    1    3    3    0    0 -0.92320398484E+01  0.26645345100E+02 -0.24817305612E+02  0.37564659367E+02  0.51100000000E-03 0. -1.
        -11    1    3    3    0    0  0.92981981831E+01  0.24472102508E+01 -0.43366652017E+01  0.10547606022E+02  0.51100000000E-03 0.  1.
        -12    1    3    3    0    0  0.12719308285E-01 -0.28916902266E+02  0.30317280212E+02  0.41896597450E+02  0.00000000000E+00 0.  1.
</event>
<event>
 7    1  0.2682188E-015  0.9000776E+02  0.7816164E-02  0.1186339E+00
        -11   -1    0    0    0    0  0.00000000000E+00  0.00000000000E+00  0.45593999997E+02  0.45594000000E+02  0.51100000000E-03 0. -1.
         11   -1    0    0    0    0 -0.00000000000E+00 -0.00000000000E+00 -0.45593999997E+02  0.45594000000E+02  0.51100000000E-03 0.  1.
    9900012    2    1    2    0    0  0.70051075356E+00 -0.18678914590E+00 -0.93132712530E+00  0.90007756078E+02  0.90000017658E+02 0.  0.
         12    1    1    2    0    0 -0.70051075356E+00  0.18678914590E+00  0.93132712530E+00  0.11802439219E+01  0.00000000000E+00 0. -1.
         11    1    3    3    0    0  0.10504675306E+02 -0.77922668635E+01 -0.97399361346E+01  0.16307482403E+02  0.51100000000E-03 0. -1.
        -11    1    3    3    0    0 -0.28993975872E+02 -0.13257910904E+02 -0.16323103824E+02  0.35817126589E+02  0.51100000000E-03 0.  1.
         12    1    3    3    0    0  0.19189811320E+02  0.20863388622E+02  0.25131712833E+02  0.37883147087E+02  0.00000000000E+00 0. -1.
</event>
<event>
 7    1  0.2682188E-015  0.9000805E+02  0.7816164E-02  0.1186338E+00
        -11   -1    0    0    0    0  0.00000000000E+00  0.00000000000E+00  0.45593999997E+02  0.45594000000E+02  0.51100000000E-03 0. -1.
         11   -1    0    0    0    0 -0.00000000000E+00 -0.00000000000E+00 -0.45593999997E+02  0.45594000000E+02  0.51100000000E-03 0.  1.
    9900012    2    1    2    0    0 -0.40420455418E+00 -0.10863380173E+01  0.22086476480E+00  0.90008045402E+02  0.90000310801E+02 0.  0.
         12    1    1    2    0    0  0.40420455418E+00  0.10863380173E+01 -0.22086476480E+00  0.11799545982E+01  0.00000000000E+00 0. -1.
         11    1    3    3    0    0 -0.56551258691E+01 -0.84377261314E+00 -0.24819635299E+01  0.62331808929E+01  0.51100000000E-03 0. -1.
        -11    1    3    3    0    0  0.18105446643E+02  0.36834478780E+02 -0.10510103028E+02  0.42368010233E+02  0.51100000000E-03 0.  1.
         12    1    3    3    0    0 -0.12854525328E+02 -0.37077044185E+02  0.13212931323E+02  0.41406854276E+02  0.00000000000E+00 0. -1.
</event>
<event>
 7    1  0.2682188E-015  0.9000769E+02  0.7816164E-02  0.1186339E+00
        -11   -1    0    0    0    0  0.00000000000E+00  0.00000000000E+00  0.45593999997E+02  0.45594000000E+02  0.51100000000E-03 0. -1.
         11   -1    0    0    0    0 -0.00000000000E+00 -0.00000000000E+00 -0.45593999997E+02  0.45594000000E+02  0.51100000000E-03 0.  1.
    9900012    2    1    2    0    0  0.68251707892E+00 -0.93952488598E+00  0.21114835274E+00  0.90007694869E+02  0.89999955642E+02 0.  0.
         12    1    1    2    0    0 -0.68251707892E+00  0.93952488598E+00 -0.21114835274E+00  0.11803051306E+01  0.00000000000E+00 0. -1.
         11    1    3    3    0    0  0.20969543325E+02  0.22819668605E+01  0.28690196975E+02  0.35609781279E+02  0.51100000000E-03 0. -1.
        -11    1    3    3    0    0  0.77203774882E+01 -0.13882338618E+02 -0.13735495987E+02  0.20999700101E+02  0.51100000000E-03 0.  1.
        -12    1    3    3    0    0 -0.28007403734E+02  0.10660846872E+02 -0.14743552635E+02  0.33398213489E+02  0.00000000000E+00 0.  1.
</event>
<event>
 7    1  0.2682188E-015  0.9000774E+02  0.7816164E-02  0.1186339E+00
        -11   -1    0    0    0    0  0.00000000000E+00  0.00000000000E+00  0.45593999997E+02  0.45594000000E+02  0.51100000000E-03 0. -1.
         11   -1    0    0    0    0 -0.00000000000E+00 -0.00000000000E+00 -0.45593999997E+02  0.45594000000E+02  0.51100000000E-03 0.  1.
    9900012    2    1    2    0    0 -0.59238601590E+00 -0.10202299716E+01 -0.35075313347E-01  0.90007737036E+02  0.89999998365E+02 0.  0.
         12    1    1    2    0    0  0.59238601590E+00  0.10202299716E+01  0.35075313347E-01  0.11802629641E+01  0.00000000000E+00 0. -1.
         11    1    3    3    0    0  0.52527249934E+01 -0.56025965503E+01 -0.19004551337E+01  0.79115066794E+01  0.51100000000E-03 0. -1.
        -11    1    3    3    0    0  0.27987980097E+02 -0.22500947019E+02 -0.97831999610E+01  0.37220030204E+02  0.51100000000E-03 0.  1.
         12    1    3    3    0    0 -0.33833091106E+02  0.27083313598E+02  0.11648579781E+02  0.44876200153E+02  0.00000000000E+00 0. -1.
</event>
<event>
 7    1  0.2682188E-015  0.9000773E+02  0.7816164E-02  0.1186339E+00
        -11   -1    0    0    0    0  0.00000000000E+00  0.00000000000E+00  0.45593999997E+02  0.45594000000E+02  0.51100000000E-03 0.  1.
         11   -1    0    0    0    0 -0.00000000000E+00 -0.00000000000E+00 -0.45593999997E+02  0.45594000000E+02  0.51100000000E-03 0. -1.
    9900012    2    1    2    0    0 -0.13234507319E+00 -0.23095938920E+00  0.11498624796E+01  0.90007728345E+02  0.89999989559E+02 0.  0.
         12    1    1    2    0    0  0.13234507319E+00  0.23095938920E+00 -0.11498624796E+01  0.11802716551E+01  0.00000000000E+00 0. -1.
         11    1    3    3    0    0 -0.53091805851E+01  0.74825031996E+01  0.52689575138E+01  0.10580036208E+02  0.51100000000E-03 0. -1.
        -11    1    3    3    0    0 -0.59867017551E+01 -0.13619833793E+02  0.35154649130E+02  0.38173155832E+02  0.51100000000E-03 0.  1.
         12    1    3    3    0    0  0.11163537267E+02  0.59063712040E+01 -0.39273744164E+02  0.41254536305E+02  0.00000000000E+00 0. -1.
</event>
<event>
 7    1  0.2682188E-015  0.9000770E+02  0.7816164E-02  0.1186339E+00
        -11   -1    0    0    0    0  0.00000000000E+00  0.00000000000E+00  0.45593999997E+02  0.45594000000E+02  0.51100000000E-03 0.  1.
         11   -1    0    0    0    0 -0.00000000000E+00 -0.00000000000E+00 -0.45593999997E+02  0.45594000000E+02  0.51100000000E-03 0. -1.
    9900012    2    1    2    0    0 -0.85550531850E+00 -0.77120378639E+00  0.25781210203E+00  0.90007698466E+02  0.89999959286E+02 0.  0.
         12    1    1    2    0    0  0.85550531850E+00  0.77120378639E+00 -0.25781210203E+00  0.11803015335E+01  0.00000000000E+00 0. -1.
         11    1    3    3    0    0 -0.11431355823E+02  0.33321671155E+02  0.93562884043E+01  0.36449277051E+02  0.51100000000E-03 0. -1.
        -11    1    3    3    0    0 -0.92520017712E+01  0.37087093315E+01 -0.31880607447E+01  0.10465074928E+02  0.51100000000E-03 0.  1.
        -12    1    3    3    0    0  0.19827852276E+02 -0.37801584273E+02 -0.59104155576E+01  0.43093346488E+02  0.00000000000E+00 0.  1.
</event>
<event>
 7    1  0.2682188E-015  0.9000773E+02  0.7816164E-02  0.1186339E+00
        -11   -1    0    0    0    0  0.00000000000E+00  0.00000000000E+00  0.45593999997E+02  0.45594000000E+02  0.51100000000E-03 0. -1.
         11   -1    0    0    0    0 -0.00000000000E+00 -0.00000000000E+00 -0.45593999997E+02  0.45594000000E+02  0.51100000000E-03 0.  1.
    9900012    2    1    2    0    0 -0.84621111176E+00  0.76783320354E+00  0.29563642781E+00  0.90007728009E+02  0.89999989219E+02 0.  0.
         12    1    1    2    0    0  0.84621111176E+00 -0.76783320354E+00 -0.29563642781E+00  0.11802719905E+01  0.00000000000E+00 0. -1.
         11    1    3    3    0    0 -0.36592154293E+01  0.27197947219E+02 -0.32987836623E+02  0.42910552965E+02  0.51100000000E-03 0. -1.
        -11    1    3    3    0    0  0.54199191997E+01 -0.59405216333E+01  0.13779324126E+00  0.80426555717E+01  0.51100000000E-03 0.  1.
        -12    1    3    3    0    0 -0.26069148822E+01 -0.20489592382E+02  0.33145679809E+02  0.39054519472E+02  0.00000000000E+00 0.  1.
</event>
<event>
 7    1  0.2682188E-015  0.9000779E+02  0.7816164E-02  0.1186339E+00
        -11   -1    0    0    0    0  0.00000000000E+00  0.00000000000E+00  0.45593999997E+02  0.45594000000E+02  0.51100000000E-03 0.  1.
         11   -1    0    0    0    0 -0.00000000000E+00 -0.00000000000E+00 -0.45593999997E+02  0.45594000000E+02  0.51100000000E-03 0. -1.
    9900012    2    1    2    0    0  0.56114233886E-01  0.35502043351E+00  0.11241421506E+01  0.90007794980E+02  0.90000057073E+02 0.  0.
         12    1    1    2    0    0 -0.56114233886E-01 -0.35502043351E+00 -0.11241421506E+01  0.11802050204E+01  0.00000000000E+00 0. -1.
         11    1    3    3    0    0 -0.34555963737E+02  0.21031159190E+02  0.91792770876E+01  0.41481121185E+02  0.51100000000E-03 0. -1.
        -11    1    3    3    0    0  0.67806722886E+01  0.47283607674E+01  0.36948887222E+01  0.90546736641E+01  0.51100000000E-03 0.  1.
        -12    1    3    3    0    0  0.27831405682E+02 -0.25404499524E+02 -0.11750023659E+02  0.39472000130E+02  0.00000000000E+00 0.  1.
</event>
<event>
 7    1  0.2682188E-015  0.9000775E+02  0.7816164E-02  0.1186339E+00
        -11   -1    0    0    0    0  0.00000000000E+00  0.00000000000E+00  0.45593999997E+02  0.45594000000E+02  0.51100000000E-03 0.  1.
         11   -1    0    0    0    0 -0.00000000000E+00 -0.00000000000E+00 -0.45593999997E+02  0.45594000000E+02  0.51100000000E-03 0. -1.
    9900012    2    1    2    0    0  0.92078597250E+00 -0.73287171560E+00 -0.89649721764E-01  0.90007752216E+02  0.90000013745E+02 0.  0.
         12    1    1    2    0    0 -0.92078597250E+00  0.73287171560E+00  0.89649721764E-01  0.11802477839E+01  0.00000000000E+00 0. -1.
         11    1    3    3    0    0 -0.73313827426E+01  0.10751318490E+02 -0.34270549328E+02  0.36658021956E+02  0.51100000000E-03 0. -1.
        -11    1    3    3    0    0  0.28696225169E+01  0.76481501736E+01 -0.48854756923E+01  0.95182355229E+01  0.51100000000E-03 0.  1.
        -12    1    3    3    0    0  0.53825461982E+01 -0.19132340380E+02  0.39066375298E+02  0.43831494738E+02  0.00000000000E+00 0.  1.
</event>
<event>
 7    1  0.2682188E-015  0.9000771E+02  0.7816164E-02  0.1186339E+00
        -11   -1    0    0    0    0  0.00000000000E+00  0.00000000000E+00  0.45593999997E+02  0.45594000000E+02  0.51100000000E-03 0.  1.
         11   -1    0    0    0    0 -0.00000000000E+00 -0.00000000000E+00 -0.45593999997E+02  0.45594000000E+02  0.51100000000E-03 0. -1.
    9900012    2    1    2    0    0 -0.76064072910E+00 -0.89927655664E+00 -0.76204167962E-01  0.90007712018E+02  0.89999973017E+02 0.  0.
         12    1    1    2    0    0  0.76064072910E+00  0.89927655664E+00  0.76204167962E-01  0.11802879815E+01  0.00000000000E+00 0. -1.
         11    1    3    3    0    0  0.21309180594E+02 -0.22087727776E+02 -0.24622675096E+02  0.39347490708E+02  0.51100000000E-03 0. -1.
        -11    1    3    3    0    0  0.79573322017E+01  0.13372772342E+01  0.24905034884E+01  0.84445280540E+01  0.51100000000E-03 0.  1.
        -12    1    3    3    0    0 -0.30027153525E+02  0.19851173985E+02  0.22055967440E+02  0.42215693256E+02  0.00000000000E+00 0.  1.
</event>
<event>
 7    1  0.2682188E-015  0.9000776E+02  0.7816164E-02  0.1186339E+00
        -11   -1    0    0    0    0  0.00000000000E+00  0.00000000000E+00  0.45593999997E+02  0.45594000000E+02  0.51100000000E-03 0. -1.
         11   -1    0    0    0    0 -0.00000000000E+00 -0.00000000000E+00 -0.45593999997E+02  0.45594000000E+02  0.51100000000E-03 0.  1.
    9900012    2    1    2    0    0  0.44691927912E+00  0.47131459118E+00 -0.98544342635E+00  0.90007757215E+02  0.90000018810E+02 0.  0.
         12    1    1    2    0    0 -0.44691927912E+00 -0.47131459118E+00  0.98544342635E+00  0.11802427854E+01  0.00000000000E+00 0. -1.
         11    1    3    3    0    0  0.10729993164E+02  0.13308715205E+01  0.29566219101E+01  0.11209174175E+02  0.51100000000E-03 0. -1.
        -11    1    3    3    0    0 -0.25618975428E+01  0.32289681985E+02  0.19186732080E+02  0.37647278386E+02  0.51100000000E-03 0.  1.
         12    1    3    3    0    0 -0.77211763425E+01 -0.33149238914E+02 -0.23128797417E+02  0.41151304653E+02  0.00000000000E+00 0. -1.
</event>
<event>
 7    1  0.4618417E-015  0.9000767E+02  0.7816164E-02  0.1186339E+00
        -11   -1    0    0    0    0  0.00000000000E+00  0.00000000000E+00  0.45593999997E+02  0.45594000000E+02  0.51100000000E-03 0. -1.
         11   -1    0    0    0    0 -0.00000000000E+00 -0.00000000000E+00 -0.45593999997E+02  0.45594000000E+02  0.51100000000E-03 0.  1.
    9900012    2    1    2    0    0 -0.47123259012E+00  0.50007082655E+00 -0.95970796702E+00  0.90007673618E+02  0.89999934110E+02 0.  0.
         12    1    1    2    0    0  0.47123259012E+00 -0.50007082655E+00  0.95970796702E+00  0.11803263818E+01  0.00000000000E+00 0. -1.
         11    1    3    3    0    0 -0.70898991081E+00  0.96064258251E+01 -0.29187004188E+01  0.10065033344E+02  0.51100000000E-03 0. -1.
        -11    1    3    3    0    0 -0.92239679626E+01 -0.15658032397E+01 -0.37510862938E+02  0.38660033153E+02  0.51100000000E-03 0.  1.
         12    1    3    3    0    0  0.94617252833E+01 -0.75405517588E+01  0.39469855390E+02  0.41282607121E+02  0.00000000000E+00 0. -1.
</event>
<event>
 7    1  0.2682188E-015  0.9000773E+02  0.7816164E-02  0.1186339E+00
        -11   -1    0    0    0    0  0.00000000000E+00  0.00000000000E+00  0.45593999997E+02  0.45594000000E+02  0.51100000000E-03 0.  1.
         11   -1    0    0    0    0 -0.00000000000E+00 -0.00000000000E+00 -0.45593999997E+02  0.45594000000E+02  0.51100000000E-03 0. -1.
    9900012    2    1    2    0    0  0.61836473946E+00  0.47466246389E+00  0.88620327157E+00  0.90007730690E+02  0.89999991935E+02 0.  0.
         12    1    1    2    0    0 -0.61836473946E+00 -0.47466246389E+00 -0.88620327157E+00  0.11802693100E+01  0.00000000000E+00 0. -1.
         11    1    3    3    0    0 -0.23345442565E+02 -0.71232378589E+01  0.33106318373E+02  0.41131235365E+02  0.51100000000E-03 0. -1.
        -11    1    3    3    0    0  0.83718928066E+00  0.99226449879E+01 -0.10769676991E+01  0.10015968707E+02  0.51100000000E-03 0.  1.
        -12    1    3    3    0    0  0.23126618024E+02 -0.23247446651E+01 -0.31143147402E+02  0.38860526619E+02  0.00000000000E+00 0.  1.
</event>
<event>
 7    1  0.2682188E-015  0.9000763E+02  0.7816164E-02  0.1186339E+00
        -11   -1    0    0    0    0  0.00000000000E+00  0.00000000000E+00  0.45593999997E+02  0.45594000000E+02  0.51100000000E-03 0. -1.
         11   -1    0    0    0    0 -0.00000000000E+00 -0.00000000000E+00 -0.45593999997E+02  0.45594000000E+02  0.51100000000E-03 0.  1.
    9900012    2    1    2    0    0 -0.10085351053E+01 -0.57496221518E+00  0.21341051159E+00  0.90007631984E+02  0.89999891926E+02 0.  0.
         12    1    1    2    0    0  0.10085351053E+01  0.57496221518E+00 -0.21341051159E+00  0.11803680163E+01  0.00000000000E+00 0. -1.
         11    1    3    3    0    0 -0.44923342025E+01  0.79877966425E+01 -0.76067349807E+00  0.91959005117E+01  0.51100000000E-03 0. -1.
        -11    1    3    3    0    0 -0.30780386884E+02  0.17901164777E+02  0.91229395903E+01  0.36757474670E+02  0.51100000000E-03 0.  1.
         12    1    3    3    0    0  0.34264185981E+02 -0.26463923634E+02 -0.81488555806E+01  0.44054256802E+02  0.00000000000E+00 0. -1.
</event>
<event>
 7    1  0.2682188E-015  0.9000791E+02  0.7816164E-02  0.1186339E+00
        -11   -1    0    0    0    0  0.00000000000E+00  0.00000000000E+00  0.45593999997E+02  0.45594000000E+02  0.51100000000E-03 0.  1.
         11   -1    0    0    0    0 -0.00000000000E+00 -0.00000000000E+00 -0.45593999997E+02  0.45594000000E+02  0.51100000000E-03 0. -1.
    9900012    2    1    2    0    0  0.17712761741E+00 -0.10027788006E+01  0.59638433427E+00  0.90007909414E+02  0.90000173019E+02 0.  0.
         12    1    1    2    0    0 -0.17712761741E+00  0.10027788006E+01 -0.59638433427E+00  0.11800905855E+01  0.00000000000E+00 0. -1.
         11    1    3    3    0    0  0.44980787503E+01 -0.68889170576E+01 -0.39317644489E+01  0.91185888499E+01  0.51100000000E-03 0. -1.
        -11    1    3    3    0    0 -0.44304952484E+01  0.41443604162E+02 -0.93563644959E+01  0.42717012664E+02  0.51100000000E-03 0.  1.
         12    1    3    3    0    0  0.10954411548E+00 -0.35557465905E+02  0.13884513279E+02  0.38172307901E+02  0.00000000000E+00 0. -1.
</event>
<event>
 7    1  0.2682188E-015  0.9000777E+02  0.7816164E-02  0.1186339E+00
        -11   -1    0    0    0    0  0.00000000000E+00  0.00000000000E+00  0.45593999997E+02  0.45594000000E+02  0.51100000000E-03 0.  1.
         11   -1    0    0    0    0 -0.00000000000E+00 -0.00000000000E+00 -0.45593999997E+02  0.45594000000E+02  0.51100000000E-03 0. -1.
    9900012    2    1    2    0    0  0.49592567043E+00 -0.98058250535E+00 -0.43063983327E+00  0.90007773333E+02  0.90000035141E+02 0.  0.
         12    1    1    2    0    0 -0.49592567043E+00  0.98058250535E+00  0.43063983327E+00  0.11802266674E+01  0.00000000000E+00 0. -1.
         11    1    3    3    0    0  0.87267683190E+01  0.83232197814E+01 -0.12992230066E+02  0.17726548315E+02  0.51100000000E-03 0. -1.
        -11    1    3    3    0    0 -0.67058171964E+01  0.41991521988E+01 -0.28213240111E+02  0.29301668575E+02  0.51100000000E-03 0.  1.
         12    1    3    3    0    0 -0.15250254522E+01 -0.13502954486E+02  0.40774830343E+02  0.42979556443E+02  0.00000000000E+00 0. -1.
</event>
<event>
 7    1  0.2682188E-015  0.9000775E+02  0.7816164E-02  0.1186339E+00
        -11   -1    0    0    0    0  0.00000000000E+00  0.00000000000E+00  0.45593999997E+02  0.45594000000E+02  0.51100000000E-03 0.  1.
         11   -1    0    0    0    0 -0.00000000000E+00 -0.00000000000E+00 -0.45593999997E+02  0.45594000000E+02  0.51100000000E-03 0. -1.
    9900012    2    1    2    0    0  0.15064521656E+00  0.11047002681E+01  0.38721473148E+00  0.90007749217E+02  0.90000010706E+02 0.  0.
         12    1    1    2    0    0 -0.15064521656E+00 -0.11047002681E+01 -0.38721473148E+00  0.11802507834E+01  0.00000000000E+00 0. -1.
         11    1    3    3    0    0  0.56837169487E+01  0.59873545244E+01  0.47775341697E+01  0.95382328320E+01  0.51100000000E-03 0. -1.
        -11    1    3    3    0    0 -0.32633047484E+02  0.16653629309E+02  0.16346441168E+02  0.40118141736E+02  0.51100000000E-03 0.  1.
         12    1    3    3    0    0  0.27099975752E+02 -0.21536283566E+02 -0.20736760606E+02  0.40351374648E+02  0.00000000000E+00 0. -1.
</event>
<event>
 7    1  0.3134739E-015  0.9000777E+02  0.7816164E-02  0.1186339E+00
        -11   -1    0    0    0    0  0.00000000000E+00  0.00000000000E+00  0.45593999997E+02  0.45594000000E+02  0.51100000000E-03 0.  1.
         11   -1    0    0    0    0 -0.00000000000E+00 -0.00000000000E+00 -0.45593999997E+02  0.45594000000E+02  0.51100000000E-03 0. -1.
    9900012    2    1    2    0    0 -0.64124455253E+00  0.55213095387E+00 -0.82273512016E+00  0.90007772800E+02  0.90000034601E+02 0.  0.
         12    1    1    2    0    0  0.64124455253E+00 -0.55213095387E+00  0.82273512016E+00  0.11802272003E+01  0.00000000000E+00 0. -1.
         11    1    3    3    0    0 -0.66427716587E+01  0.34096373505E+01  0.59984327621E+01  0.95777470229E+01  0.51100000000E-03 0. -1.
        -11    1    3    3    0    0 -0.34653682673E+02 -0.13422024334E+02  0.30280715710E+01  0.37285354735E+02  0.51100000000E-03 0.  1.
         12    1    3    3    0    0  0.40655209779E+02  0.10564517938E+02 -0.98492394532E+01  0.43144671041E+02  0.00000000000E+00 0. -1.
</event>
<event>
 7    1  0.2682188E-015  0.9000769E+02  0.7816164E-02  0.1186339E+00
        -11   -1    0    0    0    0  0.00000000000E+00  0.00000000000E+00  0.45593999997E+02  0.45594000000E+02  0.51100000000E-03 0.  1.
         11   -1    0    0    0    0 -0.00000000000E+00 -0.00000000000E+00 -0.45593999997E+02  0.45594000000E+02  0.51100000000E-03 0. -1.
    9900012    2    1    2    0    0  0.47926620669E+00 -0.61358187559E+00  0.88709997908E+00  0.90007692757E+02  0.89999953501E+02 0.  0.
         12    1    1    2    0    0 -0.47926620669E+00  0.61358187559E+00 -0.88709997908E+00  0.11803072430E+01  0.00000000000E+00 0. -1.
         11    1    3    3    0    0 -0.18975458279E+02  0.36101227957E+02 -0.10334867865E+02  0.42073461600E+02  0.51100000000E-03 0. -1.
        -11    1    3    3    0    0 -0.28386470914E+00 -0.34779601705E+01  0.84929020689E+01  0.91818392457E+01  0.51100000000E-03 0.  1.
        -12    1    3    3    0    0  0.19738589195E+02 -0.33236849663E+02  0.27290657752E+01  0.38752391912E+02  0.00000000000E+00 0.  1.
</event>
<event>
 7    1  0.2682188E-015  0.9000766E+02  0.7816164E-02  0.1186339E+00
        -11   -1    0    0    0    0  0.00000000000E+00  0.00000000000E+00  0.45593999997E+02  0.45594000000E+02  0.51100000000E-03 0.  1.
         11   -1    0    0    0    0 -0.00000000000E+00 -0.00000000000E+00 -0.45593999997E+02  0.45594000000E+02  0.51100000000E-03 0. -1.
    9900012    2    1    2    0    0  0.92405608341E+00 -0.61106456738E+00  0.40734499266E+00  0.90007657044E+02  0.89999917317E+02 0.  0.
         12    1    1    2    0    0 -0.92405608341E+00  0.61106456738E+00 -0.40734499266E+00  0.11803429560E+01  0.00000000000E+00 0. -1.
         11    1    3    3    0    0 -0.26292762263E+02 -0.15460690099E+02  0.20262899923E+02  0.36618675554E+02  0.51100000000E-03 0. -1.
        -11    1    3    3    0    0 -0.79899864170E+01  0.51446672566E+01  0.34002755880E+01  0.10093035146E+02  0.51100000000E-03 0.  1.
        -12    1    3    3    0    0  0.35206804763E+02  0.97049582751E+01 -0.23255830518E+02  0.43295946344E+02  0.00000000000E+00 0.  1.
</event>
<event>
 7    1  0.2979570E-015  0.9000788E+02  0.7816164E-02  0.1186339E+00
        -11   -1    0    0    0    0  0.00000000000E+00  0.00000000000E+00  0.45593999997E+02  0.45594000000E+02  0.51100000000E-03 0. -1.
         11   -1    0    0    0    0 -0.00000000000E+00 -0.00000000000E+00 -0.45593999997E+02  0.45594000000E+02  0.51100000000E-03 0.  1.
    9900012    2    1    2    0    0 -0.54862936604E+00 -0.39440981875E+00 -0.96753734842E+00  0.90007880596E+02  0.90000143820E+02 0.  0.
         12    1    1    2    0    0  0.54862936604E+00  0.39440981875E+00  0.96753734842E+00  0.11801194037E+01  0.00000000000E+00 0. -1.
         11    1    3    3    0    0 -0.78456563363E+01  0.29792468634E+01  0.55278784177E+01  0.10049262425E+02  0.51100000000E-03 0. -1.
        -11    1    3    3    0    0  0.18872594717E+02  0.33899848925E+02 -0.11838361215E+02  0.40565026624E+02  0.51100000000E-03 0.  1.
         12    1    3    3    0    0 -0.11575567747E+02 -0.37273505607E+02  0.53429454492E+01  0.39393591547E+02  0.00000000000E+00 0. -1.
</event>
<event>
 7    1  0.2682188E-015  0.9000768E+02  0.7816164E-02  0.1186339E+00
        -11   -1    0    0    0    0  0.00000000000E+00  0.00000000000E+00  0.45593999997E+02  0.45594000000E+02  0.51100000000E-03 0.  1.
         11   -1    0    0    0    0 -0.00000000000E+00 -0.00000000000E+00 -0.45593999997E+02  0.45594000000E+02  0.51100000000E-03 0. -1.
    9900012    2    1    2    0    0  0.10963212582E+01  0.34267445273E+00  0.27167430859E+00  0.90007680970E+02  0.89999941559E+02 0.  0.
         12    1    1    2    0    0 -0.10963212582E+01 -0.34267445273E+00 -0.27167430859E+00  0.11803190296E+01  0.00000000000E+00 0. -1.
         11    1    3    3    0    0  0.60527426652E+00 -0.40263638809E+02 -0.78839454799E+01  0.41032713335E+02  0.51100000000E-03 0. -1.
        -11    1    3    3    0    0  0.78906688378E+01  0.94828074693E+00  0.14718250965E+01  0.80825837737E+01  0.51100000000E-03 0.  1.
        -12    1    3    3    0    0 -0.73996218461E+01  0.39658032515E+02  0.66837946920E+01  0.40892383861E+02  0.00000000000E+00 0.  1.
</event>
<event>
 7    1  0.2682188E-015  0.9000771E+02  0.7816164E-02  0.1186339E+00
        -11   -1    0    0    0    0  0.00000000000E+00  0.00000000000E+00  0.45593999997E+02  0.45594000000E+02  0.51100000000E-03 0. -1.
         11   -1    0    0    0    0 -0.00000000000E+00 -0.00000000000E+00 -0.45593999997E+02  0.45594000000E+02  0.51100000000E-03 0.  1.
    9900012    2    1    2    0    0  0.10282031779E+01 -0.47569990515E+00 -0.33103036318E+00  0.90007714748E+02  0.89999975783E+02 0.  0.
         12    1    1    2    0    0 -0.10282031779E+01  0.47569990515E+00  0.33103036318E+00  0.11802852520E+01  0.00000000000E+00 0. -1.
         11    1    3    3    0    0  0.37484096959E+02  0.19948653110E+02  0.27870842288E+01  0.42553191708E+02  0.51100000000E-03 0. -1.
        -11    1    3    3    0    0 -0.58059374761E+01  0.47162193650E+01 -0.22201391795E+01  0.78026055464E+01  0.51100000000E-03 0.  1.
        -12    1    3    3    0    0 -0.30649956305E+02 -0.25140572380E+02 -0.89797541247E+00  0.39651917494E+02  0.00000000000E+00 0.  1.
</event>
<event>
 7    1  0.2682188E-015  0.9000775E+02  0.7816164E-02  0.1186339E+00
        -11   -1    0    0    0    0  0.00000000000E+00  0.00000000000E+00  0.45593999997E+02  0.45594000000E+02  0.51100000000E-03 0. -1.
         11   -1    0    0    0    0 -0.00000000000E+00 -0.00000000000E+00 -0.45593999997E+02  0.45594000000E+02  0.51100000000E-03 0.  1.
    9900012    2    1    2    0    0  0.66676213785E+00 -0.15241463185E+00 -0.96187304884E+00  0.90007745057E+02  0.90000006492E+02 0.  0.
         12    1    1    2    0    0 -0.66676213785E+00  0.15241463185E+00  0.96187304884E+00  0.11802549430E+01  0.00000000000E+00 0. -1.
         11    1    3    3    0    0 -0.23481791388E+01  0.30122325977E+01 -0.92862308994E+01  0.10040994725E+02  0.51100000000E-03 0. -1.
        -11    1    3    3    0    0 -0.39877971991E+01  0.17709708371E+02 -0.30407581034E+02  0.35414083098E+02  0.51100000000E-03 0.  1.
         12    1    3    3    0    0  0.70027384758E+01 -0.20874355601E+02  0.38731938884E+02  0.44552667234E+02  0.00000000000E+00 0. -1.
</event>
<event>
 7    1  0.2682188E-015  0.9000790E+02  0.7816164E-02  0.1186339E+00
        -11   -1    0    0    0    0  0.00000000000E+00  0.00000000000E+00  0.45593999997E+02  0.45594000000E+02  0.51100000000E-03 0. -1.
         11   -1    0    0    0    0 -0.00000000000E+00 -0.00000000000E+00 -0.45593999997E+02  0.45594000000E+02  0.51100000000E-03 0.  1.
    9900012    2    1    2    0    0  0.75191518072E+00 -0.42061966043E+00  0.80642902327E+00  0.90007904619E+02  0.90000168160E+02 0.  0.
         12    1    1    2    0    0 -0.75191518072E+00  0.42061966043E+00 -0.80642902327E+00  0.11800953806E+01  0.00000000000E+00 0. -1.
         11    1    3    3    0    0  0.13928103472E+02 -0.34647806150E+02  0.18884484129E+02  0.41845982823E+02  0.51100000000E-03 0. -1.
        -11    1    3    3    0    0 -0.87084594225E+01 -0.13227464987E+01 -0.37651188721E+01  0.95793029075E+01  0.51100000000E-03 0.  1.
        -12    1    3    3    0    0 -0.44677288683E+01  0.35549932989E+02 -0.14312936233E+02  0.38582618889E+02  0.00000000000E+00 0.  1.
</event>
<event>
 7    1  0.2682188E-015  0.9000782E+02  0.7816164E-02  0.1186339E+00
        -11   -1    0    0    0    0  0.00000000000E+00  0.00000000000E+00  0.45593999997E+02  0.45594000000E+02  0.51100000000E-03 0.  1.
         11   -1    0    0    0    0 -0.00000000000E+00 -0.00000000000E+00 -0.45593999997E+02  0.45594000000E+02  0.51100000000E-03 0. -1.
    9900012    2    1    2    0    0  0.11592939663E+01 -0.12735277590E+00  0.18069359650E+00  0.90007817215E+02  0.90000079602E+02 0.  0.
         12    1    1    2    0    0 -0.11592939663E+01  0.12735277590E+00 -0.18069359650E+00  0.11801827848E+01  0.00000000000E+00 0. -1.
         11    1    3    3    0    0 -0.27412091744E+02 -0.18662485707E+02 -0.14877172746E+02  0.36346133436E+02  0.51100000000E-03 0. -1.
        -11    1    3    3    0    0 -0.27628097893E+01 -0.31286718800E+01 -0.80778456594E+01  0.90924857120E+01  0.51100000000E-03 0.  1.
        -12    1    3    3    0    0  0.31334195500E+02  0.21663804811E+02  0.23135712002E+02  0.44569198067E+02  0.00000000000E+00 0.  1.
</event>
<event>
 7    1  0.2682188E-015  0.9000756E+02  0.7816164E-02  0.1186339E+00
        -11   -1    0    0    0    0  0.00000000000E+00  0.00000000000E+00  0.45593999997E+02  0.45594000000E+02  0.51100000000E-03 0. -1.
         11   -1    0    0    0    0 -0.00000000000E+00 -0.00000000000E+00 -0.45593999997E+02  0.45594000000E+02  0.51100000000E-03 0.  1.
    9900012    2    1    2    0    0 -0.82453331646E-01 -0.11156274658E+01 -0.37683801109E+00  0.90007563606E+02  0.89999822645E+02 0.  0.
         12    1    1    2    0    0  0.82453331646E-01  0.11156274658E+01  0.37683801109E+00  0.11804363943E+01  0.00000000000E+00 0. -1.
         11    1    3    3    0    0  0.16496406454E+02 -0.91338589115E+00  0.30307652217E+02  0.34518393399E+02  0.51100000000E-03 0. -1.
        -11    1    3    3    0    0  0.99934517115E+01 -0.67691634411E+01  0.26490827036E+01  0.12357519583E+02  0.51100000000E-03 0.  1.
        -12    1    3    3    0    0 -0.26572311497E+02  0.65669218665E+01 -0.33333572932E+02  0.43131650624E+02  0.00000000000E+00 0.  1.
</event>
<event>
 7    1  0.2682188E-015  0.9000769E+02  0.7816164E-02  0.1186339E+00
        -11   -1    0    0    0    0  0.00000000000E+00  0.00000000000E+00  0.45593999997E+02  0.45594000000E+02  0.51100000000E-03 0.  1.
         11   -1    0    0    0    0 -0.00000000000E+00 -0.00000000000E+00 -0.45593999997E+02  0.45594000000E+02  0.51100000000E-03 0. -1.
    9900012    2    1    2    0    0  0.99264328428E+00  0.19089699568E+00  0.60939162819E+00  0.90007686267E+02  0.89999946925E+02 0.  0.
         12    1    1    2    0    0 -0.99264328428E+00 -0.19089699568E+00 -0.60939162819E+00  0.11803137334E+01  0.00000000000E+00 0. -1.
         11    1    3    3    0    0 -0.79747759136E+00 -0.76108291485E+01 -0.42449227953E+01  0.87510034074E+01  0.51100000000E-03 0. -1.
        -11    1    3    3    0    0 -0.84707203737E+01 -0.35072911188E+02  0.83435292137E+01  0.37033453563E+02  0.51100000000E-03 0.  1.
         12    1    3    3    0    0  0.10260841249E+02  0.42874637332E+02 -0.34892147902E+01  0.44223229296E+02  0.00000000000E+00 0. -1.
</event>
<event>
 7    1  0.2682188E-015  0.9000771E+02  0.7816164E-02  0.1186339E+00
        -11   -1    0    0    0    0  0.00000000000E+00  0.00000000000E+00  0.45593999997E+02  0.45594000000E+02  0.51100000000E-03 0.  1.
         11   -1    0    0    0    0 -0.00000000000E+00 -0.00000000000E+00 -0.45593999997E+02  0.45594000000E+02  0.51100000000E-03 0. -1.
    9900012    2    1    2    0    0 -0.10199024210E+01 -0.20444840606E+00  0.55774956053E+00  0.90007709921E+02  0.89999970892E+02 0.  0.
         12    1    1    2    0    0  0.10199024210E+01  0.20444840606E+00 -0.55774956053E+00  0.11802900793E+01  0.00000000000E+00 0. -1.
         11    1    3    3    0    0  0.59743579394E+01 -0.69220238441E+00  0.32437790906E+01  0.68333154456E+01  0.51100000000E-03 0. -1.
        -11    1    3    3    0    0  0.20006966033E+01 -0.38663776218E+02  0.11795212777E+02  0.40472427936E+02  0.51100000000E-03 0.  1.
         12    1    3    3    0    0 -0.89949569637E+01  0.39151530196E+02 -0.14481242307E+02  0.42701966539E+02  0.00000000000E+00 0. -1.
</event>
<event>
 7    1  0.2682188E-015  0.9000781E+02  0.7816164E-02  0.1186339E+00
        -11   -1    0    0    0    0  0.00000000000E+00  0.00000000000E+00  0.45593999997E+02  0.45594000000E+02  0.51100000000E-03 0.  1.
         11   -1    0    0    0    0 -0.00000000000E+00 -0.00000000000E+00 -0.45593999997E+02  0.45594000000E+02  0.51100000000E-03 0. -1.
    9900012    2    1    2    0    0  0.59873589950E+00 -0.80251544374E+00  0.62476582741E+00  0.90007810162E+02  0.90000072456E+02 0.  0.
         12    1    1    2    0    0 -0.59873589950E+00  0.80251544374E+00 -0.62476582741E+00  0.11801898381E+01  0.00000000000E+00 0. -1.
         11    1    3    3    0    0  0.27917775314E+02 -0.21613155141E+02 -0.14992289374E+02  0.38357520704E+02  0.51100000000E-03 0. -1.
        -11    1    3    3    0    0  0.64880997541E+01  0.60728093105E+01 -0.41488529032E+01  0.98075191569E+01  0.51100000000E-03 0.  1.
        -12    1    3    3    0    0 -0.33807139169E+02  0.14737830386E+02  0.19765908104E+02  0.41842770301E+02  0.00000000000E+00 0.  1.
</event>
<event>
 7    1  0.2682188E-015  0.9000774E+02  0.7816164E-02  0.1186339E+00
        -11   -1    0    0    0    0  0.00000000000E+00  0.00000000000E+00  0.45593999997E+02  0.45594000000E+02  0.51100000000E-03 0.  1.
         11   -1    0    0    0    0 -0.00000000000E+00 -0.00000000000E+00 -0.45593999997E+02  0.45594000000E+02  0.51100000000E-03 0. -1.
    9900012    2    1    2    0    0  0.22106885128E+00  0.24653835509E+00  0.11328535977E+01  0.90007741608E+02  0.90000002997E+02 0.  0.
         12    1    1    2    0    0 -0.22106885128E+00 -0.24653835509E+00 -0.11328535977E+01  0.11802583918E+01  0.00000000000E+00 0. -1.
         11    1    3    3    0    0  0.35267374639E+01 -0.93799242694E+01  0.17120941219E+01  0.10166224618E+02  0.51100000000E-03 0. -1.
        -11    1    3    3    0    0 -0.74841108611E+01 -0.21209057128E+01  0.38263750611E+02  0.39046443724E+02  0.51100000000E-03 0.  1.
         12    1    3    3    0    0  0.41784422485E+01  0.11747368337E+02 -0.38842991135E+02  0.40795073266E+02  0.00000000000E+00 0. -1.
</event>
<event>
 7    1  0.2682188E-015  0.9000802E+02  0.7816164E-02  0.1186338E+00
        -11   -1    0    0    0    0  0.00000000000E+00  0.00000000000E+00  0.45593999997E+02  0.45594000000E+02  0.51100000000E-03 0.  1.
         11   -1    0    0    0    0 -0.00000000000E+00 -0.00000000000E+00 -0.45593999997E+02  0.45594000000E+02  0.51100000000E-03 0. -1.
    9900012    2    1    2    0    0  0.50157883876E+00  0.14205066696E+00  0.10585764329E+01  0.90008023819E+02  0.90000288933E+02 0.  0.
         12    1    1    2    0    0 -0.50157883876E+00 -0.14205066696E+00 -0.10585764329E+01  0.11799761810E+01  0.00000000000E+00 0. -1.
         11    1    3    3    0    0  0.26870264933E+02 -0.25296096760E+02 -0.94550711833E+01  0.38095958056E+02  0.51100000000E-03 0. -1.
        -11    1    3    3    0    0 -0.10520154401E+02 -0.19550899223E+01 -0.96317044837E+01  0.14396727293E+02  0.51100000000E-03 0.  1.
        -12    1    3    3    0    0 -0.15848531693E+02  0.27393237349E+02  0.20145352100E+02  0.37515338470E+02  0.00000000000E+00 0.  1.
</event>
<event>
 7    1  0.2682188E-015  0.9000777E+02  0.7816164E-02  0.1186339E+00
        -11   -1    0    0    0    0  0.00000000000E+00  0.00000000000E+00  0.45593999997E+02  0.45594000000E+02  0.51100000000E-03 0. -1.
         11   -1    0    0    0    0 -0.00000000000E+00 -0.00000000000E+00 -0.45593999997E+02  0.45594000000E+02  0.51100000000E-03 0.  1.
    9900012    2    1    2    0    0  0.57433768990E-01  0.11744066928E+01  0.10208845580E+00  0.90007766222E+02  0.90000027936E+02 0.  0.
         12    1    1    2    0    0 -0.57433768990E-01 -0.11744066928E+01 -0.10208845580E+00  0.11802337780E+01  0.00000000000E+00 0. -1.
         11    1    3    3    0    0  0.53937192164E+01 -0.17980118347E+01 -0.28530296712E+01  0.63611973802E+01  0.51100000000E-03 0. -1.
        -11    1    3    3    0    0  0.34581008713E+02 -0.86565232262E+01  0.17353211732E+02  0.39647389771E+02  0.51100000000E-03 0.  1.
         12    1    3    3    0    0 -0.39917294161E+02  0.11628941754E+02 -0.14398093605E+02  0.43999179071E+02  0.00000000000E+00 0. -1.
</event>
<event>
 7    1  0.2682188E-015  0.9000791E+02  0.7816164E-02  0.1186339E+00
        -11   -1    0    0    0    0  0.00000000000E+00  0.00000000000E+00  0.45593999997E+02  0.45594000000E+02  0.51100000000E-03 0.  1.
         11   -1    0    0    0    0 -0.00000000000E+00 -0.00000000000E+00 -0.45593999997E+02  0.45594000000E+02  0.51100000000E-03 0. -1.
    9900012    2    1    2    0    0  0.83660684245E+00 -0.59269221696E+00  0.58431686257E+00  0.90007906246E+02  0.90000169808E+02 0.  0.
         12    1    1    2    0    0 -0.83660684245E+00  0.59269221696E+00 -0.58431686257E+00  0.11800937542E+01  0.00000000000E+00 0. -1.
         11    1    3    3    0    0 -0.57848799578E-01 -0.60804897500E+01 -0.62567766388E+01  0.87248470619E+01  0.51100000000E-03 0. -1.
        -11    1    3    3    0    0  0.11875172219E+01 -0.20929306005E+02  0.36172594334E+02  0.41807925422E+02  0.51100000000E-03 0.  1.
         12    1    3    3    0    0 -0.29306157983E+00  0.26417103538E+02 -0.29331500832E+02  0.39475133762E+02  0.00000000000E+00 0. -1.
</event>
<event>
 7    1  0.2682188E-015  0.9000773E+02  0.7816164E-02  0.1186339E+00
        -11   -1    0    0    0    0  0.00000000000E+00  0.00000000000E+00  0.45593999997E+02  0.45594000000E+02  0.51100000000E-03 0.  1.
         11   -1    0    0    0    0 -0.00000000000E+00 -0.00000000000E+00 -0.45593999997E+02  0.45594000000E+02  0.51100000000E-03 0. -1.
    9900012    2    1    2    0    0  0.80810996404E+00  0.44588753485E+00  0.73565028464E+00  0.90007729375E+02  0.89999990602E+02 0.  0.
         12    1    1    2    0    0 -0.80810996404E+00 -0.44588753485E+00 -0.73565028464E+00  0.11802706253E+01  0.00000000000E+00 0. -1.
         11    1    3    3    0    0 -0.30912117806E+01  0.31110031508E+02 -0.22314732576E+02  0.38410115086E+02  0.51100000000E-03 0. -1.
        -11    1    3    3    0    0  0.28018535747E+01  0.74713819243E+01  0.47233533728E+01  0.92726478774E+01  0.51100000000E-03 0.  1.
        -12    1    3    3    0    0  0.10974681700E+01 -0.38135525898E+02  0.18327029488E+02  0.42324966411E+02  0.00000000000E+00 0.  1.
</event>
<event>
 7    1  0.2717008E-015  0.9000721E+02  0.7816164E-02  0.1186340E+00
        -11   -1    0    0    0    0  0.00000000000E+00  0.00000000000E+00  0.45593999997E+02  0.45594000000E+02  0.51100000000E-03 0.  1.
         11   -1    0    0    0    0 -0.00000000000E+00 -0.00000000000E+00 -0.45593999997E+02  0.45594000000E+02  0.51100000000E-03 0. -1.
    9900012    2    1    2    0    0  0.46122892304E+00 -0.54310872063E+00  0.94157561548E+00  0.90007210501E+02  0.89999464878E+02 0.  0.
         12    1    1    2    0    0 -0.46122892304E+00  0.54310872063E+00 -0.94157561548E+00  0.11807894992E+01  0.00000000000E+00 0. -1.
         11    1    3    3    0    0  0.77223618069E-01  0.96378413516E+01  0.20636936569E+01  0.98566110391E+01  0.51100000000E-03 0. -1.
        -11    1    3    3    0    0 -0.33766205065E+02  0.78496975397E+01  0.15665231249E+02  0.38041737950E+02  0.51100000000E-03 0.  1.
         12    1    3    3    0    0  0.34150210370E+02 -0.18030647612E+02 -0.16787349290E+02  0.42108861511E+02  0.00000000000E+00 0. -1.
</event>
<event>
 7    1  0.2682188E-015  0.9000773E+02  0.7816164E-02  0.1186339E+00
        -11   -1    0    0    0    0  0.00000000000E+00  0.00000000000E+00  0.45593999997E+02  0.45594000000E+02  0.51100000000E-03 0.  1.
         11   -1    0    0    0    0 -0.00000000000E+00 -0.00000000000E+00 -0.45593999997E+02  0.45594000000E+02  0.51100000000E-03 0. -1.
    9900012    2    1    2    0    0  0.39346131541E+00 -0.11062911762E+01 -0.11981438351E+00  0.90007725685E+02  0.89999986864E+02 0.  0.
         12    1    1    2    0    0 -0.39346131541E+00  0.11062911762E+01  0.11981438351E+00  0.11802743155E+01  0.00000000000E+00 0. -1.
         11    1    3    3    0    0 -0.95078866887E+01 -0.27953306394E+01 -0.25620533173E+01  0.10236107665E+02  0.51100000000E-03 0. -1.
        -11    1    3    3    0    0 -0.10739842237E+02  0.18560259936E+02  0.32914762765E+02  0.39283699779E+02  0.51100000000E-03 0.  1.
         12    1    3    3    0    0  0.20641190241E+02 -0.16871220473E+02 -0.30472523831E+02  0.40487918241E+02  0.00000000000E+00 0. -1.
</event>
<event>
 7    1  0.2682188E-015  0.9000777E+02  0.7816164E-02  0.1186339E+00
        -11   -1    0    0    0    0  0.00000000000E+00  0.00000000000E+00  0.45593999997E+02  0.45594000000E+02  0.51100000000E-03 0.  1.
         11   -1    0    0    0    0 -0.00000000000E+00 -0.00000000000E+00 -0.45593999997E+02  0.45594000000E+02  0.51100000000E-03 0. -1.
    9900012    2    1    2    0    0 -0.45988871788E+00  0.47517491049E+00  0.97757318848E+00  0.90007771985E+02  0.90000033775E+02 0.  0.
         12    1    1    2    0    0  0.45988871788E+00 -0.47517491049E+00 -0.97757318848E+00  0.11802280149E+01  0.00000000000E+00 0. -1.
         11    1    3    3    0    0  0.16407026264E+01  0.57354695734E+01  0.72675629296E+01  0.94023926493E+01  0.51100000000E-03 0. -1.
        -11    1    3    3    0    0  0.38900002104E+02 -0.85232100576E+00 -0.59880203737E+01  0.39367410419E+02  0.51100000000E-03 0.  1.
         12    1    3    3    0    0 -0.41000593449E+02 -0.44079736571E+01 -0.30196936743E+00  0.41237968917E+02  0.00000000000E+00 0. -1.
</event>
<event>
 7    1  0.2682188E-015  0.9000791E+02  0.7816164E-02  0.1186339E+00
        -11   -1    0    0    0    0  0.00000000000E+00  0.00000000000E+00  0.45593999997E+02  0.45594000000E+02  0.51100000000E-03 0.  1.
         11   -1    0    0    0    0 -0.00000000000E+00 -0.00000000000E+00 -0.45593999997E+02  0.45594000000E+02  0.51100000000E-03 0. -1.
    9900012    2    1    2    0    0  0.48524469723E+00 -0.10740944709E+01  0.58895478812E-01  0.90007911009E+02  0.90000174634E+02 0.  0.
         12    1    1    2    0    0 -0.48524469723E+00  0.10740944709E+01 -0.58895478812E-01  0.11800889907E+01  0.00000000000E+00 0. -1.
         11    1    3    3    0    0 -0.11535794126E+02  0.31450884342E+02 -0.15176229612E+02  0.36777039270E+02  0.51100000000E-03 0. -1.
        -11    1    3    3    0    0 -0.58034793654E+01  0.12373084005E+01 -0.68991884702E+01  0.91000058589E+01  0.51100000000E-03 0.  1.
        -12    1    3    3    0    0  0.17824518188E+02 -0.33762287213E+02  0.22134313561E+02  0.44130865880E+02  0.00000000000E+00 0.  1.
</event>
<event>
 7    1  0.2682188E-015  0.9000776E+02  0.7816164E-02  0.1186339E+00
        -11   -1    0    0    0    0  0.00000000000E+00  0.00000000000E+00  0.45593999997E+02  0.45594000000E+02  0.51100000000E-03 0. -1.
         11   -1    0    0    0    0 -0.00000000000E+00 -0.00000000000E+00 -0.45593999997E+02  0.45594000000E+02  0.51100000000E-03 0.  1.
    9900012    2    1    2    0    0  0.23740452540E-01 -0.91615997604E+00 -0.74366910384E+00  0.90007764241E+02  0.90000025929E+02 0.  0.
         12    1    1    2    0    0 -0.23740452540E-01  0.91615997604E+00  0.74366910384E+00  0.11802357590E+01  0.00000000000E+00 0. -1.
         11    1    3    3    0    0 -0.21802036916E+01  0.75298694084E+01 -0.25650303830E+01  0.82481272160E+01  0.51100000000E-03 0. -1.
        -11    1    3    3    0    0 -0.61909545932E+01  0.35582565869E+02 -0.48599010165E+01  0.36442633697E+02  0.51100000000E-03 0.  1.
         12    1    3    3    0    0  0.83948987373E+01 -0.44028595253E+02  0.66812622957E+01  0.45317003328E+02  0.00000000000E+00 0. -1.
</event>
<event>
 7    1  0.2682188E-015  0.9000794E+02  0.7816164E-02  0.1186339E+00
        -11   -1    0    0    0    0  0.00000000000E+00  0.00000000000E+00  0.45593999997E+02  0.45594000000E+02  0.51100000000E-03 0. -1.
         11   -1    0    0    0    0 -0.00000000000E+00 -0.00000000000E+00 -0.45593999997E+02  0.45594000000E+02  0.51100000000E-03 0.  1.
    9900012    2    1    2    0    0  0.20585642247E+00  0.97483023450E+00 -0.63236148447E+00  0.90007935637E+02  0.90000199588E+02 0.  0.
         12    1    1    2    0    0 -0.20585642247E+00 -0.97483023450E+00  0.63236148447E+00  0.11800643626E+01  0.00000000000E+00 0. -1.
         11    1    3    3    0    0 -0.90670407632E+01 -0.14117219540E+02 -0.23182801161E+01  0.16937577710E+02  0.51100000000E-03 0. -1.
        -11    1    3    3    0    0 -0.67174934916E+00 -0.23357287575E+02 -0.17277371506E+02  0.29060655472E+02  0.51100000000E-03 0.  1.
         12    1    3    3    0    0  0.99446465348E+01  0.38449337349E+02  0.18963290138E+02  0.44009702455E+02  0.00000000000E+00 0. -1.
</event>
<event>
 7    1  0.2682188E-015  0.9000774E+02  0.7816164E-02  0.1186339E+00
        -11   -1    0    0    0    0  0.00000000000E+00  0.00000000000E+00  0.45593999997E+02  0.45594000000E+02  0.51100000000E-03 0. -1.
         11   -1    0    0    0    0 -0.00000000000E+00 -0.00000000000E+00 -0.45593999997E+02  0.45594000000E+02  0.51100000000E-03 0.  1.
    9900012    2    1    2    0    0 -0.91220221452E+00  0.69419856653E+00  0.28106807028E+00  0.90007735712E+02  0.89999997023E+02 0.  0.
         12    1    1    2    0    0  0.91220221452E+00 -0.69419856653E+00 -0.28106807028E+00  0.11802642882E+01  0.00000000000E+00 0. -1.
         11    1    3    3    0    0 -0.83784661804E+01 -0.52929244939E+01  0.53049259706E+00  0.99244731795E+01  0.51100000000E-03 0. -1.
        -11    1    3    3    0    0 -0.31311104388E+02  0.11934991167E+02  0.16590493580E+02  0.37390824404E+02  0.51100000000E-03 0.  1.
         12    1    3    3    0    0  0.38777368354E+02 -0.59478681061E+01 -0.16839918106E+02  0.42692438128E+02  0.00000000000E+00 0. -1.
</event>
<event>
 7    1  0.2682188E-015  0.9000769E+02  0.7816164E-02  0.1186339E+00
        -11   -1    0    0    0    0  0.00000000000E+00  0.00000000000E+00  0.45593999997E+02  0.45594000000E+02  0.51100000000E-03 0. -1.
         11   -1    0    0    0    0 -0.00000000000E+00 -0.00000000000E+00 -0.45593999997E+02  0.45594000000E+02  0.51100000000E-03 0.  1.
    9900012    2    1    2    0    0  0.11227027767E+01 -0.36424856715E+00 -0.17099677351E-04  0.90007687099E+02  0.89999947769E+02 0.  0.
         12    1    1    2    0    0 -0.11227027767E+01  0.36424856715E+00  0.17099677351E-04  0.11803129008E+01  0.00000000000E+00 0. -1.
         11    1    3    3    0    0  0.71270476938E+01  0.48572835790E+01 -0.39599453281E+01  0.94904783788E+01  0.51100000000E-03 0. -1.
        -11    1    3    3    0    0 -0.62953554706E+01  0.34456617332E+01 -0.37489537968E+02  0.38170270403E+02  0.51100000000E-03 0.  1.
         12    1    3    3    0    0  0.29101055353E+00 -0.86671938794E+01  0.41449466197E+02  0.42346938318E+02  0.00000000000E+00 0. -1.
</event>
<event>
 7    1  0.2682188E-015  0.9000769E+02  0.7816164E-02  0.1186339E+00
        -11   -1    0    0    0    0  0.00000000000E+00  0.00000000000E+00  0.45593999997E+02  0.45594000000E+02  0.51100000000E-03 0. -1.
         11   -1    0    0    0    0 -0.00000000000E+00 -0.00000000000E+00 -0.45593999997E+02  0.45594000000E+02  0.51100000000E-03 0.  1.
    9900012    2    1    2    0    0  0.15906725627E+00  0.11300391972E+01 -0.30139323669E+00  0.90007691200E+02  0.89999951924E+02 0.  0.
         12    1    1    2    0    0 -0.15906725627E+00 -0.11300391972E+01  0.30139323669E+00  0.11803087995E+01  0.00000000000E+00 0. -1.
         11    1    3    3    0    0  0.10235478019E+02 -0.26617669176E+00  0.10790257677E+02  0.14874996514E+02  0.51100000000E-03 0. -1.
        -11    1    3    3    0    0  0.13661700981E+02  0.32454456742E+02 -0.47918482409E+01  0.35537243083E+02  0.51100000000E-03 0.  1.
         12    1    3    3    0    0 -0.23738111743E+02 -0.31058240853E+02 -0.62998026724E+01  0.39595451604E+02  0.00000000000E+00 0. -1.
</event>
<event>
 7    1  0.2682188E-015  0.9000783E+02  0.7816164E-02  0.1186339E+00
        -11   -1    0    0    0    0  0.00000000000E+00  0.00000000000E+00  0.45593999997E+02  0.45594000000E+02  0.51100000000E-03 0.  1.
         11   -1    0    0    0    0 -0.00000000000E+00 -0.00000000000E+00 -0.45593999997E+02  0.45594000000E+02  0.51100000000E-03 0. -1.
    9900012    2    1    2    0    0 -0.60065243147E+00  0.84704293751E+00 -0.56083596416E+00  0.90007829648E+02  0.90000092199E+02 0.  0.
         12    1    1    2    0    0  0.60065243147E+00 -0.84704293751E+00  0.56083596416E+00  0.11801703522E+01  0.00000000000E+00 0. -1.
         11    1    3    3    0    0  0.80225962870E+00  0.87823150794E+01 -0.73906109185E+01  0.11506250852E+02  0.51100000000E-03 0. -1.
        -11    1    3    3    0    0 -0.12318036890E+02 -0.32899607791E+01  0.40680929645E+02  0.42632099547E+02  0.51100000000E-03 0.  1.
         12    1    3    3    0    0  0.10915124830E+02 -0.46453113628E+01 -0.33851154690E+02  0.35869479249E+02  0.00000000000E+00 0. -1.
</event>
<event>
 7    1  0.2682188E-015  0.9000777E+02  0.7816164E-02  0.1186339E+00
        -11   -1    0    0    0    0  0.00000000000E+00  0.00000000000E+00  0.45593999997E+02  0.45594000000E+02  0.51100000000E-03 0. -1.
         11   -1    0    0    0    0 -0.00000000000E+00 -0.00000000000E+00 -0.45593999997E+02  0.45594000000E+02  0.51100000000E-03 0.  1.
    9900012    2    1    2    0    0 -0.52918575988E+00  0.51236440141E-01 -0.10537024236E+01  0.90007766320E+02  0.90000028036E+02 0.  0.
         12    1    1    2    0    0  0.52918575988E+00 -0.51236440141E-01  0.10537024236E+01  0.11802336798E+01  0.00000000000E+00 0. -1.
         11    1    3    3    0    0  0.37676077475E+01 -0.42988190972E+01 -0.67291447615E+01  0.88292753526E+01  0.51100000000E-03 0. -1.
        -11    1    3    3    0    0 -0.11285027715E+02  0.22474730500E+02 -0.30854217324E+02  0.39805126410E+02  0.51100000000E-03 0.  1.
         12    1    3    3    0    0  0.69882342074E+01 -0.18124674963E+02  0.36529659662E+02  0.41373364558E+02  0.00000000000E+00 0. -1.
</event>
<event>
 7    1  0.2682188E-015  0.9000747E+02  0.7816164E-02  0.1186340E+00
        -11   -1    0    0    0    0  0.00000000000E+00  0.00000000000E+00  0.45593999997E+02  0.45594000000E+02  0.51100000000E-03 0.  1.
         11   -1    0    0    0    0 -0.00000000000E+00 -0.00000000000E+00 -0.45593999997E+02  0.45594000000E+02  0.51100000000E-03 0. -1.
    9900012    2    1    2    0    0 -0.81794228682E+00 -0.36018992815E-01  0.85048419307E+00  0.90007470324E+02  0.89999728132E+02 0.  0.
         12    1    1    2    0    0  0.81794228682E+00  0.36018992815E-01 -0.85048419307E+00  0.11805296756E+01  0.00000000000E+00 0. -1.
         11    1    3    3    0    0 -0.72425812876E+01  0.28828552312E+01 -0.45115754282E+00  0.78082892737E+01  0.51100000000E-03 0. -1.
        -11    1    3    3    0    0 -0.10149285098E+02 -0.12873504587E+02  0.37630453947E+02  0.41046146869E+02  0.51100000000E-03 0.  1.
         12    1    3    3    0    0  0.16573924099E+02  0.99546303626E+01 -0.36328812211E+02  0.41153034181E+02  0.00000000000E+00 0. -1.
</event>
<event>
 7    1  0.2682188E-015  0.9000905E+02  0.7816164E-02  0.1186336E+00
        -11   -1    0    0    0    0  0.00000000000E+00  0.00000000000E+00  0.45593999997E+02  0.45594000000E+02  0.51100000000E-03 0.  1.
         11   -1    0    0    0    0 -0.00000000000E+00 -0.00000000000E+00 -0.45593999997E+02  0.45594000000E+02  0.51100000000E-03 0. -1.
    9900012    2    1    2    0    0  0.55995533985E+00  0.31862329960E+00  0.98734248911E+00  0.90009053020E+02  0.90001331711E+02 0.  0.
         12    1    1    2    0    0 -0.55995533985E+00 -0.31862329960E+00 -0.98734248911E+00  0.11789469795E+01  0.00000000000E+00 0. -1.
         11    1    3    3    0    0  0.95926742583E+01 -0.14540512991E+02  0.65345335650E+01  0.18605000582E+02  0.51100000000E-03 0. -1.
        -11    1    3    3    0    0  0.18542386723E+02 -0.93475039945E+01  0.18270691179E+02  0.27658888133E+02  0.51100000000E-03 0.  1.
         12    1    3    3    0    0 -0.27575105642E+02  0.24206640286E+02 -0.23817882255E+02  0.43745164306E+02  0.00000000000E+00 0. -1.
</event>
<event>
 7    1  0.2682188E-015  0.9000774E+02  0.7816164E-02  0.1186339E+00
        -11   -1    0    0    0    0  0.00000000000E+00  0.00000000000E+00  0.45593999997E+02  0.45594000000E+02  0.51100000000E-03 0.  1.
         11   -1    0    0    0    0 -0.00000000000E+00 -0.00000000000E+00 -0.45593999997E+02  0.45594000000E+02  0.51100000000E-03 0. -1.
    9900012    2    1    2    0    0 -0.71815125483E+00  0.90144812235E+00  0.25430032258E+00  0.90007737912E+02  0.89999999253E+02 0.  0.
         12    1    1    2    0    0  0.71815125483E+00 -0.90144812235E+00 -0.25430032258E+00  0.11802620879E+01  0.00000000000E+00 0. -1.
         11    1    3    3    0    0 -0.36899967933E+02 -0.10684530044E+02 -0.15115935390E+02  0.41282663658E+02  0.51100000000E-03 0. -1.
        -11    1    3    3    0    0  0.13608046857E+00 -0.28569567892E+01  0.89124575973E+01  0.93601613594E+01  0.51100000000E-03 0.  1.
        -12    1    3    3    0    0  0.36045736209E+02  0.14442934956E+02  0.64577781157E+01  0.39364912895E+02  0.00000000000E+00 0.  1.
</event>
<event>
 7    1  0.2682188E-015  0.9000769E+02  0.7816164E-02  0.1186339E+00
        -11   -1    0    0    0    0  0.00000000000E+00  0.00000000000E+00  0.45593999997E+02  0.45594000000E+02  0.51100000000E-03 0.  1.
         11   -1    0    0    0    0 -0.00000000000E+00 -0.00000000000E+00 -0.45593999997E+02  0.45594000000E+02  0.51100000000E-03 0. -1.
    9900012    2    1    2    0    0 -0.62702109662E+00  0.99970220245E+00 -0.23792629667E-01  0.90007692397E+02  0.89999953136E+02 0.  0.
         12    1    1    2    0    0  0.62702109662E+00 -0.99970220245E+00  0.23792629667E-01  0.11803076033E+01  0.00000000000E+00 0. -1.
         11    1    3    3    0    0 -0.11498453319E+02  0.34025077345E+02 -0.19467784551E+02  0.40852355534E+02  0.51100000000E-03 0. -1.
        -11    1    3    3    0    0  0.62458218170E+01  0.72066128762E+00 -0.43154553668E+01  0.76257981973E+01  0.51100000000E-03 0.  1.
        -12    1    3    3    0    0  0.46256104050E+01 -0.33746036430E+02  0.23759447289E+02  0.41529538666E+02  0.00000000000E+00 0.  1.
</event>
<event>
 7    1  0.2682188E-015  0.9000773E+02  0.7816164E-02  0.1186339E+00
        -11   -1    0    0    0    0  0.00000000000E+00  0.00000000000E+00  0.45593999997E+02  0.45594000000E+02  0.51100000000E-03 0. -1.
         11   -1    0    0    0    0 -0.00000000000E+00 -0.00000000000E+00 -0.45593999997E+02  0.45594000000E+02  0.51100000000E-03 0.  1.
    9900012    2    1    2    0    0 -0.44860331337E+00  0.39890093453E+00 -0.10162010229E+01  0.90007732485E+02  0.89999993754E+02 0.  0.
         12    1    1    2    0    0  0.44860331337E+00 -0.39890093453E+00  0.10162010229E+01  0.11802675152E+01  0.00000000000E+00 0. -1.
         11    1    3    3    0    0  0.24009473934E+01  0.35946045923E+01  0.76308671227E+01  0.87701689759E+01  0.51100000000E-03 0. -1.
        -11    1    3    3    0    0 -0.37319209095E+02  0.25571756083E+01  0.13609565717E+02  0.39805562348E+02  0.51100000000E-03 0.  1.
         12    1    3    3    0    0  0.34469658389E+02 -0.57528792660E+01 -0.22256633863E+02  0.41432001161E+02  0.00000000000E+00 0. -1.
</event>
<event>
 7    1  0.2682188E-015  0.9000753E+02  0.7816164E-02  0.1186339E+00
        -11   -1    0    0    0    0  0.00000000000E+00  0.00000000000E+00  0.45593999997E+02  0.45594000000E+02  0.51100000000E-03 0.  1.
         11   -1    0    0    0    0 -0.00000000000E+00 -0.00000000000E+00 -0.45593999997E+02  0.45594000000E+02  0.51100000000E-03 0. -1.
    9900012    2    1    2    0    0  0.11266757533E+00 -0.95516825063E+00  0.68445415922E+00  0.90007526423E+02  0.89999784972E+02 0.  0.
         12    1    1    2    0    0 -0.11266757533E+00  0.95516825063E+00 -0.68445415922E+00  0.11804735768E+01  0.00000000000E+00 0. -1.
         11    1    3    3    0    0 -0.67874846225E+01  0.71475700582E+01  0.50927510592E+01  0.11094765380E+02  0.51100000000E-03 0. -1.
        -11    1    3    3    0    0  0.24843080290E+00 -0.25837095567E+02  0.30026072901E+02  0.39612905464E+02  0.51100000000E-03 0.  1.
         12    1    3    3    0    0  0.66517213949E+01  0.17734357259E+02 -0.34434369801E+02  0.39299855578E+02  0.00000000000E+00 0. -1.
</event>
<event>
 7    1  0.2682188E-015  0.9000798E+02  0.7816164E-02  0.1186339E+00
        -11   -1    0    0    0    0  0.00000000000E+00  0.00000000000E+00  0.45593999997E+02  0.45594000000E+02  0.51100000000E-03 0.  1.
         11   -1    0    0    0    0 -0.00000000000E+00 -0.00000000000E+00 -0.45593999997E+02  0.45594000000E+02  0.51100000000E-03 0. -1.
    9900012    2    1    2    0    0 -0.11104885236E+01  0.17679340567E+00  0.35777200534E+00  0.90007982425E+02  0.90000246993E+02 0.  0.
         12    1    1    2    0    0  0.11104885236E+01 -0.17679340567E+00 -0.35777200534E+00  0.11800175749E+01  0.00000000000E+00 0. -1.
         11    1    3    3    0    0 -0.58896645768E+01  0.29650310383E+02 -0.23767878558E+02  0.38454402947E+02  0.51100000000E-03 0. -1.
        -11    1    3    3    0    0 -0.76323709456E+01  0.39234122504E+01  0.10221727069E+00  0.85823480802E+01  0.51100000000E-03 0.  1.
        -12    1    3    3    0    0  0.12411546999E+02 -0.33396929227E+02  0.24023433292E+02  0.42971231398E+02  0.00000000000E+00 0.  1.
</event>
<event>
 7    1  0.2682188E-015  0.9000772E+02  0.7816164E-02  0.1186339E+00
        -11   -1    0    0    0    0  0.00000000000E+00  0.00000000000E+00  0.45593999997E+02  0.45594000000E+02  0.51100000000E-03 0.  1.
         11   -1    0    0    0    0 -0.00000000000E+00 -0.00000000000E+00 -0.45593999997E+02  0.45594000000E+02  0.51100000000E-03 0. -1.
    9900012    2    1    2    0    0  0.64835023233E+00 -0.71199401382E+00  0.68247456854E+00  0.90007718239E+02  0.89999979319E+02 0.  0.
         12    1    1    2    0    0 -0.64835023233E+00  0.71199401382E+00 -0.68247456854E+00  0.11802817614E+01  0.00000000000E+00 0. -1.
         11    1    3    3    0    0 -0.74066189358E+01  0.46927312155E+01  0.40830249064E+01  0.96721674390E+01  0.51100000000E-03 0. -1.
        -11    1    3    3    0    0  0.22691239999E+00 -0.35555166712E+02  0.20527495733E+02  0.41056052544E+02  0.51100000000E-03 0.  1.
         12    1    3    3    0    0  0.78280567681E+01  0.30150441483E+02 -0.23928046071E+02  0.39279498255E+02  0.00000000000E+00 0. -1.
</event>
<event>
 7    1  0.2682188E-015  0.9000777E+02  0.7816164E-02  0.1186339E+00
        -11   -1    0    0    0    0  0.00000000000E+00  0.00000000000E+00  0.45593999997E+02  0.45594000000E+02  0.51100000000E-03 0.  1.
         11   -1    0    0    0    0 -0.00000000000E+00 -0.00000000000E+00 -0.45593999997E+02  0.45594000000E+02  0.51100000000E-03 0. -1.
    9900012    2    1    2    0    0 -0.75382549027E+00 -0.88871499438E+00  0.18674270024E+00  0.90007771189E+02  0.90000032968E+02 0.  0.
         12    1    1    2    0    0  0.75382549027E+00  0.88871499438E+00 -0.18674270024E+00  0.11802288113E+01  0.00000000000E+00 0. -1.
         11    1    3    3    0    0 -0.12101309935E+02 -0.38390962138E+02 -0.38408471850E+01  0.40435872482E+02  0.51100000000E-03 0. -1.
        -11    1    3    3    0    0  0.45045135100E+01 -0.45116125142E+01  0.28624191562E+01  0.69884714442E+01  0.51100000000E-03 0.  1.
        -12    1    3    3    0    0  0.68429709348E+01  0.42013859658E+02  0.11651707290E+01  0.42583427262E+02  0.00000000000E+00 0.  1.
</event>
<event>
 7    1  0.2682188E-015  0.9000776E+02  0.7816164E-02  0.1186339E+00
        -11   -1    0    0    0    0  0.00000000000E+00  0.00000000000E+00  0.45593999997E+02  0.45594000000E+02  0.51100000000E-03 0.  1.
         11   -1    0    0    0    0 -0.00000000000E+00 -0.00000000000E+00 -0.45593999997E+02  0.45594000000E+02  0.51100000000E-03 0. -1.
    9900012    2    1    2    0    0  0.79303000141E+00 -0.68238298506E+00  0.54627546035E+00  0.90007762736E+02  0.90000024404E+02 0.  0.
         12    1    1    2    0    0 -0.79303000141E+00  0.68238298506E+00 -0.54627546035E+00  0.11802372643E+01  0.00000000000E+00 0. -1.
         11    1    3    3    0    0 -0.33014143318E+02 -0.13071180371E+02  0.10611089278E+02  0.37059204406E+02  0.51100000000E-03 0. -1.
        -11    1    3    3    0    0 -0.67896930174E+01 -0.33387025824E+01 -0.51111788390E+01  0.91307730007E+01  0.51100000000E-03 0.  1.
        -12    1    3    3    0    0  0.40596866337E+02  0.15727499968E+02 -0.49536349788E+01  0.43817785329E+02  0.00000000000E+00 0.  1.
</event>
<event>
 7    1  0.2682188E-015  0.9000792E+02  0.7816164E-02  0.1186339E+00
        -11   -1    0    0    0    0  0.00000000000E+00  0.00000000000E+00  0.45593999997E+02  0.45594000000E+02  0.51100000000E-03 0. -1.
         11   -1    0    0    0    0 -0.00000000000E+00 -0.00000000000E+00 -0.45593999997E+02  0.45594000000E+02  0.51100000000E-03 0.  1.
    9900012    2    1    2    0    0  0.73338116995E+00 -0.54029417238E+00 -0.75021439199E+00  0.90007920610E+02  0.90000184362E+02 0.  0.
         12    1    1    2    0    0 -0.73338116995E+00  0.54029417238E+00  0.75021439199E+00  0.11800793902E+01  0.00000000000E+00 0. -1.
         11    1    3    3    0    0  0.12936536168E+02  0.60915173643E+01 -0.30848507870E+00  0.14302297547E+02  0.51100000000E-03 0. -1.
        -11    1    3    3    0    0  0.17393852653E+02 -0.14431206547E+01 -0.29260875459E+02  0.34070919275E+02  0.51100000000E-03 0.  1.
         12    1    3    3    0    0 -0.29597007651E+02 -0.51886908819E+01  0.28819146146E+02  0.41634703788E+02  0.00000000000E+00 0. -1.
</event>
<event>
 7    1  0.2682188E-015  0.9000775E+02  0.7816164E-02  0.1186339E+00
        -11   -1    0    0    0    0  0.00000000000E+00  0.00000000000E+00  0.45593999997E+02  0.45594000000E+02  0.51100000000E-03 0.  1.
         11   -1    0    0    0    0 -0.00000000000E+00 -0.00000000000E+00 -0.45593999997E+02  0.45594000000E+02  0.51100000000E-03 0. -1.
    9900012    2    1    2    0    0 -0.56192870402E+00 -0.54620719210E-01  0.10364548106E+01  0.90007751778E+02  0.90000013301E+02 0.  0.
         12    1    1    2    0    0  0.56192870402E+00  0.54620719210E-01 -0.10364548106E+01  0.11802482221E+01  0.00000000000E+00 0. -1.
         11    1    3    3    0    0  0.29846926756E+02 -0.11191553870E+02  0.10687269736E+02  0.33620048327E+02  0.51100000000E-03 0. -1.
        -11    1    3    3    0    0 -0.13106517052E+01 -0.91452982875E+01  0.11761592084E+02  0.14956247433E+02  0.51100000000E-03 0.  1.
        -12    1    3    3    0    0 -0.29098203755E+02  0.20282231439E+02 -0.21412407009E+02  0.41431456018E+02  0.00000000000E+00 0.  1.
</event>
<event>
 7    1  0.2682188E-015  0.9000778E+02  0.7816164E-02  0.1186339E+00
        -11   -1    0    0    0    0  0.00000000000E+00  0.00000000000E+00  0.45593999997E+02  0.45594000000E+02  0.51100000000E-03 0. -1.
         11   -1    0    0    0    0 -0.00000000000E+00 -0.00000000000E+00 -0.45593999997E+02  0.45594000000E+02  0.51100000000E-03 0.  1.
    9900012    2    1    2    0    0  0.24203168773E+00 -0.70628406389E+00 -0.91406038929E+00  0.90007778448E+02  0.90000040323E+02 0.  0.
         12    1    1    2    0    0 -0.24203168773E+00  0.70628406389E+00  0.91406038929E+00  0.11802215521E+01  0.00000000000E+00 0. -1.
         11    1    3    3    0    0  0.57280751995E+01  0.78598984526E+01 -0.91903248063E+00  0.97690055860E+01  0.51100000000E-03 0. -1.
        -11    1    3    3    0    0 -0.14240009071E+02  0.33532090811E+02  0.56676721340E+01  0.36868705973E+02  0.51100000000E-03 0.  1.
         12    1    3    3    0    0  0.87539655591E+01 -0.42098273327E+02 -0.56627000427E+01  0.43370066889E+02  0.00000000000E+00 0. -1.
</event>
<event>
 7    1  0.2831611E-015  0.9000802E+02  0.7816164E-02  0.1186338E+00
        -11   -1    0    0    0    0  0.00000000000E+00  0.00000000000E+00  0.45593999997E+02  0.45594000000E+02  0.51100000000E-03 0. -1.
         11   -1    0    0    0    0 -0.00000000000E+00 -0.00000000000E+00 -0.45593999997E+02  0.45594000000E+02  0.51100000000E-03 0.  1.
    9900012    2    1    2    0    0 -0.71248519569E+00  0.70502643311E+00 -0.62262654049E+00  0.90008016426E+02  0.90000281443E+02 0.  0.
         12    1    1    2    0    0  0.71248519569E+00 -0.70502643311E+00  0.62262654049E+00  0.11799835738E+01  0.00000000000E+00 0. -1.
         11    1    3    3    0    0  0.28350213341E+01  0.16360989584E+01 -0.85863265143E+01  0.91890787916E+01  0.51100000000E-03 0. -1.
        -11    1    3    3    0    0  0.28315168730E+02  0.17978670142E+02 -0.15514499659E+02  0.36955122246E+02  0.51100000000E-03 0.  1.
         12    1    3    3    0    0 -0.31862675260E+02 -0.18909742667E+02  0.23478199633E+02  0.43863815389E+02  0.00000000000E+00 0. -1.
</event>
<event>
 7    1  0.2682188E-015  0.9000773E+02  0.7816164E-02  0.1186339E+00
        -11   -1    0    0    0    0  0.00000000000E+00  0.00000000000E+00  0.45593999997E+02  0.45594000000E+02  0.51100000000E-03 0.  1.
         11   -1    0    0    0    0 -0.00000000000E+00 -0.00000000000E+00 -0.45593999997E+02  0.45594000000E+02  0.51100000000E-03 0. -1.
    9900012    2    1    2    0    0 -0.17930416632E+00 -0.96744984337E+00  0.65187346787E+00  0.90007725370E+02  0.89999986545E+02 0.  0.
         12    1    1    2    0    0  0.17930416632E+00  0.96744984337E+00 -0.65187346787E+00  0.11802746297E+01  0.00000000000E+00 0. -1.
         11    1    3    3    0    0 -0.27197616698E+02 -0.17873897667E+02 -0.21842929824E+02  0.39195665008E+02  0.51100000000E-03 0. -1.
        -11    1    3    3    0    0  0.56176585727E+01 -0.60747280862E+01 -0.44847564291E+01  0.94113468563E+01  0.51100000000E-03 0.  1.
        -12    1    3    3    0    0  0.21400653959E+02  0.22981175910E+02  0.26979559721E+02  0.41400713506E+02  0.00000000000E+00 0.  1.
</event>
<event>
 7    1  0.2682188E-015  0.9000778E+02  0.7816164E-02  0.1186339E+00
        -11   -1    0    0    0    0  0.00000000000E+00  0.00000000000E+00  0.45593999997E+02  0.45594000000E+02  0.51100000000E-03 0.  1.
         11   -1    0    0    0    0 -0.00000000000E+00 -0.00000000000E+00 -0.45593999997E+02  0.45594000000E+02  0.51100000000E-03 0. -1.
    9900012    2    1    2    0    0 -0.85460484949E+00 -0.45638963008E+00  0.67400705453E+00  0.90007776948E+02  0.90000038804E+02 0.  0.
         12    1    1    2    0    0  0.85460484949E+00  0.45638963008E+00 -0.67400705453E+00  0.11802230521E+01  0.00000000000E+00 0. -1.
         11    1    3    3    0    0  0.49471856756E+01  0.49098098967E+01  0.64231240051E+01  0.94782594171E+01  0.51100000000E-03 0. -1.
        -11    1    3    3    0    0 -0.29240578797E+02  0.24110475203E+02  0.10779852910E+02  0.39402178771E+02  0.51100000000E-03 0.  1.
         12    1    3    3    0    0  0.23438788272E+02 -0.29476674730E+02 -0.16528969860E+02  0.41127338759E+02  0.00000000000E+00 0. -1.
</event>
<event>
 7    1  0.2682188E-015  0.9000674E+02  0.7816164E-02  0.1186341E+00
        -11   -1    0    0    0    0  0.00000000000E+00  0.00000000000E+00  0.45593999997E+02  0.45594000000E+02  0.51100000000E-03 0.  1.
         11   -1    0    0    0    0 -0.00000000000E+00 -0.00000000000E+00 -0.45593999997E+02  0.45594000000E+02  0.51100000000E-03 0. -1.
    9900012    2    1    2    0    0  0.11682885804E+01 -0.14263799348E+00  0.10071185270E+00  0.90006735135E+02  0.89998983233E+02 0.  0.
         12    1    1    2    0    0 -0.11682885804E+01  0.14263799348E+00 -0.10071185270E+00  0.11812648651E+01  0.00000000000E+00 0. -1.
         11    1    3    3    0    0 -0.23007558925E+01 -0.53035064102E+01 -0.64119444698E+01  0.86332896433E+01  0.51100000000E-03 0. -1.
        -11    1    3    3    0    0  0.25033658839E+02 -0.30331625809E+02  0.63862939410E+01  0.39843146834E+02  0.51100000000E-03 0.  1.
         12    1    3    3    0    0 -0.21564614366E+02  0.35492494226E+02  0.12636238151E+00  0.41530298657E+02  0.00000000000E+00 0. -1.
</event>
<event>
 7    1  0.2682188E-015  0.9000754E+02  0.7816164E-02  0.1186339E+00
        -11   -1    0    0    0    0  0.00000000000E+00  0.00000000000E+00  0.45593999997E+02  0.45594000000E+02  0.51100000000E-03 0. -1.
         11   -1    0    0    0    0 -0.00000000000E+00 -0.00000000000E+00 -0.45593999997E+02  0.45594000000E+02  0.51100000000E-03 0.  1.
    9900012    2    1    2    0    0  0.52941098284E+00 -0.47045304113E+00 -0.94439401859E+00  0.90007541566E+02  0.89999800314E+02 0.  0.
         12    1    1    2    0    0 -0.52941098284E+00  0.47045304113E+00  0.94439401859E+00  0.11804584343E+01  0.00000000000E+00 0. -1.
         11    1    3    3    0    0  0.10263303766E+02 -0.27650811949E+01  0.14216466597E+02  0.17750746491E+02  0.51100000000E-03 0. -1.
        -11    1    3    3    0    0  0.17776759532E+02  0.27852417726E+02 -0.56621521496E+01  0.33523578566E+02  0.51100000000E-03 0.  1.
         12    1    3    3    0    0 -0.27510652315E+02 -0.25557789572E+02 -0.94987084658E+01  0.38733216509E+02  0.00000000000E+00 0. -1.
</event>
<event>
 7    1  0.2682188E-015  0.9000763E+02  0.7816164E-02  0.1186339E+00
        -11   -1    0    0    0    0  0.00000000000E+00  0.00000000000E+00  0.45593999997E+02  0.45594000000E+02  0.51100000000E-03 0. -1.
         11   -1    0    0    0    0 -0.00000000000E+00 -0.00000000000E+00 -0.45593999997E+02  0.45594000000E+02  0.51100000000E-03 0.  1.
    9900012    2    1    2    0    0  0.42846903063E+00  0.10968925275E+01  0.80726461774E-01  0.90007629004E+02  0.89999888907E+02 0.  0.
         12    1    1    2    0    0 -0.42846903063E+00 -0.10968925275E+01 -0.80726461774E-01  0.11803709962E+01  0.00000000000E+00 0. -1.
         11    1    3    3    0    0  0.77149092218E+01 -0.14924759886E+01 -0.23884300680E+01  0.82129110142E+01  0.51100000000E-03 0. -1.
        -11    1    3    3    0    0  0.25645879137E+02  0.25339240452E+02 -0.13779548196E+02  0.38596167843E+02  0.51100000000E-03 0.  1.
         12    1    3    3    0    0 -0.32932319329E+02 -0.22749871936E+02  0.16248704726E+02  0.43198550146E+02  0.00000000000E+00 0. -1.
</event>
<event>
 7    1  0.2682188E-015  0.9000775E+02  0.7816164E-02  0.1186339E+00
        -11   -1    0    0    0    0  0.00000000000E+00  0.00000000000E+00  0.45593999997E+02  0.45594000000E+02  0.51100000000E-03 0. -1.
         11   -1    0    0    0    0 -0.00000000000E+00 -0.00000000000E+00 -0.45593999997E+02  0.45594000000E+02  0.51100000000E-03 0.  1.
    9900012    2    1    2    0    0  0.68961892753E+00  0.90256992460E+00  0.32058157443E+00  0.90007754568E+02  0.90000016128E+02 0.  0.
         12    1    1    2    0    0 -0.68961892753E+00 -0.90256992460E+00 -0.32058157443E+00  0.11802454320E+01  0.00000000000E+00 0. -1.
         11    1    3    3    0    0  0.28369581191E+02  0.54110833874E+01  0.16321265043E+02  0.33173734388E+02  0.51100000000E-03 0. -1.
        -11    1    3    3    0    0  0.11897901262E+02 -0.83137435001E+01 -0.18576215309E+01  0.14633152205E+02  0.51100000000E-03 0.  1.
        -12    1    3    3    0    0 -0.39577863526E+02  0.38052300373E+01 -0.14143061938E+02  0.42200867975E+02  0.00000000000E+00 0.  1.
</event>
<event>
 7    1  0.2682188E-015  0.9000782E+02  0.7816164E-02  0.1186339E+00
        -11   -1    0    0    0    0  0.00000000000E+00  0.00000000000E+00  0.45593999997E+02  0.45594000000E+02  0.51100000000E-03 0.  1.
         11   -1    0    0    0    0 -0.00000000000E+00 -0.00000000000E+00 -0.45593999997E+02  0.45594000000E+02  0.51100000000E-03 0. -1.
    9900012    2    1    2    0    0 -0.63938961883E+00 -0.48262208514E+00  0.86664883863E+00  0.90007820619E+02  0.90000083051E+02 0.  0.
         12    1    1    2    0    0  0.63938961883E+00  0.48262208514E+00 -0.86664883863E+00  0.11801793810E+01  0.00000000000E+00 0. -1.
         11    1    3    3    0    0 -0.82862234872E+01  0.52035065330E+00 -0.11489974506E+01  0.83816740502E+01  0.51100000000E-03 0. -1.
        -11    1    3    3    0    0 -0.20032952304E+02  0.24620451018E+02  0.22306976811E+02  0.38795450778E+02  0.51100000000E-03 0.  1.
         12    1    3    3    0    0  0.27679786172E+02 -0.25623423757E+02 -0.20291330522E+02  0.42830695791E+02  0.00000000000E+00 0. -1.
</event>
<event>
 7    1  0.2682188E-015  0.9000713E+02  0.7816164E-02  0.1186340E+00
        -11   -1    0    0    0    0  0.00000000000E+00  0.00000000000E+00  0.45593999997E+02  0.45594000000E+02  0.51100000000E-03 0. -1.
         11   -1    0    0    0    0 -0.00000000000E+00 -0.00000000000E+00 -0.45593999997E+02  0.45594000000E+02  0.51100000000E-03 0.  1.
    9900012    2    1    2    0    0 -0.55481078262E+00  0.10420052130E+01 -0.29353817004E-01  0.90007131034E+02  0.89999384361E+02 0.  0.
         12    1    1    2    0    0  0.55481078262E+00 -0.10420052130E+01  0.29353817004E-01  0.11808689661E+01  0.00000000000E+00 0. -1.
         11    1    3    3    0    0  0.22878978442E+01 -0.83405973735E+01 -0.23096381438E+01  0.89517858391E+01  0.51100000000E-03 0. -1.
        -11    1    3    3    0    0 -0.14619800009E+02 -0.28566710647E+02 -0.17626734261E+02  0.36612802003E+02  0.51100000000E-03 0.  1.
         12    1    3    3    0    0  0.11777091382E+02  0.37949313234E+02  0.19907018588E+02  0.44442543192E+02  0.00000000000E+00 0. -1.
</event>
<event>
 7    1  0.2682188E-015  0.9000784E+02  0.7816164E-02  0.1186339E+00
        -11   -1    0    0    0    0  0.00000000000E+00  0.00000000000E+00  0.45593999997E+02  0.45594000000E+02  0.51100000000E-03 0. -1.
         11   -1    0    0    0    0 -0.00000000000E+00 -0.00000000000E+00 -0.45593999997E+02  0.45594000000E+02  0.51100000000E-03 0.  1.
    9900012    2    1    2    0    0 -0.25389003369E+00 -0.85376735949E+00 -0.77420656738E+00  0.90007841255E+02  0.90000103960E+02 0.  0.
         12    1    1    2    0    0  0.25389003369E+00  0.85376735949E+00  0.77420656738E+00  0.11801587445E+01  0.00000000000E+00 0. -1.
         11    1    3    3    0    0  0.12788937618E+02  0.84628945085E+01 -0.56827474070E+01  0.16354544543E+02  0.51100000000E-03 0. -1.
        -11    1    3    3    0    0  0.28620160129E+02  0.17582272317E+01 -0.57509939245E+01  0.29245151054E+02  0.51100000000E-03 0.  1.
         12    1    3    3    0    0 -0.41662987781E+02 -0.11074889100E+02  0.10659534764E+02  0.44408145658E+02  0.00000000000E+00 0. -1.
</event>
<event>
 7    1  0.2682188E-015  0.9000784E+02  0.7816164E-02  0.1186339E+00
        -11   -1    0    0    0    0  0.00000000000E+00  0.00000000000E+00  0.45593999997E+02  0.45594000000E+02  0.51100000000E-03 0. -1.
         11   -1    0    0    0    0 -0.00000000000E+00 -0.00000000000E+00 -0.45593999997E+02  0.45594000000E+02  0.51100000000E-03 0.  1.
    9900012    2    1    2    0    0  0.29860064057E+00  0.56416677929E+00 -0.99264274066E+00  0.90007836406E+02  0.90000099047E+02 0.  0.
         12    1    1    2    0    0 -0.29860064057E+00 -0.56416677929E+00  0.99264274066E+00  0.11801635937E+01  0.00000000000E+00 0. -1.
         11    1    3    3    0    0  0.38787819876E+01 -0.75592605584E+01  0.19298584876E+01  0.87127334368E+01  0.51100000000E-03 0. -1.
        -11    1    3    3    0    0 -0.23300006061E+02  0.13709390413E+02 -0.34388616320E+02  0.43742594809E+02  0.51100000000E-03 0.  1.
         12    1    3    3    0    0  0.19719824714E+02 -0.55859630751E+01  0.31466115092E+02  0.37552508161E+02  0.00000000000E+00 0. -1.
</event>
<event>
 7    1  0.2682188E-015  0.9000771E+02  0.7816164E-02  0.1186339E+00
        -11   -1    0    0    0    0  0.00000000000E+00  0.00000000000E+00  0.45593999997E+02  0.45594000000E+02  0.51100000000E-03 0.  1.
         11   -1    0    0    0    0 -0.00000000000E+00 -0.00000000000E+00 -0.45593999997E+02  0.45594000000E+02  0.51100000000E-03 0. -1.
    9900012    2    1    2    0    0  0.82057233854E+00  0.76033948636E+00  0.37633167288E+00  0.90007711635E+02  0.89999972628E+02 0.  0.
         12    1    1    2    0    0 -0.82057233854E+00 -0.76033948636E+00 -0.37633167288E+00  0.11802883653E+01  0.00000000000E+00 0. -1.
         11    1    3    3    0    0  0.26184650049E+02  0.22182322207E+02 -0.10026103624E+02  0.35752119808E+02  0.51100000000E-03 0. -1.
        -11    1    3    3    0    0  0.68717644125E+01 -0.80512502559E+01 -0.93771832124E+01  0.14141263808E+02  0.51100000000E-03 0.  1.
        -12    1    3    3    0    0 -0.32235842122E+02 -0.13370732464E+02  0.19779618510E+02  0.40114328018E+02  0.00000000000E+00 0.  1.
</event>
<event>
 7    1  0.2682188E-015  0.9000802E+02  0.7816164E-02  0.1186338E+00
        -11   -1    0    0    0    0  0.00000000000E+00  0.00000000000E+00  0.45593999997E+02  0.45594000000E+02  0.51100000000E-03 0.  1.
         11   -1    0    0    0    0 -0.00000000000E+00 -0.00000000000E+00 -0.45593999997E+02  0.45594000000E+02  0.51100000000E-03 0. -1.
    9900012    2    1    2    0    0  0.61454818667E-01 -0.11628622468E+01  0.19057078825E+00  0.90008024354E+02  0.90000289475E+02 0.  0.
         12    1    1    2    0    0 -0.61454818667E-01  0.11628622468E+01 -0.19057078825E+00  0.11799756459E+01  0.00000000000E+00 0. -1.
         11    1    3    3    0    0 -0.35942379720E+01  0.77091029295E+01  0.10506512722E+02  0.13517974124E+02  0.51100000000E-03 0. -1.
        -11    1    3    3    0    0 -0.11505168283E+02  0.16537458691E+02  0.23897903693E+02  0.31256459146E+02  0.51100000000E-03 0.  1.
         12    1    3    3    0    0  0.15160861073E+02 -0.25409423867E+02 -0.34213845627E+02  0.45233591084E+02  0.00000000000E+00 0. -1.
</event>
<event>
 7    1  0.2682188E-015  0.9000761E+02  0.7816164E-02  0.1186339E+00
        -11   -1    0    0    0    0  0.00000000000E+00  0.00000000000E+00  0.45593999997E+02  0.45594000000E+02  0.51100000000E-03 0.  1.
         11   -1    0    0    0    0 -0.00000000000E+00 -0.00000000000E+00 -0.45593999997E+02  0.45594000000E+02  0.51100000000E-03 0. -1.
    9900012    2    1    2    0    0  0.57772212048E+00 -0.15776816271E+00  0.10171805618E+01  0.90007614496E+02  0.89999874208E+02 0.  0.
         12    1    1    2    0    0 -0.57772212048E+00  0.15776816271E+00 -0.10171805618E+01  0.11803855036E+01  0.00000000000E+00 0. -1.
         11    1    3    3    0    0 -0.13225665492E+02 -0.17891536092E+02  0.66419184594E+01  0.23219396472E+02  0.51100000000E-03 0. -1.
        -11    1    3    3    0    0  0.16365224684E+02 -0.11916121733E+02  0.19299567164E+02  0.27969408808E+02  0.51100000000E-03 0.  1.
         12    1    3    3    0    0 -0.25618370713E+01  0.29649889662E+02 -0.24924305062E+02  0.38818809216E+02  0.00000000000E+00 0. -1.
</event>
<event>
 7    1  0.6534327E-015  0.9000806E+02  0.7816164E-02  0.1186338E+00
        -11   -1    0    0    0    0  0.00000000000E+00  0.00000000000E+00  0.45593999997E+02  0.45594000000E+02  0.51100000000E-03 0. -1.
         11   -1    0    0    0    0 -0.00000000000E+00 -0.00000000000E+00 -0.45593999997E+02  0.45594000000E+02  0.51100000000E-03 0.  1.
    9900012    2    1    2    0    0 -0.12734584681E+00  0.74679096533E-01 -0.11706715522E+01  0.90008056859E+02  0.90000322409E+02 0.  0.
         12    1    1    2    0    0  0.12734584681E+00 -0.74679096533E-01  0.11706715522E+01  0.11799431407E+01  0.00000000000E+00 0. -1.
         11    1    3    3    0    0  0.90674822697E+01  0.17712827960E+01  0.12887409382E+00  0.92397665689E+01  0.51100000000E-03 0. -1.
        -11    1    3    3    0    0  0.95251323846E+01  0.10377021777E+01 -0.38155606110E+02  0.39340249753E+02  0.51100000000E-03 0.  1.
         12    1    3    3    0    0 -0.18719960501E+02 -0.27343058772E+01  0.36856060464E+02  0.41428040537E+02  0.00000000000E+00 0. -1.
</event>
<event>
 7    1  0.2682188E-015  0.9000776E+02  0.7816164E-02  0.1186339E+00
        -11   -1    0    0    0    0  0.00000000000E+00  0.00000000000E+00  0.45593999997E+02  0.45594000000E+02  0.51100000000E-03 0. -1.
         11   -1    0    0    0    0 -0.00000000000E+00 -0.00000000000E+00 -0.45593999997E+02  0.45594000000E+02  0.51100000000E-03 0.  1.
    9900012    2    1    2    0    0 -0.10109667782E+01  0.21521593979E-02 -0.60903164571E+00  0.90007755108E+02  0.90000016676E+02 0.  0.
         12    1    1    2    0    0  0.10109667782E+01 -0.21521593979E-02  0.60903164571E+00  0.11802448915E+01  0.00000000000E+00 0. -1.
         11    1    3    3    0    0 -0.53499999666E+01  0.74641504824E+01 -0.55631625809E+01  0.10737076894E+02  0.51100000000E-03 0. -1.
        -11    1    3    3    0    0  0.31841092438E+02  0.78226593128E+01 -0.20612528335E+02  0.38728871543E+02  0.51100000000E-03 0.  1.
         12    1    3    3    0    0 -0.27502059249E+02 -0.15284657636E+02  0.25566659270E+02  0.40541806672E+02  0.00000000000E+00 0. -1.
</event>
<event>
 7    1  0.2682188E-015  0.9000774E+02  0.7816164E-02  0.1186339E+00
        -11   -1    0    0    0    0  0.00000000000E+00  0.00000000000E+00  0.45593999997E+02  0.45594000000E+02  0.51100000000E-03 0. -1.
         11   -1    0    0    0    0 -0.00000000000E+00 -0.00000000000E+00 -0.45593999997E+02  0.45594000000E+02  0.51100000000E-03 0.  1.
    9900012    2    1    2    0    0 -0.96026542830E+00  0.40234542092E+00 -0.55589635469E+00  0.90007740585E+02  0.90000001960E+02 0.  0.
         12    1    1    2    0    0  0.96026542830E+00 -0.40234542092E+00  0.55589635469E+00  0.11802594154E+01  0.00000000000E+00 0. -1.
         11    1    3    3    0    0  0.73520651790E+01 -0.13729783470E+01 -0.58728946077E+01  0.95094070936E+01  0.51100000000E-03 0. -1.
        -11    1    3    3    0    0  0.32054308351E+02  0.17748704279E+02 -0.85249170168E+00  0.36649992222E+02  0.51100000000E-03 0.  1.
         12    1    3    3    0    0 -0.40366638959E+02 -0.15973380511E+02  0.61694899547E+01  0.43848341269E+02  0.00000000000E+00 0. -1.
</event>
<event>
 7    1  0.2682188E-015  0.9000776E+02  0.7816164E-02  0.1186339E+00
        -11   -1    0    0    0    0  0.00000000000E+00  0.00000000000E+00  0.45593999997E+02  0.45594000000E+02  0.51100000000E-03 0. -1.
         11   -1    0    0    0    0 -0.00000000000E+00 -0.00000000000E+00 -0.45593999997E+02  0.45594000000E+02  0.51100000000E-03 0.  1.
    9900012    2    1    2    0    0 -0.36186912852E-01  0.11577145021E+01  0.22662124450E+00  0.90007758690E+02  0.90000020305E+02 0.  0.
         12    1    1    2    0    0  0.36186912852E-01 -0.11577145021E+01 -0.22662124450E+00  0.11802413099E+01  0.00000000000E+00 0. -1.
         11    1    3    3    0    0 -0.34360860191E+02  0.18912660818E+02  0.23531748727E+01  0.39292427826E+02  0.51100000000E-03 0. -1.
        -11    1    3    3    0    0 -0.20275291904E+01  0.18302185467E+01 -0.85053336348E+01  0.89331559399E+01  0.51100000000E-03 0.  1.
        -12    1    3    3    0    0  0.36352202468E+02 -0.19585164863E+02  0.63787800065E+01  0.41782174924E+02  0.00000000000E+00 0.  1.
</event>
<event>
 7    1  0.2682188E-015  0.9000774E+02  0.7816164E-02  0.1186339E+00
        -11   -1    0    0    0    0  0.00000000000E+00  0.00000000000E+00  0.45593999997E+02  0.45594000000E+02  0.51100000000E-03 0. -1.
         11   -1    0    0    0    0 -0.00000000000E+00 -0.00000000000E+00 -0.45593999997E+02  0.45594000000E+02  0.51100000000E-03 0.  1.
    9900012    2    1    2    0    0  0.88689873839E+00 -0.26191387869E+00 -0.73336243408E+00  0.90007742099E+02  0.90000003495E+02 0.  0.
         12    1    1    2    0    0 -0.88689873839E+00  0.26191387869E+00  0.73336243408E+00  0.11802579005E+01  0.00000000000E+00 0. -1.
         11    1    3    3    0    0 -0.89202114667E+01  0.15169413254E+02  0.32265041384E+02  0.36752063437E+02  0.51100000000E-03 0. -1.
        -11    1    3    3    0    0  0.10329867151E+02 -0.15271582738E+02  0.17344503022E+01  0.18518523505E+02  0.51100000000E-03 0.  1.
        -12    1    3    3    0    0 -0.52275694619E+00 -0.15974439417E+00 -0.34732854121E+02  0.34737155158E+02  0.00000000000E+00 0.  1.
</event>
<event>
 7    1  0.2682188E-015  0.9000787E+02  0.7816164E-02  0.1186339E+00
        -11   -1    0    0    0    0  0.00000000000E+00  0.00000000000E+00  0.45593999997E+02  0.45594000000E+02  0.51100000000E-03 0. -1.
         11   -1    0    0    0    0 -0.00000000000E+00 -0.00000000000E+00 -0.45593999997E+02  0.45594000000E+02  0.51100000000E-03 0.  1.
    9900012    2    1    2    0    0 -0.94424417939E+00  0.52165783747E+00 -0.47851141778E+00  0.90007874097E+02  0.90000137235E+02 0.  0.
         12    1    1    2    0    0  0.94424417939E+00 -0.52165783747E+00  0.47851141778E+00  0.11801259029E+01  0.00000000000E+00 0. -1.
         11    1    3    3    0    0  0.30504898847E+01  0.50867325718E+01 -0.65478572823E+01  0.88348611786E+01  0.51100000000E-03 0. -1.
        -11    1    3    3    0    0  0.26494712387E+01 -0.18843374843E+02 -0.33532089320E+02  0.38555070843E+02  0.51100000000E-03 0.  1.
         12    1    3    3    0    0 -0.66442053028E+01  0.14278300109E+02  0.39601435184E+02  0.42617942075E+02  0.00000000000E+00 0. -1.
</event>
<event>
 7    1  0.2682188E-015  0.9000677E+02  0.7816164E-02  0.1186341E+00
        -11   -1    0    0    0    0  0.00000000000E+00  0.00000000000E+00  0.45593999997E+02  0.45594000000E+02  0.51100000000E-03 0.  1.
         11   -1    0    0    0    0 -0.00000000000E+00 -0.00000000000E+00 -0.45593999997E+02  0.45594000000E+02  0.51100000000E-03 0. -1.
    9900012    2    1    2    0    0  0.90957401234E+00  0.73858908556E+00  0.14989407807E+00  0.90006768881E+02  0.89999017425E+02 0.  0.
         12    1    1    2    0    0 -0.90957401234E+00 -0.73858908556E+00 -0.14989407807E+00  0.11812311187E+01  0.00000000000E+00 0. -1.
         11    1    3    3    0    0  0.13962076684E+02 -0.20343938831E+02 -0.35175437327E+02  0.42966577987E+02  0.51100000000E-03 0. -1.
        -11    1    3    3    0    0 -0.87767035661E+01  0.30643121090E+01  0.29683735300E+01  0.97586769525E+01  0.51100000000E-03 0.  1.
        -12    1    3    3    0    0 -0.42757991058E+01  0.18018215808E+02  0.32356957875E+02  0.37281513942E+02  0.00000000000E+00 0.  1.
</event>
<event>
 7    1  0.2682188E-015  0.9000773E+02  0.7816164E-02  0.1186339E+00
        -11   -1    0    0    0    0  0.00000000000E+00  0.00000000000E+00  0.45593999997E+02  0.45594000000E+02  0.51100000000E-03 0.  1.
         11   -1    0    0    0    0 -0.00000000000E+00 -0.00000000000E+00 -0.45593999997E+02  0.45594000000E+02  0.51100000000E-03 0. -1.
    9900012    2    1    2    0    0 -0.23907465259E+00 -0.11076816062E+01 -0.33003452771E+00  0.90007729684E+02  0.89999990915E+02 0.  0.
         12    1    1    2    0    0  0.23907465259E+00  0.11076816062E+01  0.33003452771E+00  0.11802703163E+01  0.00000000000E+00 0. -1.
         11    1    3    3    0    0  0.18900475043E+02 -0.19661265963E+02 -0.34297922860E+02  0.43819411781E+02  0.51100000000E-03 0. -1.
        -11    1    3    3    0    0 -0.75068596045E+01 -0.15219708013E+01  0.12000246516E+02  0.14236405900E+02  0.51100000000E-03 0.  1.
        -12    1    3    3    0    0 -0.11632690091E+02  0.20075555158E+02  0.21967641816E+02  0.31951912003E+02  0.00000000000E+00 0.  1.
</event>
<event>
 7    1  0.2682188E-015  0.9000774E+02  0.7816164E-02  0.1186339E+00
        -11   -1    0    0    0    0  0.00000000000E+00  0.00000000000E+00  0.45593999997E+02  0.45594000000E+02  0.51100000000E-03 0. -1.
         11   -1    0    0    0    0 -0.00000000000E+00 -0.00000000000E+00 -0.45593999997E+02  0.45594000000E+02  0.51100000000E-03 0.  1.
    9900012    2    1    2    0    0  0.39599905867E+00  0.85229966956E+00  0.71399358083E+00  0.90007738667E+02  0.90000000017E+02 0.  0.
         12    1    1    2    0    0 -0.39599905867E+00 -0.85229966956E+00 -0.71399358083E+00  0.11802613332E+01  0.00000000000E+00 0. -1.
         11    1    3    3    0    0  0.29606194450E+01 -0.58172210589E+01 -0.56976295877E+01  0.86641971080E+01  0.51100000000E-03 0. -1.
        -11    1    3    3    0    0 -0.65015862509E+01 -0.61272949311E+01 -0.35883996292E+02  0.36979393682E+02  0.51100000000E-03 0.  1.
         12    1    3    3    0    0  0.39369658646E+01  0.12796815660E+02  0.42295619461E+02  0.44364147877E+02  0.00000000000E+00 0. -1.
</event>
<event>
 7    1  0.2682188E-015  0.9000778E+02  0.7816164E-02  0.1186339E+00
        -11   -1    0    0    0    0  0.00000000000E+00  0.00000000000E+00  0.45593999997E+02  0.45594000000E+02  0.51100000000E-03 0. -1.
         11   -1    0    0    0    0 -0.00000000000E+00 -0.00000000000E+00 -0.45593999997E+02  0.45594000000E+02  0.51100000000E-03 0.  1.
    9900012    2    1    2    0    0 -0.18434434310E+00  0.11639198010E+01 -0.65077400950E-01  0.90007776628E+02  0.90000038479E+02 0.  0.
         12    1    1    2    0    0  0.18434434310E+00 -0.11639198010E+01  0.65077400950E-01  0.11802233721E+01  0.00000000000E+00 0. -1.
         11    1    3    3    0    0  0.40875262060E+01  0.20472829178E+01 -0.91573455961E+01  0.10235048435E+02  0.51100000000E-03 0. -1.
        -11    1    3    3    0    0 -0.10089275072E+02 -0.12355391432E+02 -0.32517992686E+02  0.36219732433E+02  0.51100000000E-03 0.  1.
         12    1    3    3    0    0  0.58174045225E+01  0.11472028316E+02  0.41610260882E+02  0.43552995760E+02  0.00000000000E+00 0. -1.
</event>
<event>
 7    1  0.2682188E-015  0.9000779E+02  0.7816164E-02  0.1186339E+00
        -11   -1    0    0    0    0  0.00000000000E+00  0.00000000000E+00  0.45593999997E+02  0.45594000000E+02  0.51100000000E-03 0. -1.
         11   -1    0    0    0    0 -0.00000000000E+00 -0.00000000000E+00 -0.45593999997E+02  0.45594000000E+02  0.51100000000E-03 0.  1.
    9900012    2    1    2    0    0  0.11708147122E+01  0.49400890864E-01  0.14020761459E+00  0.90007785734E+02  0.90000047706E+02 0.  0.
         12    1    1    2    0    0 -0.11708147122E+01 -0.49400890864E-01 -0.14020761459E+00  0.11802142659E+01  0.00000000000E+00 0. -1.
         11    1    3    3    0    0 -0.24983924074E+00  0.73933996580E+01 -0.16283527636E+01  0.75747152509E+01  0.51100000000E-03 0. -1.
        -11    1    3    3    0    0  0.39016186274E+02 -0.93091397758E+01 -0.12741923851E+02  0.42086571474E+02  0.51100000000E-03 0.  1.
         12    1    3    3    0    0 -0.37595532321E+02  0.19651410086E+01  0.14510484230E+02  0.40346499009E+02  0.00000000000E+00 0. -1.
</event>
<event>
 7    1  0.2682188E-015  0.9000778E+02  0.7816164E-02  0.1186339E+00
        -11   -1    0    0    0    0  0.00000000000E+00  0.00000000000E+00  0.45593999997E+02  0.45594000000E+02  0.51100000000E-03 0.  1.
         11   -1    0    0    0    0 -0.00000000000E+00 -0.00000000000E+00 -0.45593999997E+02  0.45594000000E+02  0.51100000000E-03 0. -1.
    9900012    2    1    2    0    0  0.82498153436E+00  0.12471985185E+00  0.83472509632E+00  0.90007781563E+02  0.90000043479E+02 0.  0.
         12    1    1    2    0    0 -0.82498153436E+00 -0.12471985185E+00 -0.83472509632E+00  0.11802184374E+01  0.00000000000E+00 0. -1.
         11    1    3    3    0    0  0.32784868672E+01  0.81361202400E+01 -0.43610001510E+01  0.97960834662E+01  0.51100000000E-03 0. -1.
        -11    1    3    3    0    0 -0.39670028028E+02 -0.13917208969E+02  0.63193446901E+01  0.42512750403E+02  0.51100000000E-03 0.  1.
         12    1    3    3    0    0  0.37216522696E+02  0.59058085806E+01 -0.11236194427E+01  0.37698947693E+02  0.00000000000E+00 0. -1.
</event>
<event>
 7    1  0.2682188E-015  0.9000775E+02  0.7816164E-02  0.1186339E+00
        -11   -1    0    0    0    0  0.00000000000E+00  0.00000000000E+00  0.45593999997E+02  0.45594000000E+02  0.51100000000E-03 0. -1.
         11   -1    0    0    0    0 -0.00000000000E+00 -0.00000000000E+00 -0.45593999997E+02  0.45594000000E+02  0.51100000000E-03 0.  1.
    9900012    2    1    2    0    0 -0.10948335122E+01 -0.31932636180E+00 -0.30389255133E+00  0.90007754082E+02  0.90000015636E+02 0.  0.
         12    1    1    2    0    0  0.10948335122E+01  0.31932636180E+00  0.30389255133E+00  0.11802459182E+01  0.00000000000E+00 0. -1.
         11    1    3    3    0    0  0.19077179247E+00  0.23269477023E+02  0.26122027045E+02  0.34983785559E+02  0.51100000000E-03 0. -1.
        -11    1    3    3    0    0  0.24417680703E+01  0.10950255803E+02  0.25306580657E+00  0.11222048656E+02  0.51100000000E-03 0.  1.
        -12    1    3    3    0    0 -0.37273733749E+01 -0.34539059188E+02 -0.26678985403E+02  0.43801919867E+02  0.00000000000E+00 0.  1.
</event>
<event>
 7    1  0.2682188E-015  0.9000776E+02  0.7816164E-02  0.1186339E+00
        -11   -1    0    0    0    0  0.00000000000E+00  0.00000000000E+00  0.45593999997E+02  0.45594000000E+02  0.51100000000E-03 0. -1.
         11   -1    0    0    0    0 -0.00000000000E+00 -0.00000000000E+00 -0.45593999997E+02  0.45594000000E+02  0.51100000000E-03 0.  1.
    9900012    2    1    2    0    0 -0.10900088041E+01  0.19641221082E+00 -0.40777044282E+00  0.90007756939E+02  0.90000018530E+02 0.  0.
         12    1    1    2    0    0  0.10900088041E+01 -0.19641221082E+00  0.40777044282E+00  0.11802430612E+01  0.00000000000E+00 0. -1.
         11    1    3    3    0    0 -0.41887515732E+01 -0.86464734038E+01 -0.41034373747E+01  0.10447264743E+02  0.51100000000E-03 0. -1.
        -11    1    3    3    0    0 -0.90888860960E+00  0.34979406735E+02 -0.23089309467E+02  0.41922561777E+02  0.51100000000E-03 0.  1.
         12    1    3    3    0    0  0.40076313787E+01 -0.26136521120E+02  0.26784976399E+02  0.37637930419E+02  0.00000000000E+00 0. -1.
</event>
<event>
 7    1  0.2682188E-015  0.9000779E+02  0.7816164E-02  0.1186339E+00
        -11   -1    0    0    0    0  0.00000000000E+00  0.00000000000E+00  0.45593999997E+02  0.45594000000E+02  0.51100000000E-03 0. -1.
         11   -1    0    0    0    0 -0.00000000000E+00 -0.00000000000E+00 -0.45593999997E+02  0.45594000000E+02  0.51100000000E-03 0.  1.
    9900012    2    1    2    0    0  0.10773008843E+01  0.46809269212E+00 -0.11490157910E+00  0.90007792249E+02  0.90000054306E+02 0.  0.
         12    1    1    2    0    0 -0.10773008843E+01 -0.46809269212E+00  0.11490157910E+00  0.11802077515E+01  0.00000000000E+00 0. -1.
         11    1    3    3    0    0  0.36857397751E+01 -0.79218988600E+01 -0.29198547197E+01  0.92123130148E+01  0.51100000000E-03 0. -1.
        -11    1    3    3    0    0  0.10187056937E+01  0.44361272154E+02 -0.14205347181E+01  0.44395699652E+02  0.51100000000E-03 0.  1.
         12    1    3    3    0    0 -0.36271445845E+01 -0.35971280602E+02  0.42254878587E+01  0.36399779582E+02  0.00000000000E+00 0. -1.
</event>
<event>
 7    1  0.2682188E-015  0.9000785E+02  0.7816164E-02  0.1186339E+00
        -11   -1    0    0    0    0  0.00000000000E+00  0.00000000000E+00  0.45593999997E+02  0.45594000000E+02  0.51100000000E-03 0. -1.
         11   -1    0    0    0    0 -0.00000000000E+00 -0.00000000000E+00 -0.45593999997E+02  0.45594000000E+02  0.51100000000E-03 0.  1.
    9900012    2    1    2    0    0 -0.16925151839E+00  0.92453012775E+00 -0.71369679808E+00  0.90007845284E+02  0.90000108042E+02 0.  0.
         12    1    1    2    0    0  0.16925151839E+00 -0.92453012775E+00  0.71369679808E+00  0.11801547158E+01  0.00000000000E+00 0. -1.
         11    1    3    3    0    0  0.89285463112E+01  0.14603922165E+01 -0.44143249321E+01  0.10066675197E+02  0.51100000000E-03 0. -1.
        -11    1    3    3    0    0  0.15351231928E+02 -0.31625084738E+02 -0.12345702733E+02  0.37258860458E+02  0.51100000000E-03 0.  1.
         12    1    3    3    0    0 -0.24449029758E+02  0.31089222649E+02  0.16046330867E+02  0.42682309629E+02  0.00000000000E+00 0. -1.
</event>
<event>
 7    1  0.2682188E-015  0.9000776E+02  0.7816164E-02  0.1186339E+00
        -11   -1    0    0    0    0  0.00000000000E+00  0.00000000000E+00  0.45593999997E+02  0.45594000000E+02  0.51100000000E-03 0.  1.
         11   -1    0    0    0    0 -0.00000000000E+00 -0.00000000000E+00 -0.45593999997E+02  0.45594000000E+02  0.51100000000E-03 0. -1.
    9900012    2    1    2    0    0 -0.35845605173E+00  0.64277605277E+00  0.92266246462E+00  0.90007763660E+02  0.90000025340E+02 0.  0.
         12    1    1    2    0    0  0.35845605173E+00 -0.64277605277E+00 -0.92266246462E+00  0.11802363402E+01  0.00000000000E+00 0. -1.
         11    1    3    3    0    0  0.86249023772E+01  0.15396121581E+01 -0.35693189860E+02  0.36752729821E+02  0.51100000000E-03 0. -1.
        -11    1    3    3    0    0  0.11999216297E+02 -0.46076254068E+00  0.11738468148E+01  0.12065297777E+02  0.51100000000E-03 0.  1.
        -12    1    3    3    0    0 -0.20982574725E+02 -0.43607356469E+00  0.35442005510E+02  0.41189736062E+02  0.00000000000E+00 0.  1.
</event>
<event>
 7    1  0.2682188E-015  0.9000765E+02  0.7816164E-02  0.1186339E+00
        -11   -1    0    0    0    0  0.00000000000E+00  0.00000000000E+00  0.45593999997E+02  0.45594000000E+02  0.51100000000E-03 0.  1.
         11   -1    0    0    0    0 -0.00000000000E+00 -0.00000000000E+00 -0.45593999997E+02  0.45594000000E+02  0.51100000000E-03 0. -1.
    9900012    2    1    2    0    0 -0.11034122642E+01  0.13921704569E+00  0.39538906397E+00  0.90007647289E+02  0.89999907433E+02 0.  0.
         12    1    1    2    0    0  0.11034122642E+01 -0.13921704569E+00 -0.39538906397E+00  0.11803527111E+01  0.00000000000E+00 0. -1.
         11    1    3    3    0    0  0.54825481402E+01  0.24808346775E+01  0.78810593268E+01  0.99158444512E+01  0.51100000000E-03 0. -1.
        -11    1    3    3    0    0  0.25346917383E+02 -0.15468021863E+01 -0.31258605428E+02  0.40273554989E+02  0.51100000000E-03 0.  1.
         12    1    3    3    0    0 -0.31932877788E+02 -0.79481544553E+00  0.23772935165E+02  0.39818247849E+02  0.00000000000E+00 0. -1.
</event>
<event>
 7    1  0.2682188E-015  0.9000773E+02  0.7816164E-02  0.1186339E+00
        -11   -1    0    0    0    0  0.00000000000E+00  0.00000000000E+00  0.45593999997E+02  0.45594000000E+02  0.51100000000E-03 0.  1.
         11   -1    0    0    0    0 -0.00000000000E+00 -0.00000000000E+00 -0.45593999997E+02  0.45594000000E+02  0.51100000000E-03 0. -1.
    9900012    2    1    2    0    0  0.77494091915E-01  0.44378804400E+00  0.10909108555E+01  0.90007728990E+02  0.89999990213E+02 0.  0.
         12    1    1    2    0    0 -0.77494091915E-01 -0.44378804400E+00 -0.10909108555E+01  0.11802710099E+01  0.00000000000E+00 0. -1.
         11    1    3    3    0    0 -0.78400134833E+01 -0.38855679552E+02  0.27943480703E+00  0.39639724128E+02  0.51100000000E-03 0. -1.
        -11    1    3    3    0    0 -0.49664700134E+01  0.27338385071E+01  0.91012733262E+01  0.10722540454E+02  0.51100000000E-03 0.  1.
        -12    1    3    3    0    0  0.12883977589E+02  0.36565629089E+02 -0.82897972778E+01  0.39645464408E+02  0.00000000000E+00 0.  1.
</event>
<event>
 7    1  0.2682188E-015  0.9000772E+02  0.7816164E-02  0.1186339E+00
        -11   -1    0    0    0    0  0.00000000000E+00  0.00000000000E+00  0.45593999997E+02  0.45594000000E+02  0.51100000000E-03 0.  1.
         11   -1    0    0    0    0 -0.00000000000E+00 -0.00000000000E+00 -0.45593999997E+02  0.45594000000E+02  0.51100000000E-03 0. -1.
    9900012    2    1    2    0    0 -0.81531086318E+00 -0.33184431472E+00  0.78625803489E+00  0.90007722850E+02  0.89999983992E+02 0.  0.
         12    1    1    2    0    0  0.81531086318E+00  0.33184431472E+00 -0.78625803489E+00  0.11802771498E+01  0.00000000000E+00 0. -1.
         11    1    3    3    0    0  0.83164251994E+01  0.77378347786E+01 -0.13009336939E+01  0.11433697735E+02  0.51100000000E-03 0. -1.
        -11    1    3    3    0    0 -0.19074066292E+02  0.41888231939E+01  0.36118959973E+02  0.41060266858E+02  0.51100000000E-03 0.  1.
         12    1    3    3    0    0  0.99423302298E+01 -0.12258502287E+02 -0.34031768244E+02  0.37513758257E+02  0.00000000000E+00 0. -1.
</event>
<event>
 7    1  0.2682188E-015  0.9000766E+02  0.7816164E-02  0.1186339E+00
        -11   -1    0    0    0    0  0.00000000000E+00  0.00000000000E+00  0.45593999997E+02  0.45594000000E+02  0.51100000000E-03 0. -1.
         11   -1    0    0    0    0 -0.00000000000E+00 -0.00000000000E+00 -0.45593999997E+02  0.45594000000E+02  0.51100000000E-03 0.  1.
    9900012    2    1    2    0    0 -0.49409715307E+00 -0.38423902978E+00 -0.10007170028E+01  0.90007658461E+02  0.89999918753E+02 0.  0.
         12    1    1    2    0    0  0.49409715307E+00  0.38423902978E+00  0.10007170028E+01  0.11803415389E+01  0.00000000000E+00 0. -1.
         11    1    3    3    0    0 -0.27610972535E+02  0.58259172410E+01  0.26040309630E+02  0.38397979660E+02  0.51100000000E-03 0. -1.
        -11    1    3    3    0    0  0.13671726751E+01  0.72721370179E+01  0.45461633312E+01  0.86845114558E+01  0.51100000000E-03 0.  1.
        -12    1    3    3    0    0  0.25749702707E+02 -0.13482293289E+02 -0.31587189964E+02  0.42925167346E+02  0.00000000000E+00 0.  1.
</event>
<event>
 7    1  0.2682188E-015  0.9000776E+02  0.7816164E-02  0.1186339E+00
        -11   -1    0    0    0    0  0.00000000000E+00  0.00000000000E+00  0.45593999997E+02  0.45594000000E+02  0.51100000000E-03 0.  1.
         11   -1    0    0    0    0 -0.00000000000E+00 -0.00000000000E+00 -0.45593999997E+02  0.45594000000E+02  0.51100000000E-03 0. -1.
    9900012    2    1    2    0    0 -0.63534480384E+00  0.68733123199E+00  0.71894258591E+00  0.90007760328E+02  0.90000021964E+02 0.  0.
         12    1    1    2    0    0  0.63534480384E+00 -0.68733123199E+00 -0.71894258591E+00  0.11802396723E+01  0.00000000000E+00 0. -1.
         11    1    3    3    0    0 -0.32980670716E+01  0.11801755226E+02  0.14709298001E+02  0.19144767451E+02  0.51100000000E-03 0. -1.
        -11    1    3    3    0    0  0.22436001800E+02  0.88041907081E+01  0.16663409524E+02  0.29301146190E+02  0.51100000000E-03 0.  1.
         12    1    3    3    0    0 -0.19773279532E+02 -0.19918614702E+02 -0.30653764939E+02  0.41561846687E+02  0.00000000000E+00 0. -1.
</event>
<event>
 7    1  0.2682188E-015  0.9000754E+02  0.7816164E-02  0.1186339E+00
        -11   -1    0    0    0    0  0.00000000000E+00  0.00000000000E+00  0.45593999997E+02  0.45594000000E+02  0.51100000000E-03 0. -1.
         11   -1    0    0    0    0 -0.00000000000E+00 -0.00000000000E+00 -0.45593999997E+02  0.45594000000E+02  0.51100000000E-03 0.  1.
    9900012    2    1    2    0    0 -0.84552432642E+00 -0.81220286912E+00  0.13745844053E+00  0.90007542584E+02  0.89999801346E+02 0.  0.
         12    1    1    2    0    0  0.84552432642E+00  0.81220286912E+00 -0.13745844053E+00  0.11804574156E+01  0.00000000000E+00 0. -1.
         11    1    3    3    0    0 -0.52660821927E+01 -0.51884124184E+01 -0.72366469462E+01  0.10345061835E+02  0.51100000000E-03 0. -1.
        -11    1    3    3    0    0  0.36379113464E+02 -0.12222952116E+02 -0.10027890833E+02  0.39666094459E+02  0.51100000000E-03 0.  1.
         12    1    3    3    0    0 -0.31958555598E+02  0.16599161665E+02  0.17401996219E+02  0.39996386290E+02  0.00000000000E+00 0. -1.
</event>
<event>
 7    1  0.2682188E-015  0.9000781E+02  0.7816164E-02  0.1186339E+00
        -11   -1    0    0    0    0  0.00000000000E+00  0.00000000000E+00  0.45593999997E+02  0.45594000000E+02  0.51100000000E-03 0.  1.
         11   -1    0    0    0    0 -0.00000000000E+00 -0.00000000000E+00 -0.45593999997E+02  0.45594000000E+02  0.51100000000E-03 0. -1.
    9900012    2    1    2    0    0 -0.87542883484E-01 -0.31147166579E+00 -0.11349791562E+01  0.90007806779E+02  0.90000069028E+02 0.  0.
         12    1    1    2    0    0  0.87542883484E-01  0.31147166579E+00  0.11349791562E+01  0.11801932215E+01  0.00000000000E+00 0. -1.
         11    1    3    3    0    0  0.34335059589E+02 -0.92680910453E+01 -0.70581102789E+01  0.36257561274E+02  0.51100000000E-03 0. -1.
        -11    1    3    3    0    0  0.84480604126E+01 -0.26002760108E+01 -0.66003879556E+00  0.88637921647E+01  0.51100000000E-03 0.  1.
        -12    1    3    3    0    0 -0.42870662885E+02  0.11556895390E+02  0.65831699183E+01  0.44886453340E+02  0.00000000000E+00 0.  1.
</event>
<event>
 7    1  0.2682188E-015  0.9000789E+02  0.7816164E-02  0.1186339E+00
        -11   -1    0    0    0    0  0.00000000000E+00  0.00000000000E+00  0.45593999997E+02  0.45594000000E+02  0.51100000000E-03 0. -1.
         11   -1    0    0    0    0 -0.00000000000E+00 -0.00000000000E+00 -0.45593999997E+02  0.45594000000E+02  0.51100000000E-03 0.  1.
    9900012    2    1    2    0    0  0.81377164835E+00  0.40141987932E-01 -0.85370856470E+00  0.90007892383E+02  0.90000155762E+02 0.  0.
         12    1    1    2    0    0 -0.81377164835E+00 -0.40141987932E-01  0.85370856470E+00  0.11801076173E+01  0.00000000000E+00 0. -1.
         11    1    3    3    0    0  0.20207853694E+02  0.10788870114E+02  0.22392294328E+02  0.32033918193E+02  0.51100000000E-03 0. -1.
        -11    1    3    3    0    0  0.77068088642E-01  0.13023712125E+02 -0.23922272864E+02  0.27237807479E+02  0.51100000000E-03 0.  1.
        -12    1    3    3    0    0 -0.19471150134E+02 -0.23772440251E+02  0.67626997151E+00  0.30736166711E+02  0.00000000000E+00 0.  1.
</event>
<event>
 7    1  0.2682188E-015  0.9000774E+02  0.7816164E-02  0.1186339E+00
        -11   -1    0    0    0    0  0.00000000000E+00  0.00000000000E+00  0.45593999997E+02  0.45594000000E+02  0.51100000000E-03 0.  1.
         11   -1    0    0    0    0 -0.00000000000E+00 -0.00000000000E+00 -0.45593999997E+02  0.45594000000E+02  0.51100000000E-03 0. -1.
    9900012    2    1    2    0    0 -0.11315939760E+01 -0.11450934625E+00 -0.31526741371E+00  0.90007741190E+02  0.90000002574E+02 0.  0.
         12    1    1    2    0    0  0.11315939760E+01  0.11450934625E+00  0.31526741371E+00  0.11802588102E+01  0.00000000000E+00 0. -1.
         11    1    3    3    0    0  0.31043168954E+02  0.76426771539E+01 -0.10079702905E+02  0.33521474665E+02  0.51100000000E-03 0. -1.
        -11    1    3    3    0    0  0.18844270877E+01  0.12443881726E+02 -0.59014835732E+01  0.13900675037E+02  0.51100000000E-03 0.  1.
        -12    1    3    3    0    0 -0.34059190018E+02 -0.20201068227E+02  0.15665919065E+02  0.42585591487E+02  0.00000000000E+00 0.  1.
</event>
<event>
 7    1  0.2682188E-015  0.9000772E+02  0.7816164E-02  0.1186339E+00
        -11   -1    0    0    0    0  0.00000000000E+00  0.00000000000E+00  0.45593999997E+02  0.45594000000E+02  0.51100000000E-03 0. -1.
         11   -1    0    0    0    0 -0.00000000000E+00 -0.00000000000E+00 -0.45593999997E+02  0.45594000000E+02  0.51100000000E-03 0.  1.
    9900012    2    1    2    0    0 -0.94129901408E+00 -0.54527853334E+00  0.45791209616E+00  0.90007722066E+02  0.89999983198E+02 0.  0.
         12    1    1    2    0    0  0.94129901408E+00  0.54527853334E+00 -0.45791209616E+00  0.11802779336E+01  0.00000000000E+00 0. -1.
         11    1    3    3    0    0 -0.37224725277E+02  0.88680401695E+01  0.17995938426E+02  0.42286831384E+02  0.51100000000E-03 0. -1.
        -11    1    3    3    0    0  0.48418136030E+00 -0.21173309781E+01 -0.10235079378E+02  0.10463000153E+02  0.51100000000E-03 0.  1.
        -12    1    3    3    0    0  0.35799244903E+02 -0.72959877247E+01 -0.73029469511E+01  0.37257890529E+02  0.00000000000E+00 0.  1.
</event>
<event>
 7    1  0.2682188E-015  0.9000770E+02  0.7816164E-02  0.1186339E+00
        -11   -1    0    0    0    0  0.00000000000E+00  0.00000000000E+00  0.45593999997E+02  0.45594000000E+02  0.51100000000E-03 0.  1.
         11   -1    0    0    0    0 -0.00000000000E+00 -0.00000000000E+00 -0.45593999997E+02  0.45594000000E+02  0.51100000000E-03 0. -1.
    9900012    2    1    2    0    0 -0.55625385041E+00  0.91899826629E+00  0.48901924422E+00  0.90007696657E+02  0.89999957453E+02 0.  0.
         12    1    1    2    0    0  0.55625385041E+00 -0.91899826629E+00 -0.48901924422E+00  0.11803033427E+01  0.00000000000E+00 0. -1.
         11    1    3    3    0    0 -0.14712589825E+02  0.20250110439E+02 -0.30050865173E+02  0.39109867937E+02  0.51100000000E-03 0. -1.
        -11    1    3    3    0    0 -0.87224955055E+01  0.41867513453E+00  0.12710371286E+01  0.88245539465E+01  0.51100000000E-03 0.  1.
        -12    1    3    3    0    0  0.22878831480E+02 -0.19749787307E+02  0.29268847289E+02  0.42073274774E+02  0.00000000000E+00 0.  1.
</event>
<event>
 7    1  0.2682188E-015  0.9000793E+02  0.7816164E-02  0.1186339E+00
        -11   -1    0    0    0    0  0.00000000000E+00  0.00000000000E+00  0.45593999997E+02  0.45594000000E+02  0.51100000000E-03 0. -1.
         11   -1    0    0    0    0 -0.00000000000E+00 -0.00000000000E+00 -0.45593999997E+02  0.45594000000E+02  0.51100000000E-03 0.  1.
    9900012    2    1    2    0    0 -0.80229569552E+00  0.68308590956E+00  0.53130789750E+00  0.90007926771E+02  0.90000190605E+02 0.  0.
         12    1    1    2    0    0  0.80229569552E+00 -0.68308590956E+00 -0.53130789750E+00  0.11800732286E+01  0.00000000000E+00 0. -1.
         11    1    3    3    0    0  0.68157271491E+01  0.38141943402E+00  0.36471526113E+02  0.37104876157E+02  0.51100000000E-03 0. -1.
        -11    1    3    3    0    0  0.70361416397E+01  0.50189097354E+01  0.44193518735E+01  0.97070806810E+01  0.51100000000E-03 0.  1.
        -12    1    3    3    0    0 -0.14654164484E+02 -0.47172432599E+01 -0.40359570089E+02  0.43195969933E+02  0.00000000000E+00 0.  1.
</event>
<event>
 7    1  0.2682188E-015  0.9000740E+02  0.7816164E-02  0.1186340E+00
        -11   -1    0    0    0    0  0.00000000000E+00  0.00000000000E+00  0.45593999997E+02  0.45594000000E+02  0.51100000000E-03 0.  1.
         11   -1    0    0    0    0 -0.00000000000E+00 -0.00000000000E+00 -0.45593999997E+02  0.45594000000E+02  0.51100000000E-03 0. -1.
    9900012    2    1    2    0    0  0.74350612025E+00 -0.15074389595E+00 -0.90459488076E+00  0.90007399741E+02  0.89999656617E+02 0.  0.
         12    1    1    2    0    0 -0.74350612025E+00  0.15074389595E+00  0.90459488076E+00  0.11806002589E+01  0.00000000000E+00 0. -1.
         11    1    3    3    0    0 -0.28017787901E+01 -0.49516828299E+01 -0.71190202070E+01  0.91131540208E+01  0.51100000000E-03 0. -1.
        -11    1    3    3    0    0 -0.36724391904E+02  0.16158211109E+01  0.14746715614E+02  0.39607542972E+02  0.51100000000E-03 0.  1.
         12    1    3    3    0    0  0.40269676815E+02  0.31851178231E+01 -0.85322902875E+01  0.41286702749E+02  0.00000000000E+00 0. -1.
</event>
<event>
 7    1  0.2682188E-015  0.9000774E+02  0.7816164E-02  0.1186339E+00
        -11   -1    0    0    0    0  0.00000000000E+00  0.00000000000E+00  0.45593999997E+02  0.45594000000E+02  0.51100000000E-03 0. -1.
         11   -1    0    0    0    0 -0.00000000000E+00 -0.00000000000E+00 -0.45593999997E+02  0.45594000000E+02  0.51100000000E-03 0.  1.
    9900012    2    1    2    0    0 -0.93470797803E+00  0.49482148238E+00 -0.52391012686E+00  0.90007741925E+02  0.90000003318E+02 0.  0.
         12    1    1    2    0    0  0.93470797803E+00 -0.49482148238E+00  0.52391012686E+00  0.11802580754E+01  0.00000000000E+00 0. -1.
         11    1    3    3    0    0 -0.79522992679E+00 -0.32881766740E+01  0.71411455651E+01  0.79019274054E+01  0.51100000000E-03 0. -1.
        -11    1    3    3    0    0  0.18281762000E+02  0.16131831953E+02  0.29840145781E+02  0.38534311003E+02  0.51100000000E-03 0.  1.
         12    1    3    3    0    0 -0.18421240051E+02 -0.12348833796E+02 -0.37505201473E+02  0.43571503516E+02  0.00000000000E+00 0. -1.
</event>
<event>
 7    1  0.2682188E-015  0.9000782E+02  0.7816164E-02  0.1186339E+00
        -11   -1    0    0    0    0  0.00000000000E+00  0.00000000000E+00  0.45593999997E+02  0.45594000000E+02  0.51100000000E-03 0. -1.
         11   -1    0    0    0    0 -0.00000000000E+00 -0.00000000000E+00 -0.45593999997E+02  0.45594000000E+02  0.51100000000E-03 0.  1.
    9900012    2    1    2    0    0  0.20731684745E+00  0.11561596288E+01  0.11460697360E+00  0.90007821996E+02  0.90000084446E+02 0.  0.
         12    1    1    2    0    0 -0.20731684745E+00 -0.11561596288E+01 -0.11460697360E+00  0.11801780039E+01  0.00000000000E+00 0. -1.
         11    1    3    3    0    0  0.15794822989E+00  0.16595195829E+01  0.83318934649E+01  0.84970231176E+01  0.51100000000E-03 0. -1.
        -11    1    3    3    0    0  0.19817728375E+02  0.34936175764E+02 -0.78687078705E+01  0.40929149744E+02  0.51100000000E-03 0.  1.
         12    1    3    3    0    0 -0.19768359758E+02 -0.35439535718E+02 -0.34857862079E+00  0.40581649134E+02  0.00000000000E+00 0. -1.
</event>
<event>
 7    1  0.2682188E-015  0.9000765E+02  0.7816164E-02  0.1186339E+00
        -11   -1    0    0    0    0  0.00000000000E+00  0.00000000000E+00  0.45593999997E+02  0.45594000000E+02  0.51100000000E-03 0. -1.
         11   -1    0    0    0    0 -0.00000000000E+00 -0.00000000000E+00 -0.45593999997E+02  0.45594000000E+02  0.51100000000E-03 0.  1.
    9900012    2    1    2    0    0 -0.50708353790E+00  0.80694341431E+00 -0.69637524938E+00  0.90007648410E+02  0.89999908569E+02 0.  0.
         12    1    1    2    0    0  0.50708353790E+00 -0.80694341431E+00  0.69637524938E+00  0.11803515901E+01  0.00000000000E+00 0. -1.
         11    1    3    3    0    0  0.13703266415E+02 -0.20466198102E+01  0.41274568204E+01  0.14456972821E+02  0.51100000000E-03 0. -1.
        -11    1    3    3    0    0 -0.56960751288E+01  0.36846234936E+02 -0.13145377942E+02  0.39533419563E+02  0.51100000000E-03 0.  1.
         12    1    3    3    0    0 -0.85142748244E+01 -0.33992671712E+02  0.83215458720E+01  0.36017256025E+02  0.00000000000E+00 0. -1.
</event>
<event>
 7    1  0.2682188E-015  0.9000769E+02  0.7816164E-02  0.1186339E+00
        -11   -1    0    0    0    0  0.00000000000E+00  0.00000000000E+00  0.45593999997E+02  0.45594000000E+02  0.51100000000E-03 0. -1.
         11   -1    0    0    0    0 -0.00000000000E+00 -0.00000000000E+00 -0.45593999997E+02  0.45594000000E+02  0.51100000000E-03 0.  1.
    9900012    2    1    2    0    0  0.16228610968E+00 -0.74238412223E+00 -0.90314069663E+00  0.90007688988E+02  0.89999949683E+02 0.  0.
         12    1    1    2    0    0 -0.16228610968E+00  0.74238412223E+00  0.90314069663E+00  0.11803110117E+01  0.00000000000E+00 0. -1.
         11    1    3    3    0    0  0.89134438238E+01 -0.36025663359E+02 -0.52075931331E+01  0.37475551067E+02  0.51100000000E-03 0. -1.
        -11    1    3    3    0    0 -0.17040586634E+02  0.17415083589E+01  0.54105504940E+01  0.17963532534E+02  0.51100000000E-03 0.  1.
        -12    1    3    3    0    0  0.82894289201E+01  0.33541770878E+02 -0.11060980576E+01  0.34568605387E+02  0.00000000000E+00 0.  1.
</event>
<event>
 7    1  0.2682188E-015  0.9000767E+02  0.7816164E-02  0.1186339E+00
        -11   -1    0    0    0    0  0.00000000000E+00  0.00000000000E+00  0.45593999997E+02  0.45594000000E+02  0.51100000000E-03 0.  1.
         11   -1    0    0    0    0 -0.00000000000E+00 -0.00000000000E+00 -0.45593999997E+02  0.45594000000E+02  0.51100000000E-03 0. -1.
    9900012    2    1    2    0    0 -0.67377187916E+00  0.40305492918E+00  0.88133197126E+00  0.90007674678E+02  0.89999935184E+02 0.  0.
         12    1    1    2    0    0  0.67377187916E+00 -0.40305492918E+00 -0.88133197126E+00  0.11803253215E+01  0.00000000000E+00 0. -1.
         11    1    3    3    0    0 -0.71507775255E+01 -0.24268162378E+01  0.48424522570E+01  0.89706410246E+01  0.51100000000E-03 0. -1.
        -11    1    3    3    0    0  0.15733753532E+02 -0.32580489191E+02  0.15757294224E+02  0.39463040907E+02  0.51100000000E-03 0.  1.
         12    1    3    3    0    0 -0.92567478859E+01  0.35410360358E+02 -0.19718414510E+02  0.41573992746E+02  0.00000000000E+00 0. -1.
</event>
<event>
 7    1  0.2682188E-015  0.9000779E+02  0.7816164E-02  0.1186339E+00
        -11   -1    0    0    0    0  0.00000000000E+00  0.00000000000E+00  0.45593999997E+02  0.45594000000E+02  0.51100000000E-03 0. -1.
         11   -1    0    0    0    0 -0.00000000000E+00 -0.00000000000E+00 -0.45593999997E+02  0.45594000000E+02  0.51100000000E-03 0.  1.
    9900012    2    1    2    0    0  0.10426783274E+01 -0.31191018296E+00 -0.45653624793E+00  0.90007791797E+02  0.90000053849E+02 0.  0.
         12    1    1    2    0    0 -0.10426783274E+01  0.31191018296E+00  0.45653624793E+00  0.11802082030E+01  0.00000000000E+00 0. -1.
         11    1    3    3    0    0 -0.77944932603E+01  0.67841947649E+01  0.78306668689E+00  0.10363040938E+02  0.51100000000E-03 0. -1.
        -11    1    3    3    0    0 -0.32602180291E+02  0.50584951979E+01  0.10967562155E+02  0.34767484138E+02  0.51100000000E-03 0.  1.
         12    1    3    3    0    0  0.41439351879E+02 -0.12154600146E+02 -0.12207165089E+02  0.44877266721E+02  0.00000000000E+00 0. -1.
</event>
<event>
 7    1  0.2682188E-015  0.9000702E+02  0.7816164E-02  0.1186340E+00
        -11   -1    0    0    0    0  0.00000000000E+00  0.00000000000E+00  0.45593999997E+02  0.45594000000E+02  0.51100000000E-03 0.  1.
         11   -1    0    0    0    0 -0.00000000000E+00 -0.00000000000E+00 -0.45593999997E+02  0.45594000000E+02  0.51100000000E-03 0. -1.
    9900012    2    1    2    0    0  0.83045449056E+00 -0.48306996598E+00  0.68681334510E+00  0.90007015739E+02  0.89999267544E+02 0.  0.
         12    1    1    2    0    0 -0.83045449056E+00  0.48306996598E+00 -0.68681334510E+00  0.11809842607E+01  0.00000000000E+00 0. -1.
         11    1    3    3    0    0  0.33109042860E+02 -0.15637661352E+02  0.80244387410E+01  0.37485154249E+02  0.51100000000E-03 0. -1.
        -11    1    3    3    0    0  0.32915494131E+01 -0.86152860785E+01 -0.10935405958E+01  0.92872645623E+01  0.51100000000E-03 0.  1.
        -12    1    3    3    0    0 -0.35570137783E+02  0.23769877464E+02 -0.62440848001E+01  0.43234596928E+02  0.00000000000E+00 0.  1.
</event>
<event>
 7    1  0.2682188E-015  0.9000772E+02  0.7816164E-02  0.1186339E+00
        -11   -1    0    0    0    0  0.00000000000E+00  0.00000000000E+00  0.45593999997E+02  0.45594000000E+02  0.51100000000E-03 0.  1.
         11   -1    0    0    0    0 -0.00000000000E+00 -0.00000000000E+00 -0.45593999997E+02  0.45594000000E+02  0.51100000000E-03 0. -1.
    9900012    2    1    2    0    0  0.67654533620E+00 -0.83220348753E+00  0.49273213769E+00  0.90007719865E+02  0.89999980968E+02 0.  0.
         12    1    1    2    0    0 -0.67654533620E+00  0.83220348753E+00 -0.49273213769E+00  0.11802801346E+01  0.00000000000E+00 0. -1.
         11    1    3    3    0    0 -0.50850294247E+01  0.23456070579E+02 -0.26719335404E+02  0.35916119723E+02  0.51100000000E-03 0. -1.
        -11    1    3    3    0    0 -0.18659803144E+01 -0.11135485465E+01 -0.96473600785E+01  0.98890560543E+01  0.51100000000E-03 0.  1.
        -12    1    3    3    0    0  0.76275550753E+01 -0.23174725520E+02  0.36859427620E+02  0.44202544088E+02  0.00000000000E+00 0.  1.
</event>
<event>
 7    1  0.2682188E-015  0.9000768E+02  0.7816164E-02  0.1186339E+00
        -11   -1    0    0    0    0  0.00000000000E+00  0.00000000000E+00  0.45593999997E+02  0.45594000000E+02  0.51100000000E-03 0.  1.
         11   -1    0    0    0    0 -0.00000000000E+00 -0.00000000000E+00 -0.45593999997E+02  0.45594000000E+02  0.51100000000E-03 0. -1.
    9900012    2    1    2    0    0 -0.20679980146E+00 -0.11604559561E+01  0.61072842911E-01  0.90007680519E+02  0.89999941102E+02 0.  0.
         12    1    1    2    0    0  0.20679980146E+00  0.11604559561E+01 -0.61072842911E-01  0.11803194805E+01  0.00000000000E+00 0. -1.
         11    1    3    3    0    0  0.60028984616E+01 -0.49413247001E+01  0.57208250439E+01  0.96529435498E+01  0.51100000000E-03 0. -1.
        -11    1    3    3    0    0 -0.35334940646E+02 -0.20250676616E+02 -0.11082939628E+02  0.42207576156E+02  0.51100000000E-03 0.  1.
         12    1    3    3    0    0  0.29125242383E+02  0.24031545360E+02  0.54231874269E+01  0.38147160814E+02  0.00000000000E+00 0. -1.
</event>
<event>
 7    1  0.2682188E-015  0.9000767E+02  0.7816164E-02  0.1186339E+00
        -11   -1    0    0    0    0  0.00000000000E+00  0.00000000000E+00  0.45593999997E+02  0.45594000000E+02  0.51100000000E-03 0.  1.
         11   -1    0    0    0    0 -0.00000000000E+00 -0.00000000000E+00 -0.45593999997E+02  0.45594000000E+02  0.51100000000E-03 0. -1.
    9900012    2    1    2    0    0  0.76480616557E+00 -0.79006987789E+00  0.42901081683E+00  0.90007665656E+02  0.89999926043E+02 0.  0.
         12    1    1    2    0    0 -0.76480616557E+00  0.79006987789E+00 -0.42901081683E+00  0.11803343441E+01  0.00000000000E+00 0. -1.
         11    1    3    3    0    0 -0.10982363415E+02  0.61189294975E+01  0.39977541170E+01  0.13192256919E+02  0.51100000000E-03 0. -1.
        -11    1    3    3    0    0 -0.31875885781E+02 -0.83524480459E+01  0.70655361598E+00  0.32959591942E+02  0.51100000000E-03 0.  1.
         12    1    3    3    0    0  0.43623055361E+02  0.14434486705E+01 -0.42752969161E+01  0.43855816796E+02  0.00000000000E+00 0. -1.
</event>
<event>
 7    1  0.2682188E-015  0.9000774E+02  0.7816164E-02  0.1186339E+00
        -11   -1    0    0    0    0  0.00000000000E+00  0.00000000000E+00  0.45593999997E+02  0.45594000000E+02  0.51100000000E-03 0.  1.
         11   -1    0    0    0    0 -0.00000000000E+00 -0.00000000000E+00 -0.45593999997E+02  0.45594000000E+02  0.51100000000E-03 0. -1.
    9900012    2    1    2    0    0 -0.44491879970E+00  0.86188356251E+00  0.67247389634E+00  0.90007738523E+02  0.89999999871E+02 0.  0.
         12    1    1    2    0    0  0.44491879970E+00 -0.86188356251E+00 -0.67247389634E+00  0.11802614773E+01  0.00000000000E+00 0. -1.
         11    1    3    3    0    0 -0.88776463524E+01 -0.28511220237E+02 -0.19173549932E+02  0.35487001866E+02  0.51100000000E-03 0. -1.
        -11    1    3    3    0    0 -0.10733417416E+02 -0.23157820750E+01 -0.25078041197E+01  0.11263133569E+02  0.51100000000E-03 0.  1.
        -12    1    3    3    0    0  0.19166144968E+02  0.31688885875E+02  0.22353827948E+02  0.43257603087E+02  0.00000000000E+00 0.  1.
</event>
<event>
 7    1  0.2682188E-015  0.9000773E+02  0.7816164E-02  0.1186339E+00
        -11   -1    0    0    0    0  0.00000000000E+00  0.00000000000E+00  0.45593999997E+02  0.45594000000E+02  0.51100000000E-03 0. -1.
         11   -1    0    0    0    0 -0.00000000000E+00 -0.00000000000E+00 -0.45593999997E+02  0.45594000000E+02  0.51100000000E-03 0.  1.
    9900012    2    1    2    0    0 -0.33134780279E+00 -0.11045734507E+01  0.25134060068E+00  0.90007726315E+02  0.89999987502E+02 0.  0.
         12    1    1    2    0    0  0.33134780279E+00  0.11045734507E+01 -0.25134060068E+00  0.11802736852E+01  0.00000000000E+00 0. -1.
         11    1    3    3    0    0 -0.34092410499E+02 -0.54878825404E+00 -0.19227264672E+02  0.39144365229E+02  0.51100000000E-03 0. -1.
        -11    1    3    3    0    0  0.13094725752E+02 -0.16097418723E+02  0.11884680075E+02  0.23913267297E+02  0.51100000000E-03 0.  1.
        -12    1    3    3    0    0  0.20666336944E+02  0.15541633526E+02  0.75939251972E+01  0.26950093789E+02  0.00000000000E+00 0.  1.
</event>
<event>
 7    1  0.2682188E-015  0.9000780E+02  0.7816164E-02  0.1186339E+00
        -11   -1    0    0    0    0  0.00000000000E+00  0.00000000000E+00  0.45593999997E+02  0.45594000000E+02  0.51100000000E-03 0.  1.
         11   -1    0    0    0    0 -0.00000000000E+00 -0.00000000000E+00 -0.45593999997E+02  0.45594000000E+02  0.51100000000E-03 0. -1.
    9900012    2    1    2    0    0 -0.42021213017E+00  0.10931300211E+01  0.14615410334E+00  0.90007799805E+02  0.90000061963E+02 0.  0.
         12    1    1    2    0    0  0.42021213017E+00 -0.10931300211E+01 -0.14615410334E+00  0.11802001945E+01  0.00000000000E+00 0. -1.
         11    1    3    3    0    0 -0.33299824594E+02  0.23386361510E+02  0.11223676076E+02  0.42211030875E+02  0.51100000000E-03 0. -1.
        -11    1    3    3    0    0  0.28082343460E+01 -0.59118917726E+01  0.65695059715E+01  0.92733517912E+01  0.51100000000E-03 0.  1.
        -12    1    3    3    0    0  0.30071378117E+02 -0.16381339717E+02 -0.17647027944E+02  0.38523417139E+02  0.00000000000E+00 0.  1.
</event>
<event>
 7    1  0.2682188E-015  0.9000775E+02  0.7816164E-02  0.1186339E+00
        -11   -1    0    0    0    0  0.00000000000E+00  0.00000000000E+00  0.45593999997E+02  0.45594000000E+02  0.51100000000E-03 0.  1.
         11   -1    0    0    0    0 -0.00000000000E+00 -0.00000000000E+00 -0.45593999997E+02  0.45594000000E+02  0.51100000000E-03 0. -1.
    9900012    2    1    2    0    0  0.12079563424E+00  0.84967809855E+00  0.81021538114E+00  0.90007748578E+02  0.90000010059E+02 0.  0.
         12    1    1    2    0    0 -0.12079563424E+00 -0.84967809855E+00 -0.81021538114E+00  0.11802514225E+01  0.00000000000E+00 0. -1.
         11    1    3    3    0    0 -0.80386712405E+01 -0.21365711442E+01 -0.64902841585E+01  0.10550306170E+02  0.51100000000E-03 0. -1.
        -11    1    3    3    0    0  0.31927053532E+01  0.91391890035E+01  0.42393397610E+02  0.43484690459E+02  0.51100000000E-03 0.  1.
         12    1    3    3    0    0  0.49667615216E+01 -0.61529397607E+01 -0.35092898071E+02  0.35972751948E+02  0.00000000000E+00 0. -1.
</event>
<event>
 7    1  0.2682188E-015  0.9000775E+02  0.7816164E-02  0.1186339E+00
        -11   -1    0    0    0    0  0.00000000000E+00  0.00000000000E+00  0.45593999997E+02  0.45594000000E+02  0.51100000000E-03 0.  1.
         11   -1    0    0    0    0 -0.00000000000E+00 -0.00000000000E+00 -0.45593999997E+02  0.45594000000E+02  0.51100000000E-03 0. -1.
    9900012    2    1    2    0    0 -0.30626924449E+00  0.17270873403E+00  0.11266632650E+01  0.90007746099E+02  0.90000007548E+02 0.  0.
         12    1    1    2    0    0  0.30626924449E+00 -0.17270873403E+00 -0.11266632650E+01  0.11802539005E+01  0.00000000000E+00 0. -1.
         11    1    3    3    0    0 -0.20799555846E+02  0.32214881390E+02 -0.74070789915E+01  0.39054896310E+02  0.51100000000E-03 0. -1.
        -11    1    3    3    0    0 -0.28487970970E+01 -0.54407846266E+01 -0.94383009738E+01  0.11260519872E+02  0.51100000000E-03 0.  1.
        -12    1    3    3    0    0  0.23342083698E+02 -0.26601388029E+02  0.17972043230E+02  0.39692329918E+02  0.00000000000E+00 0.  1.
</event>
<event>
 7    1  0.2682188E-015  0.9000738E+02  0.7816164E-02  0.1186340E+00
        -11   -1    0    0    0    0  0.00000000000E+00  0.00000000000E+00  0.45593999997E+02  0.45594000000E+02  0.51100000000E-03 0.  1.
         11   -1    0    0    0    0 -0.00000000000E+00 -0.00000000000E+00 -0.45593999997E+02  0.45594000000E+02  0.51100000000E-03 0. -1.
    9900012    2    1    2    0    0 -0.10610140715E+01 -0.39570991104E+00  0.33397122853E+00  0.90007375600E+02  0.89999632157E+02 0.  0.
         12    1    1    2    0    0  0.10610140715E+01  0.39570991104E+00 -0.33397122853E+00  0.11806244005E+01  0.00000000000E+00 0. -1.
         11    1    3    3    0    0  0.24718298843E+01 -0.89243596658E+01 -0.80392306012E+01  0.12263089633E+02  0.51100000000E-03 0. -1.
        -11    1    3    3    0    0 -0.23371231958E+02 -0.27544563521E+02  0.39333761271E+01  0.36337156064E+02  0.51100000000E-03 0.  1.
         12    1    3    3    0    0  0.19838388002E+02  0.36073213276E+02  0.44398257026E+01  0.41407129903E+02  0.00000000000E+00 0. -1.
</event>
<event>
 7    1  0.2682188E-015  0.9000764E+02  0.7816164E-02  0.1186339E+00
        -11   -1    0    0    0    0  0.00000000000E+00  0.00000000000E+00  0.45593999997E+02  0.45594000000E+02  0.51100000000E-03 0.  1.
         11   -1    0    0    0    0 -0.00000000000E+00 -0.00000000000E+00 -0.45593999997E+02  0.45594000000E+02  0.51100000000E-03 0. -1.
    9900012    2    1    2    0    0 -0.83177076776E+00  0.35415970488E+00  0.75892971639E+00  0.90007641571E+02  0.89999901640E+02 0.  0.
         12    1    1    2    0    0  0.83177076776E+00 -0.35415970488E+00 -0.75892971639E+00  0.11803584291E+01  0.00000000000E+00 0. -1.
         11    1    3    3    0    0  0.16711785338E+02  0.20251300252E+02  0.21780455136E+02  0.34114324810E+02  0.51100000000E-03 0. -1.
        -11    1    3    3    0    0  0.13979127608E+02 -0.79930573950E+00 -0.12219595698E+01  0.14055179963E+02  0.51100000000E-03 0.  1.
        -12    1    3    3    0    0 -0.31522683714E+02 -0.19097834807E+02 -0.19799565850E+02  0.41838136797E+02  0.00000000000E+00 0.  1.
</event>
<event>
 7    1  0.2682188E-015  0.9000756E+02  0.7816164E-02  0.1186339E+00
        -11   -1    0    0    0    0  0.00000000000E+00  0.00000000000E+00  0.45593999997E+02  0.45594000000E+02  0.51100000000E-03 0.  1.
         11   -1    0    0    0    0 -0.00000000000E+00 -0.00000000000E+00 -0.45593999997E+02  0.45594000000E+02  0.51100000000E-03 0. -1.
    9900012    2    1    2    0    0 -0.89309138217E+00 -0.22198631127E+00  0.73929161757E+00  0.90007558458E+02  0.89999817429E+02 0.  0.
         12    1    1    2    0    0  0.89309138217E+00  0.22198631127E+00 -0.73929161757E+00  0.11804415424E+01  0.00000000000E+00 0. -1.
         11    1    3    3    0    0 -0.75197137424E+01  0.42172376672E+01  0.57664573896E+01  0.10372233096E+02  0.51100000000E-03 0. -1.
        -11    1    3    3    0    0 -0.26909589632E+02 -0.11398793412E+02  0.21526769995E+02  0.36296836392E+02  0.51100000000E-03 0.  1.
         12    1    3    3    0    0  0.33536211992E+02  0.69595694331E+01 -0.26553935767E+02  0.43338488970E+02  0.00000000000E+00 0. -1.
</event>
<event>
 7    1  0.2682188E-015  0.9000785E+02  0.7816164E-02  0.1186339E+00
        -11   -1    0    0    0    0  0.00000000000E+00  0.00000000000E+00  0.45593999997E+02  0.45594000000E+02  0.51100000000E-03 0.  1.
         11   -1    0    0    0    0 -0.00000000000E+00 -0.00000000000E+00 -0.45593999997E+02  0.45594000000E+02  0.51100000000E-03 0. -1.
    9900012    2    1    2    0    0  0.47369316870E+00  0.27870267262E+00  0.10443595677E+01  0.90007852846E+02  0.90000115704E+02 0.  0.
         12    1    1    2    0    0 -0.47369316870E+00 -0.27870267262E+00 -0.10443595677E+01  0.11801471538E+01  0.00000000000E+00 0. -1.
         11    1    3    3    0    0  0.27846793607E+02  0.23702665701E+02 -0.19265468798E+02  0.41333020260E+02  0.51100000000E-03 0. -1.
        -11    1    3    3    0    0  0.38627902301E+01 -0.68385658073E+01 -0.75101358588E-01  0.78544745934E+01  0.51100000000E-03 0.  1.
        -12    1    3    3    0    0 -0.31235890668E+02 -0.16585397221E+02  0.20384929725E+02  0.40820357993E+02  0.00000000000E+00 0.  1.
</event>
<event>
 7    1  0.2682188E-015  0.9000764E+02  0.7816164E-02  0.1186339E+00
        -11   -1    0    0    0    0  0.00000000000E+00  0.00000000000E+00  0.45593999997E+02  0.45594000000E+02  0.51100000000E-03 0.  1.
         11   -1    0    0    0    0 -0.00000000000E+00 -0.00000000000E+00 -0.45593999997E+02  0.45594000000E+02  0.51100000000E-03 0. -1.
    9900012    2    1    2    0    0  0.29663791415E+00 -0.40865288983E+00  0.10668920134E+01  0.90007639968E+02  0.89999900016E+02 0.  0.
         12    1    1    2    0    0 -0.29663791415E+00  0.40865288983E+00 -0.10668920134E+01  0.11803600318E+01  0.00000000000E+00 0. -1.
         11    1    3    3    0    0 -0.51405698971E+01 -0.28308178780E+01 -0.61618266469E+01  0.85092359594E+01  0.51100000000E-03 0. -1.
        -11    1    3    3    0    0 -0.34240647997E+02 -0.12558977345E+02  0.12950595832E+02  0.38702297346E+02  0.51100000000E-03 0.  1.
         12    1    3    3    0    0  0.39677855808E+02  0.14981142333E+02 -0.57218771720E+01  0.42796106663E+02  0.00000000000E+00 0. -1.
</event>
<event>
 7    1  0.2682188E-015  0.9000772E+02  0.7816164E-02  0.1186339E+00
        -11   -1    0    0    0    0  0.00000000000E+00  0.00000000000E+00  0.45593999997E+02  0.45594000000E+02  0.51100000000E-03 0.  1.
         11   -1    0    0    0    0 -0.00000000000E+00 -0.00000000000E+00 -0.45593999997E+02  0.45594000000E+02  0.51100000000E-03 0. -1.
    9900012    2    1    2    0    0  0.91545103066E-01 -0.62472782368E+00  0.99719657765E+00  0.90007717672E+02  0.89999978745E+02 0.  0.
         12    1    1    2    0    0 -0.91545103066E-01  0.62472782368E+00 -0.99719657765E+00  0.11802823281E+01  0.00000000000E+00 0. -1.
         11    1    3    3    0    0  0.11292175253E+02 -0.38006188999E+02 -0.33003605973E+01  0.39785374254E+02  0.51100000000E-03 0. -1.
        -11    1    3    3    0    0 -0.79658323385E+01 -0.17366633678E+01 -0.54143971493E+01  0.97870414962E+01  0.51100000000E-03 0.  1.
        -12    1    3    3    0    0 -0.32347978116E+01  0.39118124544E+02  0.97119543242E+01  0.40435301921E+02  0.00000000000E+00 0.  1.
</event>
<event>
 7    1  0.2682188E-015  0.9000777E+02  0.7816164E-02  0.1186339E+00
        -11   -1    0    0    0    0  0.00000000000E+00  0.00000000000E+00  0.45593999997E+02  0.45594000000E+02  0.51100000000E-03 0.  1.
         11   -1    0    0    0    0 -0.00000000000E+00 -0.00000000000E+00 -0.45593999997E+02  0.45594000000E+02  0.51100000000E-03 0. -1.
    9900012    2    1    2    0    0  0.11246972981E+01 -0.20875239888E+00 -0.29053866186E+00  0.90007773628E+02  0.90000035439E+02 0.  0.
         12    1    1    2    0    0 -0.11246972981E+01  0.20875239888E+00  0.29053866186E+00  0.11802263725E+01  0.00000000000E+00 0. -1.
         11    1    3    3    0    0 -0.36736375806E+02  0.67544019750E+01 -0.59161619120E+01  0.37817776579E+02  0.51100000000E-03 0. -1.
        -11    1    3    3    0    0 -0.47907863757E+01 -0.60148137027E+01  0.56254303330E+01  0.95275959542E+01  0.51100000000E-03 0.  1.
        -12    1    3    3    0    0  0.42651859479E+02 -0.94834067119E+00  0.19291718628E-03  0.42662401094E+02  0.00000000000E+00 0.  1.
</event>
<event>
 7    1  0.2682188E-015  0.9000758E+02  0.7816164E-02  0.1186339E+00
        -11   -1    0    0    0    0  0.00000000000E+00  0.00000000000E+00  0.45593999997E+02  0.45594000000E+02  0.51100000000E-03 0. -1.
         11   -1    0    0    0    0 -0.00000000000E+00 -0.00000000000E+00 -0.45593999997E+02  0.45594000000E+02  0.51100000000E-03 0.  1.
    9900012    2    1    2    0    0 -0.99676306672E+00  0.61836397329E+00 -0.13225699422E+00  0.90007575277E+02  0.89999834470E+02 0.  0.
         12    1    1    2    0    0  0.99676306672E+00 -0.61836397329E+00  0.13225699422E+00  0.11804247232E+01  0.00000000000E+00 0. -1.
         11    1    3    3    0    0 -0.91378699449E+01 -0.16418576422E+01  0.50291600021E+01  0.10558826366E+02  0.51100000000E-03 0. -1.
        -11    1    3    3    0    0  0.35079201358E+02 -0.23251842016E+02 -0.81542118354E+00  0.42093508253E+02  0.51100000000E-03 0.  1.
         12    1    3    3    0    0 -0.26938094480E+02  0.25512063632E+02 -0.43459958128E+01  0.37355240657E+02  0.00000000000E+00 0. -1.
</event>
<event>
 7    1  0.2682188E-015  0.9000764E+02  0.7816164E-02  0.1186339E+00
        -11   -1    0    0    0    0  0.00000000000E+00  0.00000000000E+00  0.45593999997E+02  0.45594000000E+02  0.51100000000E-03 0. -1.
         11   -1    0    0    0    0 -0.00000000000E+00 -0.00000000000E+00 -0.45593999997E+02  0.45594000000E+02  0.51100000000E-03 0.  1.
    9900012    2    1    2    0    0  0.66166169092E+00 -0.96691304762E+00 -0.14325375910E+00  0.90007644683E+02  0.89999904793E+02 0.  0.
         12    1    1    2    0    0 -0.66166169092E+00  0.96691304762E+00  0.14325375910E+00  0.11803553170E+01  0.00000000000E+00 0. -1.
         11    1    3    3    0    0 -0.15563647958E+02  0.31456159411E+02  0.95710915204E+01  0.36377505354E+02  0.51100000000E-03 0. -1.
        -11    1    3    3    0    0  0.10628022272E+02 -0.71103386523E+01 -0.21607763061E+02  0.25107911063E+02  0.51100000000E-03 0.  1.
        -12    1    3    3    0    0  0.55972873777E+01 -0.25312733806E+02  0.11893417782E+02  0.28522228266E+02  0.00000000000E+00 0.  1.
</event>
<event>
 7    1  0.2682188E-015  0.9000773E+02  0.7816164E-02  0.1186339E+00
        -11   -1    0    0    0    0  0.00000000000E+00  0.00000000000E+00  0.45593999997E+02  0.45594000000E+02  0.51100000000E-03 0.  1.
         11   -1    0    0    0    0 -0.00000000000E+00 -0.00000000000E+00 -0.45593999997E+02  0.45594000000E+02  0.51100000000E-03 0. -1.
    9900012    2    1    2    0    0  0.11017651275E+01 -0.23895574009E+00 -0.34936146627E+00  0.90007728982E+02  0.89999990205E+02 0.  0.
         12    1    1    2    0    0 -0.11017651275E+01  0.23895574009E+00  0.34936146627E+00  0.11802710180E+01  0.00000000000E+00 0. -1.
         11    1    3    3    0    0 -0.24845243796E+02  0.72196162039E+01 -0.29334508017E+02  0.39114221944E+02  0.51100000000E-03 0. -1.
        -11    1    3    3    0    0  0.63992589620E+01  0.30707044656E+00 -0.68263286445E+01  0.93618144900E+01  0.51100000000E-03 0.  1.
        -12    1    3    3    0    0  0.19547749961E+02 -0.77656423906E+01  0.35811475195E+02  0.41531692548E+02  0.00000000000E+00 0.  1.
</event>
<event>
 7    1  0.2682188E-015  0.9000769E+02  0.7816164E-02  0.1186339E+00
        -11   -1    0    0    0    0  0.00000000000E+00  0.00000000000E+00  0.45593999997E+02  0.45594000000E+02  0.51100000000E-03 0.  1.
         11   -1    0    0    0    0 -0.00000000000E+00 -0.00000000000E+00 -0.45593999997E+02  0.45594000000E+02  0.51100000000E-03 0. -1.
    9900012    2    1    2    0    0  0.58074835051E-01  0.10055457484E+01  0.61532945971E+00  0.90007692717E+02  0.89999953461E+02 0.  0.
         12    1    1    2    0    0 -0.58074835051E-01 -0.10055457484E+01 -0.61532945971E+00  0.11803072831E+01  0.00000000000E+00 0. -1.
         11    1    3    3    0    0 -0.18733654821E+02  0.34297390549E+01  0.36909964583E+02  0.41533822587E+02  0.51100000000E-03 0. -1.
        -11    1    3    3    0    0 -0.57476065845E+01  0.53619584223E+00 -0.18173695554E+01  0.60518856395E+01  0.51100000000E-03 0.  1.
        -12    1    3    3    0    0  0.24539336241E+02 -0.29603891487E+01 -0.34477265568E+02  0.42421984490E+02  0.00000000000E+00 0.  1.
</event>
<event>
 7    1  0.2682188E-015  0.9000776E+02  0.7816164E-02  0.1186339E+00
        -11   -1    0    0    0    0  0.00000000000E+00  0.00000000000E+00  0.45593999997E+02  0.45594000000E+02  0.51100000000E-03 0.  1.
         11   -1    0    0    0    0 -0.00000000000E+00 -0.00000000000E+00 -0.45593999997E+02  0.45594000000E+02  0.51100000000E-03 0. -1.
    9900012    2    1    2    0    0  0.61042907223E+00  0.96480454929E+00  0.29915348780E+00  0.90007760923E+02  0.90000022567E+02 0.  0.
         12    1    1    2    0    0 -0.61042907223E+00 -0.96480454929E+00 -0.29915348780E+00  0.11802390774E+01  0.00000000000E+00 0. -1.
         11    1    3    3    0    0  0.11053710408E+01 -0.38377817172E+01  0.56307555573E+01  0.69033196401E+01  0.51100000000E-03 0. -1.
        -11    1    3    3    0    0  0.40174106889E+02  0.10043884416E+02  0.19547028464E+01  0.41456716488E+02  0.51100000000E-03 0.  1.
         12    1    3    3    0    0 -0.40669048857E+02 -0.52412981495E+01 -0.72863049158E+01  0.41647724795E+02  0.00000000000E+00 0. -1.
</event>
<event>
 7    1  0.2688068E-015  0.9000775E+02  0.7816164E-02  0.1186339E+00
        -11   -1    0    0    0    0  0.00000000000E+00  0.00000000000E+00  0.45593999997E+02  0.45594000000E+02  0.51100000000E-03 0. -1.
         11   -1    0    0    0    0 -0.00000000000E+00 -0.00000000000E+00 -0.45593999997E+02  0.45594000000E+02  0.51100000000E-03 0.  1.
    9900012    2    1    2    0    0 -0.50533706118E+00  0.69891751879E+00 -0.80568980541E+00  0.90007751168E+02  0.90000012683E+02 0.  0.
         12    1    1    2    0    0  0.50533706118E+00 -0.69891751879E+00  0.80568980541E+00  0.11802488322E+01  0.00000000000E+00 0. -1.
         11    1    3    3    0    0 -0.83238844841E+01  0.58881235163E+01  0.26730007098E+00  0.10199436310E+02  0.51100000000E-03 0. -1.
        -11    1    3    3    0    0 -0.89302237921E+01  0.30980582406E+02 -0.17513394587E+02  0.36691475487E+02  0.51100000000E-03 0.  1.
         12    1    3    3    0    0  0.16748771215E+02 -0.36169788403E+02  0.16440404710E+02  0.43116839371E+02  0.00000000000E+00 0. -1.
</event>
<event>
 7    1  0.2682188E-015  0.9000776E+02  0.7816164E-02  0.1186339E+00
        -11   -1    0    0    0    0  0.00000000000E+00  0.00000000000E+00  0.45593999997E+02  0.45594000000E+02  0.51100000000E-03 0.  1.
         11   -1    0    0    0    0 -0.00000000000E+00 -0.00000000000E+00 -0.45593999997E+02  0.45594000000E+02  0.51100000000E-03 0. -1.
    9900012    2    1    2    0    0  0.11460538001E+01  0.22347078472E+00  0.17204317822E+00  0.90007755381E+02  0.90000016952E+02 0.  0.
         12    1    1    2    0    0 -0.11460538001E+01 -0.22347078472E+00 -0.17204317822E+00  0.11802446185E+01  0.00000000000E+00 0. -1.
         11    1    3    3    0    0 -0.44729559118E+01  0.13520956780E+01 -0.37783787650E+02  0.38071644393E+02  0.51100000000E-03 0. -1.
        -11    1    3    3    0    0 -0.86707941262E+01  0.59350344739E+01 -0.27935452659E+00  0.10511200892E+02  0.51100000000E-03 0.  1.
        -12    1    3    3    0    0  0.14289803838E+02 -0.70636593672E+01  0.38235185355E+02  0.41424910097E+02  0.00000000000E+00 0.  1.
</event>
<event>
 7    1  0.2682188E-015  0.9000776E+02  0.7816164E-02  0.1186339E+00
        -11   -1    0    0    0    0  0.00000000000E+00  0.00000000000E+00  0.45593999997E+02  0.45594000000E+02  0.51100000000E-03 0.  1.
         11   -1    0    0    0    0 -0.00000000000E+00 -0.00000000000E+00 -0.45593999997E+02  0.45594000000E+02  0.51100000000E-03 0. -1.
    9900012    2    1    2    0    0 -0.11642158654E+01  0.24717029622E-01  0.19222107897E+00  0.90007763390E+02  0.90000025067E+02 0.  0.
         12    1    1    2    0    0  0.11642158654E+01 -0.24717029622E-01 -0.19222107897E+00  0.11802366102E+01  0.00000000000E+00 0. -1.
         11    1    3    3    0    0  0.22702788746E+02 -0.78386189791E+01 -0.32712935763E+02  0.40583207498E+02  0.51100000000E-03 0. -1.
        -11    1    3    3    0    0 -0.69115650523E+01 -0.56378504885E+01 -0.12156318031E+01  0.90018248452E+01  0.51100000000E-03 0.  1.
        -12    1    3    3    0    0 -0.16955439559E+02  0.13501186497E+02  0.34120788645E+02  0.40422731046E+02  0.00000000000E+00 0.  1.
</event>
<event>
 7    1  0.2682188E-015  0.9000775E+02  0.7816164E-02  0.1186339E+00
        -11   -1    0    0    0    0  0.00000000000E+00  0.00000000000E+00  0.45593999997E+02  0.45594000000E+02  0.51100000000E-03 0. -1.
         11   -1    0    0    0    0 -0.00000000000E+00 -0.00000000000E+00 -0.45593999997E+02  0.45594000000E+02  0.51100000000E-03 0.  1.
    9900012    2    1    2    0    0 -0.85312233233E+00  0.69288154781E+00 -0.43020641029E+00  0.90007754217E+02  0.90000015773E+02 0.  0.
         12    1    1    2    0    0  0.85312233233E+00 -0.69288154781E+00  0.43020641029E+00  0.11802457832E+01  0.00000000000E+00 0. -1.
         11    1    3    3    0    0  0.18389251674E+02 -0.29502725328E+02  0.12968753947E+02  0.37104770018E+02  0.51100000000E-03 0. -1.
        -11    1    3    3    0    0  0.76312397945E+01 -0.78118164117E+00  0.36448908511E+01  0.84930144905E+01  0.51100000000E-03 0.  1.
        -12    1    3    3    0    0 -0.26873613801E+02  0.30976788516E+02 -0.17043851208E+02  0.44409969709E+02  0.00000000000E+00 0.  1.
</event>
<event>
 7    1  0.2682188E-015  0.9000786E+02  0.7816164E-02  0.1186339E+00
        -11   -1    0    0    0    0  0.00000000000E+00  0.00000000000E+00  0.45593999997E+02  0.45594000000E+02  0.51100000000E-03 0.  1.
         11   -1    0    0    0    0 -0.00000000000E+00 -0.00000000000E+00 -0.45593999997E+02  0.45594000000E+02  0.51100000000E-03 0. -1.
    9900012    2    1    2    0    0  0.84431842475E+00  0.82276747449E+00 -0.53973142987E-01  0.90007858898E+02  0.90000121836E+02 0.  0.
         12    1    1    2    0    0 -0.84431842475E+00 -0.82276747449E+00  0.53973142987E-01  0.11801411016E+01  0.00000000000E+00 0. -1.
         11    1    3    3    0    0 -0.81374481357E+01  0.74675051216E+00  0.30015914116E+01  0.87054724026E+01  0.51100000000E-03 0. -1.
        -11    1    3    3    0    0  0.18487760229E+02 -0.37718509523E+02  0.17093337902E+01  0.42040516900E+02  0.51100000000E-03 0.  1.
         12    1    3    3    0    0 -0.95059936689E+01  0.37794526486E+02 -0.47648983448E+01  0.39261869596E+02  0.00000000000E+00 0. -1.
</event>
<event>
 7    1  0.2682188E-015  0.9000772E+02  0.7816164E-02  0.1186339E+00
        -11   -1    0    0    0    0  0.00000000000E+00  0.00000000000E+00  0.45593999997E+02  0.45594000000E+02  0.51100000000E-03 0. -1.
         11   -1    0    0    0    0 -0.00000000000E+00 -0.00000000000E+00 -0.45593999997E+02  0.45594000000E+02  0.51100000000E-03 0.  1.
    9900012    2    1    2    0    0 -0.92058372142E+00 -0.57414660198E+00 -0.46470279342E+00  0.90007717239E+02  0.89999978307E+02 0.  0.
         12    1    1    2    0    0  0.92058372142E+00  0.57414660198E+00  0.46470279342E+00  0.11802827606E+01  0.00000000000E+00 0. -1.
         11    1    3    3    0    0 -0.99569395715E+01  0.28666774898E+01 -0.34005660274E+01  0.10905151766E+02  0.51100000000E-03 0. -1.
        -11    1    3    3    0    0 -0.20831678502E+02 -0.28259953190E+02  0.15371691986E+02  0.38325875049E+02  0.51100000000E-03 0.  1.
         12    1    3    3    0    0  0.29868034352E+02  0.24819129098E+02 -0.12435828752E+02  0.40776690425E+02  0.00000000000E+00 0. -1.
</event>
<event>
 7    1  0.2682188E-015  0.9000801E+02  0.7816164E-02  0.1186339E+00
        -11   -1    0    0    0    0  0.00000000000E+00  0.00000000000E+00  0.45593999997E+02  0.45594000000E+02  0.51100000000E-03 0.  1.
         11   -1    0    0    0    0 -0.00000000000E+00 -0.00000000000E+00 -0.45593999997E+02  0.45594000000E+02  0.51100000000E-03 0. -1.
    9900012    2    1    2    0    0 -0.14525042540E+00  0.70181728981E+00  0.93740806276E+00  0.90008008868E+02  0.90000273785E+02 0.  0.
         12    1    1    2    0    0  0.14525042540E+00 -0.70181728981E+00 -0.93740806276E+00  0.11799911315E+01  0.00000000000E+00 0. -1.
         11    1    3    3    0    0 -0.27893630754E+01 -0.28135195235E+02 -0.23494191977E+02  0.36760669392E+02  0.51100000000E-03 0. -1.
        -11    1    3    3    0    0 -0.43673091520E+01  0.92904503524E+00 -0.84473347116E+01  0.95547882184E+01  0.51100000000E-03 0.  1.
        -12    1    3    3    0    0  0.70114218021E+01  0.27907967489E+02  0.32878934751E+02  0.43692551258E+02  0.00000000000E+00 0.  1.
</event>
<event>
 7    1  0.2682188E-015  0.9000767E+02  0.7816164E-02  0.1186339E+00
        -11   -1    0    0    0    0  0.00000000000E+00  0.00000000000E+00  0.45593999997E+02  0.45594000000E+02  0.51100000000E-03 0.  1.
         11   -1    0    0    0    0 -0.00000000000E+00 -0.00000000000E+00 -0.45593999997E+02  0.45594000000E+02  0.51100000000E-03 0. -1.
    9900012    2    1    2    0    0  0.67436518859E+00 -0.23690690707E-01  0.96842370220E+00  0.90007672027E+02  0.89999932498E+02 0.  0.
         12    1    1    2    0    0 -0.67436518859E+00  0.23690690707E-01 -0.96842370220E+00  0.11803279728E+01  0.00000000000E+00 0. -1.
         11    1    3    3    0    0  0.95701400824E+01  0.28251382550E+01  0.50507877684E+01  0.11183892198E+02  0.51100000000E-03 0. -1.
        -11    1    3    3    0    0 -0.26786061274E+01 -0.40192401877E+01  0.36971329365E+02  0.37285498759E+02  0.51100000000E-03 0.  1.
         12    1    3    3    0    0 -0.62171687664E+01  0.11704112419E+01 -0.41053693431E+02  0.41538281070E+02  0.00000000000E+00 0. -1.
</event>
<event>
 7    1  0.2682188E-015  0.9000775E+02  0.7816164E-02  0.1186339E+00
        -11   -1    0    0    0    0  0.00000000000E+00  0.00000000000E+00  0.45593999997E+02  0.45594000000E+02  0.51100000000E-03 0. -1.
         11   -1    0    0    0    0 -0.00000000000E+00 -0.00000000000E+00 -0.45593999997E+02  0.45594000000E+02  0.51100000000E-03 0.  1.
    9900012    2    1    2    0    0 -0.82674216865E+00  0.47884576143E+00 -0.69296464343E+00  0.90007747538E+02  0.90000009006E+02 0.  0.
         12    1    1    2    0    0  0.82674216865E+00 -0.47884576143E+00  0.69296464343E+00  0.11802524618E+01  0.00000000000E+00 0. -1.
         11    1    3    3    0    0  0.58895942404E+01  0.40436063605E+02 -0.91501812335E+01  0.41874674651E+02  0.51100000000E-03 0. -1.
        -11    1    3    3    0    0  0.15268568549E+01 -0.61730676073E+01 -0.75325543435E+01  0.98578613674E+01  0.51100000000E-03 0.  1.
        -12    1    3    3    0    0 -0.82431932639E+01 -0.33784150237E+02  0.15989770934E+02  0.38275211520E+02  0.00000000000E+00 0.  1.
</event>
<event>
 7    1  0.2682188E-015  0.9000774E+02  0.7816164E-02  0.1186339E+00
        -11   -1    0    0    0    0  0.00000000000E+00  0.00000000000E+00  0.45593999997E+02  0.45594000000E+02  0.51100000000E-03 0. -1.
         11   -1    0    0    0    0 -0.00000000000E+00 -0.00000000000E+00 -0.45593999997E+02  0.45594000000E+02  0.51100000000E-03 0.  1.
    9900012    2    1    2    0    0 -0.70265895500E+00  0.92605460547E+00 -0.20421151066E+00  0.90007741943E+02  0.90000003337E+02 0.  0.
         12    1    1    2    0    0  0.70265895500E+00 -0.92605460547E+00  0.20421151066E+00  0.11802580567E+01  0.00000000000E+00 0. -1.
         11    1    3    3    0    0 -0.48853304363E+01  0.83661766536E+00  0.78830207716E+01  0.93117344967E+01  0.51100000000E-03 0. -1.
        -11    1    3    3    0    0 -0.21974792517E+02 -0.31444136109E+02  0.22955978106E+01  0.38430391246E+02  0.51100000000E-03 0.  1.
         12    1    3    3    0    0  0.26157463998E+02  0.31533573049E+02 -0.10382830093E+02  0.42265616200E+02  0.00000000000E+00 0. -1.
</event>
<event>
 7    1  0.2682188E-015  0.9000776E+02  0.7816164E-02  0.1186339E+00
        -11   -1    0    0    0    0  0.00000000000E+00  0.00000000000E+00  0.45593999997E+02  0.45594000000E+02  0.51100000000E-03 0.  1.
         11   -1    0    0    0    0 -0.00000000000E+00 -0.00000000000E+00 -0.45593999997E+02  0.45594000000E+02  0.51100000000E-03 0. -1.
    9900012    2    1    2    0    0  0.30158781643E+00 -0.58215050225E+00  0.98138523459E+00  0.90007757907E+02  0.90000019512E+02 0.  0.
         12    1    1    2    0    0 -0.30158781643E+00  0.58215050225E+00 -0.98138523459E+00  0.11802420925E+01  0.00000000000E+00 0. -1.
         11    1    3    3    0    0 -0.72898781301E+01  0.46669238334E+01  0.11074840313E+01  0.87263407199E+01  0.51100000000E-03 0. -1.
        -11    1    3    3    0    0 -0.69378777212E+01  0.21084248181E+02  0.30916224418E+02  0.38059067266E+02  0.51100000000E-03 0.  1.
         12    1    3    3    0    0  0.14529343668E+02 -0.26333322517E+02 -0.31042323214E+02  0.43222349922E+02  0.00000000000E+00 0. -1.
</event>
<event>
 7    1  0.2682188E-015  0.9000772E+02  0.7816164E-02  0.1186339E+00
        -11   -1    0    0    0    0  0.00000000000E+00  0.00000000000E+00  0.45593999997E+02  0.45594000000E+02  0.51100000000E-03 0.  1.
         11   -1    0    0    0    0 -0.00000000000E+00 -0.00000000000E+00 -0.45593999997E+02  0.45594000000E+02  0.51100000000E-03 0. -1.
    9900012    2    1    2    0    0 -0.10285363357E+01  0.72887370062E-01 -0.57434004898E+00  0.90007717807E+02  0.89999978882E+02 0.  0.
         12    1    1    2    0    0  0.10285363357E+01 -0.72887370062E-01  0.57434004898E+00  0.11802821927E+01  0.00000000000E+00 0. -1.
         11    1    3    3    0    0  0.24659304367E+02 -0.25359544391E+02  0.10557755221E+02  0.36914143349E+02  0.51100000000E-03 0. -1.
        -11    1    3    3    0    0  0.13771675691E+00 -0.44440559296E+01  0.80452952994E+01  0.91921366247E+01  0.51100000000E-03 0.  1.
        -12    1    3    3    0    0 -0.25825557460E+02  0.29876487690E+02 -0.19177390570E+02  0.43901437834E+02  0.00000000000E+00 0.  1.
</event>
<event>
 7    1  0.2682188E-015  0.9000807E+02  0.7816164E-02  0.1186338E+00
        -11   -1    0    0    0    0  0.00000000000E+00  0.00000000000E+00  0.45593999997E+02  0.45594000000E+02  0.51100000000E-03 0.  1.
         11   -1    0    0    0    0 -0.00000000000E+00 -0.00000000000E+00 -0.45593999997E+02  0.45594000000E+02  0.51100000000E-03 0. -1.
    9900012    2    1    2    0    0  0.42114652378E+00 -0.38449738174E+00  0.10329748045E+01  0.90008067978E+02  0.90000333674E+02 0.  0.
         12    1    1    2    0    0 -0.42114652378E+00  0.38449738174E+00 -0.10329748045E+01  0.11799320225E+01  0.00000000000E+00 0. -1.
         11    1    3    3    0    0 -0.65635721753E+01  0.23240315119E+01 -0.31670010368E+01  0.76492808811E+01  0.51100000000E-03 0. -1.
        -11    1    3    3    0    0 -0.25013746732E+02 -0.60149914114E+01  0.31144689784E+02  0.40396278904E+02  0.51100000000E-03 0.  1.
         12    1    3    3    0    0  0.31998465431E+02  0.33064625178E+01 -0.26944713943E+02  0.41962508193E+02  0.00000000000E+00 0. -1.
</event>
<event>
 7    1  0.2682188E-015  0.9000773E+02  0.7816164E-02  0.1186339E+00
        -11   -1    0    0    0    0  0.00000000000E+00  0.00000000000E+00  0.45593999997E+02  0.45594000000E+02  0.51100000000E-03 0. -1.
         11   -1    0    0    0    0 -0.00000000000E+00 -0.00000000000E+00 -0.45593999997E+02  0.45594000000E+02  0.51100000000E-03 0.  1.
    9900012    2    1    2    0    0 -0.31937584429E+00  0.76973269618E+00 -0.83579261560E+00  0.90007729417E+02  0.89999990645E+02 0.  0.
         12    1    1    2    0    0  0.31937584429E+00 -0.76973269618E+00  0.83579261560E+00  0.11802705833E+01  0.00000000000E+00 0. -1.
         11    1    3    3    0    0  0.33569271565E+01  0.23330861567E+01 -0.94534653152E+01  0.10299527061E+02  0.51100000000E-03 0. -1.
        -11    1    3    3    0    0  0.32377596856E+01  0.18363221885E+02 -0.30221761614E+02  0.35511207824E+02  0.51100000000E-03 0.  1.
         12    1    3    3    0    0 -0.69140626864E+01 -0.19926575345E+02  0.38839434314E+02  0.44196994532E+02  0.00000000000E+00 0. -1.
</event>
<event>
 7    1  0.2682188E-015  0.9000774E+02  0.7816164E-02  0.1186339E+00
        -11   -1    0    0    0    0  0.00000000000E+00  0.00000000000E+00  0.45593999997E+02  0.45594000000E+02  0.51100000000E-03 0.  1.
         11   -1    0    0    0    0 -0.00000000000E+00 -0.00000000000E+00 -0.45593999997E+02  0.45594000000E+02  0.51100000000E-03 0. -1.
    9900012    2    1    2    0    0 -0.54223389025E+00  0.10392246196E+01  0.13786497670E+00  0.90007740641E+02  0.90000002018E+02 0.  0.
         12    1    1    2    0    0  0.54223389025E+00 -0.10392246196E+01 -0.13786497670E+00  0.11802593586E+01  0.00000000000E+00 0. -1.
         11    1    3    3    0    0 -0.52351764342E+00  0.42309195763E+02  0.14641360804E+01  0.42337758698E+02  0.51100000000E-03 0. -1.
        -11    1    3    3    0    0  0.56927361411E+01 -0.56289292330E+01 -0.75934776686E+01  0.11034173845E+02  0.51100000000E-03 0.  1.
        -12    1    3    3    0    0 -0.57114523879E+01 -0.35641041911E+02  0.62672065649E+01  0.36635808098E+02  0.00000000000E+00 0.  1.
</event>
<event>
 7    1  0.2682188E-015  0.9000779E+02  0.7816164E-02  0.1186339E+00
        -11   -1    0    0    0    0  0.00000000000E+00  0.00000000000E+00  0.45593999997E+02  0.45594000000E+02  0.51100000000E-03 0. -1.
         11   -1    0    0    0    0 -0.00000000000E+00 -0.00000000000E+00 -0.45593999997E+02  0.45594000000E+02  0.51100000000E-03 0.  1.
    9900012    2    1    2    0    0 -0.75607980798E+00  0.53159274249E+00  0.73393183437E+00  0.90007786690E+02  0.90000048674E+02 0.  0.
         12    1    1    2    0    0  0.75607980798E+00 -0.53159274249E+00 -0.73393183437E+00  0.11802133101E+01  0.00000000000E+00 0. -1.
         11    1    3    3    0    0  0.31360395365E+02 -0.20619324992E+02  0.29160494326E+01  0.37644844337E+02  0.51100000000E-03 0. -1.
        -11    1    3    3    0    0 -0.37769934324E+01 -0.97098639636E+01 -0.44266342804E+00  0.10427995433E+02  0.51100000000E-03 0.  1.
        -12    1    3    3    0    0 -0.28339481741E+02  0.30860781698E+02 -0.17394541702E+01  0.41934946920E+02  0.00000000000E+00 0.  1.
</event>
<event>
 7    1  0.2682188E-015  0.9000774E+02  0.7816164E-02  0.1186339E+00
        -11   -1    0    0    0    0  0.00000000000E+00  0.00000000000E+00  0.45593999997E+02  0.45594000000E+02  0.51100000000E-03 0. -1.
         11   -1    0    0    0    0 -0.00000000000E+00 -0.00000000000E+00 -0.45593999997E+02  0.45594000000E+02  0.51100000000E-03 0.  1.
    9900012    2    1    2    0    0  0.51689820971E-01 -0.33187198139E+00 -0.11314559029E+01  0.90007744388E+02  0.90000005814E+02 0.  0.
         12    1    1    2    0    0 -0.51689820971E-01  0.33187198139E+00  0.11314559029E+01  0.11802556120E+01  0.00000000000E+00 0. -1.
         11    1    3    3    0    0 -0.17456561717E+02  0.18105467631E+02  0.32460913387E+02  0.41063979389E+02  0.51100000000E-03 0. -1.
        -11    1    3    3    0    0  0.63097448840E+01  0.54525059969E+01 -0.38494128514E+01  0.91848071133E+01  0.51100000000E-03 0.  1.
        -12    1    3    3    0    0  0.11198506654E+02 -0.23889845609E+02 -0.29742956438E+02  0.39758957886E+02  0.00000000000E+00 0.  1.
</event>
<event>
 7    1  0.2682188E-015  0.9000775E+02  0.7816164E-02  0.1186339E+00
        -11   -1    0    0    0    0  0.00000000000E+00  0.00000000000E+00  0.45593999997E+02  0.45594000000E+02  0.51100000000E-03 0.  1.
         11   -1    0    0    0    0 -0.00000000000E+00 -0.00000000000E+00 -0.45593999997E+02  0.45594000000E+02  0.51100000000E-03 0. -1.
    9900012    2    1    2    0    0  0.76444853958E+00 -0.75195549016E+00 -0.49313574214E+00  0.90007745159E+02  0.90000006595E+02 0.  0.
         12    1    1    2    0    0 -0.76444853958E+00  0.75195549016E+00  0.49313574214E+00  0.11802548407E+01  0.00000000000E+00 0. -1.
         11    1    3    3    0    0  0.30708405385E+01  0.73506509951E+01  0.12248924843E+02  0.14611580740E+02  0.51100000000E-03 0. -1.
        -11    1    3    3    0    0 -0.41672481600E+01  0.32925526331E+02 -0.42783079262E+01  0.33462817580E+02  0.51100000000E-03 0.  1.
         12    1    3    3    0    0  0.18608561611E+01 -0.41028132817E+02 -0.84637526585E+01  0.41933346839E+02  0.00000000000E+00 0. -1.
</event>
<event>
 7    1  0.2682188E-015  0.9000773E+02  0.7816164E-02  0.1186339E+00
        -11   -1    0    0    0    0  0.00000000000E+00  0.00000000000E+00  0.45593999997E+02  0.45594000000E+02  0.51100000000E-03 0.  1.
         11   -1    0    0    0    0 -0.00000000000E+00 -0.00000000000E+00 -0.45593999997E+02  0.45594000000E+02  0.51100000000E-03 0. -1.
    9900012    2    1    2    0    0 -0.14302679096E+00 -0.79906512129E+00  0.85678273052E+00  0.90007729532E+02  0.89999990762E+02 0.  0.
         12    1    1    2    0    0  0.14302679096E+00  0.79906512129E+00 -0.85678273052E+00  0.11802704683E+01  0.00000000000E+00 0. -1.
         11    1    3    3    0    0 -0.12141017513E+02  0.32570231548E+02 -0.54174390695E+01  0.35179154845E+02  0.51100000000E-03 0. -1.
        -11    1    3    3    0    0  0.17499945913E+01  0.98704905441E+01  0.83023021429E+00  0.10058744808E+02  0.51100000000E-03 0.  1.
        -12    1    3    3    0    0  0.10247996130E+02 -0.43239787213E+02  0.54439915857E+01  0.44769829878E+02  0.00000000000E+00 0.  1.
</event>
<event>
 7    1  0.2682188E-015  0.9000779E+02  0.7816164E-02  0.1186339E+00
        -11   -1    0    0    0    0  0.00000000000E+00  0.00000000000E+00  0.45593999997E+02  0.45594000000E+02  0.51100000000E-03 0.  1.
         11   -1    0    0    0    0 -0.00000000000E+00 -0.00000000000E+00 -0.45593999997E+02  0.45594000000E+02  0.51100000000E-03 0. -1.
    9900012    2    1    2    0    0  0.22352540564E+00 -0.80434995160E+00  0.83423505608E+00  0.90007792145E+02  0.90000054202E+02 0.  0.
         12    1    1    2    0    0 -0.22352540564E+00  0.80434995160E+00 -0.83423505608E+00  0.11802078547E+01  0.00000000000E+00 0. -1.
         11    1    3    3    0    0  0.14967835479E+02 -0.33968057247E+02  0.44435567790E+01  0.37384625305E+02  0.51100000000E-03 0. -1.
        -11    1    3    3    0    0 -0.47313087322E+01 -0.84562588017E+01 -0.49372686512E+00  0.97024410186E+01  0.51100000000E-03 0.  1.
        -12    1    3    3    0    0 -0.10013001341E+02  0.41619966097E+02 -0.31155948578E+01  0.42920725822E+02  0.00000000000E+00 0.  1.
</event>
<event>
 7    1  0.2682188E-015  0.9000771E+02  0.7816164E-02  0.1186339E+00
        -11   -1    0    0    0    0  0.00000000000E+00  0.00000000000E+00  0.45593999997E+02  0.45594000000E+02  0.51100000000E-03 0.  1.
         11   -1    0    0    0    0 -0.00000000000E+00 -0.00000000000E+00 -0.45593999997E+02  0.45594000000E+02  0.51100000000E-03 0. -1.
    9900012    2    1    2    0    0 -0.20997548183E+00  0.15103750639E+00  0.11515959983E+01  0.90007713859E+02  0.89999974882E+02 0.  0.
         12    1    1    2    0    0  0.20997548183E+00 -0.15103750639E+00 -0.11515959983E+01  0.11802861410E+01  0.00000000000E+00 0. -1.
         11    1    3    3    0    0  0.15643396817E+02 -0.28084008919E+02 -0.22226648226E+02  0.39082621619E+02  0.51100000000E-03 0. -1.
        -11    1    3    3    0    0 -0.97909728909E+01  0.11431250555E+01 -0.51470588490E+01  0.11120346222E+02  0.51100000000E-03 0.  1.
        -12    1    3    3    0    0 -0.60623994082E+01  0.27091921370E+02  0.28525303074E+02  0.39804746018E+02  0.00000000000E+00 0.  1.
</event>
<event>
 7    1  0.2682188E-015  0.9000787E+02  0.7816164E-02  0.1186339E+00
        -11   -1    0    0    0    0  0.00000000000E+00  0.00000000000E+00  0.45593999997E+02  0.45594000000E+02  0.51100000000E-03 0.  1.
         11   -1    0    0    0    0 -0.00000000000E+00 -0.00000000000E+00 -0.45593999997E+02  0.45594000000E+02  0.51100000000E-03 0. -1.
    9900012    2    1    2    0    0  0.11319420060E+00  0.11258363535E+01  0.33524082826E+00  0.90007869992E+02  0.90000133076E+02 0.  0.
         12    1    1    2    0    0 -0.11319420060E+00 -0.11258363535E+01 -0.33524082826E+00  0.11801300076E+01  0.00000000000E+00 0. -1.
         11    1    3    3    0    0  0.28816384488E+02  0.37000971680E+01 -0.27739891579E+02  0.40169345515E+02  0.51100000000E-03 0. -1.
        -11    1    3    3    0    0  0.57760833267E+01  0.79161119123E+00  0.11028395186E+01  0.59334679691E+01  0.51100000000E-03 0.  1.
        -12    1    3    3    0    0 -0.34479273614E+02 -0.33658720058E+01  0.26972292889E+02  0.43905056508E+02  0.00000000000E+00 0.  1.
</event>
<event>
 7    1  0.2682188E-015  0.9000780E+02  0.7816164E-02  0.1186339E+00
        -11   -1    0    0    0    0  0.00000000000E+00  0.00000000000E+00  0.45593999997E+02  0.45594000000E+02  0.51100000000E-03 0.  1.
         11   -1    0    0    0    0 -0.00000000000E+00 -0.00000000000E+00 -0.45593999997E+02  0.45594000000E+02  0.51100000000E-03 0. -1.
    9900012    2    1    2    0    0 -0.41786450596E+00  0.74707021742E+00  0.81249708540E+00  0.90007798251E+02  0.90000060388E+02 0.  0.
         12    1    1    2    0    0  0.41786450596E+00 -0.74707021742E+00 -0.81249708540E+00  0.11802017492E+01  0.00000000000E+00 0. -1.
         11    1    3    3    0    0  0.91472758821E+01 -0.44037754612E+01  0.21138419043E+01  0.10369870888E+02  0.51100000000E-03 0. -1.
        -11    1    3    3    0    0 -0.29816934517E+01  0.16209267218E+02  0.36315523243E+02  0.39880422118E+02  0.51100000000E-03 0.  1.
         12    1    3    3    0    0 -0.65834469364E+01 -0.11058421539E+02 -0.37616868062E+02  0.39757505245E+02  0.00000000000E+00 0. -1.
</event>
<event>
 7    1  0.2682188E-015  0.9000781E+02  0.7816164E-02  0.1186339E+00
        -11   -1    0    0    0    0  0.00000000000E+00  0.00000000000E+00  0.45593999997E+02  0.45594000000E+02  0.51100000000E-03 0. -1.
         11   -1    0    0    0    0 -0.00000000000E+00 -0.00000000000E+00 -0.45593999997E+02  0.45594000000E+02  0.51100000000E-03 0.  1.
    9900012    2    1    2    0    0 -0.10858731437E+01 -0.10077492456E+00 -0.45119383210E+00  0.90007808514E+02  0.90000070786E+02 0.  0.
         12    1    1    2    0    0  0.10858731437E+01  0.10077492456E+00  0.45119383210E+00  0.11801914861E+01  0.00000000000E+00 0. -1.
         11    1    3    3    0    0  0.74937458417E+01 -0.17265823543E+01  0.19768246225E+01  0.79400975570E+01  0.51100000000E-03 0. -1.
        -11    1    3    3    0    0 -0.15870024945E+02  0.34957734178E+02  0.17891397370E+02  0.42355672238E+02  0.51100000000E-03 0.  1.
         12    1    3    3    0    0  0.72904059594E+01 -0.33331926748E+02 -0.20319415824E+02  0.39712038719E+02  0.00000000000E+00 0. -1.
</event>
<event>
 7    1  0.2682188E-015  0.9000783E+02  0.7816164E-02  0.1186339E+00
        -11   -1    0    0    0    0  0.00000000000E+00  0.00000000000E+00  0.45593999997E+02  0.45594000000E+02  0.51100000000E-03 0.  1.
         11   -1    0    0    0    0 -0.00000000000E+00 -0.00000000000E+00 -0.45593999997E+02  0.45594000000E+02  0.51100000000E-03 0. -1.
    9900012    2    1    2    0    0 -0.73872733516E+00  0.52773695052E+00  0.75404044830E+00  0.90007829943E+02  0.90000092499E+02 0.  0.
         12    1    1    2    0    0  0.73872733516E+00 -0.52773695052E+00 -0.75404044830E+00  0.11801700565E+01  0.00000000000E+00 0. -1.
         11    1    3    3    0    0 -0.29264964859E+01  0.38612858149E+01  0.74973940003E+01  0.89266358099E+01  0.51100000000E-03 0. -1.
        -11    1    3    3    0    0 -0.32296884863E+02  0.22481700162E+01  0.19134623497E+02  0.37606872469E+02  0.51100000000E-03 0.  1.
         12    1    3    3    0    0  0.34484654014E+02 -0.55817188805E+01 -0.25877977049E+02  0.43474321665E+02  0.00000000000E+00 0. -1.
</event>
<event>
 7    1  0.2682188E-015  0.9000768E+02  0.7816164E-02  0.1186339E+00
        -11   -1    0    0    0    0  0.00000000000E+00  0.00000000000E+00  0.45593999997E+02  0.45594000000E+02  0.51100000000E-03 0. -1.
         11   -1    0    0    0    0 -0.00000000000E+00 -0.00000000000E+00 -0.45593999997E+02  0.45594000000E+02  0.51100000000E-03 0.  1.
    9900012    2    1    2    0    0 -0.11139410557E+01  0.35194769931E+00 -0.16861697753E+00  0.90007676509E+02  0.89999937039E+02 0.  0.
         12    1    1    2    0    0  0.11139410557E+01 -0.35194769931E+00  0.16861697753E+00  0.11803234912E+01  0.00000000000E+00 0. -1.
         11    1    3    3    0    0  0.19025573595E+02  0.14350593139E+02  0.27493879060E+02  0.36384410949E+02  0.51100000000E-03 0. -1.
        -11    1    3    3    0    0 -0.43355673337E+00  0.90269803973E+01  0.39206062499E+01  0.98511674517E+01  0.51100000000E-03 0.  1.
        -12    1    3    3    0    0 -0.19705957918E+02 -0.23025625837E+02 -0.31583102288E+02  0.43772098108E+02  0.00000000000E+00 0.  1.
</event>
<event>
 7    1  0.2682188E-015  0.9000789E+02  0.7816164E-02  0.1186339E+00
        -11   -1    0    0    0    0  0.00000000000E+00  0.00000000000E+00  0.45593999997E+02  0.45594000000E+02  0.51100000000E-03 0. -1.
         11   -1    0    0    0    0 -0.00000000000E+00 -0.00000000000E+00 -0.45593999997E+02  0.45594000000E+02  0.51100000000E-03 0.  1.
    9900012    2    1    2    0    0  0.15908227594E+00  0.51378214723E+00 -0.10504223264E+01  0.90007887154E+02  0.90000150464E+02 0.  0.
         12    1    1    2    0    0 -0.15908227594E+00 -0.51378214723E+00  0.10504223264E+01  0.11801128459E+01  0.00000000000E+00 0. -1.
         11    1    3    3    0    0 -0.93890187803E+00 -0.35717566932E+01  0.37080143421E+02  0.37263601798E+02  0.51100000000E-03 0. -1.
        -11    1    3    3    0    0 -0.67903021176E+01 -0.52597438855E+01  0.35595332211E+01  0.92974935119E+01  0.51100000000E-03 0.  1.
        -12    1    3    3    0    0  0.78882862716E+01  0.93452827260E+01 -0.41690098968E+02  0.43446791844E+02  0.00000000000E+00 0.  1.
</event>
<event>
 7    1  0.2682188E-015  0.9000776E+02  0.7816164E-02  0.1186339E+00
        -11   -1    0    0    0    0  0.00000000000E+00  0.00000000000E+00  0.45593999997E+02  0.45594000000E+02  0.51100000000E-03 0. -1.
         11   -1    0    0    0    0 -0.00000000000E+00 -0.00000000000E+00 -0.45593999997E+02  0.45594000000E+02  0.51100000000E-03 0.  1.
    9900012    2    1    2    0    0 -0.10265900533E+01 -0.31945636848E+00  0.48685781942E+00  0.90007758480E+02  0.90000020092E+02 0.  0.
         12    1    1    2    0    0  0.10265900533E+01  0.31945636848E+00 -0.48685781942E+00  0.11802415198E+01  0.00000000000E+00 0. -1.
         11    1    3    3    0    0 -0.80918713654E+01  0.30770879953E+01 -0.45385282593E+00  0.86690735015E+01  0.51100000000E-03 0. -1.
        -11    1    3    3    0    0  0.82772483131E+01  0.13158175811E+02 -0.36887309810E+02  0.40029040153E+02  0.51100000000E-03 0.  1.
         12    1    3    3    0    0 -0.12119670009E+01 -0.16554720175E+02  0.37828020455E+02  0.41309644826E+02  0.00000000000E+00 0. -1.
</event>
<event>
 7    1  0.2682188E-015  0.9000780E+02  0.7816164E-02  0.1186339E+00
        -11   -1    0    0    0    0  0.00000000000E+00  0.00000000000E+00  0.45593999997E+02  0.45594000000E+02  0.51100000000E-03 0.  1.
         11   -1    0    0    0    0 -0.00000000000E+00 -0.00000000000E+00 -0.45593999997E+02  0.45594000000E+02  0.51100000000E-03 0. -1.
    9900012    2    1    2    0    0 -0.10074622453E+00  0.17794226987E-01  0.11757566338E+01  0.90007800823E+02  0.90000062993E+02 0.  0.
         12    1    1    2    0    0  0.10074622453E+00 -0.17794226987E-01 -0.11757566338E+01  0.11801991774E+01  0.00000000000E+00 0. -1.
         11    1    3    3    0    0 -0.16224708246E+02  0.33434872008E+02  0.10717729918E+02  0.38678179361E+02  0.51100000000E-03 0. -1.
        -11    1    3    3    0    0  0.42608932725E+01  0.70643395380E+01 -0.14296353247E+01  0.83728108787E+01  0.51100000000E-03 0.  1.
        -12    1    3    3    0    0  0.11863068749E+02 -0.40481417319E+02 -0.81123379595E+01  0.42956810583E+02  0.00000000000E+00 0.  1.
</event>
<event>
 7    1  0.2682188E-015  0.9000774E+02  0.7816164E-02  0.1186339E+00
        -11   -1    0    0    0    0  0.00000000000E+00  0.00000000000E+00  0.45593999997E+02  0.45594000000E+02  0.51100000000E-03 0.  1.
         11   -1    0    0    0    0 -0.00000000000E+00 -0.00000000000E+00 -0.45593999997E+02  0.45594000000E+02  0.51100000000E-03 0. -1.
    9900012    2    1    2    0    0 -0.27805629928E+00  0.51189138806E+00  0.10264877022E+01  0.90007735156E+02  0.89999996460E+02 0.  0.
         12    1    1    2    0    0  0.27805629928E+00 -0.51189138806E+00 -0.10264877022E+01  0.11802648438E+01  0.00000000000E+00 0. -1.
         11    1    3    3    0    0 -0.70544151306E+01 -0.46372400127E+01 -0.27256707942E+01  0.88711921020E+01  0.51100000000E-03 0. -1.
        -11    1    3    3    0    0  0.32816226327E+02 -0.24782402609E+02 -0.12978184099E+01  0.41143122418E+02  0.51100000000E-03 0.  1.
         12    1    3    3    0    0 -0.26039867496E+02  0.29931534010E+02  0.50499769064E+01  0.39993420636E+02  0.00000000000E+00 0. -1.
</event>
<event>
 7    1  0.2682188E-015  0.9000772E+02  0.7816164E-02  0.1186339E+00
        -11   -1    0    0    0    0  0.00000000000E+00  0.00000000000E+00  0.45593999997E+02  0.45594000000E+02  0.51100000000E-03 0. -1.
         11   -1    0    0    0    0 -0.00000000000E+00 -0.00000000000E+00 -0.45593999997E+02  0.45594000000E+02  0.51100000000E-03 0.  1.
    9900012    2    1    2    0    0  0.10249287989E+01 -0.97548992932E-01 -0.57711399040E+00  0.90007722318E+02  0.89999983453E+02 0.  0.
         12    1    1    2    0    0 -0.10249287989E+01  0.97548992932E-01  0.57711399040E+00  0.11802776820E+01  0.00000000000E+00 0. -1.
         11    1    3    3    0    0 -0.75404586398E+01  0.11896760933E+02  0.38405139334E+02  0.40906554055E+02  0.51100000000E-03 0. -1.
        -11    1    3    3    0    0  0.86668501661E+01 -0.66474413644E+00 -0.19659649304E+00  0.86945285675E+01  0.51100000000E-03 0.  1.
        -12    1    3    3    0    0 -0.10146272739E+00 -0.11329565789E+02 -0.38785656831E+02  0.40406639695E+02  0.00000000000E+00 0.  1.
</event>
<event>
 7    1  0.2682188E-015  0.9000780E+02  0.7816164E-02  0.1186339E+00
        -11   -1    0    0    0    0  0.00000000000E+00  0.00000000000E+00  0.45593999997E+02  0.45594000000E+02  0.51100000000E-03 0. -1.
         11   -1    0    0    0    0 -0.00000000000E+00 -0.00000000000E+00 -0.45593999997E+02  0.45594000000E+02  0.51100000000E-03 0.  1.
    9900012    2    1    2    0    0 -0.10532087540E+01  0.12827122918E+00 -0.51687727007E+00  0.90007803279E+02  0.90000065482E+02 0.  0.
         12    1    1    2    0    0  0.10532087540E+01 -0.12827122918E+00  0.51687727007E+00  0.11801967209E+01  0.00000000000E+00 0. -1.
         11    1    3    3    0    0 -0.18402162017E+02 -0.13933172643E+02  0.19409635594E+02  0.30158030787E+02  0.51100000000E-03 0. -1.
        -11    1    3    3    0    0  0.19480600539E+02  0.18243204929E+02  0.10781928640E+02  0.28784688792E+02  0.51100000000E-03 0.  1.
        -12    1    3    3    0    0 -0.21316472759E+01 -0.41817610566E+01 -0.30708441504E+02  0.31065083699E+02  0.00000000000E+00 0.  1.
</event>
<event>
 7    1  0.2682188E-015  0.9000843E+02  0.7816164E-02  0.1186338E+00
        -11   -1    0    0    0    0  0.00000000000E+00  0.00000000000E+00  0.45593999997E+02  0.45594000000E+02  0.51100000000E-03 0.  1.
         11   -1    0    0    0    0 -0.00000000000E+00 -0.00000000000E+00 -0.45593999997E+02  0.45594000000E+02  0.51100000000E-03 0. -1.
    9900012    2    1    2    0    0  0.10137876084E+01  0.55930565529E+00  0.22537771586E+00  0.90008430907E+02  0.90000701392E+02 0.  0.
         12    1    1    2    0    0 -0.10137876084E+01 -0.55930565529E+00 -0.22537771586E+00  0.11795690932E+01  0.00000000000E+00 0. -1.
         11    1    3    3    0    0  0.92894036159E+01 -0.66235628154E+01  0.65739813405E+00  0.11427894665E+02  0.51100000000E-03 0. -1.
        -11    1    3    3    0    0 -0.16155700145E+01  0.15454168587E+02  0.36756294083E+02  0.39905720745E+02  0.51100000000E-03 0.  1.
         12    1    3    3    0    0 -0.66600459930E+01 -0.82713001168E+01 -0.37188314501E+02  0.38674815497E+02  0.00000000000E+00 0. -1.
</event>
<event>
 7    1  0.2682188E-015  0.9000783E+02  0.7816164E-02  0.1186339E+00
        -11   -1    0    0    0    0  0.00000000000E+00  0.00000000000E+00  0.45593999997E+02  0.45594000000E+02  0.51100000000E-03 0.  1.
         11   -1    0    0    0    0 -0.00000000000E+00 -0.00000000000E+00 -0.45593999997E+02  0.45594000000E+02  0.51100000000E-03 0. -1.
    9900012    2    1    2    0    0 -0.75218570457E+00 -0.56442284824E+00  0.71304703016E+00  0.90007833676E+02  0.90000096280E+02 0.  0.
         12    1    1    2    0    0  0.75218570457E+00  0.56442284824E+00 -0.71304703016E+00  0.11801663243E+01  0.00000000000E+00 0. -1.
         11    1    3    3    0    0  0.82216595116E+01  0.29998114669E+01 -0.34714966589E+01  0.94151921529E+01  0.51100000000E-03 0. -1.
        -11    1    3    3    0    0 -0.53409316515E+01  0.16013728313E+02 -0.33757491094E+02  0.37742989423E+02  0.51100000000E-03 0.  1.
         12    1    3    3    0    0 -0.36329135646E+01 -0.19577962628E+02  0.37942034783E+02  0.42849652100E+02  0.00000000000E+00 0. -1.
</event>
<event>
 7    1  0.2682188E-015  0.9000768E+02  0.7816164E-02  0.1186339E+00
        -11   -1    0    0    0    0  0.00000000000E+00  0.00000000000E+00  0.45593999997E+02  0.45594000000E+02  0.51100000000E-03 0.  1.
         11   -1    0    0    0    0 -0.00000000000E+00 -0.00000000000E+00 -0.45593999997E+02  0.45594000000E+02  0.51100000000E-03 0. -1.
    9900012    2    1    2    0    0  0.11066373305E+01 -0.39707988022E+00 -0.10410180077E+00  0.90007679790E+02  0.89999940364E+02 0.  0.
         12    1    1    2    0    0 -0.11066373305E+01  0.39707988022E+00  0.10410180077E+00  0.11803202097E+01  0.00000000000E+00 0. -1.
         11    1    3    3    0    0  0.62561613339E+01 -0.40493775498E+02  0.29119941975E+01  0.41077550063E+02  0.51100000000E-03 0. -1.
        -11    1    3    3    0    0 -0.83833778606E+01 -0.21240347273E+00 -0.10253907662E+00  0.83866950649E+01  0.51100000000E-03 0.  1.
        -12    1    3    3    0    0  0.32338538571E+01  0.40309099091E+02 -0.29135569216E+01  0.40543434662E+02  0.00000000000E+00 0.  1.
</event>
<event>
 7    1  0.2682188E-015  0.9000774E+02  0.7816164E-02  0.1186339E+00
        -11   -1    0    0    0    0  0.00000000000E+00  0.00000000000E+00  0.45593999997E+02  0.45594000000E+02  0.51100000000E-03 0.  1.
         11   -1    0    0    0    0 -0.00000000000E+00 -0.00000000000E+00 -0.45593999997E+02  0.45594000000E+02  0.51100000000E-03 0. -1.
    9900012    2    1    2    0    0 -0.32116035193E+00 -0.57577499207E+00  0.97895290824E+00  0.90007741719E+02  0.90000003110E+02 0.  0.
         12    1    1    2    0    0  0.32116035193E+00  0.57577499207E+00 -0.97895290824E+00  0.11802582809E+01  0.00000000000E+00 0. -1.
         11    1    3    3    0    0  0.80672092069E+01  0.64255646949E+00  0.47178690010E+01  0.93675520482E+01  0.51100000000E-03 0. -1.
        -11    1    3    3    0    0  0.11911160316E+02  0.32234699760E+02  0.14707501677E+02  0.37379970767E+02  0.51100000000E-03 0.  1.
         12    1    3    3    0    0 -0.20299529875E+02 -0.33453031222E+02 -0.18446417770E+02  0.43260218904E+02  0.00000000000E+00 0. -1.
</event>
<event>
 7    1  0.2682188E-015  0.9000778E+02  0.7816164E-02  0.1186339E+00
        -11   -1    0    0    0    0  0.00000000000E+00  0.00000000000E+00  0.45593999997E+02  0.45594000000E+02  0.51100000000E-03 0.  1.
         11   -1    0    0    0    0 -0.00000000000E+00 -0.00000000000E+00 -0.45593999997E+02  0.45594000000E+02  0.51100000000E-03 0. -1.
    9900012    2    1    2    0    0 -0.11024597243E+01 -0.36737488441E+00  0.20625697028E+00  0.90007778120E+02  0.90000039991E+02 0.  0.
         12    1    1    2    0    0  0.11024597243E+01  0.36737488441E+00 -0.20625697028E+00  0.11802218804E+01  0.00000000000E+00 0. -1.
         11    1    3    3    0    0  0.17035295892E+02 -0.29319235493E+02 -0.20896328144E+02  0.39830583804E+02  0.51100000000E-03 0. -1.
        -11    1    3    3    0    0  0.35069922865E+01  0.67397135718E+01 -0.54493395341E+01  0.93497612562E+01  0.51100000000E-03 0.  1.
        -12    1    3    3    0    0 -0.21644747902E+02  0.22212147036E+02  0.26551924648E+02  0.40827433060E+02  0.00000000000E+00 0.  1.
</event>
<event>
 7    1  0.3357418E-015  0.9000772E+02  0.7816164E-02  0.1186339E+00
        -11   -1    0    0    0    0  0.00000000000E+00  0.00000000000E+00  0.45593999997E+02  0.45594000000E+02  0.51100000000E-03 0.  1.
         11   -1    0    0    0    0 -0.00000000000E+00 -0.00000000000E+00 -0.45593999997E+02  0.45594000000E+02  0.51100000000E-03 0. -1.
    9900012    2    1    2    0    0  0.42319475727E+00  0.82194278030E+00  0.73373636384E+00  0.90007723427E+02  0.89999984576E+02 0.  0.
         12    1    1    2    0    0 -0.42319475727E+00 -0.82194278030E+00 -0.73373636384E+00  0.11802765728E+01  0.00000000000E+00 0. -1.
         11    1    3    3    0    0  0.47176895795E+01 -0.51550562680E+01  0.61730187194E+01  0.93240206170E+01  0.51100000000E-03 0. -1.
        -11    1    3    3    0    0  0.88448360209E+01  0.65260724957E+01  0.35773229896E+02  0.37423852339E+02  0.51100000000E-03 0.  1.
         12    1    3    3    0    0 -0.13139330843E+02 -0.54907344742E+00 -0.41212512252E+02  0.43259850471E+02  0.00000000000E+00 0. -1.
</event>
<event>
 7    1  0.3045083E-015  0.9000762E+02  0.7816164E-02  0.1186339E+00
        -11   -1    0    0    0    0  0.00000000000E+00  0.00000000000E+00  0.45593999997E+02  0.45594000000E+02  0.51100000000E-03 0. -1.
         11   -1    0    0    0    0 -0.00000000000E+00 -0.00000000000E+00 -0.45593999997E+02  0.45594000000E+02  0.51100000000E-03 0.  1.
    9900012    2    1    2    0    0 -0.70544430389E+00  0.87033499394E+00 -0.37170266917E+00  0.90007619747E+02  0.89999879528E+02 0.  0.
         12    1    1    2    0    0  0.70544430389E+00 -0.87033499394E+00  0.37170266917E+00  0.11803802531E+01  0.00000000000E+00 0. -1.
         11    1    3    3    0    0  0.83242999628E+01  0.35906898716E+01  0.26676683286E+01  0.94500517563E+01  0.51100000000E-03 0. -1.
        -11    1    3    3    0    0 -0.81189141555E+01  0.33978863255E+02 -0.19850247136E+02  0.40180993352E+02  0.51100000000E-03 0.  1.
         12    1    3    3    0    0 -0.91083011123E+00 -0.36699218132E+02  0.16810876138E+02  0.40376574639E+02  0.00000000000E+00 0. -1.
</event>
<event>
 7    1  0.2682188E-015  0.9000780E+02  0.7816164E-02  0.1186339E+00
        -11   -1    0    0    0    0  0.00000000000E+00  0.00000000000E+00  0.45593999997E+02  0.45594000000E+02  0.51100000000E-03 0.  1.
         11   -1    0    0    0    0 -0.00000000000E+00 -0.00000000000E+00 -0.45593999997E+02  0.45594000000E+02  0.51100000000E-03 0. -1.
    9900012    2    1    2    0    0  0.10670968703E+01  0.24041337805E+00  0.44313405744E+00  0.90007804204E+02  0.90000066420E+02 0.  0.
         12    1    1    2    0    0 -0.10670968703E+01 -0.24041337805E+00 -0.44313405744E+00  0.11801957956E+01  0.00000000000E+00 0. -1.
         11    1    3    3    0    0 -0.34324380718E+01  0.24509336055E+00  0.30942239905E+01  0.46277342444E+01  0.51100000000E-03 0. -1.
        -11    1    3    3    0    0 -0.94977665808E+01 -0.20224792671E+02  0.34334585412E+02  0.40964784441E+02  0.51100000000E-03 0.  1.
         12    1    3    3    0    0  0.13997301523E+02  0.20220112689E+02 -0.36985675345E+02  0.44415285519E+02  0.00000000000E+00 0. -1.
</event>
<event>
 7    1  0.2682188E-015  0.9000768E+02  0.7816164E-02  0.1186339E+00
        -11   -1    0    0    0    0  0.00000000000E+00  0.00000000000E+00  0.45593999997E+02  0.45594000000E+02  0.51100000000E-03 0.  1.
         11   -1    0    0    0    0 -0.00000000000E+00 -0.00000000000E+00 -0.45593999997E+02  0.45594000000E+02  0.51100000000E-03 0. -1.
    9900012    2    1    2    0    0  0.62815486246E+00  0.21793715612E+00  0.97523040681E+00  0.90007682466E+02  0.89999943074E+02 0.  0.
         12    1    1    2    0    0 -0.62815486246E+00 -0.21793715612E+00 -0.97523040681E+00  0.11803175342E+01  0.00000000000E+00 0. -1.
         11    1    3    3    0    0 -0.11690431941E+02 -0.34837556142E+02 -0.44308489588E+01  0.37012888832E+02  0.51100000000E-03 0. -1.
        -11    1    3    3    0    0  0.39652262143E+01 -0.57710078055E+01 -0.66053925689E+01  0.96259420979E+01  0.51100000000E-03 0.  1.
        -12    1    3    3    0    0  0.83533605890E+01  0.40826501104E+02  0.12011471935E+02  0.43368851536E+02  0.00000000000E+00 0.  1.
</event>
<event>
 7    1  0.2682188E-015  0.9000770E+02  0.7816164E-02  0.1186339E+00
        -11   -1    0    0    0    0  0.00000000000E+00  0.00000000000E+00  0.45593999997E+02  0.45594000000E+02  0.51100000000E-03 0.  1.
         11   -1    0    0    0    0 -0.00000000000E+00 -0.00000000000E+00 -0.45593999997E+02  0.45594000000E+02  0.51100000000E-03 0. -1.
    9900012    2    1    2    0    0  0.11292490255E+00  0.26940080701E-01  0.11745777769E+01  0.90007698871E+02  0.89999959696E+02 0.  0.
         12    1    1    2    0    0 -0.11292490255E+00 -0.26940080701E-01 -0.11745777769E+01  0.11803011292E+01  0.00000000000E+00 0. -1.
         11    1    3    3    0    0  0.71379997894E+01  0.44624300040E+01  0.59704325798E+01  0.10320387008E+02  0.51100000000E-03 0. -1.
        -11    1    3    3    0    0  0.21754390562E+02 -0.74603567750E+01  0.27812988639E+02  0.36089787603E+02  0.51100000000E-03 0.  1.
         12    1    3    3    0    0 -0.28779465449E+02  0.30248668517E+01 -0.32608843442E+02  0.43597524260E+02  0.00000000000E+00 0. -1.
</event>
<event>
 7    1  0.2682188E-015  0.9000776E+02  0.7816164E-02  0.1186339E+00
        -11   -1    0    0    0    0  0.00000000000E+00  0.00000000000E+00  0.45593999997E+02  0.45594000000E+02  0.51100000000E-03 0.  1.
         11   -1    0    0    0    0 -0.00000000000E+00 -0.00000000000E+00 -0.45593999997E+02  0.45594000000E+02  0.51100000000E-03 0. -1.
    9900012    2    1    2    0    0  0.39020579801E+00  0.11129428747E+01  0.45344576441E-01  0.90007763355E+02  0.90000025031E+02 0.  0.
         12    1    1    2    0    0 -0.39020579801E+00 -0.11129428747E+01 -0.45344576441E-01  0.11802366448E+01  0.00000000000E+00 0. -1.
         11    1    3    3    0    0 -0.41604786175E+00  0.51907537551E+01  0.82725694582E+01  0.97750921260E+01  0.51100000000E-03 0. -1.
        -11    1    3    3    0    0  0.10159849173E+02 -0.36102873934E+02  0.14121874779E+02  0.40075770598E+02  0.51100000000E-03 0.  1.
         12    1    3    3    0    0 -0.93535955134E+01  0.32025063054E+02 -0.22349099661E+02  0.40156900631E+02  0.00000000000E+00 0. -1.
</event>
<event>
 7    1  0.2682188E-015  0.9000773E+02  0.7816164E-02  0.1186339E+00
        -11   -1    0    0    0    0  0.00000000000E+00  0.00000000000E+00  0.45593999997E+02  0.45594000000E+02  0.51100000000E-03 0.  1.
         11   -1    0    0    0    0 -0.00000000000E+00 -0.00000000000E+00 -0.45593999997E+02  0.45594000000E+02  0.51100000000E-03 0. -1.
    9900012    2    1    2    0    0  0.52172768144E+00  0.10327207914E+01  0.23306164201E+00  0.90007733193E+02  0.89999994471E+02 0.  0.
         12    1    1    2    0    0 -0.52172768144E+00 -0.10327207914E+01 -0.23306164201E+00  0.11802668070E+01  0.00000000000E+00 0. -1.
         11    1    3    3    0    0 -0.97284840940E+01 -0.96696076733E+00  0.34703113035E+01  0.10374077149E+02  0.51100000000E-03 0. -1.
        -11    1    3    3    0    0  0.32620215262E+02 -0.25149648636E+02  0.94104932988E+01  0.42250924897E+02  0.51100000000E-03 0.  1.
         12    1    3    3    0    0 -0.22370003487E+02  0.27149330194E+02 -0.12647742960E+02  0.37382731147E+02  0.00000000000E+00 0. -1.
</event>
<event>
 7    1  0.3037372E-015  0.9000768E+02  0.7816164E-02  0.1186339E+00
        -11   -1    0    0    0    0  0.00000000000E+00  0.00000000000E+00  0.45593999997E+02  0.45594000000E+02  0.51100000000E-03 0.  1.
         11   -1    0    0    0    0 -0.00000000000E+00 -0.00000000000E+00 -0.45593999997E+02  0.45594000000E+02  0.51100000000E-03 0. -1.
    9900012    2    1    2    0    0  0.30290626957E+00 -0.76865625837E+00  0.84294876175E+00  0.90007683404E+02  0.89999944025E+02 0.  0.
         12    1    1    2    0    0 -0.30290626957E+00  0.76865625837E+00 -0.84294876175E+00  0.11803165959E+01  0.00000000000E+00 0. -1.
         11    1    3    3    0    0  0.20110078910E+01  0.85869866732E+01 -0.16514313115E+01  0.89726093474E+01  0.51100000000E-03 0. -1.
        -11    1    3    3    0    0 -0.68884839342E+01  0.48201168578E+01  0.39859710516E+02  0.40736731093E+02  0.51100000000E-03 0.  1.
         12    1    3    3    0    0  0.51803823128E+01 -0.14175759789E+02 -0.37365330443E+02  0.40298342964E+02  0.00000000000E+00 0. -1.
</event>
<event>
 7    1  0.2682188E-015  0.9000765E+02  0.7816164E-02  0.1186339E+00
        -11   -1    0    0    0    0  0.00000000000E+00  0.00000000000E+00  0.45593999997E+02  0.45594000000E+02  0.51100000000E-03 0.  1.
         11   -1    0    0    0    0 -0.00000000000E+00 -0.00000000000E+00 -0.45593999997E+02  0.45594000000E+02  0.51100000000E-03 0. -1.
    9900012    2    1    2    0    0 -0.31080103552E+00  0.97460934270E+00  0.58886018574E+00  0.90007653876E+02  0.89999914107E+02 0.  0.
         12    1    1    2    0    0  0.31080103552E+00 -0.97460934270E+00 -0.58886018574E+00  0.11803461242E+01  0.00000000000E+00 0. -1.
         11    1    3    3    0    0  0.82542662449E+01 -0.41767598534E+01 -0.13266728155E+01  0.93454959812E+01  0.51100000000E-03 0. -1.
        -11    1    3    3    0    0  0.30671697616E+02  0.16996979490E+02 -0.12481088841E+02  0.37221336963E+02  0.51100000000E-03 0.  1.
         12    1    3    3    0    0 -0.39236764896E+02 -0.11845610294E+02  0.14396621843E+02  0.43440820932E+02  0.00000000000E+00 0. -1.
</event>
<event>
 7    1  0.2682188E-015  0.9000768E+02  0.7816164E-02  0.1186339E+00
        -11   -1    0    0    0    0  0.00000000000E+00  0.00000000000E+00  0.45593999997E+02  0.45594000000E+02  0.51100000000E-03 0.  1.
         11   -1    0    0    0    0 -0.00000000000E+00 -0.00000000000E+00 -0.45593999997E+02  0.45594000000E+02  0.51100000000E-03 0. -1.
    9900012    2    1    2    0    0 -0.11394292667E+01  0.23143822805E-01 -0.30710371322E+00  0.90007683356E+02  0.89999943976E+02 0.  0.
         12    1    1    2    0    0  0.11394292667E+01 -0.23143822805E-01  0.30710371322E+00  0.11803166444E+01  0.00000000000E+00 0. -1.
         11    1    3    3    0    0  0.27351888374E+01 -0.52742989936E+01 -0.88277701953E+01  0.10640912307E+02  0.51100000000E-03 0. -1.
        -11    1    3    3    0    0  0.20683210580E+02  0.28835629927E+01  0.36505339219E+02  0.42056508738E+02  0.51100000000E-03 0.  1.
         12    1    3    3    0    0 -0.24557828684E+02  0.24138798238E+01 -0.27984672737E+02  0.37310262311E+02  0.00000000000E+00 0. -1.
</event>
<event>
 7    1  0.2682188E-015  0.9000733E+02  0.7816164E-02  0.1186340E+00
        -11   -1    0    0    0    0  0.00000000000E+00  0.00000000000E+00  0.45593999997E+02  0.45594000000E+02  0.51100000000E-03 0.  1.
         11   -1    0    0    0    0 -0.00000000000E+00 -0.00000000000E+00 -0.45593999997E+02  0.45594000000E+02  0.51100000000E-03 0. -1.
    9900012    2    1    2    0    0 -0.11325099747E+01  0.52776319337E-02 -0.33373644920E+00  0.90007327855E+02  0.89999583782E+02 0.  0.
         12    1    1    2    0    0  0.11325099747E+01 -0.52776319337E-02  0.33373644920E+00  0.11806721449E+01  0.00000000000E+00 0. -1.
         11    1    3    3    0    0  0.41497334478E+02 -0.49218358383E+01 -0.29927335949E+00  0.41789266584E+02  0.51100000000E-03 0. -1.
        -11    1    3    3    0    0 -0.63261508429E+01  0.28261751548E-01 -0.85234356277E+01  0.10614609667E+02  0.51100000000E-03 0.  1.
        -12    1    3    3    0    0 -0.36303693610E+02  0.48988517186E+01  0.84889725379E+01  0.37603451605E+02  0.00000000000E+00 0.  1.
</event>
<event>
 7    1  0.2682188E-015  0.9000773E+02  0.7816164E-02  0.1186339E+00
        -11   -1    0    0    0    0  0.00000000000E+00  0.00000000000E+00  0.45593999997E+02  0.45594000000E+02  0.51100000000E-03 0.  1.
         11   -1    0    0    0    0 -0.00000000000E+00 -0.00000000000E+00 -0.45593999997E+02  0.45594000000E+02  0.51100000000E-03 0. -1.
    9900012    2    1    2    0    0  0.18313340086E+00 -0.11160115369E+01  0.33766574203E+00  0.90007729799E+02  0.89999991033E+02 0.  0.
         12    1    1    2    0    0 -0.18313340086E+00  0.11160115369E+01 -0.33766574203E+00  0.11802702006E+01  0.00000000000E+00 0. -1.
         11    1    3    3    0    0  0.70198072212E+01 -0.18985109703E+02 -0.31719893663E+02  0.37627964842E+02  0.51100000000E-03 0. -1.
        -11    1    3    3    0    0  0.58973696224E+01  0.92509822049E+01 -0.51505443718E+01  0.12119725566E+02  0.51100000000E-03 0.  1.
        -12    1    3    3    0    0 -0.12734043443E+02  0.86181159612E+01  0.37208103777E+02  0.40260039391E+02  0.00000000000E+00 0.  1.
</event>
<event>
 7    1  0.2682188E-015  0.9000774E+02  0.7816164E-02  0.1186339E+00
        -11   -1    0    0    0    0  0.00000000000E+00  0.00000000000E+00  0.45593999997E+02  0.45594000000E+02  0.51100000000E-03 0.  1.
         11   -1    0    0    0    0 -0.00000000000E+00 -0.00000000000E+00 -0.45593999997E+02  0.45594000000E+02  0.51100000000E-03 0. -1.
    9900012    2    1    2    0    0 -0.96290712853E+00 -0.15551674239E+00  0.66456089093E+00  0.90007738684E+02  0.90000000035E+02 0.  0.
         12    1    1    2    0    0  0.96290712853E+00  0.15551674239E+00 -0.66456089093E+00  0.11802613156E+01  0.00000000000E+00 0. -1.
         11    1    3    3    0    0 -0.59900003236E+01 -0.43732842817E+01 -0.11969298168E+02  0.14080831587E+02  0.51100000000E-03 0. -1.
        -11    1    3    3    0    0  0.30306552432E+02 -0.22401598349E+02  0.21472400196E+01  0.37748236632E+02  0.51100000000E-03 0.  1.
         12    1    3    3    0    0 -0.25279459237E+02  0.26619365888E+02  0.10486619039E+02  0.38178670465E+02  0.00000000000E+00 0. -1.
</event>
<event>
 7    1  0.2682188E-015  0.9000724E+02  0.7816164E-02  0.1186340E+00
        -11   -1    0    0    0    0  0.00000000000E+00  0.00000000000E+00  0.45593999997E+02  0.45594000000E+02  0.51100000000E-03 0.  1.
         11   -1    0    0    0    0 -0.00000000000E+00 -0.00000000000E+00 -0.45593999997E+02  0.45594000000E+02  0.51100000000E-03 0. -1.
    9900012    2    1    2    0    0  0.23142641704E+00  0.10920370327E+01  0.38481638929E+00  0.90007243158E+02  0.89999497966E+02 0.  0.
         12    1    1    2    0    0 -0.23142641704E+00 -0.10920370327E+01 -0.38481638929E+00  0.11807568423E+01  0.00000000000E+00 0. -1.
         11    1    3    3    0    0  0.18665963827E+01  0.21370888330E+01  0.90175134245E+01  0.94534057016E+01  0.51100000000E-03 0. -1.
        -11    1    3    3    0    0  0.26934942272E+01  0.27864244897E+02  0.23906359654E+02  0.36812838617E+02  0.51100000000E-03 0.  1.
         12    1    3    3    0    0 -0.43286641929E+01 -0.28909296698E+02 -0.32539056689E+02  0.43740998839E+02  0.00000000000E+00 0. -1.
</event>
<event>
 7    1  0.2682188E-015  0.9000776E+02  0.7816164E-02  0.1186339E+00
        -11   -1    0    0    0    0  0.00000000000E+00  0.00000000000E+00  0.45593999997E+02  0.45594000000E+02  0.51100000000E-03 0.  1.
         11   -1    0    0    0    0 -0.00000000000E+00 -0.00000000000E+00 -0.45593999997E+02  0.45594000000E+02  0.51100000000E-03 0. -1.
    9900012    2    1    2    0    0  0.17724498533E+00 -0.81545399549E+00  0.83461164896E+00  0.90007763749E+02  0.90000025430E+02 0.  0.
         12    1    1    2    0    0 -0.17724498533E+00  0.81545399549E+00 -0.83461164896E+00  0.11802362510E+01  0.00000000000E+00 0. -1.
         11    1    3    3    0    0 -0.24597313348E+02 -0.23341090748E+02 -0.93930240624E+01  0.35186122869E+02  0.51100000000E-03 0. -1.
        -11    1    3    3    0    0 -0.10737493475E+02  0.24067688732E+01 -0.38331429503E+01  0.11652436984E+02  0.51100000000E-03 0.  1.
        -12    1    3    3    0    0  0.35512051808E+02  0.20118867880E+02  0.14060778662E+02  0.43169203896E+02  0.00000000000E+00 0.  1.
</event>
<event>
 7    1  0.2682188E-015  0.9000777E+02  0.7816164E-02  0.1186339E+00
        -11   -1    0    0    0    0  0.00000000000E+00  0.00000000000E+00  0.45593999997E+02  0.45594000000E+02  0.51100000000E-03 0.  1.
         11   -1    0    0    0    0 -0.00000000000E+00 -0.00000000000E+00 -0.45593999997E+02  0.45594000000E+02  0.51100000000E-03 0. -1.
    9900012    2    1    2    0    0  0.32131576588E+00  0.94938734206E+00 -0.62318298261E+00  0.90007772405E+02  0.90000034201E+02 0.  0.
         12    1    1    2    0    0 -0.32131576588E+00 -0.94938734206E+00  0.62318298261E+00  0.11802275952E+01  0.00000000000E+00 0. -1.
         11    1    3    3    0    0  0.30650998047E+02 -0.14265799186E+02 -0.15615554112E+02  0.37240330801E+02  0.51100000000E-03 0. -1.
        -11    1    3    3    0    0  0.31023641034E+01 -0.57669233472E+01 -0.52643214368E+01  0.84020919046E+01  0.51100000000E-03 0.  1.
        -12    1    3    3    0    0 -0.33432046384E+02  0.20982109876E+02  0.20256692566E+02  0.44365349700E+02  0.00000000000E+00 0.  1.
</event>
<event>
 7    1  0.2682188E-015  0.9000753E+02  0.7816164E-02  0.1186339E+00
        -11   -1    0    0    0    0  0.00000000000E+00  0.00000000000E+00  0.45593999997E+02  0.45594000000E+02  0.51100000000E-03 0. -1.
         11   -1    0    0    0    0 -0.00000000000E+00 -0.00000000000E+00 -0.45593999997E+02  0.45594000000E+02  0.51100000000E-03 0.  1.
    9900012    2    1    2    0    0 -0.92922264639E+00 -0.72472044850E+00 -0.69466883370E-01  0.90007533947E+02  0.89999792595E+02 0.  0.
         12    1    1    2    0    0  0.92922264639E+00  0.72472044850E+00  0.69466883370E-01  0.11804660533E+01  0.00000000000E+00 0. -1.
         11    1    3    3    0    0 -0.11859292661E+02 -0.18026920680E+02  0.33217586832E+02  0.39610866777E+02  0.51100000000E-03 0. -1.
        -11    1    3    3    0    0  0.84482263454E+01 -0.40649256196E+01  0.15015985760E+01  0.94947852646E+01  0.51100000000E-03 0.  1.
        -12    1    3    3    0    0  0.24818436688E+01  0.21367125851E+02 -0.34788652292E+02  0.40901881905E+02  0.00000000000E+00 0.  1.
</event>
<event>
 7    1  0.2682188E-015  0.9000740E+02  0.7816164E-02  0.1186340E+00
        -11   -1    0    0    0    0  0.00000000000E+00  0.00000000000E+00  0.45593999997E+02  0.45594000000E+02  0.51100000000E-03 0. -1.
         11   -1    0    0    0    0 -0.00000000000E+00 -0.00000000000E+00 -0.45593999997E+02  0.45594000000E+02  0.51100000000E-03 0.  1.
    9900012    2    1    2    0    0 -0.22591638527E-01  0.11790123471E+01 -0.56981763297E-01  0.90007395317E+02  0.89999652134E+02 0.  0.
         12    1    1    2    0    0  0.22591638527E-01 -0.11790123471E+01  0.56981763297E-01  0.11806046833E+01  0.00000000000E+00 0. -1.
         11    1    3    3    0    0  0.29366389005E+02  0.27260103790E+02 -0.91980945261E+01  0.41110862372E+02  0.51100000000E-03 0. -1.
        -11    1    3    3    0    0 -0.82321502476E+01  0.74646934681E+00 -0.72564634457E+01  0.10999171614E+02  0.51100000000E-03 0.  1.
        -12    1    3    3    0    0 -0.21156830396E+02 -0.26827560790E+02  0.16397576209E+02  0.37897361331E+02  0.00000000000E+00 0.  1.
</event>
<event>
 7    1  0.2682188E-015  0.9000774E+02  0.7816164E-02  0.1186339E+00
        -11   -1    0    0    0    0  0.00000000000E+00  0.00000000000E+00  0.45593999997E+02  0.45594000000E+02  0.51100000000E-03 0.  1.
         11   -1    0    0    0    0 -0.00000000000E+00 -0.00000000000E+00 -0.45593999997E+02  0.45594000000E+02  0.51100000000E-03 0. -1.
    9900012    2    1    2    0    0 -0.86115087913E+00  0.73531353511E+00  0.33279185895E+00  0.90007738481E+02  0.89999999829E+02 0.  0.
         12    1    1    2    0    0  0.86115087913E+00 -0.73531353511E+00 -0.33279185895E+00  0.11802615189E+01  0.00000000000E+00 0. -1.
         11    1    3    3    0    0  0.60067800151E+01 -0.20810217439E+02 -0.11438937948E+01  0.21689975779E+02  0.51100000000E-03 0. -1.
        -11    1    3    3    0    0  0.23182187032E+02 -0.75037084553E+01  0.87583871619E+01  0.25892639535E+02  0.51100000000E-03 0.  1.
        -12    1    3    3    0    0 -0.30050117926E+02  0.29049239430E+02 -0.72817015082E+01  0.42425123167E+02  0.00000000000E+00 0.  1.
</event>
<event>
 7    1  0.2682188E-015  0.9000767E+02  0.7816164E-02  0.1186339E+00
        -11   -1    0    0    0    0  0.00000000000E+00  0.00000000000E+00  0.45593999997E+02  0.45594000000E+02  0.51100000000E-03 0. -1.
         11   -1    0    0    0    0 -0.00000000000E+00 -0.00000000000E+00 -0.45593999997E+02  0.45594000000E+02  0.51100000000E-03 0.  1.
    9900012    2    1    2    0    0  0.53630043973E+00 -0.75783482000E+00  0.72886184770E+00  0.90007673194E+02  0.89999933680E+02 0.  0.
         12    1    1    2    0    0 -0.53630043973E+00  0.75783482000E+00 -0.72886184770E+00  0.11803268061E+01  0.00000000000E+00 0. -1.
         11    1    3    3    0    0 -0.37280209479E+01  0.83228401161E+01  0.34219276985E+02  0.35413651682E+02  0.51100000000E-03 0. -1.
        -11    1    3    3    0    0  0.34843202795E+01  0.52266821028E+01  0.83036511230E+01  0.10411979439E+02  0.51100000000E-03 0.  1.
        -12    1    3    3    0    0  0.78000110818E+00 -0.14307357039E+02 -0.41794066260E+02  0.44182042073E+02  0.00000000000E+00 0.  1.
</event>
<event>
 7    1  0.2682188E-015  0.9000767E+02  0.7816164E-02  0.1186339E+00
        -11   -1    0    0    0    0  0.00000000000E+00  0.00000000000E+00  0.45593999997E+02  0.45594000000E+02  0.51100000000E-03 0.  1.
         11   -1    0    0    0    0 -0.00000000000E+00 -0.00000000000E+00 -0.45593999997E+02  0.45594000000E+02  0.51100000000E-03 0. -1.
    9900012    2    1    2    0    0  0.37166733270E+00  0.22897054006E+00  0.10966374081E+01  0.90007670504E+02  0.89999930955E+02 0.  0.
         12    1    1    2    0    0 -0.37166733270E+00 -0.22897054006E+00 -0.10966374081E+01  0.11803294961E+01  0.00000000000E+00 0. -1.
         11    1    3    3    0    0 -0.82354461520E+00  0.53311024724E+01  0.72755279740E+01  0.90571621861E+01  0.51100000000E-03 0. -1.
        -11    1    3    3    0    0  0.19408096738E+02  0.11900706020E+02  0.29605154467E+02  0.37346568705E+02  0.51100000000E-03 0.  1.
         12    1    3    3    0    0 -0.18212884790E+02 -0.17002837953E+02 -0.35784045033E+02  0.43603939613E+02  0.00000000000E+00 0. -1.
</event>
<event>
 7    1  0.2682188E-015  0.9000778E+02  0.7816164E-02  0.1186339E+00
        -11   -1    0    0    0    0  0.00000000000E+00  0.00000000000E+00  0.45593999997E+02  0.45594000000E+02  0.51100000000E-03 0. -1.
         11   -1    0    0    0    0 -0.00000000000E+00 -0.00000000000E+00 -0.45593999997E+02  0.45594000000E+02  0.51100000000E-03 0.  1.
    9900012    2    1    2    0    0 -0.59879947009E+00  0.20364396316E+00 -0.99644321391E+00  0.90007775128E+02  0.90000036960E+02 0.  0.
         12    1    1    2    0    0  0.59879947009E+00 -0.20364396316E+00  0.99644321391E+00  0.11802248716E+01  0.00000000000E+00 0. -1.
         11    1    3    3    0    0 -0.14642004588E+02 -0.11205773787E+02 -0.12209194960E+02  0.22113844224E+02  0.51100000000E-03 0. -1.
        -11    1    3    3    0    0 -0.10417629673E+02  0.21195679282E+02 -0.17146515192E+02  0.29185386955E+02  0.51100000000E-03 0.  1.
         12    1    3    3    0    0  0.24460834791E+02 -0.97862615315E+01  0.28359266938E+02  0.38708543950E+02  0.00000000000E+00 0. -1.
</event>
<event>
 7    1  0.2682188E-015  0.9000773E+02  0.7816164E-02  0.1186339E+00
        -11   -1    0    0    0    0  0.00000000000E+00  0.00000000000E+00  0.45593999997E+02  0.45594000000E+02  0.51100000000E-03 0. -1.
         11   -1    0    0    0    0 -0.00000000000E+00 -0.00000000000E+00 -0.45593999997E+02  0.45594000000E+02  0.51100000000E-03 0.  1.
    9900012    2    1    2    0    0 -0.20684475845E+00  0.11607059427E+01 -0.54819623346E-01  0.90007733831E+02  0.89999995117E+02 0.  0.
         12    1    1    2    0    0  0.20684475845E+00 -0.11607059427E+01  0.54819623346E-01  0.11802661693E+01  0.00000000000E+00 0. -1.
         11    1    3    3    0    0 -0.17377264143E+02  0.30727648897E+02  0.19470248423E+01  0.35354612455E+02  0.51100000000E-03 0.  1.
        -11    1    3    3    0    0  0.24802199069E+02 -0.36175235228E+02  0.17170251368E+01  0.43894702391E+02  0.51100000000E-03 0. -1.
         12    1    3    3    0    0 -0.76317796843E+01  0.66082922738E+01 -0.37188696024E+01  0.10758418985E+02  0.00000000000E+00 0. -1.
</event>
<event>
 7    1  0.2682188E-015  0.9000771E+02  0.7816164E-02  0.1186339E+00
        -11   -1    0    0    0    0  0.00000000000E+00  0.00000000000E+00  0.45593999997E+02  0.45594000000E+02  0.51100000000E-03 0.  1.
         11   -1    0    0    0    0 -0.00000000000E+00 -0.00000000000E+00 -0.45593999997E+02  0.45594000000E+02  0.51100000000E-03 0. -1.
    9900012    2    1    2    0    0  0.60857697942E+00 -0.39458239182E+00  0.93114389505E+00  0.90007707597E+02  0.89999968537E+02 0.  0.
         12    1    1    2    0    0 -0.60857697942E+00  0.39458239182E+00 -0.93114389505E+00  0.11802924032E+01  0.00000000000E+00 0. -1.
         11    1    3    3    0    0 -0.16600957267E+02 -0.19602879026E+02 -0.24528535580E+02  0.35517794219E+02  0.51100000000E-03 0. -1.
        -11    1    3    3    0    0 -0.86378599300E+01  0.45735842505E+01 -0.58028266591E+01  0.11366753915E+02  0.51100000000E-03 0.  1.
        -12    1    3    3    0    0  0.25847394176E+02  0.14634712383E+02  0.31262506134E+02  0.43123159462E+02  0.00000000000E+00 0.  1.
</event>
<event>
 7    1  0.2682188E-015  0.9000774E+02  0.7816164E-02  0.1186339E+00
        -11   -1    0    0    0    0  0.00000000000E+00  0.00000000000E+00  0.45593999997E+02  0.45594000000E+02  0.51100000000E-03 0.  1.
         11   -1    0    0    0    0 -0.00000000000E+00 -0.00000000000E+00 -0.45593999997E+02  0.45594000000E+02  0.51100000000E-03 0. -1.
    9900012    2    1    2    0    0 -0.28641498835E+00  0.95980541631E+00  0.62429941272E+00  0.90007741664E+02  0.90000003054E+02 0.  0.
         12    1    1    2    0    0  0.28641498835E+00 -0.95980541631E+00 -0.62429941272E+00  0.11802583359E+01  0.00000000000E+00 0. -1.
         11    1    3    3    0    0  0.22274617696E+01  0.24845010862E+02 -0.25136895059E+02  0.35413269323E+02  0.51100000000E-03 0. -1.
        -11    1    3    3    0    0  0.11479673114E+02 -0.89811201458E+00 -0.59844518907E+01  0.12977024493E+02  0.51100000000E-03 0.  1.
        -12    1    3    3    0    0 -0.13993549872E+02 -0.22987093431E+02  0.31745646362E+02  0.41617447848E+02  0.00000000000E+00 0.  1.
</event>
<event>
 7    1  0.2682188E-015  0.9000772E+02  0.7816164E-02  0.1186339E+00
        -11   -1    0    0    0    0  0.00000000000E+00  0.00000000000E+00  0.45593999997E+02  0.45594000000E+02  0.51100000000E-03 0.  1.
         11   -1    0    0    0    0 -0.00000000000E+00 -0.00000000000E+00 -0.45593999997E+02  0.45594000000E+02  0.51100000000E-03 0. -1.
    9900012    2    1    2    0    0  0.43035179735E-01 -0.11068798770E+01  0.40745779878E+00  0.90007721666E+02  0.89999982792E+02 0.  0.
         12    1    1    2    0    0 -0.43035179735E-01  0.11068798770E+01 -0.40745779878E+00  0.11802783344E+01  0.00000000000E+00 0. -1.
         11    1    3    3    0    0  0.40240356491E+01 -0.29941542209E+02  0.19745294026E+02  0.36091071599E+02  0.51100000000E-03 0. -1.
        -11    1    3    3    0    0 -0.16245901979E+01  0.57627700617E+01  0.12889304934E+02  0.14212072123E+02  0.51100000000E-03 0.  1.
        -12    1    3    3    0    0 -0.23564102715E+01  0.23071892270E+02 -0.32227141161E+02  0.39704577944E+02  0.00000000000E+00 0.  1.
</event>
<event>
 7    1  0.2682188E-015  0.9000771E+02  0.7816164E-02  0.1186339E+00
        -11   -1    0    0    0    0  0.00000000000E+00  0.00000000000E+00  0.45593999997E+02  0.45594000000E+02  0.51100000000E-03 0.  1.
         11   -1    0    0    0    0 -0.00000000000E+00 -0.00000000000E+00 -0.45593999997E+02  0.45594000000E+02  0.51100000000E-03 0. -1.
    9900012    2    1    2    0    0  0.11604552793E+01 -0.77220538671E-01  0.20117707453E+00  0.90007706951E+02  0.89999967882E+02 0.  0.
         12    1    1    2    0    0 -0.11604552793E+01  0.77220538671E-01 -0.20117707453E+00  0.11802930493E+01  0.00000000000E+00 0. -1.
         11    1    3    3    0    0  0.17863992958E+02  0.26295545768E+02  0.20194152726E+02  0.37661409642E+02  0.51100000000E-03 0. -1.
        -11    1    3    3    0    0  0.94170354740E+01  0.21372379072E+01 -0.50049450991E+01  0.10876480069E+02  0.51100000000E-03 0.  1.
        -12    1    3    3    0    0 -0.26120573152E+02 -0.28510004214E+02 -0.14988030552E+02  0.41469817240E+02  0.00000000000E+00 0.  1.
</event>
<event>
 7    1  0.2682188E-015  0.9000773E+02  0.7816164E-02  0.1186339E+00
        -11   -1    0    0    0    0  0.00000000000E+00  0.00000000000E+00  0.45593999997E+02  0.45594000000E+02  0.51100000000E-03 0. -1.
         11   -1    0    0    0    0 -0.00000000000E+00 -0.00000000000E+00 -0.45593999997E+02  0.45594000000E+02  0.51100000000E-03 0.  1.
    9900012    2    1    2    0    0  0.73005160475E+00 -0.92738557660E+00  0.28160426250E-02  0.90007734232E+02  0.89999995524E+02 0.  0.
         12    1    1    2    0    0 -0.73005160475E+00  0.92738557660E+00 -0.28160426250E-02  0.11802657681E+01  0.00000000000E+00 0. -1.
         11    1    3    3    0    0 -0.84032764397E+01  0.29883952912E+01  0.27178731128E+01  0.93237543864E+01  0.51100000000E-03 0. -1.
        -11    1    3    3    0    0 -0.16362376504E+02  0.26132130635E+02  0.18472471424E+02  0.35942284529E+02  0.51100000000E-03 0.  1.
         12    1    3    3    0    0  0.25495704548E+02 -0.30047911503E+02 -0.21187528495E+02  0.44741695317E+02  0.00000000000E+00 0. -1.
</event>
<event>
 7    1  0.2682188E-015  0.9000777E+02  0.7816164E-02  0.1186339E+00
        -11   -1    0    0    0    0  0.00000000000E+00  0.00000000000E+00  0.45593999997E+02  0.45594000000E+02  0.51100000000E-03 0. -1.
         11   -1    0    0    0    0 -0.00000000000E+00 -0.00000000000E+00 -0.45593999997E+02  0.45594000000E+02  0.51100000000E-03 0.  1.
    9900012    2    1    2    0    0 -0.66767280251E+00 -0.77454687764E+00 -0.58927187605E+00  0.90007766472E+02  0.90000028189E+02 0.  0.
         12    1    1    2    0    0  0.66767280251E+00  0.77454687764E+00  0.58927187605E+00  0.11802335281E+01  0.00000000000E+00 0. -1.
         11    1    3    3    0    0 -0.33591636440E+02  0.25614021310E+02 -0.13150032196E+02  0.44242507540E+02  0.51100000000E-03 0. -1.
        -11    1    3    3    0    0  0.37548760225E+01 -0.90563803904E+01  0.49907311101E+01  0.11001114352E+02  0.51100000000E-03 0.  1.
        -12    1    3    3    0    0  0.29169087615E+02 -0.17332187797E+02  0.75700292099E+01  0.34764144580E+02  0.00000000000E+00 0.  1.
</event>
<event>
 7    1  0.2682188E-015  0.9000773E+02  0.7816164E-02  0.1186339E+00
        -11   -1    0    0    0    0  0.00000000000E+00  0.00000000000E+00  0.45593999997E+02  0.45594000000E+02  0.51100000000E-03 0. -1.
         11   -1    0    0    0    0 -0.00000000000E+00 -0.00000000000E+00 -0.45593999997E+02  0.45594000000E+02  0.51100000000E-03 0.  1.
    9900012    2    1    2    0    0 -0.35673109022E+00 -0.10043424022E+01  0.50703558693E+00  0.90007726380E+02  0.89999987568E+02 0.  0.
         12    1    1    2    0    0  0.35673109022E+00  0.10043424022E+01 -0.50703558693E+00  0.11802736199E+01  0.00000000000E+00 0. -1.
         11    1    3    3    0    0  0.30304177279E+01  0.35374523886E+02  0.13135862386E+02  0.37856191734E+02  0.51100000000E-03 0. -1.
        -11    1    3    3    0    0 -0.47097177164E+01  0.61877184562E+01 -0.38162802196E+01  0.86621761491E+01  0.51100000000E-03 0.  1.
        -12    1    3    3    0    0  0.13225688983E+01 -0.42566584744E+02 -0.88125465790E+01  0.43489358497E+02  0.00000000000E+00 0.  1.
</event>
<event>
 7    1  0.2682188E-015  0.9000764E+02  0.7816164E-02  0.1186339E+00
        -11   -1    0    0    0    0  0.00000000000E+00  0.00000000000E+00  0.45593999997E+02  0.45594000000E+02  0.51100000000E-03 0.  1.
         11   -1    0    0    0    0 -0.00000000000E+00 -0.00000000000E+00 -0.45593999997E+02  0.45594000000E+02  0.51100000000E-03 0. -1.
    9900012    2    1    2    0    0  0.58966694566E+00  0.78950248220E-01  0.10194688471E+01  0.90007636929E+02  0.89999896937E+02 0.  0.
         12    1    1    2    0    0 -0.58966694566E+00 -0.78950248220E-01 -0.10194688471E+01  0.11803630707E+01  0.00000000000E+00 0. -1.
         11    1    3    3    0    0 -0.64585181240E+01 -0.68103060742E+01  0.51052673746E+01  0.10684403606E+02  0.51100000000E-03 0. -1.
        -11    1    3    3    0    0  0.10537314936E+01  0.13854527308E+01  0.37201182264E+02  0.37241882222E+02  0.51100000000E-03 0.  1.
         12    1    3    3    0    0  0.59944535760E+01  0.55038035916E+01 -0.41286980792E+02  0.42081351102E+02  0.00000000000E+00 0. -1.
</event>
<event>
 7    1  0.2682188E-015  0.9000770E+02  0.7816164E-02  0.1186339E+00
        -11   -1    0    0    0    0  0.00000000000E+00  0.00000000000E+00  0.45593999997E+02  0.45594000000E+02  0.51100000000E-03 0.  1.
         11   -1    0    0    0    0 -0.00000000000E+00 -0.00000000000E+00 -0.45593999997E+02  0.45594000000E+02  0.51100000000E-03 0. -1.
    9900012    2    1    2    0    0  0.27780373817E+00 -0.17411620206E-01  0.11470068721E+01  0.90007702221E+02  0.89999963091E+02 0.  0.
         12    1    1    2    0    0 -0.27780373817E+00  0.17411620206E-01 -0.11470068721E+01  0.11802977786E+01  0.00000000000E+00 0. -1.
         11    1    3    3    0    0 -0.25185343456E+02 -0.31910695295E+02 -0.76591527685E+01  0.41367337606E+02  0.51100000000E-03 0. -1.
        -11    1    3    3    0    0 -0.31346645379E+01  0.55473691332E+01  0.73528247970E+01  0.97295148297E+01  0.51100000000E-03 0.  1.
        -12    1    3    3    0    0  0.28597811732E+02  0.26345914542E+02  0.14533348436E+01  0.38910849786E+02  0.00000000000E+00 0.  1.
</event>
<event>
 7    1  0.5340935E-015  0.9000785E+02  0.7816164E-02  0.1186339E+00
        -11   -1    0    0    0    0  0.00000000000E+00  0.00000000000E+00  0.45593999997E+02  0.45594000000E+02  0.51100000000E-03 0. -1.
         11   -1    0    0    0    0 -0.00000000000E+00 -0.00000000000E+00 -0.45593999997E+02  0.45594000000E+02  0.51100000000E-03 0.  1.
    9900012    2    1    2    0    0  0.75539359023E+00  0.24793083011E-01 -0.90638123766E+00  0.90007846992E+02  0.90000109773E+02 0.  0.
         12    1    1    2    0    0 -0.75539359023E+00 -0.24793083011E-01  0.90638123766E+00  0.11801530075E+01  0.00000000000E+00 0. -1.
         11    1    3    3    0    0  0.84513485632E+00 -0.16271395941E+01  0.89969087219E+01  0.91818409372E+01  0.51100000000E-03 0. -1.
        -11    1    3    3    0    0  0.21297485460E+02 -0.27911644698E+02 -0.23097187913E+02  0.42025264858E+02  0.51100000000E-03 0.  1.
         12    1    3    3    0    0 -0.21387226726E+02  0.29563577376E+02  0.13193897953E+02  0.38800741197E+02  0.00000000000E+00 0. -1.
</event>
<event>
 7    1  0.2682188E-015  0.9000789E+02  0.7816164E-02  0.1186339E+00
        -11   -1    0    0    0    0  0.00000000000E+00  0.00000000000E+00  0.45593999997E+02  0.45594000000E+02  0.51100000000E-03 0. -1.
         11   -1    0    0    0    0 -0.00000000000E+00 -0.00000000000E+00 -0.45593999997E+02  0.45594000000E+02  0.51100000000E-03 0.  1.
    9900012    2    1    2    0    0 -0.11635496099E+01  0.19509388366E+00 -0.27289544508E-01  0.90007892362E+02  0.90000155741E+02 0.  0.
         12    1    1    2    0    0  0.11635496099E+01 -0.19509388366E+00  0.27289544508E-01  0.11801076380E+01  0.00000000000E+00 0. -1.
         11    1    3    3    0    0 -0.16468028595E+02  0.29514472847E+02  0.12731840817E+02  0.36116476075E+02  0.51100000000E-03 0. -1.
        -11    1    3    3    0    0 -0.92768926627E+01  0.27085755577E+01  0.36225643716E+01  0.10320857131E+02  0.51100000000E-03 0.  1.
        -12    1    3    3    0    0  0.24581371648E+02 -0.32027954521E+02 -0.16381694733E+02  0.43570559156E+02  0.00000000000E+00 0.  1.
</event>
<event>
 7    1  0.2682188E-015  0.9000778E+02  0.7816164E-02  0.1186339E+00
        -11   -1    0    0    0    0  0.00000000000E+00  0.00000000000E+00  0.45593999997E+02  0.45594000000E+02  0.51100000000E-03 0. -1.
         11   -1    0    0    0    0 -0.00000000000E+00 -0.00000000000E+00 -0.45593999997E+02  0.45594000000E+02  0.51100000000E-03 0.  1.
    9900012    2    1    2    0    0  0.34353661117E+00 -0.10756229162E+01 -0.34341330354E+00  0.90007781902E+02  0.90000043823E+02 0.  0.
         12    1    1    2    0    0 -0.34353661117E+00  0.10756229162E+01  0.34341330354E+00  0.11802180977E+01  0.00000000000E+00 0. -1.
         11    1    3    3    0    0  0.56283891555E+01  0.61692863223E+01 -0.69393700912E+01  0.10857887259E+02  0.51100000000E-03 0. -1.
        -11    1    3    3    0    0 -0.21496725129E+02  0.55559112133E+01 -0.29882944162E+02  0.37228587037E+02  0.51100000000E-03 0.  1.
         12    1    3    3    0    0  0.16211872585E+02 -0.12800820452E+02  0.36478900949E+02  0.41921307606E+02  0.00000000000E+00 0. -1.
</event>
<event>
 7    1  0.2682188E-015  0.9000771E+02  0.7816164E-02  0.1186339E+00
        -11   -1    0    0    0    0  0.00000000000E+00  0.00000000000E+00  0.45593999997E+02  0.45594000000E+02  0.51100000000E-03 0.  1.
         11   -1    0    0    0    0 -0.00000000000E+00 -0.00000000000E+00 -0.45593999997E+02  0.45594000000E+02  0.51100000000E-03 0. -1.
    9900012    2    1    2    0    0 -0.50957528786E+00  0.67332547079E+00  0.82465532463E+00  0.90007707423E+02  0.89999968361E+02 0.  0.
         12    1    1    2    0    0  0.50957528786E+00 -0.67332547079E+00 -0.82465532463E+00  0.11802925773E+01  0.00000000000E+00 0. -1.
         11    1    3    3    0    0 -0.33950666636E+02  0.46610512346E+01 -0.17208611392E+02  0.38347222454E+02  0.51100000000E-03 0. -1.
        -11    1    3    3    0    0 -0.42528295018E+01 -0.89216198027E+01  0.78333948835E+00  0.99144076823E+01  0.51100000000E-03 0.  1.
        -12    1    3    3    0    0  0.37693920850E+02  0.49338940389E+01  0.17249927229E+02  0.41746077286E+02  0.00000000000E+00 0.  1.
</event>
<event>
 7    1  0.2682188E-015  0.9000769E+02  0.7816164E-02  0.1186339E+00
        -11   -1    0    0    0    0  0.00000000000E+00  0.00000000000E+00  0.45593999997E+02  0.45594000000E+02  0.51100000000E-03 0. -1.
         11   -1    0    0    0    0 -0.00000000000E+00 -0.00000000000E+00 -0.45593999997E+02  0.45594000000E+02  0.51100000000E-03 0.  1.
    9900012    2    1    2    0    0 -0.23282712253E+00 -0.11336040350E+01  0.23211106722E+00  0.90007685582E+02  0.89999946232E+02 0.  0.
         12    1    1    2    0    0  0.23282712253E+00  0.11336040350E+01 -0.23211106722E+00  0.11803144177E+01  0.00000000000E+00 0. -1.
         11    1    3    3    0    0  0.45169624766E+00  0.91115935530E+01 -0.10627294603E+01  0.91844738958E+01  0.51100000000E-03 0. -1.
        -11    1    3    3    0    0  0.26376684003E+02 -0.19318469311E+00 -0.28846162984E+02  0.39087950810E+02  0.51100000000E-03 0.  1.
         12    1    3    3    0    0 -0.27061207373E+02 -0.10052012895E+02  0.30141003512E+02  0.41735260877E+02  0.00000000000E+00 0. -1.
</event>
<event>
 7    1  0.2682188E-015  0.9000770E+02  0.7816164E-02  0.1186339E+00
        -11   -1    0    0    0    0  0.00000000000E+00  0.00000000000E+00  0.45593999997E+02  0.45594000000E+02  0.51100000000E-03 0. -1.
         11   -1    0    0    0    0 -0.00000000000E+00 -0.00000000000E+00 -0.45593999997E+02  0.45594000000E+02  0.51100000000E-03 0.  1.
    9900012    2    1    2    0    0 -0.86143265279E+00  0.58765775445E+00 -0.55290154039E+00  0.90007700053E+02  0.89999960894E+02 0.  0.
         12    1    1    2    0    0  0.86143265279E+00 -0.58765775445E+00  0.55290154039E+00  0.11802999471E+01  0.00000000000E+00 0. -1.
         11    1    3    3    0    0 -0.80745543961E+01 -0.40677048208E+01 -0.63034759217E+01  0.11021726732E+02  0.51100000000E-03 0. -1.
        -11    1    3    3    0    0 -0.30442731465E+02  0.56785800217E+01 -0.16649028153E+02  0.35159583457E+02  0.51100000000E-03 0.  1.
         12    1    3    3    0    0  0.37655853208E+02 -0.10232174465E+01  0.22399602535E+02  0.43826389864E+02  0.00000000000E+00 0. -1.
</event>
<event>
 7    1  0.2682188E-015  0.9000776E+02  0.7816164E-02  0.1186339E+00
        -11   -1    0    0    0    0  0.00000000000E+00  0.00000000000E+00  0.45593999997E+02  0.45594000000E+02  0.51100000000E-03 0.  1.
         11   -1    0    0    0    0 -0.00000000000E+00 -0.00000000000E+00 -0.45593999997E+02  0.45594000000E+02  0.51100000000E-03 0. -1.
    9900012    2    1    2    0    0  0.96608812100E+00  0.40717809480E+00  0.54206952963E+00  0.90007762891E+02  0.90000024561E+02 0.  0.
         12    1    1    2    0    0 -0.96608812100E+00 -0.40717809480E+00 -0.54206952963E+00  0.11802371090E+01  0.00000000000E+00 0. -1.
         11    1    3    3    0    0 -0.29280121204E+02  0.22548467063E+02 -0.99487409925E+01  0.38271873644E+02  0.51100000000E-03 0. -1.
        -11    1    3    3    0    0  0.32897410726E+01  0.46156965862E+01 -0.77498932436E+01  0.96014528509E+01  0.51100000000E-03 0.  1.
        -12    1    3    3    0    0  0.26956468252E+02 -0.26756985554E+02  0.18240703766E+02  0.42134436397E+02  0.00000000000E+00 0.  1.
</event>
<event>
 7    1  0.2874193E-015  0.9000737E+02  0.7816164E-02  0.1186340E+00
        -11   -1    0    0    0    0  0.00000000000E+00  0.00000000000E+00  0.45593999997E+02  0.45594000000E+02  0.51100000000E-03 0. -1.
         11   -1    0    0    0    0 -0.00000000000E+00 -0.00000000000E+00 -0.45593999997E+02  0.45594000000E+02  0.51100000000E-03 0.  1.
    9900012    2    1    2    0    0 -0.34862608435E+00  0.68059137054E-01 -0.11259282415E+01  0.90007370254E+02  0.89999626740E+02 0.  0.
         12    1    1    2    0    0  0.34862608435E+00 -0.68059137054E-01  0.11259282415E+01  0.11806297463E+01  0.00000000000E+00 0. -1.
         11    1    3    3    0    0  0.51903820404E+00 -0.56475574630E+01 -0.88790671468E+01  0.10535755294E+02  0.51100000000E-03 0. -1.
        -11    1    3    3    0    0  0.33074057913E+02  0.78098079093E+01 -0.16426437783E+02  0.37745387332E+02  0.51100000000E-03 0.  1.
         12    1    3    3    0    0 -0.33941722201E+02 -0.20941913093E+01  0.24179576688E+02  0.41726227627E+02  0.00000000000E+00 0. -1.
</event>
<event>
 7    1  0.2682188E-015  0.9000775E+02  0.7816164E-02  0.1186339E+00
        -11   -1    0    0    0    0  0.00000000000E+00  0.00000000000E+00  0.45593999997E+02  0.45594000000E+02  0.51100000000E-03 0.  1.
         11   -1    0    0    0    0 -0.00000000000E+00 -0.00000000000E+00 -0.45593999997E+02  0.45594000000E+02  0.51100000000E-03 0. -1.
    9900012    2    1    2    0    0  0.57072014586E-01  0.54242397119E+00  0.10466624055E+01  0.90007752920E+02  0.90000014458E+02 0.  0.
         12    1    1    2    0    0 -0.57072014586E-01 -0.54242397119E+00 -0.10466624055E+01  0.11802470802E+01  0.00000000000E+00 0. -1.
         11    1    3    3    0    0 -0.16358954275E+02  0.20805344513E+02 -0.12613863556E+02  0.29318719265E+02  0.51100000000E-03 0. -1.
        -11    1    3    3    0    0 -0.75601200172E+01  0.14726523417E+02  0.58690312189E+01  0.17563354871E+02  0.51100000000E-03 0.  1.
        -12    1    3    3    0    0  0.23976146307E+02 -0.34989443958E+02  0.77914947422E+01  0.43125678784E+02  0.00000000000E+00 0.  1.
</event>
<event>
 7    1  0.2682188E-015  0.9000767E+02  0.7816164E-02  0.1186339E+00
        -11   -1    0    0    0    0  0.00000000000E+00  0.00000000000E+00  0.45593999997E+02  0.45594000000E+02  0.51100000000E-03 0.  1.
         11   -1    0    0    0    0 -0.00000000000E+00 -0.00000000000E+00 -0.45593999997E+02  0.45594000000E+02  0.51100000000E-03 0. -1.
    9900012    2    1    2    0    0 -0.11704195127E+01 -0.11599820959E+00 -0.99211176663E-01  0.90007669420E+02  0.89999929856E+02 0.  0.
         12    1    1    2    0    0  0.11704195127E+01  0.11599820959E+00  0.99211176663E-01  0.11803305799E+01  0.00000000000E+00 0. -1.
         11    1    3    3    0    0 -0.80334021283E+01  0.95881755754E+01 -0.38035653639E+02  0.40039725381E+02  0.51100000000E-03 0. -1.
        -11    1    3    3    0    0  0.59326185839E+01  0.41552383945E+01 -0.21399269917E+01  0.75525662637E+01  0.51100000000E-03 0.  1.
        -12    1    3    3    0    0  0.93036403176E+00 -0.13859412180E+02  0.40076369454E+02  0.42415377775E+02  0.00000000000E+00 0.  1.
</event>
<event>
 7    1  0.2682188E-015  0.9000775E+02  0.7816164E-02  0.1186339E+00
        -11   -1    0    0    0    0  0.00000000000E+00  0.00000000000E+00  0.45593999997E+02  0.45594000000E+02  0.51100000000E-03 0. -1.
         11   -1    0    0    0    0 -0.00000000000E+00 -0.00000000000E+00 -0.45593999997E+02  0.45594000000E+02  0.51100000000E-03 0.  1.
    9900012    2    1    2    0    0  0.62337212242E-01  0.11121397574E+01 -0.39020151914E+00  0.90007746640E+02  0.90000008096E+02 0.  0.
         12    1    1    2    0    0 -0.62337212242E-01 -0.11121397574E+01  0.39020151914E+00  0.11802533599E+01  0.00000000000E+00 0. -1.
         11    1    3    3    0    0  0.64230942543E+01  0.29799990291E+02 -0.19116523096E+02  0.35982454289E+02  0.51100000000E-03 0. -1.
        -11    1    3    3    0    0 -0.19662820779E+01  0.50824755614E+01 -0.87227708887E+01  0.10285161899E+02  0.51100000000E-03 0.  1.
        -12    1    3    3    0    0 -0.43944749642E+01 -0.33770326095E+02  0.27449092465E+02  0.43740130452E+02  0.00000000000E+00 0.  1.
</event>
<event>
 7    1  0.2682188E-015  0.9000774E+02  0.7816164E-02  0.1186339E+00
        -11   -1    0    0    0    0  0.00000000000E+00  0.00000000000E+00  0.45593999997E+02  0.45594000000E+02  0.51100000000E-03 0.  1.
         11   -1    0    0    0    0 -0.00000000000E+00 -0.00000000000E+00 -0.45593999997E+02  0.45594000000E+02  0.51100000000E-03 0. -1.
    9900012    2    1    2    0    0  0.60823234529E+00 -0.23630524111E+00  0.98347772310E+00  0.90007739357E+02  0.90000000717E+02 0.  0.
         12    1    1    2    0    0 -0.60823234529E+00  0.23630524111E+00 -0.98347772310E+00  0.11802606427E+01  0.00000000000E+00 0. -1.
         11    1    3    3    0    0  0.36905092379E+02  0.18825496194E+01 -0.13598268818E+02  0.39375661921E+02  0.51100000000E-03 0. -1.
        -11    1    3    3    0    0  0.37617988546E+01 -0.14863135330E+01  0.94018029920E+01  0.10234947890E+02  0.51100000000E-03 0.  1.
        -12    1    3    3    0    0 -0.40058658888E+02 -0.63254132743E+00  0.51799435494E+01  0.40397129547E+02  0.00000000000E+00 0.  1.
</event>
<event>
 7    1  0.2682188E-015  0.9000754E+02  0.7816164E-02  0.1186339E+00
        -11   -1    0    0    0    0  0.00000000000E+00  0.00000000000E+00  0.45593999997E+02  0.45594000000E+02  0.51100000000E-03 0. -1.
         11   -1    0    0    0    0 -0.00000000000E+00 -0.00000000000E+00 -0.45593999997E+02  0.45594000000E+02  0.51100000000E-03 0.  1.
    9900012    2    1    2    0    0 -0.59176422898E+00 -0.98220525453E+00  0.28029110925E+00  0.90007544507E+02  0.89999803294E+02 0.  0.
         12    1    1    2    0    0  0.59176422898E+00  0.98220525453E+00 -0.28029110925E+00  0.11804554929E+01  0.00000000000E+00 0. -1.
         11    1    3    3    0    0 -0.22978768867E+02  0.64010319031E+01  0.29466446133E+02  0.37911323849E+02  0.51100000000E-03 0. -1.
        -11    1    3    3    0    0  0.23285584952E+01  0.94634089832E+01  0.33686563953E+01  0.10311456755E+02  0.51100000000E-03 0.  1.
        -12    1    3    3    0    0  0.20058446142E+02 -0.16846646141E+02 -0.32554811419E+02  0.41784763902E+02  0.00000000000E+00 0.  1.
</event>
<event>
 7    1  0.2682188E-015  0.9000776E+02  0.7816164E-02  0.1186339E+00
        -11   -1    0    0    0    0  0.00000000000E+00  0.00000000000E+00  0.45593999997E+02  0.45594000000E+02  0.51100000000E-03 0. -1.
         11   -1    0    0    0    0 -0.00000000000E+00 -0.00000000000E+00 -0.45593999997E+02  0.45594000000E+02  0.51100000000E-03 0.  1.
    9900012    2    1    2    0    0 -0.81326286310E+00  0.85530057515E+00  0.64585769816E-02  0.90007755419E+02  0.90000016990E+02 0.  0.
         12    1    1    2    0    0  0.81326286310E+00 -0.85530057515E+00 -0.64585769816E-02  0.11802445813E+01  0.00000000000E+00 0. -1.
         11    1    3    3    0    0 -0.21697329485E+02 -0.26887795835E+02 -0.41653033060E+01  0.34800537691E+02  0.51100000000E-03 0. -1.
        -11    1    3    3    0    0 -0.88853492098E+01 -0.51311983782E+01  0.35352144012E+01  0.10852482135E+02  0.51100000000E-03 0.  1.
        -12    1    3    3    0    0  0.29769415832E+02  0.32874294788E+02  0.63654748184E+00  0.44354735593E+02  0.00000000000E+00 0.  1.
</event>
<event>
 7    1  0.2682188E-015  0.9000772E+02  0.7816164E-02  0.1186339E+00
        -11   -1    0    0    0    0  0.00000000000E+00  0.00000000000E+00  0.45593999997E+02  0.45594000000E+02  0.51100000000E-03 0. -1.
         11   -1    0    0    0    0 -0.00000000000E+00 -0.00000000000E+00 -0.45593999997E+02  0.45594000000E+02  0.51100000000E-03 0.  1.
    9900012    2    1    2    0    0  0.66130989516E+00  0.19090049467E+00 -0.95879654957E+00  0.90007718424E+02  0.89999979507E+02 0.  0.
         12    1    1    2    0    0 -0.66130989516E+00 -0.19090049467E+00  0.95879654957E+00  0.11802815765E+01  0.00000000000E+00 0. -1.
         11    1    3    3    0    0 -0.94544456770E+01  0.72059272251E+01  0.33920211554E+02  0.35942908652E+02  0.51100000000E-03 0. -1.
        -11    1    3    3    0    0 -0.18370425047E+01  0.19524978929E+01  0.81159223079E+01  0.85472316194E+01  0.51100000000E-03 0.  1.
        -12    1    3    3    0    0  0.11952798077E+02 -0.89675246234E+01 -0.42994930412E+02  0.45517578152E+02  0.00000000000E+00 0.  1.
</event>
<event>
 7    1  0.2682188E-015  0.9000773E+02  0.7816164E-02  0.1186339E+00
        -11   -1    0    0    0    0  0.00000000000E+00  0.00000000000E+00  0.45593999997E+02  0.45594000000E+02  0.51100000000E-03 0. -1.
         11   -1    0    0    0    0 -0.00000000000E+00 -0.00000000000E+00 -0.45593999997E+02  0.45594000000E+02  0.51100000000E-03 0.  1.
    9900012    2    1    2    0    0  0.87914508414E-01  0.56930985950E+00 -0.10301463990E+01  0.90007727031E+02  0.89999988228E+02 0.  0.
         12    1    1    2    0    0 -0.87914508414E-01 -0.56930985950E+00  0.10301463990E+01  0.11802729685E+01  0.00000000000E+00 0. -1.
         11    1    3    3    0    0  0.54149949731E+01 -0.36167556367E+02  0.87678687928E+01  0.37607044919E+02  0.51100000000E-03 0. -1.
        -11    1    3    3    0    0  0.10385560254E+02 -0.76178937981E+00 -0.46992384493E+01  0.11424667484E+02  0.51100000000E-03 0.  1.
        -12    1    3    3    0    0 -0.15712640719E+02  0.37498655606E+02 -0.50987767425E+01  0.40976014629E+02  0.00000000000E+00 0.  1.
</event>
<event>
 7    1  0.2682188E-015  0.9000793E+02  0.7816164E-02  0.1186339E+00
        -11   -1    0    0    0    0  0.00000000000E+00  0.00000000000E+00  0.45593999997E+02  0.45594000000E+02  0.51100000000E-03 0.  1.
         11   -1    0    0    0    0 -0.00000000000E+00 -0.00000000000E+00 -0.45593999997E+02  0.45594000000E+02  0.51100000000E-03 0. -1.
    9900012    2    1    2    0    0  0.59919937684E+00  0.59067395833E+00  0.82742962951E+00  0.90007925676E+02  0.90000189495E+02 0.  0.
         12    1    1    2    0    0 -0.59919937684E+00 -0.59067395833E+00 -0.82742962951E+00  0.11800743239E+01  0.00000000000E+00 0. -1.
         11    1    3    3    0    0 -0.83495855983E+00 -0.12442033345E+02 -0.26310111092E+02  0.29115688134E+02  0.51100000000E-03 0. -1.
        -11    1    3    3    0    0  0.10845889418E+01 -0.20712476820E+02  0.94762685519E+01  0.22803129065E+02  0.51100000000E-03 0.  1.
         12    1    3    3    0    0  0.34956899492E+00  0.33745184123E+02  0.17661272170E+02  0.38089108478E+02  0.00000000000E+00 0. -1.
</event>
<event>
 7    1  0.2682188E-015  0.9000775E+02  0.7816164E-02  0.1186339E+00
        -11   -1    0    0    0    0  0.00000000000E+00  0.00000000000E+00  0.45593999997E+02  0.45594000000E+02  0.51100000000E-03 0. -1.
         11   -1    0    0    0    0 -0.00000000000E+00 -0.00000000000E+00 -0.45593999997E+02  0.45594000000E+02  0.51100000000E-03 0.  1.
    9900012    2    1    2    0    0 -0.63144125029E+00 -0.91328777062E-01 -0.99294320703E+00  0.90007747819E+02  0.90000009290E+02 0.  0.
         12    1    1    2    0    0  0.63144125029E+00  0.91328777062E-01  0.99294320703E+00  0.11802521809E+01  0.00000000000E+00 0. -1.
         11    1    3    3    0    0 -0.48045153900E+01 -0.45133552410E+01 -0.49856402906E+01  0.82650077454E+01  0.51100000000E-03 0. -1.
        -11    1    3    3    0    0  0.19675822064E+01 -0.25929792970E+02 -0.27569818033E+02  0.37898818053E+02  0.51100000000E-03 0.  1.
         12    1    3    3    0    0  0.22054919333E+01  0.30351819434E+02  0.31562515116E+02  0.43843922020E+02  0.00000000000E+00 0. -1.
</event>
<event>
 7    1  0.2682188E-015  0.9000769E+02  0.7816164E-02  0.1186339E+00
        -11   -1    0    0    0    0  0.00000000000E+00  0.00000000000E+00  0.45593999997E+02  0.45594000000E+02  0.51100000000E-03 0.  1.
         11   -1    0    0    0    0 -0.00000000000E+00 -0.00000000000E+00 -0.45593999997E+02  0.45594000000E+02  0.51100000000E-03 0. -1.
    9900012    2    1    2    0    0 -0.86101602510E+00 -0.45550149024E+00  0.66655606124E+00  0.90007691911E+02  0.89999952644E+02 0.  0.
         12    1    1    2    0    0  0.86101602510E+00  0.45550149024E+00 -0.66655606124E+00  0.11803080894E+01  0.00000000000E+00 0. -1.
         11    1    3    3    0    0 -0.19404035634E+01 -0.88433423915E+01 -0.22954459048E+01  0.93401789493E+01  0.51100000000E-03 0. -1.
        -11    1    3    3    0    0 -0.33919476269E+01  0.38370189469E+02  0.22493336464E+02  0.44606355311E+02  0.51100000000E-03 0.  1.
         12    1    3    3    0    0  0.44713351652E+01 -0.29982348568E+02 -0.19531334498E+02  0.36061157650E+02  0.00000000000E+00 0. -1.
</event>
<event>
 7    1  0.2682188E-015  0.9000768E+02  0.7816164E-02  0.1186339E+00
        -11   -1    0    0    0    0  0.00000000000E+00  0.00000000000E+00  0.45593999997E+02  0.45594000000E+02  0.51100000000E-03 0.  1.
         11   -1    0    0    0    0 -0.00000000000E+00 -0.00000000000E+00 -0.45593999997E+02  0.45594000000E+02  0.51100000000E-03 0. -1.
    9900012    2    1    2    0    0  0.94614337049E+00 -0.23308944035E-02  0.70566877260E+00  0.90007677533E+02  0.89999938076E+02 0.  0.
         12    1    1    2    0    0 -0.94614337049E+00  0.23308944035E-02 -0.70566877260E+00  0.11803224675E+01  0.00000000000E+00 0. -1.
         11    1    3    3    0    0 -0.27463148848E+02  0.23969721938E+02  0.15416937796E+02  0.39578454817E+02  0.51100000000E-03 0. -1.
        -11    1    3    3    0    0  0.37740185138E+01  0.71119585607E+01 -0.53814955678E+01  0.96841966688E+01  0.51100000000E-03 0.  1.
        -12    1    3    3    0    0  0.24635273705E+02 -0.31084011393E+02 -0.93297734556E+01  0.40745026047E+02  0.00000000000E+00 0.  1.
</event>
<event>
 7    1  0.2682188E-015  0.9000770E+02  0.7816164E-02  0.1186339E+00
        -11   -1    0    0    0    0  0.00000000000E+00  0.00000000000E+00  0.45593999997E+02  0.45594000000E+02  0.51100000000E-03 0. -1.
         11   -1    0    0    0    0 -0.00000000000E+00 -0.00000000000E+00 -0.45593999997E+02  0.45594000000E+02  0.51100000000E-03 0.  1.
    9900012    2    1    2    0    0  0.51219974302E+00  0.99992476663E+00  0.36181835655E+00  0.90007698920E+02  0.89999959746E+02 0.  0.
         12    1    1    2    0    0 -0.51219974302E+00 -0.99992476663E+00 -0.36181835655E+00  0.11803010797E+01  0.00000000000E+00 0. -1.
         11    1    3    3    0    0 -0.99345693804E+01 -0.20065317594E+01  0.29926142683E+01  0.10567761300E+02  0.51100000000E-03 0. -1.
        -11    1    3    3    0    0  0.19377360043E+02 -0.34048589066E+02  0.77500289287E+01  0.39935591247E+02  0.51100000000E-03 0.  1.
         12    1    3    3    0    0 -0.89305909191E+01  0.37055045592E+02 -0.10380824841E+02  0.39504346373E+02  0.00000000000E+00 0. -1.
</event>
<event>
 7    1  0.2682188E-015  0.9000772E+02  0.7816164E-02  0.1186339E+00
        -11   -1    0    0    0    0  0.00000000000E+00  0.00000000000E+00  0.45593999997E+02  0.45594000000E+02  0.51100000000E-03 0.  1.
         11   -1    0    0    0    0 -0.00000000000E+00 -0.00000000000E+00 -0.45593999997E+02  0.45594000000E+02  0.51100000000E-03 0. -1.
    9900012    2    1    2    0    0  0.57851871872E-01  0.47178574767E+00  0.10803394224E+01  0.90007719568E+02  0.89999980666E+02 0.  0.
         12    1    1    2    0    0 -0.57851871872E-01 -0.47178574767E+00 -0.10803394224E+01  0.11802804321E+01  0.00000000000E+00 0. -1.
         11    1    3    3    0    0  0.28475357577E+02  0.15329621655E+02 -0.18546555992E+02  0.37280263259E+02  0.51100000000E-03 0. -1.
        -11    1    3    3    0    0 -0.58616795560E+01  0.71881736234E+01 -0.68634807542E+01  0.11538478911E+02  0.51100000000E-03 0.  1.
        -12    1    3    3    0    0 -0.22555826150E+02 -0.22046009531E+02  0.26490376169E+02  0.41188977398E+02  0.00000000000E+00 0.  1.
</event>
<event>
 7    1  0.2682188E-015  0.9000772E+02  0.7816164E-02  0.1186339E+00
        -11   -1    0    0    0    0  0.00000000000E+00  0.00000000000E+00  0.45593999997E+02  0.45594000000E+02  0.51100000000E-03 0. -1.
         11   -1    0    0    0    0 -0.00000000000E+00 -0.00000000000E+00 -0.45593999997E+02  0.45594000000E+02  0.51100000000E-03 0.  1.
    9900012    2    1    2    0    0 -0.93258044629E+00  0.10346288485E+00 -0.71600158014E+00  0.90007716509E+02  0.89999977566E+02 0.  0.
         12    1    1    2    0    0  0.93258044629E+00 -0.10346288485E+00  0.71600158014E+00  0.11802834914E+01  0.00000000000E+00 0. -1.
         11    1    3    3    0    0 -0.96338695428E+01 -0.23174070993E+01 -0.13957522912E+00  0.99096568829E+01  0.51100000000E-03 0. -1.
        -11    1    3    3    0    0 -0.14905839662E+02  0.14841052377E+02  0.31813098729E+02  0.38138093065E+02  0.51100000000E-03 0.  1.
         12    1    3    3    0    0  0.23607128758E+02 -0.12420182393E+02 -0.32389525080E+02  0.41959966561E+02  0.00000000000E+00 0. -1.
</event>
<event>
 7    1  0.2682188E-015  0.9000783E+02  0.7816164E-02  0.1186339E+00
        -11   -1    0    0    0    0  0.00000000000E+00  0.00000000000E+00  0.45593999997E+02  0.45594000000E+02  0.51100000000E-03 0.  1.
         11   -1    0    0    0    0 -0.00000000000E+00 -0.00000000000E+00 -0.45593999997E+02  0.45594000000E+02  0.51100000000E-03 0. -1.
    9900012    2    1    2    0    0  0.73422232186E+00 -0.26933292865E-01  0.92357218777E+00  0.90007833314E+02  0.90000095914E+02 0.  0.
         12    1    1    2    0    0 -0.73422232186E+00  0.26933292865E-01 -0.92357218777E+00  0.11801666858E+01  0.00000000000E+00 0. -1.
         11    1    3    3    0    0 -0.52522347098E+01 -0.67167240128E+01 -0.52321864335E+01  0.10003805578E+02  0.51100000000E-03 0. -1.
        -11    1    3    3    0    0 -0.33107804283E+02 -0.11074777509E+02 -0.58922577648E+01  0.35404746902E+02  0.51100000000E-03 0.  1.
         12    1    3    3    0    0  0.39094261315E+02  0.17764568228E+02  0.12048016386E+02  0.44599280834E+02  0.00000000000E+00 0. -1.
</event>
<event>
 7    1  0.2682188E-015  0.9000769E+02  0.7816164E-02  0.1186339E+00
        -11   -1    0    0    0    0  0.00000000000E+00  0.00000000000E+00  0.45593999997E+02  0.45594000000E+02  0.51100000000E-03 0.  1.
         11   -1    0    0    0    0 -0.00000000000E+00 -0.00000000000E+00 -0.45593999997E+02  0.45594000000E+02  0.51100000000E-03 0. -1.
    9900012    2    1    2    0    0  0.13881101778E+00  0.10982358363E+01 -0.40955254243E+00  0.90007693372E+02  0.89999954125E+02 0.  0.
         12    1    1    2    0    0 -0.13881101778E+00 -0.10982358363E+01  0.40955254243E+00  0.11803066279E+01  0.00000000000E+00 0. -1.
         11    1    3    3    0    0  0.62847393825E+01 -0.28482684731E+01 -0.71920661149E+01  0.99667646537E+01  0.51100000000E-03 0. -1.
        -11    1    3    3    0    0  0.25546352774E+02  0.23397688194E+02  0.20678046966E+02  0.40344139345E+02  0.51100000000E-03 0.  1.
         12    1    3    3    0    0 -0.31692281138E+02 -0.19451183885E+02 -0.13895533394E+02  0.39696789374E+02  0.00000000000E+00 0. -1.
</event>
<event>
 7    1  0.2682188E-015  0.9000782E+02  0.7816164E-02  0.1186339E+00
        -11   -1    0    0    0    0  0.00000000000E+00  0.00000000000E+00  0.45593999997E+02  0.45594000000E+02  0.51100000000E-03 0.  1.
         11   -1    0    0    0    0 -0.00000000000E+00 -0.00000000000E+00 -0.45593999997E+02  0.45594000000E+02  0.51100000000E-03 0. -1.
    9900012    2    1    2    0    0 -0.12884743412E+00  0.67851861245E+00  0.95699365519E+00  0.90007819495E+02  0.90000081912E+02 0.  0.
         12    1    1    2    0    0  0.12884743412E+00 -0.67851861245E+00 -0.95699365519E+00  0.11801805052E+01  0.00000000000E+00 0. -1.
         11    1    3    3    0    0  0.36129862338E+01 -0.57544551969E+01 -0.72867991821E+01  0.99631755339E+01  0.51100000000E-03 0. -1.
        -11    1    3    3    0    0  0.21282327977E+02  0.32508816088E+02 -0.91764635432E+01  0.39924529941E+02  0.51100000000E-03 0.  1.
         12    1    3    3    0    0 -0.25024161645E+02 -0.26075842279E+02  0.17420256380E+02  0.40120114020E+02  0.00000000000E+00 0. -1.
</event>
<event>
 7    1  0.2682188E-015  0.9000776E+02  0.7816164E-02  0.1186339E+00
        -11   -1    0    0    0    0  0.00000000000E+00  0.00000000000E+00  0.45593999997E+02  0.45594000000E+02  0.51100000000E-03 0. -1.
         11   -1    0    0    0    0 -0.00000000000E+00 -0.00000000000E+00 -0.45593999997E+02  0.45594000000E+02  0.51100000000E-03 0.  1.
    9900012    2    1    2    0    0  0.45764153569E+00 -0.73139576683E+00 -0.80535218666E+00  0.90007759479E+02  0.90000021104E+02 0.  0.
         12    1    1    2    0    0 -0.45764153569E+00  0.73139576683E+00  0.80535218666E+00  0.11802405210E+01  0.00000000000E+00 0. -1.
         11    1    3    3    0    0  0.16680441267E+02  0.25085636137E+02  0.11534269945E+02  0.32257799750E+02  0.51100000000E-03 0. -1.
        -11    1    3    3    0    0  0.16954152993E+02 -0.94778599901E+01 -0.47811877842E+01  0.20003321989E+02  0.51100000000E-03 0.  1.
        -12    1    3    3    0    0 -0.33176952724E+02 -0.16339171914E+02 -0.75584343475E+01  0.37746637740E+02  0.00000000000E+00 0.  1.
</event>
<event>
 7    1  0.2682188E-015  0.9000777E+02  0.7816164E-02  0.1186339E+00
        -11   -1    0    0    0    0  0.00000000000E+00  0.00000000000E+00  0.45593999997E+02  0.45594000000E+02  0.51100000000E-03 0. -1.
         11   -1    0    0    0    0 -0.00000000000E+00 -0.00000000000E+00 -0.45593999997E+02  0.45594000000E+02  0.51100000000E-03 0.  1.
    9900012    2    1    2    0    0  0.94790616896E+00  0.16153043009E+00 -0.68433635856E+00  0.90007773566E+02  0.90000035377E+02 0.  0.
         12    1    1    2    0    0 -0.94790616896E+00 -0.16153043009E+00  0.68433635856E+00  0.11802264345E+01  0.00000000000E+00 0. -1.
         11    1    3    3    0    0  0.27625015801E+02 -0.22480775833E+02 -0.38064066824E+01  0.35819205912E+02  0.51100000000E-03 0. -1.
        -11    1    3    3    0    0  0.10499919829E+02  0.26610637789E+01 -0.36750437835E+01  0.11438335714E+02  0.51100000000E-03 0.  1.
        -12    1    3    3    0    0 -0.37177029460E+02  0.19981242484E+02  0.67971141073E+01  0.42750231940E+02  0.00000000000E+00 0.  1.
</event>
<event>
 7    1  0.2682188E-015  0.9000770E+02  0.7816164E-02  0.1186339E+00
        -11   -1    0    0    0    0  0.00000000000E+00  0.00000000000E+00  0.45593999997E+02  0.45594000000E+02  0.51100000000E-03 0.  1.
         11   -1    0    0    0    0 -0.00000000000E+00 -0.00000000000E+00 -0.45593999997E+02  0.45594000000E+02  0.51100000000E-03 0. -1.
    9900012    2    1    2    0    0  0.91099209316E+00 -0.41812971296E+00  0.62318916213E+00  0.90007701825E+02  0.89999962689E+02 0.  0.
         12    1    1    2    0    0 -0.91099209316E+00  0.41812971296E+00 -0.62318916213E+00  0.11802981752E+01  0.00000000000E+00 0. -1.
         11    1    3    3    0    0  0.23438894149E+02 -0.10627971080E+02 -0.27681351563E+02  0.37796729393E+02  0.51100000000E-03 0. -1.
        -11    1    3    3    0    0  0.10244803313E+01  0.86113237631E+01 -0.60168196989E+01  0.10554931381E+02  0.51100000000E-03 0.  1.
        -12    1    3    3    0    0 -0.23552382387E+02  0.15985176035E+01  0.34321360424E+02  0.41656041051E+02  0.00000000000E+00 0.  1.
</event>
<event>
 7    1  0.2682188E-015  0.9000776E+02  0.7816164E-02  0.1186339E+00
        -11   -1    0    0    0    0  0.00000000000E+00  0.00000000000E+00  0.45593999997E+02  0.45594000000E+02  0.51100000000E-03 0.  1.
         11   -1    0    0    0    0 -0.00000000000E+00 -0.00000000000E+00 -0.45593999997E+02  0.45594000000E+02  0.51100000000E-03 0. -1.
    9900012    2    1    2    0    0 -0.21085546897E+00  0.10971851994E+01  0.38036960538E+00  0.90007764249E+02  0.90000025937E+02 0.  0.
         12    1    1    2    0    0  0.21085546897E+00 -0.10971851994E+01 -0.38036960538E+00  0.11802357507E+01  0.00000000000E+00 0. -1.
         11    1    3    3    0    0  0.17185024697E+02  0.13406476556E+02  0.30368535831E+02  0.37380565221E+02  0.51100000000E-03 0. -1.
        -11    1    3    3    0    0  0.32462442412E+01  0.88820561829E+01  0.13255458528E+01  0.95491411016E+01  0.51100000000E-03 0.  1.
        -12    1    3    3    0    0 -0.20642124407E+02 -0.21191347539E+02 -0.31313712078E+02  0.43078057926E+02  0.00000000000E+00 0.  1.
</event>
<event>
 7    1  0.2682188E-015  0.9000777E+02  0.7816164E-02  0.1186339E+00
        -11   -1    0    0    0    0  0.00000000000E+00  0.00000000000E+00  0.45593999997E+02  0.45594000000E+02  0.51100000000E-03 0. -1.
         11   -1    0    0    0    0 -0.00000000000E+00 -0.00000000000E+00 -0.45593999997E+02  0.45594000000E+02  0.51100000000E-03 0.  1.
    9900012    2    1    2    0    0  0.64534623891E+00 -0.39787901127E+00 -0.90452310228E+00  0.90007770565E+02  0.90000032337E+02 0.  0.
         12    1    1    2    0    0 -0.64534623891E+00  0.39787901127E+00  0.90452310228E+00  0.11802294346E+01  0.00000000000E+00 0. -1.
         11    1    3    3    0    0  0.64298931450E+01  0.29728661484E+02  0.20336014696E+02  0.36588117381E+02  0.51100000000E-03 0. -1.
        -11    1    3    3    0    0  0.14623392583E+02 -0.43837274951E+01 -0.21290850883E+01  0.15414074120E+02  0.51100000000E-03 0.  1.
        -12    1    3    3    0    0 -0.20407939489E+02 -0.25742813000E+02 -0.19111452710E+02  0.38005579065E+02  0.00000000000E+00 0.  1.
</event>
<event>
 7    1  0.2682188E-015  0.9000775E+02  0.7816164E-02  0.1186339E+00
        -11   -1    0    0    0    0  0.00000000000E+00  0.00000000000E+00  0.45593999997E+02  0.45594000000E+02  0.51100000000E-03 0.  1.
         11   -1    0    0    0    0 -0.00000000000E+00 -0.00000000000E+00 -0.45593999997E+02  0.45594000000E+02  0.51100000000E-03 0. -1.
    9900012    2    1    2    0    0 -0.26684272068E+00 -0.11496000630E+01  0.14695859870E-01  0.90007745235E+02  0.90000006672E+02 0.  0.
         12    1    1    2    0    0  0.26684272068E+00  0.11496000630E+01 -0.14695859870E-01  0.11802547651E+01  0.00000000000E+00 0. -1.
         11    1    3    3    0    0  0.13648470727E+02 -0.34998251352E+02 -0.15497992535E+01  0.37597343376E+02  0.51100000000E-03 0. -1.
        -11    1    3    3    0    0 -0.40495733943E+01 -0.82043531178E+01 -0.53190877480E+00  0.91647903392E+01  0.51100000000E-03 0.  1.
        -12    1    3    3    0    0 -0.98657400538E+01  0.42053004407E+02  0.20964038882E+01  0.43245611520E+02  0.00000000000E+00 0.  1.
</event>
<event>
 7    1  0.2682188E-015  0.9000772E+02  0.7816164E-02  0.1186339E+00
        -11   -1    0    0    0    0  0.00000000000E+00  0.00000000000E+00  0.45593999997E+02  0.45594000000E+02  0.51100000000E-03 0.  1.
         11   -1    0    0    0    0 -0.00000000000E+00 -0.00000000000E+00 -0.45593999997E+02  0.45594000000E+02  0.51100000000E-03 0. -1.
    9900012    2    1    2    0    0 -0.19107262946E+00  0.89674062960E+00  0.74323732762E+00  0.90007722816E+02  0.89999983957E+02 0.  0.
         12    1    1    2    0    0  0.19107262946E+00 -0.89674062960E+00 -0.74323732762E+00  0.11802771843E+01  0.00000000000E+00 0. -1.
         11    1    3    3    0    0  0.32924682609E+02  0.15193336211E+02 -0.11847511764E+02  0.38147552023E+02  0.51100000000E-03 0. -1.
        -11    1    3    3    0    0  0.24141003329E+01  0.73241891299E+01  0.59539812203E+01  0.97427675463E+01  0.51100000000E-03 0.  1.
        -12    1    3    3    0    0 -0.35529855571E+02 -0.21620784711E+02  0.66367678718E+01  0.42117403246E+02  0.00000000000E+00 0.  1.
</event>
<event>
 7    1  0.2682188E-015  0.9000774E+02  0.7816164E-02  0.1186339E+00
        -11   -1    0    0    0    0  0.00000000000E+00  0.00000000000E+00  0.45593999997E+02  0.45594000000E+02  0.51100000000E-03 0. -1.
         11   -1    0    0    0    0 -0.00000000000E+00 -0.00000000000E+00 -0.45593999997E+02  0.45594000000E+02  0.51100000000E-03 0.  1.
    9900012    2    1    2    0    0  0.10559223681E+01 -0.21004092436E+00  0.48365293919E+00  0.90007741807E+02  0.90000003198E+02 0.  0.
         12    1    1    2    0    0 -0.10559223681E+01  0.21004092436E+00 -0.48365293919E+00  0.11802581934E+01  0.00000000000E+00 0. -1.
         11    1    3    3    0    0 -0.32499626184E+02 -0.60947160348E+01  0.18584598715E+02  0.37930971189E+02  0.51100000000E-03 0. -1.
        -11    1    3    3    0    0 -0.71114484951E+01  0.29734751334E+01 -0.52584803638E+01  0.93309093911E+01  0.51100000000E-03 0.  1.
        -12    1    3    3    0    0  0.40666997047E+02  0.29111999770E+01 -0.12842465412E+02  0.42745861227E+02  0.00000000000E+00 0.  1.
</event>
<event>
 7    1  0.2682188E-015  0.9000775E+02  0.7816164E-02  0.1186339E+00
        -11   -1    0    0    0    0  0.00000000000E+00  0.00000000000E+00  0.45593999997E+02  0.45594000000E+02  0.51100000000E-03 0.  1.
         11   -1    0    0    0    0 -0.00000000000E+00 -0.00000000000E+00 -0.45593999997E+02  0.45594000000E+02  0.51100000000E-03 0. -1.
    9900012    2    1    2    0    0 -0.33478435893E+00  0.32471233660E+00  0.10841954995E+01  0.90007746405E+02  0.90000007857E+02 0.  0.
         12    1    1    2    0    0  0.33478435893E+00 -0.32471233660E+00 -0.10841954995E+01  0.11802535955E+01  0.00000000000E+00 0. -1.
         11    1    3    3    0    0 -0.17523338695E+02 -0.23311392789E+02  0.28087518765E+02  0.40489469538E+02  0.51100000000E-03 0. -1.
        -11    1    3    3    0    0  0.61336854816E+01  0.36692210778E+01  0.60410405303E+01  0.93583893836E+01  0.51100000000E-03 0.  1.
        -12    1    3    3    0    0  0.11054868854E+02  0.19966884048E+02 -0.33044363796E+02  0.40159887483E+02  0.00000000000E+00 0.  1.
</event>
<event>
 7    1  0.2682188E-015  0.9000778E+02  0.7816164E-02  0.1186339E+00
        -11   -1    0    0    0    0  0.00000000000E+00  0.00000000000E+00  0.45593999997E+02  0.45594000000E+02  0.51100000000E-03 0.  1.
         11   -1    0    0    0    0 -0.00000000000E+00 -0.00000000000E+00 -0.45593999997E+02  0.45594000000E+02  0.51100000000E-03 0. -1.
    9900012    2    1    2    0    0 -0.69095107477E+00  0.28324849208E+00  0.91393357841E+00  0.90007780664E+02  0.90000042568E+02 0.  0.
         12    1    1    2    0    0  0.69095107477E+00 -0.28324849208E+00 -0.91393357841E+00  0.11802193363E+01  0.00000000000E+00 0. -1.
         11    1    3    3    0    0 -0.29096869566E+02  0.12438048283E+02 -0.14945185026E+02  0.34995591428E+02  0.51100000000E-03 0. -1.
        -11    1    3    3    0    0 -0.87264847442E+01 -0.12824558634E+02  0.38840175248E+01  0.15990823386E+02  0.51100000000E-03 0.  1.
        -12    1    3    3    0    0  0.37132403236E+02  0.66975884374E+00  0.11975101079E+02  0.39021365851E+02  0.00000000000E+00 0.  1.
</event>
<event>
 7    1  0.2682188E-015  0.9000715E+02  0.7816164E-02  0.1186340E+00
        -11   -1    0    0    0    0  0.00000000000E+00  0.00000000000E+00  0.45593999997E+02  0.45594000000E+02  0.51100000000E-03 0.  1.
         11   -1    0    0    0    0 -0.00000000000E+00 -0.00000000000E+00 -0.45593999997E+02  0.45594000000E+02  0.51100000000E-03 0. -1.
    9900012    2    1    2    0    0 -0.26937788712E+00 -0.42399714049E+00  0.10686735508E+01  0.90007152347E+02  0.89999405956E+02 0.  0.
         12    1    1    2    0    0  0.26937788712E+00  0.42399714049E+00 -0.10686735508E+01  0.11808476529E+01  0.00000000000E+00 0. -1.
         11    1    3    3    0    0 -0.19713215399E+01 -0.80104680525E+01  0.56164352472E+01  0.99798823731E+01  0.51100000000E-03 0. -1.
        -11    1    3    3    0    0  0.13783405046E+02 -0.28398713957E+02  0.17536920982E+02  0.36111117496E+02  0.51100000000E-03 0.  1.
         12    1    3    3    0    0 -0.12081461394E+02  0.35985184869E+02 -0.22084682678E+02  0.43916152478E+02  0.00000000000E+00 0. -1.
</event>
<event>
 7    1  0.2682188E-015  0.9000760E+02  0.7816164E-02  0.1186339E+00
        -11   -1    0    0    0    0  0.00000000000E+00  0.00000000000E+00  0.45593999997E+02  0.45594000000E+02  0.51100000000E-03 0.  1.
         11   -1    0    0    0    0 -0.00000000000E+00 -0.00000000000E+00 -0.45593999997E+02  0.45594000000E+02  0.51100000000E-03 0. -1.
    9900012    2    1    2    0    0  0.35080390770E+00  0.88020190503E+00  0.70393065720E+00  0.90007602971E+02  0.89999862530E+02 0.  0.
         12    1    1    2    0    0 -0.35080390770E+00 -0.88020190503E+00 -0.70393065720E+00  0.11803970287E+01  0.00000000000E+00 0. -1.
         11    1    3    3    0    0 -0.91854399901E+01 -0.12532894984E+02 -0.35651577856E+02  0.38890625714E+02  0.51100000000E-03 0. -1.
        -11    1    3    3    0    0  0.58788998089E+01 -0.73665945871E+01  0.40652522089E+00  0.94336335412E+01  0.51100000000E-03 0.  1.
        -12    1    3    3    0    0  0.36573440890E+01  0.20779691476E+02  0.35948983293E+02  0.41683343717E+02  0.00000000000E+00 0.  1.
</event>
<event>
 7    1  0.2682188E-015  0.9000783E+02  0.7816164E-02  0.1186339E+00
        -11   -1    0    0    0    0  0.00000000000E+00  0.00000000000E+00  0.45593999997E+02  0.45594000000E+02  0.51100000000E-03 0. -1.
         11   -1    0    0    0    0 -0.00000000000E+00 -0.00000000000E+00 -0.45593999997E+02  0.45594000000E+02  0.51100000000E-03 0.  1.
    9900012    2    1    2    0    0 -0.84990090072E+00  0.22885686142E+00 -0.78619657699E+00  0.90007825410E+02  0.90000087906E+02 0.  0.
         12    1    1    2    0    0  0.84990090072E+00 -0.22885686142E+00  0.78619657699E+00  0.11801745895E+01  0.00000000000E+00 0. -1.
         11    1    3    3    0    0  0.73920906562E+01  0.51079769033E+01  0.58971412115E+01  0.10747590755E+02  0.51100000000E-03 0. -1.
        -11    1    3    3    0    0 -0.40262007517E+02  0.11873315363E+02  0.22443387012E+01  0.42036197776E+02  0.51100000000E-03 0.  1.
         12    1    3    3    0    0  0.32020015960E+02 -0.16752435405E+02 -0.89276764897E+01  0.37224036879E+02  0.00000000000E+00 0. -1.
</event>
<event>
 7    1  0.2682188E-015  0.9000829E+02  0.7816164E-02  0.1186338E+00
        -11   -1    0    0    0    0  0.00000000000E+00  0.00000000000E+00  0.45593999997E+02  0.45594000000E+02  0.51100000000E-03 0.  1.
         11   -1    0    0    0    0 -0.00000000000E+00 -0.00000000000E+00 -0.45593999997E+02  0.45594000000E+02  0.51100000000E-03 0. -1.
    9900012    2    1    2    0    0  0.41196653175E+00 -0.78611864797E+00 -0.77719060799E+00  0.90008286394E+02  0.90000554972E+02 0.  0.
         12    1    1    2    0    0 -0.41196653175E+00  0.78611864797E+00  0.77719060799E+00  0.11797136064E+01  0.00000000000E+00 0. -1.
         11    1    3    3    0    0  0.44874020775E+01 -0.38058922205E+02  0.17710217266E+02  0.42216941299E+02  0.51100000000E-03 0. -1.
        -11    1    3    3    0    0 -0.20401555762E+01  0.69260923535E+01  0.54828933897E+01  0.90661518986E+01  0.51100000000E-03 0.  1.
        -12    1    3    3    0    0 -0.20352799696E+01  0.30346711203E+02 -0.23970301263E+02  0.38725193196E+02  0.00000000000E+00 0.  1.
</event>
<event>
 7    1  0.3108205E-015  0.9000779E+02  0.7816164E-02  0.1186339E+00
        -11   -1    0    0    0    0  0.00000000000E+00  0.00000000000E+00  0.45593999997E+02  0.45594000000E+02  0.51100000000E-03 0.  1.
         11   -1    0    0    0    0 -0.00000000000E+00 -0.00000000000E+00 -0.45593999997E+02  0.45594000000E+02  0.51100000000E-03 0. -1.
    9900012    2    1    2    0    0 -0.66774580923E+00  0.15605503140E+00  0.96054652702E+00  0.90007793548E+02  0.90000055623E+02 0.  0.
         12    1    1    2    0    0  0.66774580923E+00 -0.15605503140E+00 -0.96054652702E+00  0.11802064519E+01  0.00000000000E+00 0. -1.
         11    1    3    3    0    0  0.67702897199E+01  0.61596550593E+01 -0.14660561327E+01  0.92697084197E+01  0.51100000000E-03 0. -1.
        -11    1    3    3    0    0  0.25944152722E+02 -0.25373624501E+02  0.16224142502E+02  0.39751008553E+02  0.51100000000E-03 0.  1.
         12    1    3    3    0    0 -0.33382188251E+02  0.19370024473E+02 -0.13797539842E+02  0.40987076576E+02  0.00000000000E+00 0. -1.
</event>
<event>
 7    1  0.2682188E-015  0.9000715E+02  0.7816164E-02  0.1186340E+00
        -11   -1    0    0    0    0  0.00000000000E+00  0.00000000000E+00  0.45593999997E+02  0.45594000000E+02  0.51100000000E-03 0. -1.
         11   -1    0    0    0    0 -0.00000000000E+00 -0.00000000000E+00 -0.45593999997E+02  0.45594000000E+02  0.51100000000E-03 0.  1.
    9900012    2    1    2    0    0 -0.62960175003E-01  0.90786511862E+00 -0.75247811784E+00  0.90007150147E+02  0.89999403727E+02 0.  0.
         12    1    1    2    0    0  0.62960175003E-01 -0.90786511862E+00  0.75247811784E+00  0.11808498529E+01  0.00000000000E+00 0. -1.
         11    1    3    3    0    0 -0.20635214067E+02  0.34580560305E+02 -0.10285134845E+02  0.41562136731E+02  0.51100000000E-03 0. -1.
        -11    1    3    3    0    0 -0.21651061720E+01 -0.33465423072E+01 -0.62290264067E+01  0.73951200387E+01  0.51100000000E-03 0.  1.
        -12    1    3    3    0    0  0.22737360064E+02 -0.30326152879E+02  0.15761683134E+02  0.41049893378E+02  0.00000000000E+00 0.  1.
</event>
<event>
 7    1  0.2682188E-015  0.9000772E+02  0.7816164E-02  0.1186339E+00
        -11   -1    0    0    0    0  0.00000000000E+00  0.00000000000E+00  0.45593999997E+02  0.45594000000E+02  0.51100000000E-03 0. -1.
         11   -1    0    0    0    0 -0.00000000000E+00 -0.00000000000E+00 -0.45593999997E+02  0.45594000000E+02  0.51100000000E-03 0.  1.
    9900012    2    1    2    0    0  0.72513244325E+00 -0.87516078452E+00 -0.31832070017E+00  0.90007723961E+02  0.89999985118E+02 0.  0.
         12    1    1    2    0    0 -0.72513244325E+00  0.87516078452E+00  0.31832070017E+00  0.11802760385E+01  0.00000000000E+00 0. -1.
         11    1    3    3    0    0  0.16126610458E+01 -0.94077660506E+01  0.55881900043E+01  0.11060497525E+02  0.51100000000E-03 0. -1.
        -11    1    3    3    0    0 -0.28918323636E+02  0.20292779964E+02  0.18577942138E+02  0.39914988349E+02  0.51100000000E-03 0.  1.
         12    1    3    3    0    0  0.28030795033E+02 -0.11760174698E+02 -0.24484452842E+02  0.39032238087E+02  0.00000000000E+00 0. -1.
</event>
<event>
 7    1  0.2682188E-015  0.9000759E+02  0.7816164E-02  0.1186339E+00
        -11   -1    0    0    0    0  0.00000000000E+00  0.00000000000E+00  0.45593999997E+02  0.45594000000E+02  0.51100000000E-03 0.  1.
         11   -1    0    0    0    0 -0.00000000000E+00 -0.00000000000E+00 -0.45593999997E+02  0.45594000000E+02  0.51100000000E-03 0. -1.
    9900012    2    1    2    0    0  0.41758127705E+00  0.10907349396E+01 -0.17111697830E+00  0.90007594200E+02  0.89999853644E+02 0.  0.
         12    1    1    2    0    0 -0.41758127705E+00 -0.10907349396E+01  0.17111697830E+00  0.11804057996E+01  0.00000000000E+00 0. -1.
         11    1    3    3    0    0 -0.28716644043E+02 -0.29390111975E+02  0.65666030680E+01  0.41611832489E+02  0.51100000000E-03 0. -1.
        -11    1    3    3    0    0 -0.25489459338E+01  0.91562937869E+01 -0.32541830123E+01  0.10046121074E+02  0.51100000000E-03 0.  1.
        -12    1    3    3    0    0  0.31683171254E+02  0.21324553127E+02 -0.34835370340E+01  0.38349640638E+02  0.00000000000E+00 0.  1.
</event>
<event>
 7    1  0.2682188E-015  0.9000779E+02  0.7816164E-02  0.1186339E+00
        -11   -1    0    0    0    0  0.00000000000E+00  0.00000000000E+00  0.45593999997E+02  0.45594000000E+02  0.51100000000E-03 0.  1.
         11   -1    0    0    0    0 -0.00000000000E+00 -0.00000000000E+00 -0.45593999997E+02  0.45594000000E+02  0.51100000000E-03 0. -1.
    9900012    2    1    2    0    0 -0.69376047803E+00  0.86070559838E+00  0.41325485843E+00  0.90007789296E+02  0.90000051315E+02 0.  0.
         12    1    1    2    0    0  0.69376047803E+00 -0.86070559838E+00 -0.41325485843E+00  0.11802107041E+01  0.00000000000E+00 0. -1.
         11    1    3    3    0    0  0.58730061642E+01  0.12032725685E+01  0.53250413318E+01  0.80184868725E+01  0.51100000000E-03 0. -1.
        -11    1    3    3    0    0  0.44094008819E+01 -0.31312699220E+02  0.22817685554E+02  0.38994547348E+02  0.51100000000E-03 0.  1.
         12    1    3    3    0    0 -0.10976167524E+02  0.30970132250E+02 -0.27729472028E+02  0.42994755075E+02  0.00000000000E+00 0. -1.
</event>
<event>
 7    1  0.2682188E-015  0.9000770E+02  0.7816164E-02  0.1186339E+00
        -11   -1    0    0    0    0  0.00000000000E+00  0.00000000000E+00  0.45593999997E+02  0.45594000000E+02  0.51100000000E-03 0.  1.
         11   -1    0    0    0    0 -0.00000000000E+00 -0.00000000000E+00 -0.45593999997E+02  0.45594000000E+02  0.51100000000E-03 0. -1.
    9900012    2    1    2    0    0 -0.79953065619E+00 -0.43037485481E+00  0.75408007896E+00  0.90007699805E+02  0.89999960642E+02 0.  0.
         12    1    1    2    0    0  0.79953065619E+00  0.43037485481E+00 -0.75408007896E+00  0.11803001954E+01  0.00000000000E+00 0. -1.
         11    1    3    3    0    0  0.20675110553E+01 -0.11110506001E+02  0.24722836217E+01  0.11568497401E+02  0.51100000000E-03 0. -1.
        -11    1    3    3    0    0  0.24198778772E+02  0.13171439915E+02  0.27225743869E+02  0.38733820532E+02  0.51100000000E-03 0.  1.
         12    1    3    3    0    0 -0.27065820483E+02 -0.24913087693E+01 -0.28943947412E+02  0.39705381872E+02  0.00000000000E+00 0. -1.
</event>
<event>
 7    1  0.2682188E-015  0.9000787E+02  0.7816164E-02  0.1186339E+00
        -11   -1    0    0    0    0  0.00000000000E+00  0.00000000000E+00  0.45593999997E+02  0.45594000000E+02  0.51100000000E-03 0.  1.
         11   -1    0    0    0    0 -0.00000000000E+00 -0.00000000000E+00 -0.45593999997E+02  0.45594000000E+02  0.51100000000E-03 0. -1.
    9900012    2    1    2    0    0  0.99966319073E+00 -0.33222677958E+00 -0.53198723472E+00  0.90007867996E+02  0.90000131054E+02 0.  0.
         12    1    1    2    0    0 -0.99966319073E+00  0.33222677958E+00  0.53198723472E+00  0.11801320036E+01  0.00000000000E+00 0. -1.
         11    1    3    3    0    0  0.51031635874E+01 -0.19510192573E+01 -0.93369029004E+01  0.10817879218E+02  0.51100000000E-03 0. -1.
        -11    1    3    3    0    0  0.22430883214E+02  0.28917957229E+02 -0.81836147028E+01  0.37501524261E+02  0.51100000000E-03 0.  1.
         12    1    3    3    0    0 -0.26534383611E+02 -0.27299164751E+02  0.16988530369E+02  0.41688464517E+02  0.00000000000E+00 0. -1.
</event>
<event>
 7    1  0.2682188E-015  0.9000775E+02  0.7816164E-02  0.1186339E+00
        -11   -1    0    0    0    0  0.00000000000E+00  0.00000000000E+00  0.45593999997E+02  0.45594000000E+02  0.51100000000E-03 0. -1.
         11   -1    0    0    0    0 -0.00000000000E+00 -0.00000000000E+00 -0.45593999997E+02  0.45594000000E+02  0.51100000000E-03 0.  1.
    9900012    2    1    2    0    0 -0.66197758211E+00 -0.95493732198E+00  0.20704397668E+00  0.90007751375E+02  0.90000012893E+02 0.  0.
         12    1    1    2    0    0  0.66197758211E+00  0.95493732198E+00 -0.20704397668E+00  0.11802486248E+01  0.00000000000E+00 0. -1.
         11    1    3    3    0    0  0.19628696514E+02 -0.28066753274E+02  0.21860668783E+02  0.40631480481E+02  0.51100000000E-03 0. -1.
        -11    1    3    3    0    0  0.49324520234E+01  0.68006250358E+01  0.27354923913E+01  0.88351854946E+01  0.51100000000E-03 0.  1.
        -12    1    3    3    0    0 -0.25223126119E+02  0.20311190916E+02 -0.24389117198E+02  0.40541085399E+02  0.00000000000E+00 0.  1.
</event>
<event>
 7    1  0.2682188E-015  0.9000774E+02  0.7816164E-02  0.1186339E+00
        -11   -1    0    0    0    0  0.00000000000E+00  0.00000000000E+00  0.45593999997E+02  0.45594000000E+02  0.51100000000E-03 0.  1.
         11   -1    0    0    0    0 -0.00000000000E+00 -0.00000000000E+00 -0.45593999997E+02  0.45594000000E+02  0.51100000000E-03 0. -1.
    9900012    2    1    2    0    0  0.61530022143E+00 -0.80017535531E+00 -0.61166258429E+00  0.90007743215E+02  0.90000004625E+02 0.  0.
         12    1    1    2    0    0 -0.61530022143E+00  0.80017535531E+00  0.61166258429E+00  0.11802567851E+01  0.00000000000E+00 0. -1.
         11    1    3    3    0    0  0.15601859286E+02 -0.39873748448E+02 -0.10894841497E+02  0.44181799420E+02  0.51100000000E-03 0. -1.
        -11    1    3    3    0    0  0.10296702929E+01  0.63887421695E+01  0.65981176454E+01  0.92418290475E+01  0.51100000000E-03 0.  1.
        -12    1    3    3    0    0 -0.16016229358E+02  0.32684830923E+02  0.36850612671E+01  0.36584114747E+02  0.00000000000E+00 0.  1.
</event>
<event>
 7    1  0.2682188E-015  0.9000774E+02  0.7816164E-02  0.1186339E+00
        -11   -1    0    0    0    0  0.00000000000E+00  0.00000000000E+00  0.45593999997E+02  0.45594000000E+02  0.51100000000E-03 0.  1.
         11   -1    0    0    0    0 -0.00000000000E+00 -0.00000000000E+00 -0.45593999997E+02  0.45594000000E+02  0.51100000000E-03 0. -1.
    9900012    2    1    2    0    0 -0.60403417517E+00  0.24227881691E+00  0.98460687937E+00  0.90007742818E+02  0.90000004223E+02 0.  0.
         12    1    1    2    0    0  0.60403417517E+00 -0.24227881691E+00 -0.98460687937E+00  0.11802571825E+01  0.00000000000E+00 0. -1.
         11    1    3    3    0    0  0.16728409071E+02 -0.18856309501E+02 -0.33515229966E+02  0.41936508176E+02  0.51100000000E-03 0. -1.
        -11    1    3    3    0    0 -0.48896214760E+01 -0.45842906038E+01  0.75941148541E+01  0.10128904146E+02  0.51100000000E-03 0.  1.
        -12    1    3    3    0    0 -0.12442821770E+02  0.23682878922E+02  0.26905721991E+02  0.37942330496E+02  0.00000000000E+00 0.  1.
</event>
<event>
 7    1  0.2682188E-015  0.9000778E+02  0.7816164E-02  0.1186339E+00
        -11   -1    0    0    0    0  0.00000000000E+00  0.00000000000E+00  0.45593999997E+02  0.45594000000E+02  0.51100000000E-03 0.  1.
         11   -1    0    0    0    0 -0.00000000000E+00 -0.00000000000E+00 -0.45593999997E+02  0.45594000000E+02  0.51100000000E-03 0. -1.
    9900012    2    1    2    0    0 -0.31489600419E+00  0.65228604122E+00  0.93182164414E+00  0.90007776229E+02  0.90000038075E+02 0.  0.
         12    1    1    2    0    0  0.31489600419E+00 -0.65228604122E+00 -0.93182164414E+00  0.11802237710E+01  0.00000000000E+00 0. -1.
         11    1    3    3    0    0 -0.65316642567E+01 -0.56833268732E+01 -0.44573493520E+00  0.86695745111E+01  0.51100000000E-03 0. -1.
        -11    1    3    3    0    0  0.35128724117E+01 -0.20887462485E+02  0.33195003727E+02  0.39376828648E+02  0.51100000000E-03 0.  1.
         12    1    3    3    0    0  0.27038958408E+01  0.27223075399E+02 -0.31817447148E+02  0.41961373070E+02  0.00000000000E+00 0. -1.
</event>
<event>
 7    1  0.2682188E-015  0.9000782E+02  0.7816164E-02  0.1186339E+00
        -11   -1    0    0    0    0  0.00000000000E+00  0.00000000000E+00  0.45593999997E+02  0.45594000000E+02  0.51100000000E-03 0. -1.
         11   -1    0    0    0    0 -0.00000000000E+00 -0.00000000000E+00 -0.45593999997E+02  0.45594000000E+02  0.51100000000E-03 0.  1.
    9900012    2    1    2    0    0  0.29717137742E+00  0.10197157104E+01 -0.51449548848E+00  0.90007815029E+02  0.90000077388E+02 0.  0.
         12    1    1    2    0    0 -0.29717137742E+00 -0.10197157104E+01  0.51449548848E+00  0.11801849708E+01  0.00000000000E+00 0. -1.
         11    1    3    3    0    0 -0.12834997021E+02 -0.16401144076E+02  0.28797169852E+02  0.35538875436E+02  0.51100000000E-03 0. -1.
        -11    1    3    3    0    0  0.47726325547E-01 -0.24605655328E+00  0.96924517217E+01  0.96956919437E+01  0.51100000000E-03 0.  1.
        -12    1    3    3    0    0  0.13084442073E+02  0.17666916340E+02 -0.39004117062E+02  0.44773247649E+02  0.00000000000E+00 0.  1.
</event>
<event>
 7    1  0.2682188E-015  0.9000770E+02  0.7816164E-02  0.1186339E+00
        -11   -1    0    0    0    0  0.00000000000E+00  0.00000000000E+00  0.45593999997E+02  0.45594000000E+02  0.51100000000E-03 0.  1.
         11   -1    0    0    0    0 -0.00000000000E+00 -0.00000000000E+00 -0.45593999997E+02  0.45594000000E+02  0.51100000000E-03 0. -1.
    9900012    2    1    2    0    0  0.16230416182E+00  0.49034593170E+00  0.10612809475E+01  0.90007703841E+02  0.89999964732E+02 0.  0.
         12    1    1    2    0    0 -0.16230416182E+00 -0.49034593170E+00 -0.10612809475E+01  0.11802961591E+01  0.00000000000E+00 0. -1.
         11    1    3    3    0    0  0.51613799257E+01 -0.21430364885E+01  0.75318226273E+01  0.93787419454E+01  0.51100000000E-03 0. -1.
        -11    1    3    3    0    0 -0.13364664455E+02 -0.27368802577E+02  0.22675892799E+02  0.37971854380E+02  0.51100000000E-03 0.  1.
         12    1    3    3    0    0  0.83655886916E+01  0.30002184998E+02 -0.29146434479E+02  0.42657107516E+02  0.00000000000E+00 0. -1.
</event>
<event>
 7    1  0.2682188E-015  0.9000781E+02  0.7816164E-02  0.1186339E+00
        -11   -1    0    0    0    0  0.00000000000E+00  0.00000000000E+00  0.45593999997E+02  0.45594000000E+02  0.51100000000E-03 0.  1.
         11   -1    0    0    0    0 -0.00000000000E+00 -0.00000000000E+00 -0.45593999997E+02  0.45594000000E+02  0.51100000000E-03 0. -1.
    9900012    2    1    2    0    0 -0.53990118901E+00  0.67029573371E+00  0.80750118137E+00  0.90007810260E+02  0.90000072555E+02 0.  0.
         12    1    1    2    0    0  0.53990118901E+00 -0.67029573371E+00 -0.80750118137E+00  0.11801897400E+01  0.00000000000E+00 0. -1.
         11    1    3    3    0    0  0.34698567182E+02 -0.48940000580E+01 -0.35059574364E+01  0.35216949596E+02  0.51100000000E-03 0. -1.
        -11    1    3    3    0    0  0.70125988316E+01  0.21255762099E+01 -0.78012069945E+01  0.10702964422E+02  0.51100000000E-03 0.  1.
        -12    1    3    3    0    0 -0.42251067202E+02  0.34387195819E+01  0.12114665612E+02  0.44087896242E+02  0.00000000000E+00 0.  1.
</event>
<event>
 7    1  0.2682188E-015  0.9000773E+02  0.7816164E-02  0.1186339E+00
        -11   -1    0    0    0    0  0.00000000000E+00  0.00000000000E+00  0.45593999997E+02  0.45594000000E+02  0.51100000000E-03 0.  1.
         11   -1    0    0    0    0 -0.00000000000E+00 -0.00000000000E+00 -0.45593999997E+02  0.45594000000E+02  0.51100000000E-03 0. -1.
    9900012    2    1    2    0    0 -0.31977314819E+00 -0.11361128661E+01 -0.46525381452E-02  0.90007733523E+02  0.89999994805E+02 0.  0.
         12    1    1    2    0    0  0.31977314819E+00  0.11361128661E+01  0.46525381452E-02  0.11802664771E+01  0.00000000000E+00 0. -1.
         11    1    3    3    0    0 -0.29983913538E+01 -0.39959601198E+01 -0.75453849079E+01  0.90493580800E+01  0.51100000000E-03 0. -1.
        -11    1    3    3    0    0  0.38507116319E+02 -0.22005656314E+01 -0.11262045594E+02  0.40180519752E+02  0.51100000000E-03 0.  1.
         12    1    3    3    0    0 -0.35828498113E+02  0.50604128851E+01  0.18802777964E+02  0.40777855691E+02  0.00000000000E+00 0. -1.
</event>
