<event>
 7    1  0.7821043E-012  0.5930195E+02  0.7816164E-02  0.1266605E+00
        -11   -1    0    0    0    0  0.00000000000E+00  0.00000000000E+00  0.45593999997E+02  0.45594000000E+02  0.51100000000E-03 0. -1.
         11   -1    0    0    0    0 -0.00000000000E+00 -0.00000000000E+00 -0.45593999997E+02  0.45594000000E+02  0.51100000000E-03 0.  1.
    9900012    2    1    2    0    0 -0.21999395854E+01 -0.24546266349E+02 -0.20232681249E+02  0.59301947934E+02  0.50000007124E+02 0.  0.
         12    1    1    2    0    0  0.21999395854E+01  0.24546266349E+02  0.20232681249E+02  0.31886052066E+02  0.00000000000E+00 0. -1.
         11    1    3    3    0    0  0.15746801435E+02 -0.11914827644E+02  0.50134423737E+00  0.19752878765E+02  0.51100000000E-03 0. -1.
        -11    1    3    3    0    0 -0.88201174157E+01  0.70231958659E+01 -0.33330136683E+01  0.11757071564E+02  0.51100000000E-03 0.  1.
         12    1    3    3    0    0 -0.91266236046E+01 -0.19654634571E+02 -0.17401011818E+02  0.27791997604E+02  0.00000000000E+00 0. -1.
</event>
<event>
 7    1  0.7821043E-012  0.5930197E+02  0.7816164E-02  0.1266605E+00
        -11   -1    0    0    0    0  0.00000000000E+00  0.00000000000E+00  0.45593999997E+02  0.45594000000E+02  0.51100000000E-03 0.  1.
         11   -1    0    0    0    0 -0.00000000000E+00 -0.00000000000E+00 -0.45593999997E+02  0.45594000000E+02  0.51100000000E-03 0. -1.
    9900012    2    1    2    0    0 -0.15564063650E+02 -0.20176486735E+02  0.19167376418E+02  0.59301968371E+02  0.50000044396E+02 0.  0.
         12    1    1    2    0    0  0.15564063650E+02  0.20176486735E+02 -0.19167376418E+02  0.31886031629E+02  0.00000000000E+00 0. -1.
         11    1    3    3    0    0  0.20768075091E+01  0.87797319538E+01  0.14984244398E+02  0.17490694756E+02  0.51100000000E-03 0. -1.
        -11    1    3    3    0    0 -0.22882102157E+02 -0.18964487041E+02 -0.16398346371E+00  0.29719846209E+02  0.51100000000E-03 0.  1.
        -12    1    3    3    0    0  0.52412309971E+01 -0.99917316482E+01  0.43471154841E+01  0.12091427406E+02  0.00000000000E+00 0.  1.
</event>
<event>
 7    1  0.7821043E-012  0.5930197E+02  0.7816164E-02  0.1266605E+00
        -11   -1    0    0    0    0  0.00000000000E+00  0.00000000000E+00  0.45593999997E+02  0.45594000000E+02  0.51100000000E-03 0.  1.
         11   -1    0    0    0    0 -0.00000000000E+00 -0.00000000000E+00 -0.45593999997E+02  0.45594000000E+02  0.51100000000E-03 0. -1.
    9900012    2    1    2    0    0  0.12171385418E+02 -0.29861903382E+01  0.29319940296E+02  0.59301970854E+02  0.50000048925E+02 0.  0.
         12    1    1    2    0    0 -0.12171385418E+02  0.29861903382E+01 -0.29319940296E+02  0.31886029146E+02  0.00000000000E+00 0. -1.
         11    1    3    3    0    0  0.20332070000E+02  0.15094701577E+02  0.17716357802E+02  0.30904893144E+02  0.51100000000E-03 0. -1.
        -11    1    3    3    0    0  0.11496608372E+01 -0.16346605719E+02  0.82822143480E+01  0.18361054255E+02  0.51100000000E-03 0.  1.
         12    1    3    3    0    0 -0.93103454192E+01 -0.17342861966E+01  0.33213681456E+01  0.10036023455E+02  0.00000000000E+00 0. -1.
</event>
<event>
 7    1  0.7821043E-012  0.5930195E+02  0.7816164E-02  0.1266605E+00
        -11   -1    0    0    0    0  0.00000000000E+00  0.00000000000E+00  0.45593999997E+02  0.45594000000E+02  0.51100000000E-03 0. -1.
         11   -1    0    0    0    0 -0.00000000000E+00 -0.00000000000E+00 -0.45593999997E+02  0.45594000000E+02  0.51100000000E-03 0.  1.
    9900012    2    1    2    0    0 -0.15457252291E+02 -0.11736213160E+02 -0.25299307249E+02  0.59301948269E+02  0.50000007735E+02 0.  0.
         12    1    1    2    0    0  0.15457252291E+02  0.11736213160E+02  0.25299307249E+02  0.31886051731E+02  0.00000000000E+00 0. -1.
         11    1    3    3    0    0 -0.12365033505E+01 -0.81550403463E+01  0.84707274808E+01  0.11823148815E+02  0.51100000000E-03 0. -1.
        -11    1    3    3    0    0 -0.23873669759E+01 -0.77689289038E+01 -0.33965882775E+02  0.34924732932E+02  0.51100000000E-03 0.  1.
        -12    1    3    3    0    0 -0.11833381964E+02  0.41877560901E+01  0.19584804569E+00  0.12554066522E+02  0.00000000000E+00 0.  1.
</event>
<event>
 7    1  0.7821043E-012  0.5930193E+02  0.7816164E-02  0.1266605E+00
        -11   -1    0    0    0    0  0.00000000000E+00  0.00000000000E+00  0.45593999997E+02  0.45594000000E+02  0.51100000000E-03 0. -1.
         11   -1    0    0    0    0 -0.00000000000E+00 -0.00000000000E+00 -0.45593999997E+02  0.45594000000E+02  0.51100000000E-03 0.  1.
    9900012    2    1    2    0    0  0.25316301309E+02 -0.98490640019E+01 -0.16697364556E+02  0.59301934756E+02  0.49999983090E+02 0.  0.
         12    1    1    2    0    0 -0.25316301309E+02  0.98490640019E+01  0.16697364556E+02  0.31886065244E+02  0.00000000000E+00 0. -1.
         11    1    3    3    0    0 -0.56628063211E+01 -0.11183713798E+01  0.52872958520E+01  0.78277472916E+01  0.51100000000E-03 0. -1.
        -11    1    3    3    0    0  0.25214594457E+02 -0.19487432703E+01 -0.30179932512E+02  0.39375140643E+02  0.51100000000E-03 0.  1.
        -12    1    3    3    0    0  0.57645131721E+01 -0.67819493518E+01  0.81952721040E+01  0.12099046821E+02  0.00000000000E+00 0.  1.
</event>
<event>
 7    1  0.7821043E-012  0.5930193E+02  0.7816164E-02  0.1266605E+00
        -11   -1    0    0    0    0  0.00000000000E+00  0.00000000000E+00  0.45593999997E+02  0.45594000000E+02  0.51100000000E-03 0. -1.
         11   -1    0    0    0    0 -0.00000000000E+00 -0.00000000000E+00 -0.45593999997E+02  0.45594000000E+02  0.51100000000E-03 0.  1.
    9900012    2    1    2    0    0 -0.13707198352E+02  0.28513008126E+02  0.39802678659E+01  0.59301930136E+02  0.49999974665E+02 0.  0.
         12    1    1    2    0    0  0.13707198352E+02 -0.28513008126E+02 -0.39802678659E+01  0.31886069864E+02  0.00000000000E+00 0. -1.
         11    1    3    3    0    0 -0.22037128182E+00  0.37698488480E+02  0.86314841646E+01  0.38674631431E+02  0.51100000000E-03 0. -1.
        -11    1    3    3    0    0 -0.27944128853E+01 -0.55087461379E+01 -0.67255358076E+01  0.91316953271E+01  0.51100000000E-03 0.  1.
         12    1    3    3    0    0 -0.10692414185E+02 -0.36767342161E+01  0.20743195089E+01  0.11495603378E+02  0.00000000000E+00 0. -1.
</event>
<event>
 7    1  0.7821043E-012  0.5930194E+02  0.7816164E-02  0.1266605E+00
        -11   -1    0    0    0    0  0.00000000000E+00  0.00000000000E+00  0.45593999997E+02  0.45594000000E+02  0.51100000000E-03 0.  1.
         11   -1    0    0    0    0 -0.00000000000E+00 -0.00000000000E+00 -0.45593999997E+02  0.45594000000E+02  0.51100000000E-03 0. -1.
    9900012    2    1    2    0    0 -0.21325329068E+02 -0.13960566046E+02  0.19158645580E+02  0.59301940904E+02  0.49999994304E+02 0.  0.
         12    1    1    2    0    0  0.21325329068E+02  0.13960566046E+02 -0.19158645580E+02  0.31886059096E+02  0.00000000000E+00 0. -1.
         11    1    3    3    0    0  0.25754226817E+00  0.15043036955E+01 -0.13413779642E+02  0.13500323780E+02  0.51100000000E-03 0. -1.
        -11    1    3    3    0    0 -0.13631820848E+02 -0.49665059941E+01  0.28561061199E+02  0.32034777017E+02  0.51100000000E-03 0.  1.
        -12    1    3    3    0    0 -0.79510504883E+01 -0.10498363747E+02  0.40113640227E+01  0.13766840108E+02  0.00000000000E+00 0.  1.
</event>
<event>
 7    1  0.7821043E-012  0.5930193E+02  0.7816164E-02  0.1266605E+00
        -11   -1    0    0    0    0  0.00000000000E+00  0.00000000000E+00  0.45593999997E+02  0.45594000000E+02  0.51100000000E-03 0.  1.
         11   -1    0    0    0    0 -0.00000000000E+00 -0.00000000000E+00 -0.45593999997E+02  0.45594000000E+02  0.51100000000E-03 0. -1.
    9900012    2    1    2    0    0 -0.30313793715E+02  0.96968523745E+01  0.19407036569E+01  0.59301931474E+02  0.49999977105E+02 0.  0.
         12    1    1    2    0    0  0.30313793715E+02 -0.96968523745E+01 -0.19407036569E+01  0.31886068526E+02  0.00000000000E+00 0. -1.
         11    1    3    3    0    0  0.70627452539E+01  0.61143416160E+01  0.22417697232E+01  0.96069285244E+01  0.51100000000E-03 0. -1.
        -11    1    3    3    0    0 -0.18349429501E+02 -0.48745078967E+01 -0.15009366722E+02  0.24202137920E+02  0.51100000000E-03 0.  1.
        -12    1    3    3    0    0 -0.19027109468E+02  0.84570186552E+01  0.14708300656E+02  0.25492865029E+02  0.00000000000E+00 0.  1.
</event>
<event>
 7    1  0.7821043E-012  0.5930194E+02  0.7816164E-02  0.1266605E+00
        -11   -1    0    0    0    0  0.00000000000E+00  0.00000000000E+00  0.45593999997E+02  0.45594000000E+02  0.51100000000E-03 0.  1.
         11   -1    0    0    0    0 -0.00000000000E+00 -0.00000000000E+00 -0.45593999997E+02  0.45594000000E+02  0.51100000000E-03 0. -1.
    9900012    2    1    2    0    0 -0.29798988639E+01  0.72811091276E+01  0.30900262118E+02  0.59301944328E+02  0.50000000548E+02 0.  0.
         12    1    1    2    0    0  0.29798988639E+01 -0.72811091276E+01 -0.30900262118E+02  0.31886055672E+02  0.00000000000E+00 0. -1.
         11    1    3    3    0    0 -0.11248209785E+02  0.11274811375E+02  0.24301543261E+02  0.29055268026E+02  0.51100000000E-03 0. -1.
        -11    1    3    3    0    0  0.13035136814E+02  0.84379251532E+01  0.67502658549E+01  0.16931611324E+02  0.51100000000E-03 0.  1.
        -12    1    3    3    0    0 -0.47668258926E+01 -0.12431627400E+02 -0.15154699862E+00  0.13315064979E+02  0.00000000000E+00 0.  1.
</event>
<event>
 7    1  0.7821043E-012  0.5930192E+02  0.7816164E-02  0.1266605E+00
        -11   -1    0    0    0    0  0.00000000000E+00  0.00000000000E+00  0.45593999997E+02  0.45594000000E+02  0.51100000000E-03 0. -1.
         11   -1    0    0    0    0 -0.00000000000E+00 -0.00000000000E+00 -0.45593999997E+02  0.45594000000E+02  0.51100000000E-03 0.  1.
    9900012    2    1    2    0    0 -0.23706852784E+02  0.13197749523E+02 -0.16748937929E+02  0.59301915525E+02  0.49999948019E+02 0.  0.
         12    1    1    2    0    0  0.23706852784E+02 -0.13197749523E+02  0.16748937929E+02  0.31886084475E+02  0.00000000000E+00 0. -1.
         11    1    3    3    0    0  0.55629339516E+01 -0.10227419715E+02 -0.68705762784E+01  0.13518548992E+02  0.51100000000E-03 0. -1.
        -11    1    3    3    0    0 -0.33073977432E+02  0.16948366257E+02 -0.88402299969E+01  0.38200585972E+02  0.51100000000E-03 0.  1.
        -12    1    3    3    0    0  0.38041906971E+01  0.64768029809E+01 -0.10381316536E+01  0.75827805614E+01  0.00000000000E+00 0.  1.
</event>
<event>
 7    1  0.7821043E-012  0.5930198E+02  0.7816164E-02  0.1266605E+00
        -11   -1    0    0    0    0  0.00000000000E+00  0.00000000000E+00  0.45593999997E+02  0.45594000000E+02  0.51100000000E-03 0. -1.
         11   -1    0    0    0    0 -0.00000000000E+00 -0.00000000000E+00 -0.45593999997E+02  0.45594000000E+02  0.51100000000E-03 0.  1.
    9900012    2    1    2    0    0 -0.28908975921E+02 -0.13215081200E+02 -0.25200658461E+01  0.59301984385E+02  0.50000073602E+02 0.  0.
         12    1    1    2    0    0  0.28908975921E+02  0.13215081200E+02  0.25200658461E+01  0.31886015615E+02  0.00000000000E+00 0. -1.
         11    1    3    3    0    0 -0.61144441814E+01 -0.16170236019E+02  0.14816128314E+02  0.22767973538E+02  0.51100000000E-03 0. -1.
        -11    1    3    3    0    0 -0.14069743555E+02  0.49811728799E+01  0.21578974849E+01  0.15080659428E+02  0.51100000000E-03 0.  1.
         12    1    3    3    0    0 -0.87247881839E+01 -0.20260180616E+01 -0.19494091645E+02  0.21453351419E+02  0.00000000000E+00 0. -1.
</event>
<event>
 7    1  0.7821043E-012  0.5930195E+02  0.7816164E-02  0.1266605E+00
        -11   -1    0    0    0    0  0.00000000000E+00  0.00000000000E+00  0.45593999997E+02  0.45594000000E+02  0.51100000000E-03 0.  1.
         11   -1    0    0    0    0 -0.00000000000E+00 -0.00000000000E+00 -0.45593999997E+02  0.45594000000E+02  0.51100000000E-03 0. -1.
    9900012    2    1    2    0    0 -0.18490591990E+02  0.10865255448E+02  0.23595862264E+02  0.59301945304E+02  0.50000002328E+02 0.  0.
         12    1    1    2    0    0  0.18490591990E+02 -0.10865255448E+02 -0.23595862264E+02  0.31886054696E+02  0.00000000000E+00 0. -1.
         11    1    3    3    0    0  0.63932495608E+01  0.76393052552E+01  0.14210565579E+02  0.17354330845E+02  0.51100000000E-03 0. -1.
        -11    1    3    3    0    0 -0.26260398322E+02 -0.91838562521E+01  0.96863740562E+01  0.29458064742E+02  0.51100000000E-03 0.  1.
        -12    1    3    3    0    0  0.13765567722E+01  0.12409806445E+02 -0.30107737135E+00  0.12489549717E+02  0.00000000000E+00 0.  1.
</event>
<event>
 7    1  0.7821043E-012  0.5930197E+02  0.7816164E-02  0.1266605E+00
        -11   -1    0    0    0    0  0.00000000000E+00  0.00000000000E+00  0.45593999997E+02  0.45594000000E+02  0.51100000000E-03 0.  1.
         11   -1    0    0    0    0 -0.00000000000E+00 -0.00000000000E+00 -0.45593999997E+02  0.45594000000E+02  0.51100000000E-03 0. -1.
    9900012    2    1    2    0    0  0.31426404282E+02  0.50954569048E+01 -0.17710025020E+01  0.59301968308E+02  0.50000044282E+02 0.  0.
         12    1    1    2    0    0 -0.31426404282E+02 -0.50954569048E+01  0.17710025020E+01  0.31886031692E+02  0.00000000000E+00 0. -1.
         11    1    3    3    0    0  0.14404717718E+02 -0.10759141921E+02 -0.42094492261E+01  0.18465494590E+02  0.51100000000E-03 0. -1.
        -11    1    3    3    0    0  0.16494909538E+02  0.58022769758E+01  0.16166108885E+02  0.23813683787E+02  0.51100000000E-03 0.  1.
         12    1    3    3    0    0  0.52677702571E+00  0.10052321850E+02 -0.13727662161E+02  0.17022789930E+02  0.00000000000E+00 0. -1.
</event>
<event>
 7    1  0.7821043E-012  0.5930195E+02  0.7816164E-02  0.1266605E+00
        -11   -1    0    0    0    0  0.00000000000E+00  0.00000000000E+00  0.45593999997E+02  0.45594000000E+02  0.51100000000E-03 0. -1.
         11   -1    0    0    0    0 -0.00000000000E+00 -0.00000000000E+00 -0.45593999997E+02  0.45594000000E+02  0.51100000000E-03 0.  1.
    9900012    2    1    2    0    0 -0.32473696081E+00  0.31849036545E+02 -0.15013032823E+01  0.59301945141E+02  0.50000002031E+02 0.  0.
         12    1    1    2    0    0  0.32473696081E+00 -0.31849036545E+02  0.15013032823E+01  0.31886054859E+02  0.00000000000E+00 0. -1.
         11    1    3    3    0    0 -0.22863507932E+02  0.13362402985E+02  0.72339129033E+00  0.26491830886E+02  0.51100000000E-03 0. -1.
        -11    1    3    3    0    0  0.14438442881E+02  0.19785625730E+02 -0.98782391845E+00  0.24513576131E+02  0.51100000000E-03 0.  1.
         12    1    3    3    0    0  0.81003280900E+01 -0.12989921707E+01 -0.12368706542E+01  0.82965381238E+01  0.00000000000E+00 0. -1.
</event>
<event>
 7    1  0.7821043E-012  0.5930175E+02  0.7816164E-02  0.1266605E+00
        -11   -1    0    0    0    0  0.00000000000E+00  0.00000000000E+00  0.45593999997E+02  0.45594000000E+02  0.51100000000E-03 0. -1.
         11   -1    0    0    0    0 -0.00000000000E+00 -0.00000000000E+00 -0.45593999997E+02  0.45594000000E+02  0.51100000000E-03 0.  1.
    9900012    2    1    2    0    0 -0.88214262510E+01  0.17721535354E+02 -0.24997248796E+02  0.59301751808E+02  0.49999649435E+02 0.  0.
         12    1    1    2    0    0  0.88214262510E+01 -0.17721535354E+02  0.24997248796E+02  0.31886248192E+02  0.00000000000E+00 0. -1.
         11    1    3    3    0    0  0.70191908456E+01 -0.14350651723E+02 -0.49218046884E+01  0.16716291653E+02  0.51100000000E-03 0.  1.
        -11    1    3    3    0    0 -0.85662176830E+01  0.23405156584E+02 -0.18758298271E+02  0.31193832635E+02  0.51100000000E-03 0. -1.
         12    1    3    3    0    0 -0.72743994137E+01  0.86670304926E+01 -0.13171458363E+01  0.11391627520E+02  0.00000000000E+00 0. -1.
</event>
<event>
 7    1  0.7821043E-012  0.5930195E+02  0.7816164E-02  0.1266605E+00
        -11   -1    0    0    0    0  0.00000000000E+00  0.00000000000E+00  0.45593999997E+02  0.45594000000E+02  0.51100000000E-03 0.  1.
         11   -1    0    0    0    0 -0.00000000000E+00 -0.00000000000E+00 -0.45593999997E+02  0.45594000000E+02  0.51100000000E-03 0. -1.
    9900012    2    1    2    0    0 -0.51848826441E+01 -0.36956770252E+01  0.31243863416E+02  0.59301952301E+02  0.50000015088E+02 0.  0.
         12    1    1    2    0    0  0.51848826441E+01  0.36956770252E+01 -0.31243863416E+02  0.31886047699E+02  0.00000000000E+00 0. -1.
         11    1    3    3    0    0  0.66259528614E+01  0.23061425603E+01 -0.28429163877E+01  0.75699219731E+01  0.51100000000E-03 0. -1.
        -11    1    3    3    0    0 -0.12862096483E+02  0.32904043487E+00  0.40599050986E+02  0.42589021294E+02  0.51100000000E-03 0.  1.
        -12    1    3    3    0    0  0.10512609778E+01 -0.63308600204E+01 -0.65122711822E+01  0.91430090338E+01  0.00000000000E+00 0.  1.
</event>
<event>
 7    1  0.7821043E-012  0.5930171E+02  0.7816164E-02  0.1266606E+00
        -11   -1    0    0    0    0  0.00000000000E+00  0.00000000000E+00  0.45593999997E+02  0.45594000000E+02  0.51100000000E-03 0.  1.
         11   -1    0    0    0    0 -0.00000000000E+00 -0.00000000000E+00 -0.45593999997E+02  0.45594000000E+02  0.51100000000E-03 0. -1.
    9900012    2    1    2    0    0  0.77005771605E+01  0.30473512732E+02 -0.53666932475E+01  0.59301713555E+02  0.49999579671E+02 0.  0.
         12    1    1    2    0    0 -0.77005771605E+01 -0.30473512732E+02  0.53666932475E+01  0.31886286445E+02  0.00000000000E+00 0. -1.
         11    1    3    3    0    0 -0.36276629961E+01  0.40344267501E+00 -0.88257375859E+01  0.95507250511E+01  0.51100000000E-03 0. -1.
        -11    1    3    3    0    0  0.19511774457E+02  0.86038804827E+01  0.12889670600E+02  0.24917457941E+02  0.51100000000E-03 0.  1.
        -12    1    3    3    0    0 -0.81835343003E+01  0.21466189575E+02 -0.94306262617E+01  0.24833530562E+02  0.00000000000E+00 0.  1.
</event>
<event>
 7    1  0.7821043E-012  0.5930194E+02  0.7816164E-02  0.1266605E+00
        -11   -1    0    0    0    0  0.00000000000E+00  0.00000000000E+00  0.45593999997E+02  0.45594000000E+02  0.51100000000E-03 0. -1.
         11   -1    0    0    0    0 -0.00000000000E+00 -0.00000000000E+00 -0.45593999997E+02  0.45594000000E+02  0.51100000000E-03 0.  1.
    9900012    2    1    2    0    0 -0.13895689263E+02 -0.16487616137E+01 -0.28651562857E+02  0.59301942717E+02  0.49999997609E+02 0.  0.
         12    1    1    2    0    0  0.13895689263E+02  0.16487616137E+01  0.28651562857E+02  0.31886057283E+02  0.00000000000E+00 0. -1.
         11    1    3    3    0    0 -0.63800768813E+00  0.18208601749E+02 -0.13024969984E+02  0.22396653206E+02  0.51100000000E-03 0. -1.
        -11    1    3    3    0    0 -0.13856048371E+01 -0.17979246928E+02 -0.11216952587E+01  0.18067413245E+02  0.51100000000E-03 0.  1.
         12    1    3    3    0    0 -0.11872076738E+02 -0.18781164356E+01 -0.14504897614E+02  0.18837876266E+02  0.00000000000E+00 0. -1.
</event>
<event>
 7    1  0.7821043E-012  0.5930222E+02  0.7816164E-02  0.1266604E+00
        -11   -1    0    0    0    0  0.00000000000E+00  0.00000000000E+00  0.45593999997E+02  0.45594000000E+02  0.51100000000E-03 0. -1.
         11   -1    0    0    0    0 -0.00000000000E+00 -0.00000000000E+00 -0.45593999997E+02  0.45594000000E+02  0.51100000000E-03 0.  1.
    9900012    2    1    2    0    0 -0.30265463815E+02  0.28697785653E+01  0.96160905305E+01  0.59302217493E+02  0.50000498733E+02 0.  0.
         12    1    1    2    0    0  0.30265463815E+02 -0.28697785653E+01 -0.96160905305E+01  0.31885782507E+02  0.00000000000E+00 0. -1.
         11    1    3    3    0    0  0.61368132297E+01  0.80656941136E+01  0.11887669126E+02  0.15621542038E+02  0.51100000000E-03 0. -1.
        -11    1    3    3    0    0 -0.25770510144E+02 -0.84507569338E+01 -0.11277571930E+02  0.29372063508E+02  0.51100000000E-03 0.  1.
         12    1    3    3    0    0 -0.10631766902E+02  0.32548413855E+01  0.90059933349E+01  0.14308611947E+02  0.00000000000E+00 0. -1.
</event>
<event>
 7    1  0.7821043E-012  0.5930193E+02  0.7816164E-02  0.1266605E+00
        -11   -1    0    0    0    0  0.00000000000E+00  0.00000000000E+00  0.45593999997E+02  0.45594000000E+02  0.51100000000E-03 0. -1.
         11   -1    0    0    0    0 -0.00000000000E+00 -0.00000000000E+00 -0.45593999997E+02  0.45594000000E+02  0.51100000000E-03 0.  1.
    9900012    2    1    2    0    0  0.40925992627E+01  0.26921946757E+02 -0.16588568674E+02  0.59301934132E+02  0.49999981952E+02 0.  0.
         12    1    1    2    0    0 -0.40925992627E+01 -0.26921946757E+02  0.16588568674E+02  0.31886065868E+02  0.00000000000E+00 0. -1.
         11    1    3    3    0    0  0.77254182895E+01  0.37010117455E+02 -0.12143362095E+02  0.39710101045E+02  0.51100000000E-03 0.  1.
        -11    1    3    3    0    0  0.27996975621E+01 -0.28011371598E+01 -0.82518589880E+01  0.91530242459E+01  0.51100000000E-03 0. -1.
         12    1    3    3    0    0 -0.64325165889E+01 -0.72870335384E+01  0.38066524084E+01  0.10438808841E+02  0.00000000000E+00 0. -1.
</event>
<event>
 7    1  0.7821043E-012  0.5930195E+02  0.7816164E-02  0.1266605E+00
        -11   -1    0    0    0    0  0.00000000000E+00  0.00000000000E+00  0.45593999997E+02  0.45594000000E+02  0.51100000000E-03 0. -1.
         11   -1    0    0    0    0 -0.00000000000E+00 -0.00000000000E+00 -0.45593999997E+02  0.45594000000E+02  0.51100000000E-03 0.  1.
    9900012    2    1    2    0    0 -0.18704202557E+02 -0.80477528817E+01 -0.24537857247E+02  0.59301953553E+02  0.50000017372E+02 0.  0.
         12    1    1    2    0    0  0.18704202557E+02  0.80477528817E+01  0.24537857247E+02  0.31886046447E+02  0.00000000000E+00 0. -1.
         11    1    3    3    0    0  0.70154451939E+01  0.49373155884E+01  0.27763708222E+01  0.90167506171E+01  0.51100000000E-03 0. -1.
        -11    1    3    3    0    0 -0.12438761847E+02 -0.10079683486E+02 -0.32101152503E+02  0.35872089537E+02  0.51100000000E-03 0.  1.
        -12    1    3    3    0    0 -0.13280885905E+02 -0.29053849842E+01  0.47869244342E+01  0.14413113399E+02  0.00000000000E+00 0.  1.
</event>
<event>
 7    1  0.7821043E-012  0.5930207E+02  0.7816164E-02  0.1266604E+00
        -11   -1    0    0    0    0  0.00000000000E+00  0.00000000000E+00  0.45593999997E+02  0.45594000000E+02  0.51100000000E-03 0.  1.
         11   -1    0    0    0    0 -0.00000000000E+00 -0.00000000000E+00 -0.45593999997E+02  0.45594000000E+02  0.51100000000E-03 0. -1.
    9900012    2    1    2    0    0  0.28287589727E+02 -0.13957180443E+02  0.46606824853E+01  0.59302069251E+02  0.50000228377E+02 0.  0.
         12    1    1    2    0    0 -0.28287589727E+02  0.13957180443E+02 -0.46606824853E+01  0.31885930749E+02  0.00000000000E+00 0. -1.
         11    1    3    3    0    0  0.13994937567E+02  0.13059643358E+02 -0.11013033091E+02  0.22083918589E+02  0.51100000000E-03 0. -1.
        -11    1    3    3    0    0  0.35878595755E+00 -0.14001343792E+02  0.10370121637E+02  0.17427156348E+02  0.51100000000E-03 0.  1.
        -12    1    3    3    0    0  0.13933866203E+02 -0.13015480010E+02  0.53035939393E+01  0.19790994314E+02  0.00000000000E+00 0.  1.
</event>
<event>
 7    1  0.7821043E-012  0.5930195E+02  0.7816164E-02  0.1266605E+00
        -11   -1    0    0    0    0  0.00000000000E+00  0.00000000000E+00  0.45593999997E+02  0.45594000000E+02  0.51100000000E-03 0.  1.
         11   -1    0    0    0    0 -0.00000000000E+00 -0.00000000000E+00 -0.45593999997E+02  0.45594000000E+02  0.51100000000E-03 0. -1.
    9900012    2    1    2    0    0 -0.27988097114E+02  0.40572412851E+01  0.14728395991E+02  0.59301946068E+02  0.50000003720E+02 0.  0.
         12    1    1    2    0    0  0.27988097114E+02 -0.40572412851E+01 -0.14728395991E+02  0.31886053932E+02  0.00000000000E+00 0. -1.
         11    1    3    3    0    0  0.76475852438E+01 -0.58049577183E+01 -0.80543564924E+01  0.12532188673E+02  0.51100000000E-03 0. -1.
        -11    1    3    3    0    0 -0.58645577467E+01 -0.62315835012E+00  0.12076813275E+02  0.13439895202E+02  0.51100000000E-03 0.  1.
         12    1    3    3    0    0 -0.29771124611E+02  0.10485357354E+02  0.10705939209E+02  0.33329862193E+02  0.00000000000E+00 0. -1.
</event>
<event>
 7    1  0.7821043E-012  0.5930196E+02  0.7816164E-02  0.1266605E+00
        -11   -1    0    0    0    0  0.00000000000E+00  0.00000000000E+00  0.45593999997E+02  0.45594000000E+02  0.51100000000E-03 0. -1.
         11   -1    0    0    0    0 -0.00000000000E+00 -0.00000000000E+00 -0.45593999997E+02  0.45594000000E+02  0.51100000000E-03 0.  1.
    9900012    2    1    2    0    0 -0.19819230362E+02 -0.23963244456E+02 -0.70484317577E+01  0.59301962817E+02  0.50000034267E+02 0.  0.
         12    1    1    2    0    0  0.19819230362E+02  0.23963244456E+02  0.70484317577E+01  0.31886037183E+02  0.00000000000E+00 0. -1.
         11    1    3    3    0    0  0.25282734267E+01 -0.84956236691E+00  0.10171813049E+02  0.10515688456E+02  0.51100000000E-03 0. -1.
        -11    1    3    3    0    0 -0.30009215574E+02 -0.13592284857E+02 -0.93312579329E+01  0.34239970822E+02  0.51100000000E-03 0.  1.
         12    1    3    3    0    0  0.76617117856E+01 -0.95213972322E+01 -0.78889868743E+01  0.14546303539E+02  0.00000000000E+00 0. -1.
</event>
<event>
 7    1  0.7821043E-012  0.5930194E+02  0.7816164E-02  0.1266605E+00
        -11   -1    0    0    0    0  0.00000000000E+00  0.00000000000E+00  0.45593999997E+02  0.45594000000E+02  0.51100000000E-03 0.  1.
         11   -1    0    0    0    0 -0.00000000000E+00 -0.00000000000E+00 -0.45593999997E+02  0.45594000000E+02  0.51100000000E-03 0. -1.
    9900012    2    1    2    0    0  0.22713423651E+02  0.15887466587E+02 -0.15761014201E+02  0.59301940708E+02  0.49999993946E+02 0.  0.
         12    1    1    2    0    0 -0.22713423651E+02 -0.15887466587E+02  0.15761014201E+02  0.31886059292E+02  0.00000000000E+00 0. -1.
         11    1    3    3    0    0  0.24091874965E+02 -0.41870441026E+01 -0.27236585241E+00  0.24454528437E+02  0.51100000000E-03 0.  1.
        -11    1    3    3    0    0 -0.10622225223E+02  0.67364999666E+01 -0.24192480130E+00  0.12580565502E+02  0.51100000000E-03 0. -1.
         12    1    3    3    0    0  0.92437739087E+01  0.13338010723E+02 -0.15246723547E+02  0.22266846770E+02  0.00000000000E+00 0. -1.
</event>
<event>
 7    1  0.7821043E-012  0.5930195E+02  0.7816164E-02  0.1266605E+00
        -11   -1    0    0    0    0  0.00000000000E+00  0.00000000000E+00  0.45593999997E+02  0.45594000000E+02  0.51100000000E-03 0.  1.
         11   -1    0    0    0    0 -0.00000000000E+00 -0.00000000000E+00 -0.45593999997E+02  0.45594000000E+02  0.51100000000E-03 0. -1.
    9900012    2    1    2    0    0 -0.10050883870E+01 -0.95438199975E+01  0.30407657721E+02  0.59301947392E+02  0.50000006136E+02 0.  0.
         12    1    1    2    0    0  0.10050883870E+01  0.95438199975E+01 -0.30407657721E+02  0.31886052608E+02  0.00000000000E+00 0. -1.
         11    1    3    3    0    0 -0.12700567688E+02 -0.23312186745E+02  0.18650049726E+02  0.32443594521E+02  0.51100000000E-03 0. -1.
        -11    1    3    3    0    0 -0.27810392878E+00  0.90152727330E+01  0.10608759715E+02  0.13924735804E+02  0.51100000000E-03 0.  1.
         12    1    3    3    0    0  0.11973583230E+02  0.47530940141E+01  0.11488482802E+01  0.12933617067E+02  0.00000000000E+00 0. -1.
</event>
<event>
 7    1  0.7821043E-012  0.5930193E+02  0.7816164E-02  0.1266605E+00
        -11   -1    0    0    0    0  0.00000000000E+00  0.00000000000E+00  0.45593999997E+02  0.45594000000E+02  0.51100000000E-03 0. -1.
         11   -1    0    0    0    0 -0.00000000000E+00 -0.00000000000E+00 -0.45593999997E+02  0.45594000000E+02  0.51100000000E-03 0.  1.
    9900012    2    1    2    0    0 -0.20891404180E+01 -0.10404710633E+00 -0.31817384256E+02  0.59301932911E+02  0.49999979726E+02 0.  0.
         12    1    1    2    0    0  0.20891404180E+01  0.10404710633E+00  0.31817384256E+02  0.31886067089E+02  0.00000000000E+00 0. -1.
         11    1    3    3    0    0  0.37148640633E+01  0.52290155998E+01 -0.43232516688E-01  0.64144125580E+01  0.51100000000E-03 0. -1.
        -11    1    3    3    0    0 -0.74708420167E+01  0.15372167658E+01 -0.40752384150E+02  0.41460020863E+02  0.51100000000E-03 0.  1.
        -12    1    3    3    0    0  0.16668375354E+01 -0.68702794719E+01  0.89782324101E+01  0.11427499490E+02  0.00000000000E+00 0.  1.
</event>
<event>
 7    1  0.7821043E-012  0.5930199E+02  0.7816164E-02  0.1266605E+00
        -11   -1    0    0    0    0  0.00000000000E+00  0.00000000000E+00  0.45593999997E+02  0.45594000000E+02  0.51100000000E-03 0.  1.
         11   -1    0    0    0    0 -0.00000000000E+00 -0.00000000000E+00 -0.45593999997E+02  0.45594000000E+02  0.51100000000E-03 0. -1.
    9900012    2    1    2    0    0 -0.18714408605E+02 -0.25816426678E+02  0.29140762906E-01  0.59301987000E+02  0.50000078371E+02 0.  0.
         12    1    1    2    0    0  0.18714408605E+02  0.25816426678E+02 -0.29140762906E-01  0.31886013000E+02  0.00000000000E+00 0. -1.
         11    1    3    3    0    0  0.19573004651E+01 -0.11563438996E+02  0.17794239811E+02  0.21311478533E+02  0.51100000000E-03 0. -1.
        -11    1    3    3    0    0 -0.87103488807E+01  0.50724555231E+01 -0.18588670948E+01  0.10249652179E+02  0.51100000000E-03 0.  1.
         12    1    3    3    0    0 -0.11961360190E+02 -0.19325443205E+02 -0.15906231953E+02  0.27740856288E+02  0.00000000000E+00 0. -1.
</event>
<event>
 7    1  0.7821043E-012  0.5930194E+02  0.7816164E-02  0.1266605E+00
        -11   -1    0    0    0    0  0.00000000000E+00  0.00000000000E+00  0.45593999997E+02  0.45594000000E+02  0.51100000000E-03 0.  1.
         11   -1    0    0    0    0 -0.00000000000E+00 -0.00000000000E+00 -0.45593999997E+02  0.45594000000E+02  0.51100000000E-03 0. -1.
    9900012    2    1    2    0    0 -0.13959590461E+02  0.91180313424E+01  0.27179265252E+02  0.59301935315E+02  0.49999984111E+02 0.  0.
         12    1    1    2    0    0  0.13959590461E+02 -0.91180313424E+01 -0.27179265252E+02  0.31886064685E+02  0.00000000000E+00 0. -1.
         11    1    3    3    0    0  0.45246328976E+01  0.65420196947E+01 -0.10589002533E+02  0.13243764550E+02  0.51100000000E-03 0. -1.
        -11    1    3    3    0    0 -0.20975886250E+02 -0.32297526748E+00  0.24520446303E+02  0.32269868363E+02  0.51100000000E-03 0.  1.
         12    1    3    3    0    0  0.24916628916E+01  0.28989869152E+01  0.13247821482E+02  0.13788302402E+02  0.00000000000E+00 0. -1.
</event>
<event>
 7    1  0.7821043E-012  0.5930193E+02  0.7816164E-02  0.1266605E+00
        -11   -1    0    0    0    0  0.00000000000E+00  0.00000000000E+00  0.45593999997E+02  0.45594000000E+02  0.51100000000E-03 0. -1.
         11   -1    0    0    0    0 -0.00000000000E+00 -0.00000000000E+00 -0.45593999997E+02  0.45594000000E+02  0.51100000000E-03 0.  1.
    9900012    2    1    2    0    0  0.11791297255E+02 -0.14893838963E+01 -0.29588313630E+02  0.59301933155E+02  0.49999980171E+02 0.  0.
         12    1    1    2    0    0 -0.11791297255E+02  0.14893838963E+01  0.29588313630E+02  0.31886066845E+02  0.00000000000E+00 0. -1.
         11    1    3    3    0    0 -0.14701604234E+02 -0.43521436371E+01  0.26727610581E+01  0.15563482040E+02  0.51100000000E-03 0. -1.
        -11    1    3    3    0    0  0.24161756582E+02  0.17924254870E+01 -0.33117806846E+02  0.41034039538E+02  0.51100000000E-03 0.  1.
        -12    1    3    3    0    0  0.23311449065E+01  0.10703342538E+01  0.85673215732E+00  0.27044115773E+01  0.00000000000E+00 0.  1.
</event>
<event>
 7    1  0.7821043E-012  0.5930194E+02  0.7816164E-02  0.1266605E+00
        -11   -1    0    0    0    0  0.00000000000E+00  0.00000000000E+00  0.45593999997E+02  0.45594000000E+02  0.51100000000E-03 0.  1.
         11   -1    0    0    0    0 -0.00000000000E+00 -0.00000000000E+00 -0.45593999997E+02  0.45594000000E+02  0.51100000000E-03 0. -1.
    9900012    2    1    2    0    0  0.27019429492E+01  0.26178292877E+02  0.18003255784E+02  0.59301941409E+02  0.49999995224E+02 0.  0.
         12    1    1    2    0    0 -0.27019429492E+01 -0.26178292877E+02 -0.18003255784E+02  0.31886058591E+02  0.00000000000E+00 0. -1.
         11    1    3    3    0    0  0.18396426835E+01 -0.11545677650E+02  0.78328645085E+01  0.14072694279E+02  0.51100000000E-03 0. -1.
        -11    1    3    3    0    0  0.99424046329E+01  0.31402746993E+02  0.86965090804E+01  0.34067773615E+02  0.51100000000E-03 0.  1.
        -12    1    3    3    0    0 -0.90801043673E+01  0.63212235346E+01  0.14738821945E+01  0.11161473515E+02  0.00000000000E+00 0.  1.
</event>
<event>
 7    1  0.7821043E-012  0.5930196E+02  0.7816164E-02  0.1266605E+00
        -11   -1    0    0    0    0  0.00000000000E+00  0.00000000000E+00  0.45593999997E+02  0.45594000000E+02  0.51100000000E-03 0.  1.
         11   -1    0    0    0    0 -0.00000000000E+00 -0.00000000000E+00 -0.45593999997E+02  0.45594000000E+02  0.51100000000E-03 0. -1.
    9900012    2    1    2    0    0 -0.82230023471E+01 -0.10774998168E+02  0.28861756880E+02  0.59301962878E+02  0.50000034379E+02 0.  0.
         12    1    1    2    0    0  0.82230023471E+01  0.10774998168E+02 -0.28861756880E+02  0.31886037122E+02  0.00000000000E+00 0. -1.
         11    1    3    3    0    0  0.10950006450E+02  0.97794394030E+01 -0.32812223024E+01  0.15043486842E+02  0.51100000000E-03 0. -1.
        -11    1    3    3    0    0 -0.15885933813E+02 -0.20749397324E+02  0.24024266873E+02  0.35497405278E+02  0.51100000000E-03 0.  1.
         12    1    3    3    0    0 -0.32870749850E+01  0.19495975372E+00  0.81187123101E+01  0.87610707586E+01  0.00000000000E+00 0. -1.
</event>
<event>
 7    1  0.7821043E-012  0.5930193E+02  0.7816164E-02  0.1266605E+00
        -11   -1    0    0    0    0  0.00000000000E+00  0.00000000000E+00  0.45593999997E+02  0.45594000000E+02  0.51100000000E-03 0.  1.
         11   -1    0    0    0    0 -0.00000000000E+00 -0.00000000000E+00 -0.45593999997E+02  0.45594000000E+02  0.51100000000E-03 0. -1.
    9900012    2    1    2    0    0  0.11251703855E+02 -0.22424399247E+02  0.19679099103E+02  0.59301929958E+02  0.49999974340E+02 0.  0.
         12    1    1    2    0    0 -0.11251703855E+02  0.22424399247E+02 -0.19679099103E+02  0.31886070042E+02  0.00000000000E+00 0. -1.
         11    1    3    3    0    0 -0.10132404279E+02 -0.24313402918E+02  0.50845854877E+01  0.26826482956E+02  0.51100000000E-03 0. -1.
        -11    1    3    3    0    0  0.85064772967E+01 -0.54982066008E+01  0.14428218765E+02  0.17628497633E+02  0.51100000000E-03 0.  1.
         12    1    3    3    0    0  0.12877630837E+02  0.73872102717E+01  0.16629485066E+00  0.14846949369E+02  0.00000000000E+00 0. -1.
</event>
<event>
 7    1  0.7821043E-012  0.5930198E+02  0.7816164E-02  0.1266605E+00
        -11   -1    0    0    0    0  0.00000000000E+00  0.00000000000E+00  0.45593999997E+02  0.45594000000E+02  0.51100000000E-03 0.  1.
         11   -1    0    0    0    0 -0.00000000000E+00 -0.00000000000E+00 -0.45593999997E+02  0.45594000000E+02  0.51100000000E-03 0. -1.
    9900012    2    1    2    0    0 -0.10582174357E+02  0.21555076540E+02  0.20978907548E+02  0.59301979542E+02  0.50000064769E+02 0.  0.
         12    1    1    2    0    0  0.10582174357E+02 -0.21555076540E+02 -0.20978907548E+02  0.31886020458E+02  0.00000000000E+00 0. -1.
         11    1    3    3    0    0 -0.61734780835E+01 -0.13299637707E+02 -0.14040311191E+01  0.14729680866E+02  0.51100000000E-03 0. -1.
        -11    1    3    3    0    0 -0.77754383023E+01  0.27645366337E+02  0.22704619535E+02  0.36609062665E+02  0.51100000000E-03 0.  1.
        -12    1    3    3    0    0  0.33667420289E+01  0.72093479101E+01 -0.32168086856E+00  0.79632360105E+01  0.00000000000E+00 0.  1.
</event>
<event>
 7    1  0.7821043E-012  0.5930195E+02  0.7816164E-02  0.1266605E+00
        -11   -1    0    0    0    0  0.00000000000E+00  0.00000000000E+00  0.45593999997E+02  0.45594000000E+02  0.51100000000E-03 0.  1.
         11   -1    0    0    0    0 -0.00000000000E+00 -0.00000000000E+00 -0.45593999997E+02  0.45594000000E+02  0.51100000000E-03 0. -1.
    9900012    2    1    2    0    0  0.13866554137E+02 -0.23541941591E+02  0.16438242162E+02  0.59301950654E+02  0.50000012085E+02 0.  0.
         12    1    1    2    0    0 -0.13866554137E+02  0.23541941591E+02 -0.16438242162E+02  0.31886049346E+02  0.00000000000E+00 0. -1.
         11    1    3    3    0    0  0.20927374518E+01 -0.23339409869E+02  0.18517113906E+02  0.29866220229E+02  0.51100000000E-03 0. -1.
        -11    1    3    3    0    0  0.20171846137E+02  0.29550748834E+01 -0.16388522606E+01  0.20452913757E+02  0.51100000000E-03 0.  1.
         12    1    3    3    0    0 -0.83980294519E+01 -0.31576066056E+01 -0.44001948353E+00  0.89828166683E+01  0.00000000000E+00 0. -1.
</event>
<event>
 7    1  0.7821043E-012  0.5930206E+02  0.7816164E-02  0.1266604E+00
        -11   -1    0    0    0    0  0.00000000000E+00  0.00000000000E+00  0.45593999997E+02  0.45594000000E+02  0.51100000000E-03 0.  1.
         11   -1    0    0    0    0 -0.00000000000E+00 -0.00000000000E+00 -0.45593999997E+02  0.45594000000E+02  0.51100000000E-03 0. -1.
    9900012    2    1    2    0    0 -0.15208852261E+00 -0.10485835904E+02  0.30112083677E+02  0.59302055308E+02  0.50000202949E+02 0.  0.
         12    1    1    2    0    0  0.15208852261E+00  0.10485835904E+02 -0.30112083677E+02  0.31885944692E+02  0.00000000000E+00 0. -1.
         11    1    3    3    0    0  0.15806925397E+02 -0.76070411540E+01 -0.61295275039E+01  0.18582170845E+02  0.51100000000E-03 0. -1.
        -11    1    3    3    0    0 -0.31508052811E+01 -0.31678350457E+01  0.38906972020E+01  0.59245487402E+01  0.51100000000E-03 0.  1.
         12    1    3    3    0    0 -0.12808208639E+02  0.28904029585E+00  0.32350913979E+02  0.34795335723E+02  0.00000000000E+00 0. -1.
</event>
<event>
 7    1  0.7821043E-012  0.5930193E+02  0.7816164E-02  0.1266605E+00
        -11   -1    0    0    0    0  0.00000000000E+00  0.00000000000E+00  0.45593999997E+02  0.45594000000E+02  0.51100000000E-03 0. -1.
         11   -1    0    0    0    0 -0.00000000000E+00 -0.00000000000E+00 -0.45593999997E+02  0.45594000000E+02  0.51100000000E-03 0.  1.
    9900012    2    1    2    0    0 -0.17339296141E+01 -0.20005499932E+02 -0.24768829175E+02  0.59301930344E+02  0.49999975044E+02 0.  0.
         12    1    1    2    0    0  0.17339296141E+01  0.20005499932E+02  0.24768829175E+02  0.31886069656E+02  0.00000000000E+00 0. -1.
         11    1    3    3    0    0 -0.13996977445E+02 -0.11951920627E+02  0.58729351102E+01  0.19319812405E+02  0.51100000000E-03 0. -1.
        -11    1    3    3    0    0  0.66385249482E+01  0.69642721129E+01 -0.12364498639E+02  0.15666905451E+02  0.51100000000E-03 0.  1.
         12    1    3    3    0    0  0.56245228831E+01 -0.15017851417E+02 -0.18277265646E+02  0.24315212488E+02  0.00000000000E+00 0. -1.
</event>
<event>
 7    1  0.8425171E-012  0.5930197E+02  0.7816164E-02  0.1266605E+00
        -11   -1    0    0    0    0  0.00000000000E+00  0.00000000000E+00  0.45593999997E+02  0.45594000000E+02  0.51100000000E-03 0. -1.
         11   -1    0    0    0    0 -0.00000000000E+00 -0.00000000000E+00 -0.45593999997E+02  0.45594000000E+02  0.51100000000E-03 0.  1.
    9900012    2    1    2    0    0 -0.26719608625E+02  0.15884950208E+02 -0.71027867734E+01  0.59301973152E+02  0.50000053117E+02 0.  0.
         12    1    1    2    0    0  0.26719608625E+02 -0.15884950208E+02  0.71027867734E+01  0.31886026848E+02  0.00000000000E+00 0. -1.
         11    1    3    3    0    0  0.51027995972E+01  0.12755180782E+01  0.61247364391E+01  0.80732835208E+01  0.51100000000E-03 0. -1.
        -11    1    3    3    0    0 -0.10764302703E+02  0.81738753748E+01 -0.23361058496E+02  0.26989285015E+02  0.51100000000E-03 0.  1.
        -12    1    3    3    0    0 -0.21058105519E+02  0.64355567554E+01  0.10133535284E+02  0.24239404616E+02  0.00000000000E+00 0.  1.
</event>
<event>
 7    1  0.7821043E-012  0.5930192E+02  0.7816164E-02  0.1266605E+00
        -11   -1    0    0    0    0  0.00000000000E+00  0.00000000000E+00  0.45593999997E+02  0.45594000000E+02  0.51100000000E-03 0. -1.
         11   -1    0    0    0    0 -0.00000000000E+00 -0.00000000000E+00 -0.45593999997E+02  0.45594000000E+02  0.51100000000E-03 0.  1.
    9900012    2    1    2    0    0 -0.21884785674E+02  0.15499597678E+02 -0.17249366465E+02  0.59301921289E+02  0.49999958529E+02 0.  0.
         12    1    1    2    0    0  0.21884785674E+02 -0.15499597678E+02  0.17249366465E+02  0.31886078711E+02  0.00000000000E+00 0. -1.
         11    1    3    3    0    0 -0.20151562345E+02 -0.11995895190E+01 -0.15575354080E+02  0.25497375059E+02  0.51100000000E-03 0.  1.
        -11    1    3    3    0    0 -0.32632005396E+01 -0.48691688949E+01  0.81630344338E+01  0.10049498242E+02  0.51100000000E-03 0. -1.
         12    1    3    3    0    0  0.15299772105E+01  0.21568356092E+02 -0.98370468185E+01  0.23755047987E+02  0.00000000000E+00 0. -1.
</event>
<event>
 7    1  0.7821043E-012  0.5930196E+02  0.7816164E-02  0.1266605E+00
        -11   -1    0    0    0    0  0.00000000000E+00  0.00000000000E+00  0.45593999997E+02  0.45594000000E+02  0.51100000000E-03 0. -1.
         11   -1    0    0    0    0 -0.00000000000E+00 -0.00000000000E+00 -0.45593999997E+02  0.45594000000E+02  0.51100000000E-03 0.  1.
    9900012    2    1    2    0    0  0.28079281543E+02 -0.14969952014E+02  0.20430018255E+01  0.59301962747E+02  0.50000034139E+02 0.  0.
         12    1    1    2    0    0 -0.28079281543E+02  0.14969952014E+02 -0.20430018255E+01  0.31886037253E+02  0.00000000000E+00 0. -1.
         11    1    3    3    0    0  0.16844406897E+02 -0.30100455887E+02  0.24828402393E+01  0.34582307387E+02  0.51100000000E-03 0.  1.
        -11    1    3    3    0    0  0.13846030978E+02  0.12645956594E+02  0.38226583203E+01  0.19137541873E+02  0.51100000000E-03 0. -1.
         12    1    3    3    0    0 -0.26111563320E+01  0.24845472787E+01 -0.42624967341E+01  0.55821134867E+01  0.00000000000E+00 0. -1.
</event>
<event>
 7    1  0.7821043E-012  0.5930196E+02  0.7816164E-02  0.1266605E+00
        -11   -1    0    0    0    0  0.00000000000E+00  0.00000000000E+00  0.45593999997E+02  0.45594000000E+02  0.51100000000E-03 0.  1.
         11   -1    0    0    0    0 -0.00000000000E+00 -0.00000000000E+00 -0.45593999997E+02  0.45594000000E+02  0.51100000000E-03 0. -1.
    9900012    2    1    2    0    0 -0.10078007834E+02  0.23524414638E+01  0.30159891945E+02  0.59301963795E+02  0.50000036051E+02 0.  0.
         12    1    1    2    0    0  0.10078007834E+02 -0.23524414638E+01 -0.30159891945E+02  0.31886036205E+02  0.00000000000E+00 0. -1.
         11    1    3    3    0    0  0.99277022335E+01  0.84665748635E+01 -0.46024922348E+01  0.13835645868E+02  0.51100000000E-03 0. -1.
        -11    1    3    3    0    0 -0.19477206903E+02  0.27680133702E+01  0.18910480638E+02  0.27287905104E+02  0.51100000000E-03 0.  1.
         12    1    3    3    0    0 -0.52850316378E+00 -0.88821467699E+01  0.15851903542E+02  0.18178412823E+02  0.00000000000E+00 0. -1.
</event>
<event>
 7    1  0.7821043E-012  0.5930195E+02  0.7816164E-02  0.1266605E+00
        -11   -1    0    0    0    0  0.00000000000E+00  0.00000000000E+00  0.45593999997E+02  0.45594000000E+02  0.51100000000E-03 0.  1.
         11   -1    0    0    0    0 -0.00000000000E+00 -0.00000000000E+00 -0.45593999997E+02  0.45594000000E+02  0.51100000000E-03 0. -1.
    9900012    2    1    2    0    0 -0.12689523837E+02 -0.22613488983E+02  0.18556034193E+02  0.59301948125E+02  0.50000007473E+02 0.  0.
         12    1    1    2    0    0  0.12689523837E+02  0.22613488983E+02 -0.18556034193E+02  0.31886051875E+02  0.00000000000E+00 0. -1.
         11    1    3    3    0    0 -0.72918897991E+01 -0.24857040202E+02  0.54261585223E+01  0.26466720632E+02  0.51100000000E-03 0. -1.
        -11    1    3    3    0    0  0.14820501048E+01  0.55370682522E+01 -0.83008645396E+01  0.10087613678E+02  0.51100000000E-03 0.  1.
        -12    1    3    3    0    0 -0.68796841428E+01 -0.32935170327E+01  0.21430740210E+02  0.22747613816E+02  0.00000000000E+00 0.  1.
</event>
<event>
 7    1  0.7821043E-012  0.5930169E+02  0.7816164E-02  0.1266606E+00
        -11   -1    0    0    0    0  0.00000000000E+00  0.00000000000E+00  0.45593999997E+02  0.45594000000E+02  0.51100000000E-03 0.  1.
         11   -1    0    0    0    0 -0.00000000000E+00 -0.00000000000E+00 -0.45593999997E+02  0.45594000000E+02  0.51100000000E-03 0. -1.
    9900012    2    1    2    0    0  0.84186287460E+01 -0.30438541720E+02 -0.43998209204E+01  0.59301693281E+02  0.49999542697E+02 0.  0.
         12    1    1    2    0    0 -0.84186287460E+01  0.30438541720E+02  0.43998209204E+01  0.31886306719E+02  0.00000000000E+00 0. -1.
         11    1    3    3    0    0 -0.38134541234E+01 -0.38100688748E+02 -0.77020158388E+01  0.39057982074E+02  0.51100000000E-03 0.  1.
        -11    1    3    3    0    0  0.29882014236E+01  0.12974768983E+01  0.75663145355E+01  0.82378340576E+01  0.51100000000E-03 0. -1.
         12    1    3    3    0    0  0.92438814458E+01  0.63646701293E+01 -0.42641196171E+01  0.12005877150E+02  0.00000000000E+00 0. -1.
</event>
<event>
 7    1  0.7821043E-012  0.5930201E+02  0.7816164E-02  0.1266605E+00
        -11   -1    0    0    0    0  0.00000000000E+00  0.00000000000E+00  0.45593999997E+02  0.45594000000E+02  0.51100000000E-03 0.  1.
         11   -1    0    0    0    0 -0.00000000000E+00 -0.00000000000E+00 -0.45593999997E+02  0.45594000000E+02  0.51100000000E-03 0. -1.
    9900012    2    1    2    0    0 -0.43174856960E+01 -0.14084646093E+02  0.28278937119E+02  0.59302012123E+02  0.50000124190E+02 0.  0.
         12    1    1    2    0    0  0.43174856960E+01  0.14084646093E+02 -0.28278937119E+02  0.31885987877E+02  0.00000000000E+00 0. -1.
         11    1    3    3    0    0 -0.34676635293E+01  0.75365107324E+00 -0.13203193691E+02  0.13671759367E+02  0.51100000000E-03 0. -1.
        -11    1    3    3    0    0 -0.18406919721E+01 -0.16584583196E+02  0.33863129330E+02  0.37751133427E+02  0.51100000000E-03 0.  1.
        -12    1    3    3    0    0  0.99086980532E+00  0.17462860298E+01  0.76190014792E+01  0.78791193295E+01  0.00000000000E+00 0.  1.
</event>
<event>
 7    1  0.7821043E-012  0.5930195E+02  0.7816164E-02  0.1266605E+00
        -11   -1    0    0    0    0  0.00000000000E+00  0.00000000000E+00  0.45593999997E+02  0.45594000000E+02  0.51100000000E-03 0.  1.
         11   -1    0    0    0    0 -0.00000000000E+00 -0.00000000000E+00 -0.45593999997E+02  0.45594000000E+02  0.51100000000E-03 0. -1.
    9900012    2    1    2    0    0  0.30406737758E+02  0.15050582624E+01  0.94807941976E+01  0.59301947249E+02  0.50000005875E+02 0.  0.
         12    1    1    2    0    0 -0.30406737758E+02 -0.15050582624E+01 -0.94807941976E+01  0.31886052751E+02  0.00000000000E+00 0. -1.
         11    1    3    3    0    0  0.17907423586E+02  0.21503526085E+02  0.14211127519E+01  0.28019582711E+02  0.51100000000E-03 0. -1.
        -11    1    3    3    0    0  0.16745415273E+02 -0.19741546513E+02  0.60853238083E+01  0.26592644801E+02  0.51100000000E-03 0.  1.
         12    1    3    3    0    0 -0.42461011019E+01 -0.25692130955E+00  0.19743576374E+01  0.46897197366E+01  0.00000000000E+00 0. -1.
</event>
<event>
 7    1  0.7821043E-012  0.5930199E+02  0.7816164E-02  0.1266605E+00
        -11   -1    0    0    0    0  0.00000000000E+00  0.00000000000E+00  0.45593999997E+02  0.45594000000E+02  0.51100000000E-03 0.  1.
         11   -1    0    0    0    0 -0.00000000000E+00 -0.00000000000E+00 -0.45593999997E+02  0.45594000000E+02  0.51100000000E-03 0. -1.
    9900012    2    1    2    0    0 -0.14830749706E+02 -0.27439024274E+02  0.66231982428E+01  0.59301985120E+02  0.50000074943E+02 0.  0.
         12    1    1    2    0    0  0.14830749706E+02  0.27439024274E+02 -0.66231982428E+01  0.31886014880E+02  0.00000000000E+00 0. -1.
         11    1    3    3    0    0  0.56686336786E+01  0.31321138444E+01 -0.87539203427E+00  0.65352778358E+01  0.51100000000E-03 0. -1.
        -11    1    3    3    0    0 -0.27357964613E+02 -0.78234236697E+01  0.34079445404E+01  0.28657953031E+02  0.51100000000E-03 0.  1.
        -12    1    3    3    0    0  0.68585812283E+01 -0.22747714449E+02  0.40906457367E+01  0.24108754253E+02  0.00000000000E+00 0.  1.
</event>
<event>
 7    1  0.7821043E-012  0.5930193E+02  0.7816164E-02  0.1266605E+00
        -11   -1    0    0    0    0  0.00000000000E+00  0.00000000000E+00  0.45593999997E+02  0.45594000000E+02  0.51100000000E-03 0.  1.
         11   -1    0    0    0    0 -0.00000000000E+00 -0.00000000000E+00 -0.45593999997E+02  0.45594000000E+02  0.51100000000E-03 0. -1.
    9900012    2    1    2    0    0  0.10823123215E+02 -0.45329972045E+01  0.29648499868E+02  0.59301927740E+02  0.49999970295E+02 0.  0.
         12    1    1    2    0    0 -0.10823123215E+02  0.45329972045E+01 -0.29648499868E+02  0.31886072260E+02  0.00000000000E+00 0. -1.
         11    1    3    3    0    0  0.91309387352E+01 -0.18786090633E+02  0.70085348073E+01  0.22032040392E+02  0.51100000000E-03 0.  1.
        -11    1    3    3    0    0 -0.70018940127E+01  0.58929578662E+01  0.23458740245E+02  0.25180666519E+02  0.51100000000E-03 0. -1.
         12    1    3    3    0    0  0.86940784924E+01  0.83601355620E+01 -0.81877518477E+00  0.12089220829E+02  0.00000000000E+00 0. -1.
</event>
<event>
 7    1  0.7821043E-012  0.5930194E+02  0.7816164E-02  0.1266605E+00
        -11   -1    0    0    0    0  0.00000000000E+00  0.00000000000E+00  0.45593999997E+02  0.45594000000E+02  0.51100000000E-03 0.  1.
         11   -1    0    0    0    0 -0.00000000000E+00 -0.00000000000E+00 -0.45593999997E+02  0.45594000000E+02  0.51100000000E-03 0. -1.
    9900012    2    1    2    0    0  0.16845723123E+02  0.20232513376E+02  0.17988539522E+02  0.59301944440E+02  0.50000000751E+02 0.  0.
         12    1    1    2    0    0 -0.16845723123E+02 -0.20232513376E+02 -0.17988539522E+02  0.31886055560E+02  0.00000000000E+00 0. -1.
         11    1    3    3    0    0  0.86444479345E+00  0.17271027676E+02 -0.12500755491E+02  0.21337866574E+02  0.51100000000E-03 0. -1.
        -11    1    3    3    0    0  0.82028368844E+01 -0.64313314164E+01  0.14253049713E+02  0.17657802330E+02  0.51100000000E-03 0.  1.
        -12    1    3    3    0    0  0.77784414450E+01  0.93928171161E+01  0.16236245301E+02  0.20306275536E+02  0.00000000000E+00 0.  1.
</event>
<event>
 7    1  0.7821043E-012  0.5930193E+02  0.7816164E-02  0.1266605E+00
        -11   -1    0    0    0    0  0.00000000000E+00  0.00000000000E+00  0.45593999997E+02  0.45594000000E+02  0.51100000000E-03 0.  1.
         11   -1    0    0    0    0 -0.00000000000E+00 -0.00000000000E+00 -0.45593999997E+02  0.45594000000E+02  0.51100000000E-03 0. -1.
    9900012    2    1    2    0    0 -0.22011715672E+01  0.19144141958E+02  0.25404287836E+02  0.59301934579E+02  0.49999982768E+02 0.  0.
         12    1    1    2    0    0  0.22011715672E+01 -0.19144141958E+02 -0.25404287836E+02  0.31886065421E+02  0.00000000000E+00 0. -1.
         11    1    3    3    0    0  0.94693099937E+01  0.27817247787E+02  0.10103998623E+02  0.31073427469E+02  0.51100000000E-03 0. -1.
        -11    1    3    3    0    0 -0.10057652428E+01 -0.12371703307E+02  0.86191008399E+01  0.15111568614E+02  0.51100000000E-03 0.  1.
        -12    1    3    3    0    0 -0.10664716318E+02  0.36985974777E+01  0.66811883722E+01  0.13116938496E+02  0.00000000000E+00 0.  1.
</event>
<event>
 7    1  0.7821043E-012  0.5930200E+02  0.7816164E-02  0.1266605E+00
        -11   -1    0    0    0    0  0.00000000000E+00  0.00000000000E+00  0.45593999997E+02  0.45594000000E+02  0.51100000000E-03 0.  1.
         11   -1    0    0    0    0 -0.00000000000E+00 -0.00000000000E+00 -0.45593999997E+02  0.45594000000E+02  0.51100000000E-03 0. -1.
    9900012    2    1    2    0    0 -0.17738987632E+02 -0.10314236325E+02  0.24406185470E+02  0.59301999272E+02  0.50000100753E+02 0.  0.
         12    1    1    2    0    0  0.17738987632E+02  0.10314236325E+02 -0.24406185470E+02  0.31886000728E+02  0.00000000000E+00 0. -1.
         11    1    3    3    0    0 -0.10629713083E+02 -0.14351413919E+02  0.28974684127E+02  0.34036542160E+02  0.51100000000E-03 0.  1.
        -11    1    3    3    0    0  0.73569604565E+00  0.12496270742E+02  0.79424813908E+00  0.12543080223E+02  0.51100000000E-03 0. -1.
         12    1    3    3    0    0 -0.78449705950E+01 -0.84590931476E+01 -0.53627467954E+01  0.12722376889E+02  0.00000000000E+00 0. -1.
</event>
<event>
 7    1  0.7821043E-012  0.5930202E+02  0.7816164E-02  0.1266604E+00
        -11   -1    0    0    0    0  0.00000000000E+00  0.00000000000E+00  0.45593999997E+02  0.45594000000E+02  0.51100000000E-03 0. -1.
         11   -1    0    0    0    0 -0.00000000000E+00 -0.00000000000E+00 -0.45593999997E+02  0.45594000000E+02  0.51100000000E-03 0.  1.
    9900012    2    1    2    0    0 -0.26369707558E+02  0.17655277569E+02 -0.31056710552E+01  0.59302023530E+02  0.50000144993E+02 0.  0.
         12    1    1    2    0    0  0.26369707558E+02 -0.17655277569E+02  0.31056710552E+01  0.31885976470E+02  0.00000000000E+00 0. -1.
         11    1    3    3    0    0  0.43005850657E+01 -0.20384918103E+00  0.28961442358E+00  0.43151434705E+01  0.51100000000E-03 0. -1.
        -11    1    3    3    0    0 -0.28722250709E+02  0.24929208302E+02 -0.15308533654E+02  0.40997369613E+02  0.51100000000E-03 0.  1.
        -12    1    3    3    0    0 -0.19480419147E+01 -0.70700815512E+01  0.11913248175E+02  0.13989510446E+02  0.00000000000E+00 0.  1.
</event>
<event>
 7    1  0.7821043E-012  0.5930196E+02  0.7816164E-02  0.1266605E+00
        -11   -1    0    0    0    0  0.00000000000E+00  0.00000000000E+00  0.45593999997E+02  0.45594000000E+02  0.51100000000E-03 0. -1.
         11   -1    0    0    0    0 -0.00000000000E+00 -0.00000000000E+00 -0.45593999997E+02  0.45594000000E+02  0.51100000000E-03 0.  1.
    9900012    2    1    2    0    0  0.17591728302E+02 -0.23392255705E+01 -0.26491110256E+02  0.59301955976E+02  0.50000021790E+02 0.  0.
         12    1    1    2    0    0 -0.17591728302E+02  0.23392255705E+01  0.26491110256E+02  0.31886044024E+02  0.00000000000E+00 0. -1.
         11    1    3    3    0    0  0.82176007145E+01 -0.18964686278E+02 -0.18301352814E+02  0.27606662279E+02  0.51100000000E-03 0. -1.
        -11    1    3    3    0    0 -0.15983089245E+01  0.11623797345E+02  0.59139083503E+01  0.13139313847E+02  0.51100000000E-03 0.  1.
        -12    1    3    3    0    0  0.10972436512E+02  0.50016633623E+01 -0.14103665793E+02  0.18555979850E+02  0.00000000000E+00 0.  1.
</event>
<event>
 7    1  0.7821043E-012  0.5930195E+02  0.7816164E-02  0.1266605E+00
        -11   -1    0    0    0    0  0.00000000000E+00  0.00000000000E+00  0.45593999997E+02  0.45594000000E+02  0.51100000000E-03 0.  1.
         11   -1    0    0    0    0 -0.00000000000E+00 -0.00000000000E+00 -0.45593999997E+02  0.45594000000E+02  0.51100000000E-03 0. -1.
    9900012    2    1    2    0    0  0.12767254748E+01 -0.11978047433E+02  0.29523155152E+02  0.59301947589E+02  0.50000006495E+02 0.  0.
         12    1    1    2    0    0 -0.12767254748E+01  0.11978047433E+02 -0.29523155152E+02  0.31886052411E+02  0.00000000000E+00 0. -1.
         11    1    3    3    0    0 -0.13345420737E+01  0.17143352741E+02  0.21749282378E+01  0.17332220252E+02  0.51100000000E-03 0. -1.
        -11    1    3    3    0    0 -0.30762457275E+01 -0.17177567869E+02  0.20976429621E+02  0.27286310223E+02  0.51100000000E-03 0.  1.
         12    1    3    3    0    0  0.56875132760E+01 -0.11943832305E+02  0.63717972925E+01  0.14683417114E+02  0.00000000000E+00 0. -1.
</event>
<event>
 7    1  0.7821043E-012  0.5930193E+02  0.7816164E-02  0.1266605E+00
        -11   -1    0    0    0    0  0.00000000000E+00  0.00000000000E+00  0.45593999997E+02  0.45594000000E+02  0.51100000000E-03 0. -1.
         11   -1    0    0    0    0 -0.00000000000E+00 -0.00000000000E+00 -0.45593999997E+02  0.45594000000E+02  0.51100000000E-03 0.  1.
    9900012    2    1    2    0    0  0.18127961950E+02 -0.24687200255E+02  0.88679466979E+01  0.59301931889E+02  0.49999977863E+02 0.  0.
         12    1    1    2    0    0 -0.18127961950E+02  0.24687200255E+02 -0.88679466979E+01  0.31886068111E+02  0.00000000000E+00 0. -1.
         11    1    3    3    0    0 -0.53558125196E+01  0.18010053109E+01  0.12525131321E+02  0.13740715511E+02  0.51100000000E-03 0. -1.
        -11    1    3    3    0    0  0.15631739923E+02 -0.30996237723E+02  0.21889195740E+01  0.34783752172E+02  0.51100000000E-03 0.  1.
        -12    1    3    3    0    0  0.78520345469E+01  0.45080321565E+01 -0.58461041972E+01  0.10777464207E+02  0.00000000000E+00 0.  1.
</event>
<event>
 7    1  0.7821043E-012  0.5930192E+02  0.7816164E-02  0.1266605E+00
        -11   -1    0    0    0    0  0.00000000000E+00  0.00000000000E+00  0.45593999997E+02  0.45594000000E+02  0.51100000000E-03 0.  1.
         11   -1    0    0    0    0 -0.00000000000E+00 -0.00000000000E+00 -0.45593999997E+02  0.45594000000E+02  0.51100000000E-03 0. -1.
    9900012    2    1    2    0    0 -0.12468562923E+02 -0.30953662942E+01  0.29183486610E+02  0.59301917698E+02  0.49999951981E+02 0.  0.
         12    1    1    2    0    0  0.12468562923E+02  0.30953662942E+01 -0.29183486610E+02  0.31886082302E+02  0.00000000000E+00 0. -1.
         11    1    3    3    0    0 -0.53432620719E+01  0.59056618078E+01  0.29655283632E+01  0.84983321711E+01  0.51100000000E-03 0. -1.
        -11    1    3    3    0    0 -0.50913744425E+01 -0.25713127630E+02  0.19531582952E+02  0.32688985287E+02  0.51100000000E-03 0.  1.
        -12    1    3    3    0    0 -0.20339264084E+01  0.16712099528E+02  0.66863752946E+01  0.18114600240E+02  0.00000000000E+00 0.  1.
</event>
<event>
 7    1  0.7821043E-012  0.5930203E+02  0.7816164E-02  0.1266604E+00
        -11   -1    0    0    0    0  0.00000000000E+00  0.00000000000E+00  0.45593999997E+02  0.45594000000E+02  0.51100000000E-03 0. -1.
         11   -1    0    0    0    0 -0.00000000000E+00 -0.00000000000E+00 -0.45593999997E+02  0.45594000000E+02  0.51100000000E-03 0.  1.
    9900012    2    1    2    0    0  0.42826702376E+01  0.16238233716E+02 -0.27105226363E+02  0.59302034518E+02  0.50000165032E+02 0.  0.
         12    1    1    2    0    0 -0.42826702376E+01 -0.16238233716E+02  0.27105226363E+02  0.31885965482E+02  0.00000000000E+00 0. -1.
         11    1    3    3    0    0 -0.72730729351E+01 -0.16252957518E+01  0.70201378729E+01  0.10238237750E+02  0.51100000000E-03 0. -1.
        -11    1    3    3    0    0  0.13232916205E+02 -0.28215025904E+01 -0.19253710442E+02  0.23532452362E+02  0.51100000000E-03 0.  1.
        -12    1    3    3    0    0 -0.16771730318E+01  0.20685032058E+02 -0.14871653794E+02  0.25531344406E+02  0.00000000000E+00 0.  1.
</event>
<event>
 7    1  0.7821043E-012  0.5930196E+02  0.7816164E-02  0.1266605E+00
        -11   -1    0    0    0    0  0.00000000000E+00  0.00000000000E+00  0.45593999997E+02  0.45594000000E+02  0.51100000000E-03 0.  1.
         11   -1    0    0    0    0 -0.00000000000E+00 -0.00000000000E+00 -0.45593999997E+02  0.45594000000E+02  0.51100000000E-03 0. -1.
    9900012    2    1    2    0    0 -0.54013976467E+01  0.21385212829E+01  0.31352375548E+02  0.59301955681E+02  0.50000021254E+02 0.  0.
         12    1    1    2    0    0  0.54013976467E+01 -0.21385212829E+01 -0.31352375548E+02  0.31886044319E+02  0.00000000000E+00 0. -1.
         11    1    3    3    0    0  0.85670378767E+00  0.14582958738E+02 -0.15261522922E+01  0.14687605932E+02  0.51100000000E-03 0. -1.
        -11    1    3    3    0    0 -0.96853884203E+01 -0.19229208609E+02  0.18659895583E+02  0.28491418287E+02  0.51100000000E-03 0.  1.
         12    1    3    3    0    0  0.34272869860E+01  0.67847711536E+01  0.14218632257E+02  0.16122931463E+02  0.00000000000E+00 0. -1.
</event>
<event>
 7    1  0.7821043E-012  0.5930193E+02  0.7816164E-02  0.1266605E+00
        -11   -1    0    0    0    0  0.00000000000E+00  0.00000000000E+00  0.45593999997E+02  0.45594000000E+02  0.51100000000E-03 0.  1.
         11   -1    0    0    0    0 -0.00000000000E+00 -0.00000000000E+00 -0.45593999997E+02  0.45594000000E+02  0.51100000000E-03 0. -1.
    9900012    2    1    2    0    0 -0.27858303042E+02 -0.25572573928E+01  0.15300223867E+02  0.59301929936E+02  0.49999974301E+02 0.  0.
         12    1    1    2    0    0  0.27858303042E+02  0.25572573928E+01 -0.15300223867E+02  0.31886070064E+02  0.00000000000E+00 0. -1.
         11    1    3    3    0    0  0.51303666677E+01 -0.55340907709E+01  0.24249301091E+01  0.79263553479E+01  0.51100000000E-03 0. -1.
        -11    1    3    3    0    0 -0.27725121490E+02 -0.11695692000E+02  0.17881749191E+02  0.35003264525E+02  0.51100000000E-03 0.  1.
        -12    1    3    3    0    0 -0.52635482190E+01  0.14672525378E+02 -0.50064554334E+01  0.16372310064E+02  0.00000000000E+00 0.  1.
</event>
<event>
 7    1  0.7821043E-012  0.5930195E+02  0.7816164E-02  0.1266605E+00
        -11   -1    0    0    0    0  0.00000000000E+00  0.00000000000E+00  0.45593999997E+02  0.45594000000E+02  0.51100000000E-03 0.  1.
         11   -1    0    0    0    0 -0.00000000000E+00 -0.00000000000E+00 -0.45593999997E+02  0.45594000000E+02  0.51100000000E-03 0. -1.
    9900012    2    1    2    0    0 -0.34478871045E+01  0.10683019030E+02  0.29844686055E+02  0.59301951219E+02  0.50000013116E+02 0.  0.
         12    1    1    2    0    0  0.34478871045E+01 -0.10683019030E+02 -0.29844686055E+02  0.31886048781E+02  0.00000000000E+00 0. -1.
         11    1    3    3    0    0  0.25311599961E+01  0.23220169713E+02  0.22508133563E+02  0.32437619043E+02  0.51100000000E-03 0. -1.
        -11    1    3    3    0    0  0.38322695909E+01 -0.14360464122E+02  0.79698000824E+01  0.16864961715E+02  0.51100000000E-03 0.  1.
         12    1    3    3    0    0 -0.98113166915E+01  0.18233134399E+01 -0.63324759033E+00  0.99993704618E+01  0.00000000000E+00 0. -1.
</event>
<event>
 7    1  0.7821043E-012  0.5930192E+02  0.7816164E-02  0.1266605E+00
        -11   -1    0    0    0    0  0.00000000000E+00  0.00000000000E+00  0.45593999997E+02  0.45594000000E+02  0.51100000000E-03 0.  1.
         11   -1    0    0    0    0 -0.00000000000E+00 -0.00000000000E+00 -0.45593999997E+02  0.45594000000E+02  0.51100000000E-03 0. -1.
    9900012    2    1    2    0    0  0.62296163511E+01 -0.32577886169E+01  0.31101456515E+02  0.59301923040E+02  0.49999961724E+02 0.  0.
         12    1    1    2    0    0 -0.62296163511E+01  0.32577886169E+01 -0.31101456515E+02  0.31886076960E+02  0.00000000000E+00 0. -1.
         11    1    3    3    0    0  0.67538189833E+01 -0.13817657819E+02  0.50645844881E+01  0.16192336297E+02  0.51100000000E-03 0. -1.
        -11    1    3    3    0    0 -0.90643652016E+00  0.22417457689E+02  0.15814454235E+02  0.27449244059E+02  0.51100000000E-03 0.  1.
        -12    1    3    3    0    0  0.38223388794E+00 -0.11857588487E+02  0.10222417792E+02  0.15660342684E+02  0.00000000000E+00 0.  1.
</event>
<event>
 7    1  0.7821043E-012  0.5930194E+02  0.7816164E-02  0.1266605E+00
        -11   -1    0    0    0    0  0.00000000000E+00  0.00000000000E+00  0.45593999997E+02  0.45594000000E+02  0.51100000000E-03 0.  1.
         11   -1    0    0    0    0 -0.00000000000E+00 -0.00000000000E+00 -0.45593999997E+02  0.45594000000E+02  0.51100000000E-03 0. -1.
    9900012    2    1    2    0    0 -0.19486670725E+02  0.65363658181E+01  0.24377579887E+02  0.59301940112E+02  0.49999992858E+02 0.  0.
         12    1    1    2    0    0  0.19486670725E+02 -0.65363658181E+01 -0.24377579887E+02  0.31886059888E+02  0.00000000000E+00 0. -1.
         11    1    3    3    0    0 -0.18672694991E+02  0.22771286562E+02  0.21570329934E+02  0.36503152790E+02  0.51100000000E-03 0. -1.
        -11    1    3    3    0    0 -0.34302991232E+01 -0.29918990201E+01  0.72733218952E+01  0.85801878460E+01  0.51100000000E-03 0.  1.
         12    1    3    3    0    0  0.26163233889E+01 -0.13243021724E+02 -0.44660719425E+01  0.14218599476E+02  0.00000000000E+00 0. -1.
</event>
<event>
 7    1  0.7821043E-012  0.5930200E+02  0.7816164E-02  0.1266605E+00
        -11   -1    0    0    0    0  0.00000000000E+00  0.00000000000E+00  0.45593999997E+02  0.45594000000E+02  0.51100000000E-03 0.  1.
         11   -1    0    0    0    0 -0.00000000000E+00 -0.00000000000E+00 -0.45593999997E+02  0.45594000000E+02  0.51100000000E-03 0. -1.
    9900012    2    1    2    0    0 -0.16076920589E+02  0.19642074832E+02  0.19298669169E+02  0.59301998196E+02  0.50000098790E+02 0.  0.
         12    1    1    2    0    0  0.16076920589E+02 -0.19642074832E+02 -0.19298669169E+02  0.31886001804E+02  0.00000000000E+00 0. -1.
         11    1    3    3    0    0 -0.68681878127E+01 -0.37310315598E+01 -0.21679307680E+01  0.81112591135E+01  0.51100000000E-03 0. -1.
        -11    1    3    3    0    0 -0.18177621075E+02  0.26150316623E+02  0.25668841193E+02  0.40904209757E+02  0.51100000000E-03 0.  1.
        -12    1    3    3    0    0  0.89688882993E+01 -0.27772102305E+01 -0.42022412556E+01  0.10286529325E+02  0.00000000000E+00 0.  1.
</event>
<event>
 7    1  0.7821043E-012  0.5930193E+02  0.7816164E-02  0.1266605E+00
        -11   -1    0    0    0    0  0.00000000000E+00  0.00000000000E+00  0.45593999997E+02  0.45594000000E+02  0.51100000000E-03 0.  1.
         11   -1    0    0    0    0 -0.00000000000E+00 -0.00000000000E+00 -0.45593999997E+02  0.45594000000E+02  0.51100000000E-03 0. -1.
    9900012    2    1    2    0    0  0.21731011009E+02 -0.16858390959E+02  0.16133176457E+02  0.59301928310E+02  0.49999971335E+02 0.  0.
         12    1    1    2    0    0 -0.21731011009E+02  0.16858390959E+02 -0.16133176457E+02  0.31886071690E+02  0.00000000000E+00 0. -1.
         11    1    3    3    0    0  0.14000223104E+02 -0.11886195944E+01 -0.83139734646E+01  0.16326090118E+02  0.51100000000E-03 0. -1.
        -11    1    3    3    0    0  0.52978652697E+01 -0.25053500412E+02  0.16770336917E+02  0.30610283564E+02  0.51100000000E-03 0.  1.
        -12    1    3    3    0    0  0.24329226350E+01  0.93837290466E+01  0.76768130042E+01  0.12365554628E+02  0.00000000000E+00 0.  1.
</event>
<event>
 7    1  0.9311992E-012  0.5930197E+02  0.7816164E-02  0.1266605E+00
        -11   -1    0    0    0    0  0.00000000000E+00  0.00000000000E+00  0.45593999997E+02  0.45594000000E+02  0.51100000000E-03 0.  1.
         11   -1    0    0    0    0 -0.00000000000E+00 -0.00000000000E+00 -0.45593999997E+02  0.45594000000E+02  0.51100000000E-03 0. -1.
    9900012    2    1    2    0    0  0.19023891297E+02 -0.16904525519E+02  0.19210610382E+02  0.59301968978E+02  0.50000045503E+02 0.  0.
         12    1    1    2    0    0 -0.19023891297E+02  0.16904525519E+02 -0.19210610382E+02  0.31886031022E+02  0.00000000000E+00 0. -1.
         11    1    3    3    0    0  0.32736281014E+01  0.98602225451E+01 -0.47292022630E+01  0.11415164646E+02  0.51100000000E-03 0. -1.
        -11    1    3    3    0    0  0.62897602723E+01 -0.97053183730E+01  0.25817553981E+02  0.28289580817E+02  0.51100000000E-03 0.  1.
         12    1    3    3    0    0  0.94605029230E+01 -0.17059429692E+02 -0.18777413359E+01  0.19597223515E+02  0.00000000000E+00 0. -1.
</event>
<event>
 7    1  0.7821043E-012  0.5930214E+02  0.7816164E-02  0.1266604E+00
        -11   -1    0    0    0    0  0.00000000000E+00  0.00000000000E+00  0.45593999997E+02  0.45594000000E+02  0.51100000000E-03 0.  1.
         11   -1    0    0    0    0 -0.00000000000E+00 -0.00000000000E+00 -0.45593999997E+02  0.45594000000E+02  0.51100000000E-03 0. -1.
    9900012    2    1    2    0    0  0.59634034836E+01  0.31111129666E+02  0.36391867187E+01  0.59302137142E+02  0.50000352193E+02 0.  0.
         12    1    1    2    0    0 -0.59634034836E+01 -0.31111129666E+02 -0.36391867187E+01  0.31885862858E+02  0.00000000000E+00 0. -1.
         11    1    3    3    0    0 -0.39931257001E+01 -0.15583117690E+01 -0.11806506712E+01  0.44460459618E+01  0.51100000000E-03 0. -1.
        -11    1    3    3    0    0  0.14474447422E+02  0.41567006640E+02  0.71928907259E+01  0.44598916427E+02  0.51100000000E-03 0.  1.
        -12    1    3    3    0    0 -0.45179182380E+01 -0.88975652052E+01 -0.23730533361E+01  0.10257174753E+02  0.00000000000E+00 0.  1.
</event>
<event>
 7    1  0.7821043E-012  0.5930195E+02  0.7816164E-02  0.1266605E+00
        -11   -1    0    0    0    0  0.00000000000E+00  0.00000000000E+00  0.45593999997E+02  0.45594000000E+02  0.51100000000E-03 0.  1.
         11   -1    0    0    0    0 -0.00000000000E+00 -0.00000000000E+00 -0.45593999997E+02  0.45594000000E+02  0.51100000000E-03 0. -1.
    9900012    2    1    2    0    0  0.24852705032E+02 -0.19368979542E+02 -0.48893767412E+01  0.59301947864E+02  0.50000006997E+02 0.  0.
         12    1    1    2    0    0 -0.24852705032E+02  0.19368979542E+02  0.48893767412E+01  0.31886052136E+02  0.00000000000E+00 0. -1.
         11    1    3    3    0    0  0.93610998701E+01  0.11292432483E+01 -0.11087033465E+02  0.14554301509E+02  0.51100000000E-03 0. -1.
        -11    1    3    3    0    0  0.37060188198E+01 -0.29692977925E+01  0.19310491892E+02  0.19885834210E+02  0.51100000000E-03 0.  1.
        -12    1    3    3    0    0  0.11785586342E+02 -0.17528924998E+02 -0.13112835168E+02  0.24861812145E+02  0.00000000000E+00 0.  1.
</event>
<event>
 7    1  0.7821043E-012  0.5930191E+02  0.7816164E-02  0.1266605E+00
        -11   -1    0    0    0    0  0.00000000000E+00  0.00000000000E+00  0.45593999997E+02  0.45594000000E+02  0.51100000000E-03 0.  1.
         11   -1    0    0    0    0 -0.00000000000E+00 -0.00000000000E+00 -0.45593999997E+02  0.45594000000E+02  0.51100000000E-03 0. -1.
    9900012    2    1    2    0    0  0.29314728541E+02 -0.10608255196E+02  0.66958399716E+01  0.59301911173E+02  0.49999940081E+02 0.  0.
         12    1    1    2    0    0 -0.29314728541E+02  0.10608255196E+02 -0.66958399716E+01  0.31886088827E+02  0.00000000000E+00 0. -1.
         11    1    3    3    0    0  0.75220509160E+01 -0.18919466510E+02  0.11736197200E+02  0.23500335913E+02  0.51100000000E-03 0. -1.
        -11    1    3    3    0    0  0.23895530714E+02 -0.15122535455E+01 -0.81384652130E+01  0.25288691449E+02  0.51100000000E-03 0.  1.
         12    1    3    3    0    0 -0.21028530892E+01  0.98234648595E+01  0.30981079840E+01  0.10512883812E+02  0.00000000000E+00 0. -1.
</event>
<event>
 7    1  0.7821043E-012  0.5930195E+02  0.7816164E-02  0.1266605E+00
        -11   -1    0    0    0    0  0.00000000000E+00  0.00000000000E+00  0.45593999997E+02  0.45594000000E+02  0.51100000000E-03 0.  1.
         11   -1    0    0    0    0 -0.00000000000E+00 -0.00000000000E+00 -0.45593999997E+02  0.45594000000E+02  0.51100000000E-03 0. -1.
    9900012    2    1    2    0    0  0.71166115314E+00  0.11822762781E+02  0.29604665022E+02  0.59301947054E+02  0.50000005519E+02 0.  0.
         12    1    1    2    0    0 -0.71166115314E+00 -0.11822762781E+02 -0.29604665022E+02  0.31886052946E+02  0.00000000000E+00 0. -1.
         11    1    3    3    0    0  0.19242146425E+02  0.15872356903E+02  0.98950986572E+01  0.26834770176E+02  0.51100000000E-03 0. -1.
        -11    1    3    3    0    0 -0.15271229207E+02 -0.89323943618E+01  0.81003274896E+01  0.19457991064E+02  0.51100000000E-03 0.  1.
        -12    1    3    3    0    0 -0.32592560643E+01  0.48828002401E+01  0.11609238876E+02  0.13009185814E+02  0.00000000000E+00 0.  1.
</event>
<event>
 7    1  0.7821043E-012  0.5930194E+02  0.7816164E-02  0.1266605E+00
        -11   -1    0    0    0    0  0.00000000000E+00  0.00000000000E+00  0.45593999997E+02  0.45594000000E+02  0.51100000000E-03 0. -1.
         11   -1    0    0    0    0 -0.00000000000E+00 -0.00000000000E+00 -0.45593999997E+02  0.45594000000E+02  0.51100000000E-03 0.  1.
    9900012    2    1    2    0    0 -0.19119642901E+02  0.25347833152E+02  0.29406240646E+01  0.59301942545E+02  0.49999997295E+02 0.  0.
         12    1    1    2    0    0  0.19119642901E+02 -0.25347833152E+02 -0.29406240646E+01  0.31886057455E+02  0.00000000000E+00 0. -1.
         11    1    3    3    0    0  0.35310352454E+01 -0.77824383341E+01  0.45986020352E+01  0.97047255122E+01  0.51100000000E-03 0. -1.
        -11    1    3    3    0    0 -0.65158791242E+01  0.29591637761E+02  0.67781388969E+01  0.31049394090E+02  0.51100000000E-03 0.  1.
        -12    1    3    3    0    0 -0.16134799022E+02  0.35386337246E+01 -0.84361168675E+01  0.18547822943E+02  0.00000000000E+00 0.  1.
</event>
<event>
 7    1  0.7821043E-012  0.5930204E+02  0.7816164E-02  0.1266604E+00
        -11   -1    0    0    0    0  0.00000000000E+00  0.00000000000E+00  0.45593999997E+02  0.45594000000E+02  0.51100000000E-03 0. -1.
         11   -1    0    0    0    0 -0.00000000000E+00 -0.00000000000E+00 -0.45593999997E+02  0.45594000000E+02  0.51100000000E-03 0.  1.
    9900012    2    1    2    0    0 -0.24041157163E+01 -0.33177958115E+01 -0.31621620711E+02  0.59302040115E+02  0.50000175239E+02 0.  0.
         12    1    1    2    0    0  0.24041157163E+01  0.33177958115E+01  0.31621620711E+02  0.31885959885E+02  0.00000000000E+00 0. -1.
         11    1    3    3    0    0  0.17680614741E+02  0.22584114759E+01 -0.28891935608E+02  0.33947731934E+02  0.51100000000E-03 0. -1.
        -11    1    3    3    0    0 -0.13912668291E+02 -0.70095551474E+01 -0.76274771232E+01  0.17345737513E+02  0.51100000000E-03 0.  1.
         12    1    3    3    0    0 -0.61720621660E+01  0.14333478600E+01  0.48977920204E+01  0.80085706679E+01  0.00000000000E+00 0. -1.
</event>
<event>
 7    1  0.7821043E-012  0.5930194E+02  0.7816164E-02  0.1266605E+00
        -11   -1    0    0    0    0  0.00000000000E+00  0.00000000000E+00  0.45593999997E+02  0.45594000000E+02  0.51100000000E-03 0.  1.
         11   -1    0    0    0    0 -0.00000000000E+00 -0.00000000000E+00 -0.45593999997E+02  0.45594000000E+02  0.51100000000E-03 0. -1.
    9900012    2    1    2    0    0  0.28644450870E+02 -0.95492479885E+01  0.10248317211E+02  0.59301941786E+02  0.49999995912E+02 0.  0.
         12    1    1    2    0    0 -0.28644450870E+02  0.95492479885E+01 -0.10248317211E+02  0.31886058214E+02  0.00000000000E+00 0. -1.
         11    1    3    3    0    0 -0.12406203155E+02 -0.14151892801E+01  0.11179653637E+01  0.12536605771E+02  0.51100000000E-03 0. -1.
        -11    1    3    3    0    0  0.26091272118E+02  0.39909976680E+01  0.30413112210E+01  0.26569383081E+02  0.51100000000E-03 0.  1.
        -12    1    3    3    0    0  0.14959381907E+02 -0.12125056376E+02  0.60890406262E+01  0.20195952934E+02  0.00000000000E+00 0.  1.
</event>
<event>
 7    1  0.7821043E-012  0.5930192E+02  0.7816164E-02  0.1266605E+00
        -11   -1    0    0    0    0  0.00000000000E+00  0.00000000000E+00  0.45593999997E+02  0.45594000000E+02  0.51100000000E-03 0. -1.
         11   -1    0    0    0    0 -0.00000000000E+00 -0.00000000000E+00 -0.45593999997E+02  0.45594000000E+02  0.51100000000E-03 0.  1.
    9900012    2    1    2    0    0  0.12427728893E+02 -0.23406995178E+02 -0.17730941300E+02  0.59301919211E+02  0.49999954740E+02 0.  0.
         12    1    1    2    0    0 -0.12427728893E+02  0.23406995178E+02  0.17730941300E+02  0.31886080789E+02  0.00000000000E+00 0. -1.
         11    1    3    3    0    0  0.23990237726E+02 -0.22050871428E+02 -0.17613019465E+02  0.37040395406E+02  0.51100000000E-03 0.  1.
        -11    1    3    3    0    0 -0.14737715521E+02  0.77888015775E+00 -0.54208148375E+01  0.15722345463E+02  0.51100000000E-03 0. -1.
        -12    1    3    3    0    0  0.31752066881E+01 -0.21350039077E+01  0.53028930025E+01  0.65391783425E+01  0.00000000000E+00 0.  1.
</event>
<event>
 7    1  0.7821043E-012  0.5930204E+02  0.7816164E-02  0.1266604E+00
        -11   -1    0    0    0    0  0.00000000000E+00  0.00000000000E+00  0.45593999997E+02  0.45594000000E+02  0.51100000000E-03 0.  1.
         11   -1    0    0    0    0 -0.00000000000E+00 -0.00000000000E+00 -0.45593999997E+02  0.45594000000E+02  0.51100000000E-03 0. -1.
    9900012    2    1    2    0    0 -0.21942928116E+02 -0.22364251098E+02  0.59213792965E+01  0.59302038288E+02  0.50000171908E+02 0.  0.
         12    1    1    2    0    0  0.21942928116E+02  0.22364251098E+02 -0.59213792965E+01  0.31885961712E+02  0.00000000000E+00 0. -1.
         11    1    3    3    0    0  0.69187357772E+01 -0.19626605530E+02 -0.20180016746E+01  0.20908009958E+02  0.51100000000E-03 0. -1.
        -11    1    3    3    0    0 -0.10134467469E+02 -0.33182246092E+01  0.14971986662E+02  0.18381469754E+02  0.51100000000E-03 0.  1.
         12    1    3    3    0    0 -0.18727196425E+02  0.58057904111E+00 -0.70326056910E+01  0.20012558576E+02  0.00000000000E+00 0. -1.
</event>
<event>
 7    1  0.7821043E-012  0.5930193E+02  0.7816164E-02  0.1266605E+00
        -11   -1    0    0    0    0  0.00000000000E+00  0.00000000000E+00  0.45593999997E+02  0.45594000000E+02  0.51100000000E-03 0.  1.
         11   -1    0    0    0    0 -0.00000000000E+00 -0.00000000000E+00 -0.45593999997E+02  0.45594000000E+02  0.51100000000E-03 0. -1.
    9900012    2    1    2    0    0 -0.33274518884E+01  0.23185870293E+01  0.31627098675E+02  0.59301934823E+02  0.49999983212E+02 0.  0.
         12    1    1    2    0    0  0.33274518884E+01 -0.23185870293E+01 -0.31627098675E+02  0.31886065177E+02  0.00000000000E+00 0. -1.
         11    1    3    3    0    0  0.50871839287E+01 -0.14248075882E+02 -0.46305790009E+01  0.15821800429E+02  0.51100000000E-03 0. -1.
        -11    1    3    3    0    0 -0.73881002775E+00  0.99903278376E+01  0.29913598232E+02  0.31546407878E+02  0.51100000000E-03 0.  1.
         12    1    3    3    0    0 -0.76758257893E+01  0.65763350741E+01  0.63440794442E+01  0.11933726516E+02  0.00000000000E+00 0. -1.
</event>
<event>
 7    1  0.7821043E-012  0.5930186E+02  0.7816164E-02  0.1266605E+00
        -11   -1    0    0    0    0  0.00000000000E+00  0.00000000000E+00  0.45593999997E+02  0.45594000000E+02  0.51100000000E-03 0.  1.
         11   -1    0    0    0    0 -0.00000000000E+00 -0.00000000000E+00 -0.45593999997E+02  0.45594000000E+02  0.51100000000E-03 0. -1.
    9900012    2    1    2    0    0 -0.28782266258E+02 -0.50872344159E+01  0.12744697956E+02  0.59301856757E+02  0.49999840839E+02 0.  0.
         12    1    1    2    0    0  0.28782266258E+02  0.50872344159E+01 -0.12744697956E+02  0.31886143243E+02  0.00000000000E+00 0. -1.
         11    1    3    3    0    0 -0.90693803238E+01  0.54208429891E+01 -0.24650264344E+00  0.10568820274E+02  0.51100000000E-03 0. -1.
        -11    1    3    3    0    0  0.11184067093E+02 -0.98747401034E+01 -0.69241415308E+00  0.14935638134E+02  0.51100000000E-03 0.  1.
        -12    1    3    3    0    0 -0.30896953027E+02 -0.63333730163E+00  0.13683614752E+02  0.33797398349E+02  0.00000000000E+00 0.  1.
</event>
<event>
 7    1  0.7821043E-012  0.5930198E+02  0.7816164E-02  0.1266605E+00
        -11   -1    0    0    0    0  0.00000000000E+00  0.00000000000E+00  0.45593999997E+02  0.45594000000E+02  0.51100000000E-03 0.  1.
         11   -1    0    0    0    0 -0.00000000000E+00 -0.00000000000E+00 -0.45593999997E+02  0.45594000000E+02  0.51100000000E-03 0. -1.
    9900012    2    1    2    0    0  0.25638800792E+00  0.17012137099E+01  0.31839570107E+02  0.59301982885E+02  0.50000070866E+02 0.  0.
         12    1    1    2    0    0 -0.25638800792E+00 -0.17012137099E+01 -0.31839570107E+02  0.31886017115E+02  0.00000000000E+00 0. -1.
         11    1    3    3    0    0 -0.10996322523E+02  0.17360940898E+02  0.19620534196E+00  0.20551395931E+02  0.51100000000E-03 0. -1.
        -11    1    3    3    0    0  0.80774160595E+00 -0.46541021568E+01  0.17073342695E+02  0.17714743702E+02  0.51100000000E-03 0.  1.
         12    1    3    3    0    0  0.10444968925E+02 -0.11005625032E+02  0.14570022070E+02  0.21035843252E+02  0.00000000000E+00 0. -1.
</event>
<event>
 7    1  0.7821043E-012  0.5930193E+02  0.7816164E-02  0.1266605E+00
        -11   -1    0    0    0    0  0.00000000000E+00  0.00000000000E+00  0.45593999997E+02  0.45594000000E+02  0.51100000000E-03 0.  1.
         11   -1    0    0    0    0 -0.00000000000E+00 -0.00000000000E+00 -0.45593999997E+02  0.45594000000E+02  0.51100000000E-03 0. -1.
    9900012    2    1    2    0    0 -0.23329100588E+02  0.62822386356E+01  0.20808845752E+02  0.59301929091E+02  0.49999972758E+02 0.  0.
         12    1    1    2    0    0  0.23329100588E+02 -0.62822386356E+01 -0.20808845752E+02  0.31886070909E+02  0.00000000000E+00 0. -1.
         11    1    3    3    0    0 -0.53280859620E+01  0.17153477751E+02  0.21524298522E+02  0.28034366875E+02  0.51100000000E-03 0. -1.
        -11    1    3    3    0    0 -0.70838424115E+01 -0.12520480668E+02  0.86530532683E+01  0.16787453368E+02  0.51100000000E-03 0.  1.
         12    1    3    3    0    0 -0.10917172214E+02  0.16492415525E+01 -0.93685060376E+01  0.14480108847E+02  0.00000000000E+00 0. -1.
</event>
<event>
 7    1  0.7821043E-012  0.5930194E+02  0.7816164E-02  0.1266605E+00
        -11   -1    0    0    0    0  0.00000000000E+00  0.00000000000E+00  0.45593999997E+02  0.45594000000E+02  0.51100000000E-03 0.  1.
         11   -1    0    0    0    0 -0.00000000000E+00 -0.00000000000E+00 -0.45593999997E+02  0.45594000000E+02  0.51100000000E-03 0. -1.
    9900012    2    1    2    0    0 -0.13985587762E+02  0.14462654435E+02  0.24737744620E+02  0.59301936473E+02  0.49999986223E+02 0.  0.
         12    1    1    2    0    0  0.13985587762E+02 -0.14462654435E+02 -0.24737744620E+02  0.31886063527E+02  0.00000000000E+00 0. -1.
         11    1    3    3    0    0  0.31933154717E+01 -0.59985301443E+00 -0.92648563305E+01  0.98180777358E+01  0.51100000000E-03 0. -1.
        -11    1    3    3    0    0 -0.11058499898E+02  0.23239924505E+02  0.24348398217E+02  0.35429211210E+02  0.51100000000E-03 0.  1.
        -12    1    3    3    0    0 -0.61204033352E+01 -0.81774170558E+01  0.96542027335E+01  0.14054647527E+02  0.00000000000E+00 0.  1.
</event>
<event>
 7    1  0.7821043E-012  0.5930194E+02  0.7816164E-02  0.1266605E+00
        -11   -1    0    0    0    0  0.00000000000E+00  0.00000000000E+00  0.45593999997E+02  0.45594000000E+02  0.51100000000E-03 0.  1.
         11   -1    0    0    0    0 -0.00000000000E+00 -0.00000000000E+00 -0.45593999997E+02  0.45594000000E+02  0.51100000000E-03 0. -1.
    9900012    2    1    2    0    0  0.11571675156E+01  0.21043070841E+02 -0.23928460734E+02  0.59301935643E+02  0.49999984707E+02 0.  0.
         12    1    1    2    0    0 -0.11571675156E+01 -0.21043070841E+02  0.23928460734E+02  0.31886064357E+02  0.00000000000E+00 0. -1.
         11    1    3    3    0    0 -0.15442589610E+02  0.26963431171E+01 -0.97684018841E+01  0.18470666358E+02  0.51100000000E-03 0. -1.
        -11    1    3    3    0    0  0.82888494565E+01  0.13370616603E+02  0.72576281323E+01  0.17324883262E+02  0.51100000000E-03 0.  1.
        -12    1    3    3    0    0  0.83109076692E+01  0.49761111208E+01 -0.21417686983E+02  0.23506386023E+02  0.00000000000E+00 0.  1.
</event>
<event>
 7    1  0.7821043E-012  0.5930192E+02  0.7816164E-02  0.1266605E+00
        -11   -1    0    0    0    0  0.00000000000E+00  0.00000000000E+00  0.45593999997E+02  0.45594000000E+02  0.51100000000E-03 0. -1.
         11   -1    0    0    0    0 -0.00000000000E+00 -0.00000000000E+00 -0.45593999997E+02  0.45594000000E+02  0.51100000000E-03 0.  1.
    9900012    2    1    2    0    0  0.28713124123E+02 -0.55042294656E+01 -0.12727218990E+02  0.59301919304E+02  0.49999954911E+02 0.  0.
         12    1    1    2    0    0 -0.28713124123E+02  0.55042294656E+01  0.12727218990E+02  0.31886080696E+02  0.00000000000E+00 0. -1.
         11    1    3    3    0    0  0.19810172496E+02 -0.20847653943E+02  0.88300950747E+01  0.30083852621E+02  0.51100000000E-03 0.  1.
        -11    1    3    3    0    0  0.58690789529E+01  0.10746929369E+02 -0.20074596458E+02  0.23514506200E+02  0.51100000000E-03 0. -1.
        -12    1    3    3    0    0  0.30338726741E+01  0.45964951085E+01 -0.14827176069E+01  0.57035604833E+01  0.00000000000E+00 0.  1.
</event>
<event>
 7    1  0.7821043E-012  0.5930193E+02  0.7816164E-02  0.1266605E+00
        -11   -1    0    0    0    0  0.00000000000E+00  0.00000000000E+00  0.45593999997E+02  0.45594000000E+02  0.51100000000E-03 0.  1.
         11   -1    0    0    0    0 -0.00000000000E+00 -0.00000000000E+00 -0.45593999997E+02  0.45594000000E+02  0.51100000000E-03 0. -1.
    9900012    2    1    2    0    0  0.24855999489E+02  0.35647386380E+01  0.19651800133E+02  0.59301932186E+02  0.49999978404E+02 0.  0.
         12    1    1    2    0    0 -0.24855999489E+02 -0.35647386380E+01 -0.19651800133E+02  0.31886067814E+02  0.00000000000E+00 0. -1.
         11    1    3    3    0    0 -0.61519360480E+00 -0.78177956572E+01 -0.82006326883E+00  0.78847254952E+01  0.51100000000E-03 0. -1.
        -11    1    3    3    0    0  0.26735724312E+02  0.16807678490E+02  0.27895361042E+02  0.42136067432E+02  0.51100000000E-03 0.  1.
        -12    1    3    3    0    0 -0.12645312182E+01 -0.54251441944E+01 -0.74234976400E+01  0.92811392589E+01  0.00000000000E+00 0.  1.
</event>
<event>
 7    1  0.7821043E-012  0.5930194E+02  0.7816164E-02  0.1266605E+00
        -11   -1    0    0    0    0  0.00000000000E+00  0.00000000000E+00  0.45593999997E+02  0.45594000000E+02  0.51100000000E-03 0. -1.
         11   -1    0    0    0    0 -0.00000000000E+00 -0.00000000000E+00 -0.45593999997E+02  0.45594000000E+02  0.51100000000E-03 0.  1.
    9900012    2    1    2    0    0 -0.31045663358E+02 -0.89369260781E+00  0.72172737564E+01  0.59301938150E+02  0.49999989280E+02 0.  0.
         12    1    1    2    0    0  0.31045663358E+02  0.89369260781E+00 -0.72172737564E+01  0.31886061850E+02  0.00000000000E+00 0. -1.
         11    1    3    3    0    0 -0.11287970890E+02  0.18091161380E+02  0.10873463366E+02  0.23936177906E+02  0.51100000000E-03 0. -1.
        -11    1    3    3    0    0 -0.76539877943E+01 -0.13392391701E+02  0.82476844371E+01  0.17491826190E+02  0.51100000000E-03 0.  1.
         12    1    3    3    0    0 -0.12103704674E+02 -0.55924622864E+01 -0.11903874047E+02  0.17873934054E+02  0.00000000000E+00 0. -1.
</event>
<event>
 7    1  0.7821043E-012  0.5930187E+02  0.7816164E-02  0.1266605E+00
        -11   -1    0    0    0    0  0.00000000000E+00  0.00000000000E+00  0.45593999997E+02  0.45594000000E+02  0.51100000000E-03 0.  1.
         11   -1    0    0    0    0 -0.00000000000E+00 -0.00000000000E+00 -0.45593999997E+02  0.45594000000E+02  0.51100000000E-03 0. -1.
    9900012    2    1    2    0    0  0.40451912927E+01 -0.31498659836E+02 -0.28628551772E+01  0.59301873176E+02  0.49999870784E+02 0.  0.
         12    1    1    2    0    0 -0.40451912927E+01  0.31498659836E+02  0.28628551772E+01  0.31886126824E+02  0.00000000000E+00 0. -1.
         11    1    3    3    0    0 -0.13664426536E+02 -0.87677996925E+01 -0.24909630299E+01  0.16425460757E+02  0.51100000000E-03 0. -1.
        -11    1    3    3    0    0  0.21880000867E+02 -0.25573713472E+01 -0.24831654963E+01  0.22168461771E+02  0.51100000000E-03 0.  1.
        -12    1    3    3    0    0 -0.41703830379E+01 -0.20173488796E+02  0.21112733490E+01  0.20707950648E+02  0.00000000000E+00 0.  1.
</event>
<event>
 7    1  0.7821043E-012  0.5930192E+02  0.7816164E-02  0.1266605E+00
        -11   -1    0    0    0    0  0.00000000000E+00  0.00000000000E+00  0.45593999997E+02  0.45594000000E+02  0.51100000000E-03 0.  1.
         11   -1    0    0    0    0 -0.00000000000E+00 -0.00000000000E+00 -0.45593999997E+02  0.45594000000E+02  0.51100000000E-03 0. -1.
    9900012    2    1    2    0    0 -0.18625169290E+02 -0.22036405386E+02  0.13572843106E+02  0.59301918971E+02  0.49999954302E+02 0.  0.
         12    1    1    2    0    0  0.18625169290E+02  0.22036405386E+02 -0.13572843106E+02  0.31886081029E+02  0.00000000000E+00 0. -1.
         11    1    3    3    0    0 -0.91999549909E+01  0.12510771434E+02  0.10673029860E+02  0.18843357990E+02  0.51100000000E-03 0. -1.
        -11    1    3    3    0    0 -0.96413995118E+01 -0.35768056774E+02  0.56205137094E+01  0.37468662166E+02  0.51100000000E-03 0.  1.
         12    1    3    3    0    0  0.21618521248E+00  0.12208799538E+01 -0.27207004633E+01  0.29898988141E+01  0.00000000000E+00 0. -1.
</event>
<event>
 7    1  0.7821043E-012  0.5930191E+02  0.7816164E-02  0.1266605E+00
        -11   -1    0    0    0    0  0.00000000000E+00  0.00000000000E+00  0.45593999997E+02  0.45594000000E+02  0.51100000000E-03 0.  1.
         11   -1    0    0    0    0 -0.00000000000E+00 -0.00000000000E+00 -0.45593999997E+02  0.45594000000E+02  0.51100000000E-03 0. -1.
    9900012    2    1    2    0    0  0.23888911117E+02 -0.56467690805E+01  0.20350841884E+02  0.59301908349E+02  0.49999934930E+02 0.  0.
         12    1    1    2    0    0 -0.23888911117E+02  0.56467690805E+01 -0.20350841884E+02  0.31886091651E+02  0.00000000000E+00 0. -1.
         11    1    3    3    0    0  0.97322857449E+01  0.14599259448E+02 -0.16201562182E+01  0.17620461648E+02  0.51100000000E-03 0. -1.
        -11    1    3    3    0    0  0.99418928678E+01 -0.88537267667E+01  0.25726727909E+02  0.28967123444E+02  0.51100000000E-03 0.  1.
         12    1    3    3    0    0  0.42147325042E+01 -0.11392301762E+02 -0.37557298067E+01  0.12714323257E+02  0.00000000000E+00 0. -1.
</event>
<event>
 7    1  0.7821043E-012  0.5930197E+02  0.7816164E-02  0.1266605E+00
        -11   -1    0    0    0    0  0.00000000000E+00  0.00000000000E+00  0.45593999997E+02  0.45594000000E+02  0.51100000000E-03 0. -1.
         11   -1    0    0    0    0 -0.00000000000E+00 -0.00000000000E+00 -0.45593999997E+02  0.45594000000E+02  0.51100000000E-03 0.  1.
    9900012    2    1    2    0    0 -0.18446835153E+02 -0.15685021860E+02 -0.20746410967E+02  0.59301965346E+02  0.50000038880E+02 0.  0.
         12    1    1    2    0    0  0.18446835153E+02  0.15685021860E+02  0.20746410967E+02  0.31886034654E+02  0.00000000000E+00 0. -1.
         11    1    3    3    0    0 -0.40550718795E+01 -0.23333714685E+02  0.96168356263E+00  0.23702967841E+02  0.51100000000E-03 0. -1.
        -11    1    3    3    0    0 -0.17079200514E+02  0.56015081693E+01 -0.51468480523E+01  0.18696684976E+02  0.51100000000E-03 0.  1.
         12    1    3    3    0    0  0.26874372398E+01  0.20471846558E+01 -0.16561246478E+02  0.16902312529E+02  0.00000000000E+00 0. -1.
</event>
<event>
 7    1  0.7821043E-012  0.5930193E+02  0.7816164E-02  0.1266605E+00
        -11   -1    0    0    0    0  0.00000000000E+00  0.00000000000E+00  0.45593999997E+02  0.45594000000E+02  0.51100000000E-03 0.  1.
         11   -1    0    0    0    0 -0.00000000000E+00 -0.00000000000E+00 -0.45593999997E+02  0.45594000000E+02  0.51100000000E-03 0. -1.
    9900012    2    1    2    0    0  0.90250611956E+01 -0.14969186785E+01  0.30545521574E+02  0.59301931203E+02  0.49999976611E+02 0.  0.
         12    1    1    2    0    0 -0.90250611956E+01  0.14969186785E+01 -0.30545521574E+02  0.31886068797E+02  0.00000000000E+00 0. -1.
         11    1    3    3    0    0  0.56426738816E+01  0.15043382404E+01 -0.13006386757E+01  0.59828474242E+01  0.51100000000E-03 0. -1.
        -11    1    3    3    0    0  0.20234418870E+01  0.28821525553E+01  0.41653402923E+02  0.41801998706E+02  0.51100000000E-03 0.  1.
        -12    1    3    3    0    0  0.13589454270E+01 -0.58834094742E+01 -0.98072426742E+01  0.11517085073E+02  0.00000000000E+00 0.  1.
</event>
<event>
 7    1  0.7821043E-012  0.5930204E+02  0.7816164E-02  0.1266604E+00
        -11   -1    0    0    0    0  0.00000000000E+00  0.00000000000E+00  0.45593999997E+02  0.45594000000E+02  0.51100000000E-03 0.  1.
         11   -1    0    0    0    0 -0.00000000000E+00 -0.00000000000E+00 -0.45593999997E+02  0.45594000000E+02  0.51100000000E-03 0. -1.
    9900012    2    1    2    0    0  0.84243235541E+01 -0.18912808145E+02  0.24249758763E+02  0.59302041659E+02  0.50000178056E+02 0.  0.
         12    1    1    2    0    0 -0.84243235541E+01  0.18912808145E+02 -0.24249758763E+02  0.31885958341E+02  0.00000000000E+00 0. -1.
         11    1    3    3    0    0  0.10211596044E+02 -0.10216065641E+02  0.21778590006E+02  0.26133344101E+02  0.51100000000E-03 0. -1.
        -11    1    3    3    0    0  0.98172704663E+01 -0.12949098777E+02 -0.69043837598E+01  0.17655833991E+02  0.51100000000E-03 0.  1.
         12    1    3    3    0    0 -0.11604542956E+02  0.42523562734E+01  0.93755525160E+01  0.15512863568E+02  0.00000000000E+00 0. -1.
</event>
<event>
 7    1  0.7821043E-012  0.5930195E+02  0.7816164E-02  0.1266605E+00
        -11   -1    0    0    0    0  0.00000000000E+00  0.00000000000E+00  0.45593999997E+02  0.45594000000E+02  0.51100000000E-03 0.  1.
         11   -1    0    0    0    0 -0.00000000000E+00 -0.00000000000E+00 -0.45593999997E+02  0.45594000000E+02  0.51100000000E-03 0. -1.
    9900012    2    1    2    0    0  0.15803203919E+02 -0.27638925804E+02 -0.17518635738E+01  0.59301945059E+02  0.50000001881E+02 0.  0.
         12    1    1    2    0    0 -0.15803203919E+02  0.27638925804E+02  0.17518635738E+01  0.31886054941E+02  0.00000000000E+00 0. -1.
         11    1    3    3    0    0 -0.73599660157E+01 -0.13386820086E+02 -0.66872202005E+01  0.16676179600E+02  0.51100000000E-03 0. -1.
        -11    1    3    3    0    0  0.17475504066E+02  0.52865917310E+01 -0.63817680887E+01  0.19340844312E+02  0.51100000000E-03 0.  1.
         12    1    3    3    0    0  0.56876658684E+01 -0.19538697449E+02  0.11317124715E+02  0.23284921148E+02  0.00000000000E+00 0. -1.
</event>
<event>
 7    1  0.7821043E-012  0.5930198E+02  0.7816164E-02  0.1266605E+00
        -11   -1    0    0    0    0  0.00000000000E+00  0.00000000000E+00  0.45593999997E+02  0.45594000000E+02  0.51100000000E-03 0.  1.
         11   -1    0    0    0    0 -0.00000000000E+00 -0.00000000000E+00 -0.45593999997E+02  0.45594000000E+02  0.51100000000E-03 0. -1.
    9900012    2    1    2    0    0  0.15221828365E+02  0.26946528933E+02  0.76745585163E+01  0.59301979101E+02  0.50000063966E+02 0.  0.
         12    1    1    2    0    0 -0.15221828365E+02 -0.26946528933E+02 -0.76745585163E+01  0.31886020899E+02  0.00000000000E+00 0. -1.
         11    1    3    3    0    0  0.21951693846E+02  0.10799985147E+02  0.14434635122E+01  0.24507144449E+02  0.51100000000E-03 0. -1.
        -11    1    3    3    0    0 -0.68016598970E+01  0.21366045559E+02  0.13252147268E+02  0.26045918829E+02  0.51100000000E-03 0.  1.
        -12    1    3    3    0    0  0.71794416580E-01 -0.52195017724E+01 -0.70210522642E+01  0.87489158235E+01  0.00000000000E+00 0.  1.
</event>
<event>
 7    1  0.7821043E-012  0.5930193E+02  0.7816164E-02  0.1266605E+00
        -11   -1    0    0    0    0  0.00000000000E+00  0.00000000000E+00  0.45593999997E+02  0.45594000000E+02  0.51100000000E-03 0. -1.
         11   -1    0    0    0    0 -0.00000000000E+00 -0.00000000000E+00 -0.45593999997E+02  0.45594000000E+02  0.51100000000E-03 0.  1.
    9900012    2    1    2    0    0 -0.10039198823E+01  0.96428607440E+01 -0.30376447253E+02  0.59301934608E+02  0.49999982821E+02 0.  0.
         12    1    1    2    0    0  0.10039198823E+01 -0.96428607440E+01  0.30376447253E+02  0.31886065392E+02  0.00000000000E+00 0. -1.
         11    1    3    3    0    0 -0.16445268442E+02 -0.81713029947E+01  0.21640242583E+01  0.18490539419E+02  0.51100000000E-03 0. -1.
        -11    1    3    3    0    0  0.43180368340E+01  0.58253786393E+01 -0.15922103252E+02  0.17495538020E+02  0.51100000000E-03 0.  1.
         12    1    3    3    0    0  0.11123311726E+02  0.11988785099E+02 -0.16618368259E+02  0.23315857169E+02  0.00000000000E+00 0. -1.
</event>
<event>
 7    1  0.7821043E-012  0.5930196E+02  0.7816164E-02  0.1266605E+00
        -11   -1    0    0    0    0  0.00000000000E+00  0.00000000000E+00  0.45593999997E+02  0.45594000000E+02  0.51100000000E-03 0. -1.
         11   -1    0    0    0    0 -0.00000000000E+00 -0.00000000000E+00 -0.45593999997E+02  0.45594000000E+02  0.51100000000E-03 0.  1.
    9900012    2    1    2    0    0  0.11994380041E+02  0.29273079594E+02  0.39926814296E+01  0.59301955302E+02  0.50000020561E+02 0.  0.
         12    1    1    2    0    0 -0.11994380041E+02 -0.29273079594E+02 -0.39926814296E+01  0.31886044698E+02  0.00000000000E+00 0. -1.
         11    1    3    3    0    0 -0.96692207728E+01  0.29655294683E+01  0.17488942340E+02  0.20202754758E+02  0.51100000000E-03 0. -1.
        -11    1    3    3    0    0  0.11472054320E+02  0.21854721047E+02 -0.52015401494E+01  0.25224846532E+02  0.51100000000E-03 0.  1.
         12    1    3    3    0    0  0.10191546494E+02  0.44528290783E+01 -0.82947207609E+01  0.13874354012E+02  0.00000000000E+00 0. -1.
</event>
<event>
 7    1  0.7821043E-012  0.5930204E+02  0.7816164E-02  0.1266604E+00
        -11   -1    0    0    0    0  0.00000000000E+00  0.00000000000E+00  0.45593999997E+02  0.45594000000E+02  0.51100000000E-03 0.  1.
         11   -1    0    0    0    0 -0.00000000000E+00 -0.00000000000E+00 -0.45593999997E+02  0.45594000000E+02  0.51100000000E-03 0. -1.
    9900012    2    1    2    0    0 -0.59703992760E+01  0.90881391417E+01  0.29974567634E+02  0.59302036859E+02  0.50000169302E+02 0.  0.
         12    1    1    2    0    0  0.59703992760E+01 -0.90881391417E+01 -0.29974567634E+02  0.31885963141E+02  0.00000000000E+00 0. -1.
         11    1    3    3    0    0  0.84007887158E+01 -0.56620367144E+01 -0.82757909873E+00  0.10164487111E+02  0.51100000000E-03 0. -1.
        -11    1    3    3    0    0 -0.97495099140E+01  0.24983840235E+02  0.19139750786E+02  0.32948069396E+02  0.51100000000E-03 0.  1.
        -12    1    3    3    0    0 -0.46216780779E+01 -0.10233664379E+02  0.11662395946E+02  0.16189480353E+02  0.00000000000E+00 0.  1.
</event>
<event>
 7    1  0.7821043E-012  0.5930196E+02  0.7816164E-02  0.1266605E+00
        -11   -1    0    0    0    0  0.00000000000E+00  0.00000000000E+00  0.45593999997E+02  0.45594000000E+02  0.51100000000E-03 0.  1.
         11   -1    0    0    0    0 -0.00000000000E+00 -0.00000000000E+00 -0.45593999997E+02  0.45594000000E+02  0.51100000000E-03 0. -1.
    9900012    2    1    2    0    0 -0.95110791910E+01  0.51903194506E+01  0.29988654063E+02  0.59301962055E+02  0.50000032877E+02 0.  0.
         12    1    1    2    0    0  0.95110791910E+01 -0.51903194506E+01 -0.29988654063E+02  0.31886037945E+02  0.00000000000E+00 0. -1.
         11    1    3    3    0    0 -0.18140251655E+02  0.10624712613E+02  0.51466711419E+01  0.21643508780E+02  0.51100000000E-03 0. -1.
        -11    1    3    3    0    0  0.17250743044E+02 -0.48464987559E+01  0.22386863886E+02  0.28674873333E+02  0.51100000000E-03 0.  1.
        -12    1    3    3    0    0 -0.86215705802E+01 -0.58789440617E+00  0.24551190350E+01  0.89835799422E+01  0.00000000000E+00 0.  1.
</event>
<event>
 7    1  0.7821043E-012  0.5930184E+02  0.7816164E-02  0.1266605E+00
        -11   -1    0    0    0    0  0.00000000000E+00  0.00000000000E+00  0.45593999997E+02  0.45594000000E+02  0.51100000000E-03 0.  1.
         11   -1    0    0    0    0 -0.00000000000E+00 -0.00000000000E+00 -0.45593999997E+02  0.45594000000E+02  0.51100000000E-03 0. -1.
    9900012    2    1    2    0    0  0.15447357289E+02  0.76145197883E+00  0.27884160377E+02  0.59301842247E+02  0.49999814376E+02 0.  0.
         12    1    1    2    0    0 -0.15447357289E+02 -0.76145197883E+00 -0.27884160377E+02  0.31886157753E+02  0.00000000000E+00 0. -1.
         11    1    3    3    0    0 -0.15563704999E+02 -0.16365034808E+01  0.10148783265E+02  0.18652207884E+02  0.51100000000E-03 0. -1.
        -11    1    3    3    0    0  0.27710532917E+02  0.87083452708E+00  0.21746355603E+02  0.35235436277E+02  0.51100000000E-03 0.  1.
         12    1    3    3    0    0  0.33005293703E+01  0.15271209326E+01 -0.40109784907E+01  0.54141980865E+01  0.00000000000E+00 0. -1.
</event>
<event>
 7    1  0.7821043E-012  0.5930173E+02  0.7816164E-02  0.1266606E+00
        -11   -1    0    0    0    0  0.00000000000E+00  0.00000000000E+00  0.45593999997E+02  0.45594000000E+02  0.51100000000E-03 0. -1.
         11   -1    0    0    0    0 -0.00000000000E+00 -0.00000000000E+00 -0.45593999997E+02  0.45594000000E+02  0.51100000000E-03 0.  1.
    9900012    2    1    2    0    0  0.23618266083E+02  0.56221467568E+01 -0.20671314658E+02  0.59301729027E+02  0.49999607888E+02 0.  0.
         12    1    1    2    0    0 -0.23618266083E+02 -0.56221467568E+01  0.20671314658E+02  0.31886270973E+02  0.00000000000E+00 0. -1.
         11    1    3    3    0    0 -0.15360422538E+01  0.24780666876E+01  0.21471635264E+01  0.36208495942E+01  0.51100000000E-03 0. -1.
        -11    1    3    3    0    0  0.99086624118E+01  0.21941029256E+02 -0.20031539287E+02  0.31318571520E+02  0.51100000000E-03 0.  1.
        -12    1    3    3    0    0  0.15245645925E+02 -0.18796949187E+02 -0.27869388973E+01  0.24362307912E+02  0.00000000000E+00 0.  1.
</event>
<event>
 7    1  0.7821043E-012  0.5930195E+02  0.7816164E-02  0.1266605E+00
        -11   -1    0    0    0    0  0.00000000000E+00  0.00000000000E+00  0.45593999997E+02  0.45594000000E+02  0.51100000000E-03 0.  1.
         11   -1    0    0    0    0 -0.00000000000E+00 -0.00000000000E+00 -0.45593999997E+02  0.45594000000E+02  0.51100000000E-03 0. -1.
    9900012    2    1    2    0    0  0.16301387890E+02  0.22691704008E+02  0.15364620631E+02  0.59301949052E+02  0.50000009162E+02 0.  0.
         12    1    1    2    0    0 -0.16301387890E+02 -0.22691704008E+02 -0.15364620631E+02  0.31886050948E+02  0.00000000000E+00 0. -1.
         11    1    3    3    0    0  0.10890514689E+02  0.62013194513E+01  0.37311411687E+01  0.13075973685E+02  0.51100000000E-03 0. -1.
        -11    1    3    3    0    0  0.29054103760E+01  0.13092301649E+02 -0.14501582682E+02  0.19752105520E+02  0.51100000000E-03 0.  1.
        -12    1    3    3    0    0  0.25054628253E+01  0.33980829078E+01  0.26135062144E+02  0.26473869847E+02  0.00000000000E+00 0.  1.
</event>
<event>
 7    1  0.7821043E-012  0.5930196E+02  0.7816164E-02  0.1266605E+00
        -11   -1    0    0    0    0  0.00000000000E+00  0.00000000000E+00  0.45593999997E+02  0.45594000000E+02  0.51100000000E-03 0.  1.
         11   -1    0    0    0    0 -0.00000000000E+00 -0.00000000000E+00 -0.45593999997E+02  0.45594000000E+02  0.51100000000E-03 0. -1.
    9900012    2    1    2    0    0 -0.23148422682E+02 -0.12848094992E+02 -0.17770657177E+02  0.59301964278E+02  0.50000036931E+02 0.  0.
         12    1    1    2    0    0  0.23148422682E+02  0.12848094992E+02  0.17770657177E+02  0.31886035722E+02  0.00000000000E+00 0. -1.
         11    1    3    3    0    0 -0.29932236840E+02 -0.12599005801E+02 -0.23800378856E+02  0.40263280832E+02  0.51100000000E-03 0. -1.
        -11    1    3    3    0    0  0.97433886568E+01  0.28673816546E+01  0.91954306421E+01  0.13700782643E+02  0.51100000000E-03 0.  1.
        -12    1    3    3    0    0 -0.29595744987E+01 -0.31164708456E+01 -0.31657089634E+01  0.53379008033E+01  0.00000000000E+00 0.  1.
</event>
<event>
 7    1  0.7821043E-012  0.5930194E+02  0.7816164E-02  0.1266605E+00
        -11   -1    0    0    0    0  0.00000000000E+00  0.00000000000E+00  0.45593999997E+02  0.45594000000E+02  0.51100000000E-03 0.  1.
         11   -1    0    0    0    0 -0.00000000000E+00 -0.00000000000E+00 -0.45593999997E+02  0.45594000000E+02  0.51100000000E-03 0. -1.
    9900012    2    1    2    0    0  0.28251450310E+02  0.13174200329E+02  0.67094452028E+01  0.59301942642E+02  0.49999997473E+02 0.  0.
         12    1    1    2    0    0 -0.28251450310E+02 -0.13174200329E+02 -0.67094452028E+01  0.31886057358E+02  0.00000000000E+00 0. -1.
         11    1    3    3    0    0  0.13629467966E+02  0.21815708841E+02  0.74772753383E+01  0.26788004704E+02  0.51100000000E-03 0. -1.
        -11    1    3    3    0    0  0.13289621912E+02 -0.15669027326E+02  0.72331443221E+01  0.21781892594E+02  0.51100000000E-03 0.  1.
         12    1    3    3    0    0  0.13323604307E+01  0.70275188139E+01 -0.80009744575E+01  0.10732045344E+02  0.00000000000E+00 0. -1.
</event>
<event>
 7    1  0.7821043E-012  0.5930194E+02  0.7816164E-02  0.1266605E+00
        -11   -1    0    0    0    0  0.00000000000E+00  0.00000000000E+00  0.45593999997E+02  0.45594000000E+02  0.51100000000E-03 0.  1.
         11   -1    0    0    0    0 -0.00000000000E+00 -0.00000000000E+00 -0.45593999997E+02  0.45594000000E+02  0.51100000000E-03 0. -1.
    9900012    2    1    2    0    0 -0.93410551799E+01 -0.17158904963E+02  0.25199949543E+02  0.59301940532E+02  0.49999993625E+02 0.  0.
         12    1    1    2    0    0  0.93410551799E+01  0.17158904963E+02 -0.25199949543E+02  0.31886059468E+02  0.00000000000E+00 0. -1.
         11    1    3    3    0    0 -0.10017671467E+00  0.70189177925E+01  0.58531124962E+00  0.70439926087E+01  0.51100000000E-03 0. -1.
        -11    1    3    3    0    0 -0.92723375364E+00 -0.25961616800E+02  0.31844635021E+02  0.41096789280E+02  0.51100000000E-03 0.  1.
        -12    1    3    3    0    0 -0.83136447116E+01  0.17837940442E+01 -0.72299967273E+01  0.11161158643E+02  0.00000000000E+00 0.  1.
</event>
<event>
 7    1  0.7821043E-012  0.5930193E+02  0.7816164E-02  0.1266605E+00
        -11   -1    0    0    0    0  0.00000000000E+00  0.00000000000E+00  0.45593999997E+02  0.45594000000E+02  0.51100000000E-03 0.  1.
         11   -1    0    0    0    0 -0.00000000000E+00 -0.00000000000E+00 -0.45593999997E+02  0.45594000000E+02  0.51100000000E-03 0. -1.
    9900012    2    1    2    0    0 -0.17836675041E+02 -0.13644055854E+01  0.26395315819E+02  0.59301932881E+02  0.49999979671E+02 0.  0.
         12    1    1    2    0    0  0.17836675041E+02  0.13644055854E+01 -0.26395315819E+02  0.31886067119E+02  0.00000000000E+00 0. -1.
         11    1    3    3    0    0 -0.16475033879E+02  0.10410547390E+02  0.51937951266E+01  0.20168831061E+02  0.51100000000E-03 0. -1.
        -11    1    3    3    0    0 -0.65282930733E+01 -0.13613531104E+02  0.27135615168E+02  0.31052994225E+02  0.51100000000E-03 0.  1.
        -12    1    3    3    0    0  0.51666519114E+01  0.18385781286E+01 -0.59340944748E+01  0.80801075949E+01  0.00000000000E+00 0.  1.
</event>
<event>
 7    1  0.7821043E-012  0.5930193E+02  0.7816164E-02  0.1266605E+00
        -11   -1    0    0    0    0  0.00000000000E+00  0.00000000000E+00  0.45593999997E+02  0.45594000000E+02  0.51100000000E-03 0.  1.
         11   -1    0    0    0    0 -0.00000000000E+00 -0.00000000000E+00 -0.45593999997E+02  0.45594000000E+02  0.51100000000E-03 0. -1.
    9900012    2    1    2    0    0  0.11868695959E+00 -0.25589328427E+02  0.19023494159E+02  0.59301934925E+02  0.49999983399E+02 0.  0.
         12    1    1    2    0    0 -0.11868695959E+00  0.25589328427E+02 -0.19023494159E+02  0.31886065075E+02  0.00000000000E+00 0. -1.
         11    1    3    3    0    0  0.72066025391E+01  0.82092581975E+01  0.95752819696E+01  0.14526288768E+02  0.51100000000E-03 0.  1.
        -11    1    3    3    0    0 -0.10795759871E+02 -0.15563029645E+02 -0.67467885533E+01  0.20106602870E+02  0.51100000000E-03 0. -1.
        -12    1    3    3    0    0  0.37078442917E+01 -0.18235556980E+02  0.16195000742E+02  0.24669043287E+02  0.00000000000E+00 0.  1.
</event>
<event>
 7    1  0.7821043E-012  0.5930197E+02  0.7816164E-02  0.1266605E+00
        -11   -1    0    0    0    0  0.00000000000E+00  0.00000000000E+00  0.45593999997E+02  0.45594000000E+02  0.51100000000E-03 0. -1.
         11   -1    0    0    0    0 -0.00000000000E+00 -0.00000000000E+00 -0.45593999997E+02  0.45594000000E+02  0.51100000000E-03 0.  1.
    9900012    2    1    2    0    0  0.22552862083E+02  0.21680383317E+02  0.61683489057E+01  0.59301966425E+02  0.50000040847E+02 0.  0.
         12    1    1    2    0    0 -0.22552862083E+02 -0.21680383317E+02 -0.61683489057E+01  0.31886033575E+02  0.00000000000E+00 0. -1.
         11    1    3    3    0    0 -0.73660282983E+01  0.10238157736E+01  0.15752240919E+02  0.17419519679E+02  0.51100000000E-03 0. -1.
        -11    1    3    3    0    0  0.19842420435E+02  0.19486535814E+02 -0.13617396082E+02  0.30965790852E+02  0.51100000000E-03 0.  1.
        -12    1    3    3    0    0  0.10076469947E+02  0.11700317293E+01  0.40335040685E+01  0.10916655894E+02  0.00000000000E+00 0.  1.
</event>
<event>
 7    1  0.7821043E-012  0.5930194E+02  0.7816164E-02  0.1266605E+00
        -11   -1    0    0    0    0  0.00000000000E+00  0.00000000000E+00  0.45593999997E+02  0.45594000000E+02  0.51100000000E-03 0.  1.
         11   -1    0    0    0    0 -0.00000000000E+00 -0.00000000000E+00 -0.45593999997E+02  0.45594000000E+02  0.51100000000E-03 0. -1.
    9900012    2    1    2    0    0  0.14122695280E+02 -0.28450429248E+02  0.28005781657E+01  0.59301942163E+02  0.49999996599E+02 0.  0.
         12    1    1    2    0    0 -0.14122695280E+02  0.28450429248E+02 -0.28005781657E+01  0.31886057837E+02  0.00000000000E+00 0. -1.
         11    1    3    3    0    0  0.19277833485E+02 -0.85487938648E+01  0.78443366233E+01  0.22500007950E+02  0.51100000000E-03 0.  1.
        -11    1    3    3    0    0 -0.17362237777E+02 -0.90330078508E+01 -0.58813252671E+01  0.20436059273E+02  0.51100000000E-03 0. -1.
         12    1    3    3    0    0  0.12207099571E+02 -0.10868627532E+02  0.83756680941E+00  0.16365874940E+02  0.00000000000E+00 0. -1.
</event>
<event>
 7    1  0.7821043E-012  0.5930186E+02  0.7816164E-02  0.1266605E+00
        -11   -1    0    0    0    0  0.00000000000E+00  0.00000000000E+00  0.45593999997E+02  0.45594000000E+02  0.51100000000E-03 0.  1.
         11   -1    0    0    0    0 -0.00000000000E+00 -0.00000000000E+00 -0.45593999997E+02  0.45594000000E+02  0.51100000000E-03 0. -1.
    9900012    2    1    2    0    0  0.14414476383E+02 -0.72126925588E+01  0.27512288916E+02  0.59301857167E+02  0.49999841587E+02 0.  0.
         12    1    1    2    0    0 -0.14414476383E+02  0.72126925588E+01 -0.27512288916E+02  0.31886142833E+02  0.00000000000E+00 0. -1.
         11    1    3    3    0    0  0.39046355701E+01 -0.22641986356E+01  0.21516638705E+01  0.50002432010E+01  0.51100000000E-03 0.  1.
        -11    1    3    3    0    0 -0.62192320226E+01  0.18080584386E+02  0.13796585636E+02  0.23578213549E+02  0.51100000000E-03 0. -1.
        -12    1    3    3    0    0  0.16729072836E+02 -0.23029078309E+02  0.11564039409E+02  0.30723400417E+02  0.00000000000E+00 0.  1.
</event>
<event>
 7    1  0.7821043E-012  0.5930198E+02  0.7816164E-02  0.1266605E+00
        -11   -1    0    0    0    0  0.00000000000E+00  0.00000000000E+00  0.45593999997E+02  0.45594000000E+02  0.51100000000E-03 0. -1.
         11   -1    0    0    0    0 -0.00000000000E+00 -0.00000000000E+00 -0.45593999997E+02  0.45594000000E+02  0.51100000000E-03 0.  1.
    9900012    2    1    2    0    0  0.16566457342E+02 -0.25518994896E+01 -0.27124872479E+02  0.59301977876E+02  0.50000061732E+02 0.  0.
         12    1    1    2    0    0 -0.16566457342E+02  0.25518994896E+01  0.27124872479E+02  0.31886022124E+02  0.00000000000E+00 0. -1.
         11    1    3    3    0    0  0.10275523655E+02  0.31649805018E+01 -0.73355693226E+01  0.13015915854E+02  0.51100000000E-03 0. -1.
        -11    1    3    3    0    0  0.77636783530E+01 -0.12225482284E+01  0.11891589083E+02  0.14254094742E+02  0.51100000000E-03 0.  1.
        -12    1    3    3    0    0 -0.14727446657E+01 -0.44943317630E+01 -0.31680892239E+02  0.32031967281E+02  0.00000000000E+00 0.  1.
</event>
<event>
 7    1  0.7821043E-012  0.5930194E+02  0.7816164E-02  0.1266605E+00
        -11   -1    0    0    0    0  0.00000000000E+00  0.00000000000E+00  0.45593999997E+02  0.45594000000E+02  0.51100000000E-03 0.  1.
         11   -1    0    0    0    0 -0.00000000000E+00 -0.00000000000E+00 -0.45593999997E+02  0.45594000000E+02  0.51100000000E-03 0. -1.
    9900012    2    1    2    0    0 -0.27313404940E+02  0.96925037892E+01  0.13294888946E+02  0.59301940488E+02  0.49999993545E+02 0.  0.
         12    1    1    2    0    0  0.27313404940E+02 -0.96925037892E+01 -0.13294888946E+02  0.31886059512E+02  0.00000000000E+00 0. -1.
         11    1    3    3    0    0 -0.12000122375E+02  0.14653074376E+02  0.12920001629E+02  0.22926883086E+02  0.51100000000E-03 0. -1.
        -11    1    3    3    0    0 -0.33893656682E+01 -0.16028086303E+02 -0.78265149446E+01  0.18156037194E+02  0.51100000000E-03 0.  1.
        -12    1    3    3    0    0 -0.11923916897E+02  0.11067515716E+02  0.82014022609E+01  0.18219020208E+02  0.00000000000E+00 0.  1.
</event>
<event>
 7    1  0.7821043E-012  0.5930193E+02  0.7816164E-02  0.1266605E+00
        -11   -1    0    0    0    0  0.00000000000E+00  0.00000000000E+00  0.45593999997E+02  0.45594000000E+02  0.51100000000E-03 0. -1.
         11   -1    0    0    0    0 -0.00000000000E+00 -0.00000000000E+00 -0.45593999997E+02  0.45594000000E+02  0.51100000000E-03 0.  1.
    9900012    2    1    2    0    0 -0.15093873567E+02 -0.25133877807E+02 -0.12537340830E+02  0.59301925485E+02  0.49999966183E+02 0.  0.
         12    1    1    2    0    0  0.15093873567E+02  0.25133877807E+02  0.12537340830E+02  0.31886074515E+02  0.00000000000E+00 0. -1.
         11    1    3    3    0    0 -0.27797573961E+00 -0.19613702766E+02 -0.56105837119E+01  0.20402285572E+02  0.51100000000E-03 0. -1.
        -11    1    3    3    0    0 -0.93382053417E+01  0.14415100702E+02 -0.60397412464E+01  0.18206473625E+02  0.51100000000E-03 0.  1.
        -12    1    3    3    0    0 -0.54776924861E+01 -0.19935275743E+02 -0.88701587128E+00  0.20693166289E+02  0.00000000000E+00 0.  1.
</event>
<event>
 7    1  0.7821043E-012  0.5930199E+02  0.7816164E-02  0.1266605E+00
        -11   -1    0    0    0    0  0.00000000000E+00  0.00000000000E+00  0.45593999997E+02  0.45594000000E+02  0.51100000000E-03 0. -1.
         11   -1    0    0    0    0 -0.00000000000E+00 -0.00000000000E+00 -0.45593999997E+02  0.45594000000E+02  0.51100000000E-03 0.  1.
    9900012    2    1    2    0    0  0.17357721046E+02 -0.21453364391E+01  0.26661295177E+02  0.59301990390E+02  0.50000084553E+02 0.  0.
         12    1    1    2    0    0 -0.17357721046E+02  0.21453364391E+01 -0.26661295177E+02  0.31886009610E+02  0.00000000000E+00 0. -1.
         11    1    3    3    0    0 -0.37349051491E+01  0.84207184339E+01 -0.29119533958E+01  0.96611328661E+01  0.51100000000E-03 0. -1.
        -11    1    3    3    0    0  0.88943061129E+01 -0.21546413667E+02  0.19438486351E+02  0.30351464134E+02  0.51100000000E-03 0.  1.
        -12    1    3    3    0    0  0.12198320082E+02  0.10980358794E+02  0.10134762221E+02  0.19289393390E+02  0.00000000000E+00 0.  1.
</event>
<event>
 7    1  0.7821043E-012  0.5930197E+02  0.7816164E-02  0.1266605E+00
        -11   -1    0    0    0    0  0.00000000000E+00  0.00000000000E+00  0.45593999997E+02  0.45594000000E+02  0.51100000000E-03 0. -1.
         11   -1    0    0    0    0 -0.00000000000E+00 -0.00000000000E+00 -0.45593999997E+02  0.45594000000E+02  0.51100000000E-03 0.  1.
    9900012    2    1    2    0    0 -0.19102919037E+02 -0.22049778287E+02 -0.12868740143E+02  0.59301973105E+02  0.50000053030E+02 0.  0.
         12    1    1    2    0    0  0.19102919037E+02  0.22049778287E+02  0.12868740143E+02  0.31886026895E+02  0.00000000000E+00 0. -1.
         11    1    3    3    0    0 -0.25831723202E+02  0.93596091765E+00 -0.48727563788E+01  0.26303948400E+02  0.51100000000E-03 0. -1.
        -11    1    3    3    0    0  0.63660502256E+01 -0.11959948342E+02  0.62989264388E+01  0.14941333085E+02  0.51100000000E-03 0.  1.
         12    1    3    3    0    0  0.36275393896E+00 -0.11025790863E+02 -0.14294910203E+02  0.18056691621E+02  0.00000000000E+00 0. -1.
</event>
<event>
 7    1  0.7821043E-012  0.5930203E+02  0.7816164E-02  0.1266604E+00
        -11   -1    0    0    0    0  0.00000000000E+00  0.00000000000E+00  0.45593999997E+02  0.45594000000E+02  0.51100000000E-03 0.  1.
         11   -1    0    0    0    0 -0.00000000000E+00 -0.00000000000E+00 -0.45593999997E+02  0.45594000000E+02  0.51100000000E-03 0. -1.
    9900012    2    1    2    0    0  0.31111505699E+02 -0.65437499697E+01  0.24431345468E+01  0.59302025702E+02  0.50000148953E+02 0.  0.
         12    1    1    2    0    0 -0.31111505699E+02  0.65437499697E+01 -0.24431345468E+01  0.31885974298E+02  0.00000000000E+00 0. -1.
         11    1    3    3    0    0  0.22220773470E+02  0.17654801421E+02  0.12075364224E+02  0.30842652419E+02  0.51100000000E-03 0. -1.
        -11    1    3    3    0    0  0.85621494614E+01 -0.13467497673E+02 -0.68626365371E+01  0.17371806972E+02  0.51100000000E-03 0.  1.
         12    1    3    3    0    0  0.32858276742E+00 -0.10731053717E+02 -0.27695931402E+01  0.11087566310E+02  0.00000000000E+00 0. -1.
</event>
<event>
 7    1  0.7821043E-012  0.5930195E+02  0.7816164E-02  0.1266605E+00
        -11   -1    0    0    0    0  0.00000000000E+00  0.00000000000E+00  0.45593999997E+02  0.45594000000E+02  0.51100000000E-03 0.  1.
         11   -1    0    0    0    0 -0.00000000000E+00 -0.00000000000E+00 -0.45593999997E+02  0.45594000000E+02  0.51100000000E-03 0. -1.
    9900012    2    1    2    0    0 -0.95372320033E+01 -0.30058793779E+02  0.47149359198E+01  0.59301945079E+02  0.50000001916E+02 0.  0.
         12    1    1    2    0    0  0.95372320033E+01  0.30058793779E+02 -0.47149359198E+01  0.31886054921E+02  0.00000000000E+00 0. -1.
         11    1    3    3    0    0  0.78169871210E+01  0.46246185883E+01 -0.26384889120E+00  0.90863634769E+01  0.51100000000E-03 0. -1.
        -11    1    3    3    0    0 -0.16458230639E+02 -0.25555431790E+02  0.17207704236E+02  0.34929336310E+02  0.51100000000E-03 0.  1.
        -12    1    3    3    0    0 -0.89598848505E+00 -0.91279805775E+01 -0.12228919425E+02  0.15286245291E+02  0.00000000000E+00 0.  1.
</event>
<event>
 7    1  0.7821043E-012  0.5930194E+02  0.7816164E-02  0.1266605E+00
        -11   -1    0    0    0    0  0.00000000000E+00  0.00000000000E+00  0.45593999997E+02  0.45594000000E+02  0.51100000000E-03 0.  1.
         11   -1    0    0    0    0 -0.00000000000E+00 -0.00000000000E+00 -0.45593999997E+02  0.45594000000E+02  0.51100000000E-03 0. -1.
    9900012    2    1    2    0    0 -0.17056529982E+02 -0.26656327785E+01  0.26808394973E+02  0.59301939501E+02  0.49999991744E+02 0.  0.
         12    1    1    2    0    0  0.17056529982E+02  0.26656327785E+01 -0.26808394973E+02  0.31886060499E+02  0.00000000000E+00 0. -1.
         11    1    3    3    0    0  0.30582298955E+01  0.11566774120E+01  0.34656300583E+02  0.34810197401E+02  0.51100000000E-03 0. -1.
        -11    1    3    3    0    0 -0.10937612061E+02  0.33794709019E+01 -0.49464949857E+01  0.12470765577E+02  0.51100000000E-03 0.  1.
         12    1    3    3    0    0 -0.91771478166E+01 -0.72017810923E+01 -0.29014106245E+01  0.12020976523E+02  0.00000000000E+00 0. -1.
</event>
<event>
 7    1  0.7821043E-012  0.5930195E+02  0.7816164E-02  0.1266605E+00
        -11   -1    0    0    0    0  0.00000000000E+00  0.00000000000E+00  0.45593999997E+02  0.45594000000E+02  0.51100000000E-03 0.  1.
         11   -1    0    0    0    0 -0.00000000000E+00 -0.00000000000E+00 -0.45593999997E+02  0.45594000000E+02  0.51100000000E-03 0. -1.
    9900012    2    1    2    0    0 -0.30915918221E+01 -0.31380884836E+02  0.47331068480E+01  0.59301950174E+02  0.50000011208E+02 0.  0.
         12    1    1    2    0    0  0.30915918221E+01  0.31380884836E+02 -0.47331068480E+01  0.31886049826E+02  0.00000000000E+00 0. -1.
         11    1    3    3    0    0 -0.12965120211E+02 -0.75452836397E+01 -0.12222537049E+02  0.19349833577E+02  0.51100000000E-03 0. -1.
        -11    1    3    3    0    0 -0.69585653739E+01 -0.99190588911E+01  0.12974060903E+02  0.17752059540E+02  0.51100000000E-03 0.  1.
         12    1    3    3    0    0  0.16832093762E+02 -0.13916542306E+02  0.39815829938E+01  0.22200057056E+02  0.00000000000E+00 0. -1.
</event>
<event>
 7    1  0.7821043E-012  0.5930195E+02  0.7816164E-02  0.1266605E+00
        -11   -1    0    0    0    0  0.00000000000E+00  0.00000000000E+00  0.45593999997E+02  0.45594000000E+02  0.51100000000E-03 0.  1.
         11   -1    0    0    0    0 -0.00000000000E+00 -0.00000000000E+00 -0.45593999997E+02  0.45594000000E+02  0.51100000000E-03 0. -1.
    9900012    2    1    2    0    0 -0.12670481978E+02 -0.74802808767E+01  0.28288241425E+02  0.59301947901E+02  0.50000007064E+02 0.  0.
         12    1    1    2    0    0  0.12670481978E+02  0.74802808767E+01 -0.28288241425E+02  0.31886052099E+02  0.00000000000E+00 0. -1.
         11    1    3    3    0    0 -0.36308050320E+01  0.18187814277E+02 -0.40601834353E-01  0.18546724296E+02  0.51100000000E-03 0. -1.
        -11    1    3    3    0    0 -0.19420946624E+00 -0.49024164093E+01  0.11799568554E+02  0.12778936665E+02  0.51100000000E-03 0.  1.
         12    1    3    3    0    0 -0.88454674793E+01 -0.20765678744E+02  0.16529274705E+02  0.27976286940E+02  0.00000000000E+00 0. -1.
</event>
<event>
 7    1  0.7821043E-012  0.5930194E+02  0.7816164E-02  0.1266605E+00
        -11   -1    0    0    0    0  0.00000000000E+00  0.00000000000E+00  0.45593999997E+02  0.45594000000E+02  0.51100000000E-03 0.  1.
         11   -1    0    0    0    0 -0.00000000000E+00 -0.00000000000E+00 -0.45593999997E+02  0.45594000000E+02  0.51100000000E-03 0. -1.
    9900012    2    1    2    0    0 -0.26563788730E+02 -0.59155663195E+01  0.16616012062E+02  0.59301942648E+02  0.49999997484E+02 0.  0.
         12    1    1    2    0    0  0.26563788730E+02  0.59155663195E+01 -0.16616012062E+02  0.31886057352E+02  0.00000000000E+00 0. -1.
         11    1    3    3    0    0  0.34596990736E+01 -0.45740338959E+01 -0.14964443203E+01  0.59271114066E+01  0.51100000000E-03 0. -1.
        -11    1    3    3    0    0 -0.35855523222E+00  0.14361462012E+02  0.13092215803E+02  0.19436724721E+02  0.51100000000E-03 0.  1.
        -12    1    3    3    0    0 -0.29664932572E+02 -0.15702994436E+02  0.50202405793E+01  0.33938106521E+02  0.00000000000E+00 0.  1.
</event>
<event>
 7    1  0.7821043E-012  0.5930192E+02  0.7816164E-02  0.1266605E+00
        -11   -1    0    0    0    0  0.00000000000E+00  0.00000000000E+00  0.45593999997E+02  0.45594000000E+02  0.51100000000E-03 0.  1.
         11   -1    0    0    0    0 -0.00000000000E+00 -0.00000000000E+00 -0.45593999997E+02  0.45594000000E+02  0.51100000000E-03 0. -1.
    9900012    2    1    2    0    0 -0.28400193617E+02 -0.59664660387E+00  0.14484295536E+02  0.59301924640E+02  0.49999964642E+02 0.  0.
         12    1    1    2    0    0  0.28400193617E+02  0.59664660387E+00 -0.14484295536E+02  0.31886075360E+02  0.00000000000E+00 0. -1.
         11    1    3    3    0    0 -0.19496202756E+02  0.12045639859E+01 -0.84926330104E+01  0.21299711548E+02  0.51100000000E-03 0. -1.
        -11    1    3    3    0    0 -0.12952203143E+02 -0.75005482751E+01  0.26300910530E+02  0.30261455445E+02  0.51100000000E-03 0.  1.
         12    1    3    3    0    0  0.40482122820E+01  0.56993376854E+01 -0.33239819833E+01  0.77407576476E+01  0.00000000000E+00 0. -1.
</event>
<event>
 7    1  0.7821043E-012  0.5930194E+02  0.7816164E-02  0.1266605E+00
        -11   -1    0    0    0    0  0.00000000000E+00  0.00000000000E+00  0.45593999997E+02  0.45594000000E+02  0.51100000000E-03 0. -1.
         11   -1    0    0    0    0 -0.00000000000E+00 -0.00000000000E+00 -0.45593999997E+02  0.45594000000E+02  0.51100000000E-03 0.  1.
    9900012    2    1    2    0    0 -0.55759835396E+01  0.77954126011E+00 -0.31385050593E+02  0.59301942267E+02  0.49999996790E+02 0.  0.
         12    1    1    2    0    0  0.55759835396E+01 -0.77954126011E+00  0.31385050593E+02  0.31886057733E+02  0.00000000000E+00 0. -1.
         11    1    3    3    0    0 -0.26620679058E+02 -0.55503438224E-01 -0.17161473828E+02  0.31673014040E+02  0.51100000000E-03 0.  1.
        -11    1    3    3    0    0  0.14880513500E+02 -0.33534617730E+01 -0.13070591444E+02  0.20087701433E+02  0.51100000000E-03 0. -1.
        -12    1    3    3    0    0  0.61641820186E+01  0.41885064713E+01 -0.11529853205E+01  0.75412267946E+01  0.00000000000E+00 0.  1.
</event>
<event>
 7    1  0.7821043E-012  0.5930195E+02  0.7816164E-02  0.1266605E+00
        -11   -1    0    0    0    0  0.00000000000E+00  0.00000000000E+00  0.45593999997E+02  0.45594000000E+02  0.51100000000E-03 0.  1.
         11   -1    0    0    0    0 -0.00000000000E+00 -0.00000000000E+00 -0.45593999997E+02  0.45594000000E+02  0.51100000000E-03 0. -1.
    9900012    2    1    2    0    0 -0.72159040042E+01 -0.17649587749E+02  0.25556664331E+02  0.59301948034E+02  0.50000007306E+02 0.  0.
         12    1    1    2    0    0  0.72159040042E+01  0.17649587749E+02 -0.25556664331E+02  0.31886051966E+02  0.00000000000E+00 0. -1.
         11    1    3    3    0    0  0.71415887286E+01 -0.27045060130E+02  0.24924118644E+02  0.37465307385E+02  0.51100000000E-03 0. -1.
        -11    1    3    3    0    0 -0.57039349414E+01  0.53261571993E+01  0.68886070928E+01  0.10409405952E+02  0.51100000000E-03 0.  1.
         12    1    3    3    0    0 -0.86535577914E+01  0.40693151824E+01 -0.62560614059E+01  0.11427234697E+02  0.00000000000E+00 0. -1.
</event>
<event>
 7    1  0.7821043E-012  0.5930195E+02  0.7816164E-02  0.1266605E+00
        -11   -1    0    0    0    0  0.00000000000E+00  0.00000000000E+00  0.45593999997E+02  0.45594000000E+02  0.51100000000E-03 0. -1.
         11   -1    0    0    0    0 -0.00000000000E+00 -0.00000000000E+00 -0.45593999997E+02  0.45594000000E+02  0.51100000000E-03 0.  1.
    9900012    2    1    2    0    0  0.27672302307E+02 -0.17739421082E+01 -0.15742205763E+02  0.59301949322E+02  0.50000009656E+02 0.  0.
         12    1    1    2    0    0 -0.27672302307E+02  0.17739421082E+01  0.15742205763E+02  0.31886050678E+02  0.00000000000E+00 0. -1.
         11    1    3    3    0    0 -0.54387635147E+01 -0.35660805478E+01 -0.17091991810E+00  0.65058660394E+01  0.51100000000E-03 0. -1.
        -11    1    3    3    0    0  0.40980384034E+02  0.53836763153E+01 -0.10059180888E+02  0.42538958222E+02  0.51100000000E-03 0.  1.
        -12    1    3    3    0    0 -0.78693182129E+01 -0.35915378757E+01 -0.55121049569E+01  0.10257125060E+02  0.00000000000E+00 0.  1.
</event>
<event>
 7    1  0.7821043E-012  0.5930190E+02  0.7816164E-02  0.1266605E+00
        -11   -1    0    0    0    0  0.00000000000E+00  0.00000000000E+00  0.45593999997E+02  0.45594000000E+02  0.51100000000E-03 0.  1.
         11   -1    0    0    0    0 -0.00000000000E+00 -0.00000000000E+00 -0.45593999997E+02  0.45594000000E+02  0.51100000000E-03 0. -1.
    9900012    2    1    2    0    0  0.76319304854E+01  0.30121527877E+02 -0.71533638923E+01  0.59301899273E+02  0.49999918378E+02 0.  0.
         12    1    1    2    0    0 -0.76319304854E+01 -0.30121527877E+02  0.71533638923E+01  0.31886100727E+02  0.00000000000E+00 0. -1.
         11    1    3    3    0    0 -0.13192611229E+02 -0.23680775926E+00 -0.11501207372E+02  0.17503680762E+02  0.51100000000E-03 0. -1.
        -11    1    3    3    0    0  0.62389173955E+01  0.16300668510E+02 -0.67340172577E+01  0.18707829186E+02  0.51100000000E-03 0.  1.
         12    1    3    3    0    0  0.14585624318E+02  0.14057667126E+02  0.11081860738E+02  0.23090389325E+02  0.00000000000E+00 0. -1.
</event>
<event>
 7    1  0.7821043E-012  0.5930197E+02  0.7816164E-02  0.1266605E+00
        -11   -1    0    0    0    0  0.00000000000E+00  0.00000000000E+00  0.45593999997E+02  0.45594000000E+02  0.51100000000E-03 0. -1.
         11   -1    0    0    0    0 -0.00000000000E+00 -0.00000000000E+00 -0.45593999997E+02  0.45594000000E+02  0.51100000000E-03 0.  1.
    9900012    2    1    2    0    0  0.26458931017E+02 -0.11251994727E+02 -0.13785374243E+02  0.59301969220E+02  0.50000045944E+02 0.  0.
         12    1    1    2    0    0 -0.26458931017E+02  0.11251994727E+02  0.13785374243E+02  0.31886030780E+02  0.00000000000E+00 0. -1.
         11    1    3    3    0    0  0.13798793169E+02  0.13352438450E+02 -0.21244972797E+02  0.28636395983E+02  0.51100000000E-03 0. -1.
        -11    1    3    3    0    0  0.13450300839E+02 -0.21927874674E+02  0.37086303740E+01  0.25990310115E+02  0.51100000000E-03 0.  1.
         12    1    3    3    0    0 -0.79016299086E+00 -0.26765585035E+01  0.37509681796E+01  0.46752631219E+01  0.00000000000E+00 0. -1.
</event>
<event>
 7    1  0.7821043E-012  0.5930214E+02  0.7816164E-02  0.1266604E+00
        -11   -1    0    0    0    0  0.00000000000E+00  0.00000000000E+00  0.45593999997E+02  0.45594000000E+02  0.51100000000E-03 0.  1.
         11   -1    0    0    0    0 -0.00000000000E+00 -0.00000000000E+00 -0.45593999997E+02  0.45594000000E+02  0.51100000000E-03 0. -1.
    9900012    2    1    2    0    0  0.92053942767E+01  0.19147926952E+02  0.23776574215E+02  0.59302143077E+02  0.50000363016E+02 0.  0.
         12    1    1    2    0    0 -0.92053942767E+01 -0.19147926952E+02 -0.23776574215E+02  0.31885856923E+02  0.00000000000E+00 0. -1.
         11    1    3    3    0    0  0.48712173506E+01 -0.13289987349E+02  0.88192608043E+01  0.16677286458E+02  0.51100000000E-03 0. -1.
        -11    1    3    3    0    0  0.23084717783E+01  0.31854547647E+02  0.19637172921E+02  0.37492129952E+02  0.51100000000E-03 0.  1.
         12    1    3    3    0    0  0.20257051478E+01  0.58336665388E+00 -0.46798595105E+01  0.51327266669E+01  0.00000000000E+00 0. -1.
</event>
<event>
 7    1  0.7821043E-012  0.5930195E+02  0.7816164E-02  0.1266605E+00
        -11   -1    0    0    0    0  0.00000000000E+00  0.00000000000E+00  0.45593999997E+02  0.45594000000E+02  0.51100000000E-03 0.  1.
         11   -1    0    0    0    0 -0.00000000000E+00 -0.00000000000E+00 -0.45593999997E+02  0.45594000000E+02  0.51100000000E-03 0. -1.
    9900012    2    1    2    0    0  0.95514182655E+01 -0.30300695890E+02 -0.27126791700E+01  0.59301946771E+02  0.50000005002E+02 0.  0.
         12    1    1    2    0    0 -0.95514182655E+01  0.30300695890E+02  0.27126791700E+01  0.31886053229E+02  0.00000000000E+00 0. -1.
         11    1    3    3    0    0 -0.21299218850E+01 -0.10086314387E+02 -0.64067770062E+01  0.12137425469E+02  0.51100000000E-03 0. -1.
        -11    1    3    3    0    0  0.25452106505E+02 -0.47788234957E+01 -0.11390208744E+01  0.25921887438E+02  0.51100000000E-03 0.  1.
        -12    1    3    3    0    0 -0.13770766355E+02 -0.15435558006E+02  0.48331187106E+01  0.21242633863E+02  0.00000000000E+00 0.  1.
</event>
<event>
 7    1  0.7821043E-012  0.5930196E+02  0.7816164E-02  0.1266605E+00
        -11   -1    0    0    0    0  0.00000000000E+00  0.00000000000E+00  0.45593999997E+02  0.45594000000E+02  0.51100000000E-03 0.  1.
         11   -1    0    0    0    0 -0.00000000000E+00 -0.00000000000E+00 -0.45593999997E+02  0.45594000000E+02  0.51100000000E-03 0. -1.
    9900012    2    1    2    0    0 -0.14780274640E+02 -0.17363183894E+02  0.22288626395E+02  0.59301960109E+02  0.50000029328E+02 0.  0.
         12    1    1    2    0    0  0.14780274640E+02  0.17363183894E+02 -0.22288626395E+02  0.31886039891E+02  0.00000000000E+00 0. -1.
         11    1    3    3    0    0 -0.21952955853E+02 -0.29939481816E+02  0.11332951045E+02  0.38816756971E+02  0.51100000000E-03 0. -1.
        -11    1    3    3    0    0 -0.18502657988E+01  0.55880924470E+01  0.33945307884E+01  0.67950791207E+01  0.51100000000E-03 0.  1.
         12    1    3    3    0    0  0.90229470111E+01  0.69882054754E+01  0.75611445616E+01  0.13690124017E+02  0.00000000000E+00 0. -1.
</event>
<event>
 7    1  0.7821043E-012  0.5930193E+02  0.7816164E-02  0.1266605E+00
        -11   -1    0    0    0    0  0.00000000000E+00  0.00000000000E+00  0.45593999997E+02  0.45594000000E+02  0.51100000000E-03 0.  1.
         11   -1    0    0    0    0 -0.00000000000E+00 -0.00000000000E+00 -0.45593999997E+02  0.45594000000E+02  0.51100000000E-03 0. -1.
    9900012    2    1    2    0    0 -0.23610526124E+02 -0.10412186103E+02  0.18731013643E+02  0.59301930387E+02  0.49999975122E+02 0.  0.
         12    1    1    2    0    0  0.23610526124E+02  0.10412186103E+02 -0.18731013643E+02  0.31886069613E+02  0.00000000000E+00 0. -1.
         11    1    3    3    0    0  0.79449140065E+01 -0.13530902030E+02 -0.29347806533E+01  0.15963079467E+02  0.51100000000E-03 0. -1.
        -11    1    3    3    0    0 -0.26164433778E+02 -0.22871664045E+01  0.76116715666E+01  0.27344949614E+02  0.51100000000E-03 0.  1.
         12    1    3    3    0    0 -0.53910063518E+01  0.54058823316E+01  0.14054122730E+02  0.15993901306E+02  0.00000000000E+00 0. -1.
</event>
<event>
 7    1  0.7821043E-012  0.5930192E+02  0.7816164E-02  0.1266605E+00
        -11   -1    0    0    0    0  0.00000000000E+00  0.00000000000E+00  0.45593999997E+02  0.45594000000E+02  0.51100000000E-03 0. -1.
         11   -1    0    0    0    0 -0.00000000000E+00 -0.00000000000E+00 -0.45593999997E+02  0.45594000000E+02  0.51100000000E-03 0.  1.
    9900012    2    1    2    0    0 -0.21637357303E+02 -0.22963939157E+02  0.46048115056E+01  0.59301921193E+02  0.49999958355E+02 0.  0.
         12    1    1    2    0    0  0.21637357303E+02  0.22963939157E+02 -0.46048115056E+01  0.31886078807E+02  0.00000000000E+00 0. -1.
         11    1    3    3    0    0  0.46835111968E+01  0.17362585467E+01  0.10211684703E+02  0.11367865921E+02  0.51100000000E-03 0. -1.
        -11    1    3    3    0    0 -0.30491641404E+02 -0.15252105232E+02 -0.11576334276E+02  0.36005255520E+02  0.51100000000E-03 0.  1.
        -12    1    3    3    0    0  0.41707729034E+01 -0.94480924714E+01  0.59694610788E+01  0.11928799752E+02  0.00000000000E+00 0.  1.
</event>
<event>
 7    1  0.7821043E-012  0.5930193E+02  0.7816164E-02  0.1266605E+00
        -11   -1    0    0    0    0  0.00000000000E+00  0.00000000000E+00  0.45593999997E+02  0.45594000000E+02  0.51100000000E-03 0. -1.
         11   -1    0    0    0    0 -0.00000000000E+00 -0.00000000000E+00 -0.45593999997E+02  0.45594000000E+02  0.51100000000E-03 0.  1.
    9900012    2    1    2    0    0 -0.22626612077E+02 -0.21042530667E+02 -0.78721060809E+01  0.59301925844E+02  0.49999966837E+02 0.  0.
         12    1    1    2    0    0  0.22626612077E+02  0.21042530667E+02  0.78721060809E+01  0.31886074156E+02  0.00000000000E+00 0. -1.
         11    1    3    3    0    0 -0.15612856810E+02 -0.10474563905E+02  0.20570258444E+01  0.18913200214E+02  0.51100000000E-03 0.  1.
        -11    1    3    3    0    0  0.77322101122E+01 -0.14690040289E+01  0.10805019910E+02  0.13367628869E+02  0.51100000000E-03 0. -1.
        -12    1    3    3    0    0 -0.14745965379E+02 -0.90989627333E+01 -0.20734151836E+02  0.27021096760E+02  0.00000000000E+00 0.  1.
</event>
<event>
 7    1  0.7821043E-012  0.5930194E+02  0.7816164E-02  0.1266605E+00
        -11   -1    0    0    0    0  0.00000000000E+00  0.00000000000E+00  0.45593999997E+02  0.45594000000E+02  0.51100000000E-03 0.  1.
         11   -1    0    0    0    0 -0.00000000000E+00 -0.00000000000E+00 -0.45593999997E+02  0.45594000000E+02  0.51100000000E-03 0. -1.
    9900012    2    1    2    0    0  0.39232980674E+01 -0.26837107703E+02  0.16765988896E+02  0.59301937194E+02  0.49999987537E+02 0.  0.
         12    1    1    2    0    0 -0.39232980674E+01  0.26837107703E+02 -0.16765988896E+02  0.31886062806E+02  0.00000000000E+00 0. -1.
         11    1    3    3    0    0  0.11289399268E+02  0.54003443583E+01  0.74237482361E+01  0.14550817611E+02  0.51100000000E-03 0. -1.
        -11    1    3    3    0    0 -0.33807801425E+01 -0.26280872636E+02  0.19085902116E+02  0.32655560028E+02  0.51100000000E-03 0.  1.
        -12    1    3    3    0    0 -0.39853210581E+01 -0.59565794251E+01 -0.97436614557E+01  0.12095559555E+02  0.00000000000E+00 0.  1.
</event>
<event>
 7    1  0.7821043E-012  0.5930193E+02  0.7816164E-02  0.1266605E+00
        -11   -1    0    0    0    0  0.00000000000E+00  0.00000000000E+00  0.45593999997E+02  0.45594000000E+02  0.51100000000E-03 0. -1.
         11   -1    0    0    0    0 -0.00000000000E+00 -0.00000000000E+00 -0.45593999997E+02  0.45594000000E+02  0.51100000000E-03 0.  1.
    9900012    2    1    2    0    0 -0.28174997837E+02 -0.14649277927E+02  0.28792109076E+01  0.59301926201E+02  0.49999967488E+02 0.  0.
         12    1    1    2    0    0  0.28174997837E+02  0.14649277927E+02 -0.28792109076E+01  0.31886073799E+02  0.00000000000E+00 0. -1.
         11    1    3    3    0    0  0.49391504934E+01  0.64848482601E+01 -0.57425648346E+00  0.81717951102E+01  0.51100000000E-03 0. -1.
        -11    1    3    3    0    0 -0.35705375064E+02 -0.17214354106E+02  0.11967388611E+02  0.41405629885E+02  0.51100000000E-03 0.  1.
        -12    1    3    3    0    0  0.25912267336E+01 -0.39197720805E+01 -0.85139212203E+01  0.97245012054E+01  0.00000000000E+00 0.  1.
</event>
<event>
 7    1  0.7821043E-012  0.5930193E+02  0.7816164E-02  0.1266605E+00
        -11   -1    0    0    0    0  0.00000000000E+00  0.00000000000E+00  0.45593999997E+02  0.45594000000E+02  0.51100000000E-03 0. -1.
         11   -1    0    0    0    0 -0.00000000000E+00 -0.00000000000E+00 -0.45593999997E+02  0.45594000000E+02  0.51100000000E-03 0.  1.
    9900012    2    1    2    0    0 -0.31760114722E+02  0.65743357762E+00  0.27539166785E+01  0.59301934656E+02  0.49999982908E+02 0.  0.
         12    1    1    2    0    0  0.31760114722E+02 -0.65743357762E+00 -0.27539166785E+01  0.31886065344E+02  0.00000000000E+00 0. -1.
         11    1    3    3    0    0 -0.10290103627E+01  0.73992399959E+01  0.19426742897E+02  0.20813600234E+02  0.51100000000E-03 0. -1.
        -11    1    3    3    0    0 -0.22769057700E+01 -0.46252222124E+01 -0.62723788917E+01  0.81190958623E+01  0.51100000000E-03 0.  1.
         12    1    3    3    0    0 -0.28454198589E+02 -0.21165842059E+01 -0.10400447327E+02  0.30369238559E+02  0.00000000000E+00 0. -1.
</event>
<event>
 7    1  0.7821043E-012  0.5930192E+02  0.7816164E-02  0.1266605E+00
        -11   -1    0    0    0    0  0.00000000000E+00  0.00000000000E+00  0.45593999997E+02  0.45594000000E+02  0.51100000000E-03 0.  1.
         11   -1    0    0    0    0 -0.00000000000E+00 -0.00000000000E+00 -0.45593999997E+02  0.45594000000E+02  0.51100000000E-03 0. -1.
    9900012    2    1    2    0    0 -0.21014247121E+01 -0.20125523871E+02 -0.24642830452E+02  0.59301924832E+02  0.49999964992E+02 0.  0.
         12    1    1    2    0    0  0.21014247121E+01  0.20125523871E+02  0.24642830452E+02  0.31886075168E+02  0.00000000000E+00 0. -1.
         11    1    3    3    0    0 -0.41601258451E+01 -0.26572976065E+02  0.38998201004E+00  0.26899475650E+02  0.51100000000E-03 0. -1.
        -11    1    3    3    0    0  0.14331562105E+01  0.53390535820E+01  0.15876908855E+01  0.57515382712E+01  0.51100000000E-03 0.  1.
         12    1    3    3    0    0  0.62554492245E+00  0.11083986117E+01 -0.26620503348E+02  0.26650910912E+02  0.00000000000E+00 0. -1.
</event>
<event>
 7    1  0.7821043E-012  0.5930198E+02  0.7816164E-02  0.1266605E+00
        -11   -1    0    0    0    0  0.00000000000E+00  0.00000000000E+00  0.45593999997E+02  0.45594000000E+02  0.51100000000E-03 0. -1.
         11   -1    0    0    0    0 -0.00000000000E+00 -0.00000000000E+00 -0.45593999997E+02  0.45594000000E+02  0.51100000000E-03 0.  1.
    9900012    2    1    2    0    0 -0.25456013844E+02  0.22325177716E+01 -0.19071586689E+02  0.59301981194E+02  0.50000067783E+02 0.  0.
         12    1    1    2    0    0  0.25456013844E+02 -0.22325177716E+01  0.19071586689E+02  0.31886018806E+02  0.00000000000E+00 0. -1.
         11    1    3    3    0    0  0.11020757752E+02 -0.54520744684E+00  0.60525979785E+01  0.12585241164E+02  0.51100000000E-03 0. -1.
        -11    1    3    3    0    0 -0.20640314087E+02  0.64856575598E+01 -0.20505897500E+02  0.29809028031E+02  0.51100000000E-03 0.  1.
        -12    1    3    3    0    0 -0.15836457509E+02 -0.37079323414E+01 -0.46182871674E+01  0.16907711999E+02  0.00000000000E+00 0.  1.
</event>
<event>
 7    1  0.7821043E-012  0.5930193E+02  0.7816164E-02  0.1266605E+00
        -11   -1    0    0    0    0  0.00000000000E+00  0.00000000000E+00  0.45593999997E+02  0.45594000000E+02  0.51100000000E-03 0.  1.
         11   -1    0    0    0    0 -0.00000000000E+00 -0.00000000000E+00 -0.45593999997E+02  0.45594000000E+02  0.51100000000E-03 0. -1.
    9900012    2    1    2    0    0 -0.22644238797E+02  0.22376225826E+02 -0.18068343609E+01  0.59301926499E+02  0.49999968033E+02 0.  0.
         12    1    1    2    0    0  0.22644238797E+02 -0.22376225826E+02  0.18068343609E+01  0.31886073501E+02  0.00000000000E+00 0. -1.
         11    1    3    3    0    0  0.99109380238E+01  0.67663760268E+01  0.10475600542E+02  0.15929492899E+02  0.51100000000E-03 0. -1.
        -11    1    3    3    0    0 -0.32747778167E+02  0.10015830172E+02 -0.56739749910E+01  0.34712070254E+02  0.51100000000E-03 0.  1.
         12    1    3    3    0    0  0.19260134610E+00  0.55940196272E+01 -0.66084599124E+01  0.86603633458E+01  0.00000000000E+00 0. -1.
</event>
<event>
 7    1  0.7821043E-012  0.5930196E+02  0.7816164E-02  0.1266605E+00
        -11   -1    0    0    0    0  0.00000000000E+00  0.00000000000E+00  0.45593999997E+02  0.45594000000E+02  0.51100000000E-03 0. -1.
         11   -1    0    0    0    0 -0.00000000000E+00 -0.00000000000E+00 -0.45593999997E+02  0.45594000000E+02  0.51100000000E-03 0.  1.
    9900012    2    1    2    0    0  0.17446596691E+02  0.22851337500E+02 -0.13789575590E+02  0.59301956711E+02  0.50000023132E+02 0.  0.
         12    1    1    2    0    0 -0.17446596691E+02 -0.22851337500E+02  0.13789575590E+02  0.31886043289E+02  0.00000000000E+00 0. -1.
         11    1    3    3    0    0  0.84163488337E+00 -0.27221990850E+01  0.18008272123E+01  0.33707115042E+01  0.51100000000E-03 0. -1.
        -11    1    3    3    0    0 -0.13080060485E+02  0.11429749171E+02 -0.15145523340E+02  0.23045911262E+02  0.51100000000E-03 0.  1.
        -12    1    3    3    0    0  0.29685022293E+02  0.14143787414E+02 -0.44487946292E+00  0.32885333945E+02  0.00000000000E+00 0.  1.
</event>
<event>
 7    1  0.7821043E-012  0.5930211E+02  0.7816164E-02  0.1266604E+00
        -11   -1    0    0    0    0  0.00000000000E+00  0.00000000000E+00  0.45593999997E+02  0.45594000000E+02  0.51100000000E-03 0.  1.
         11   -1    0    0    0    0 -0.00000000000E+00 -0.00000000000E+00 -0.45593999997E+02  0.45594000000E+02  0.51100000000E-03 0. -1.
    9900012    2    1    2    0    0 -0.73661807158E+01 -0.30317948661E+02 -0.65781122464E+01  0.59302106723E+02  0.50000296716E+02 0.  0.
         12    1    1    2    0    0  0.73661807158E+01  0.30317948661E+02  0.65781122464E+01  0.31885893277E+02  0.00000000000E+00 0. -1.
         11    1    3    3    0    0  0.18698084997E+01 -0.28011895432E+01 -0.12327126829E+02  0.12778924164E+02  0.51100000000E-03 0. -1.
        -11    1    3    3    0    0 -0.11399819440E+02  0.30026376835E+01  0.10220376347E+02  0.15602173222E+02  0.51100000000E-03 0.  1.
        -12    1    3    3    0    0  0.21638302242E+01 -0.30519396801E+02 -0.44713617649E+01  0.30921009336E+02  0.00000000000E+00 0.  1.
</event>
<event>
 7    1  0.7821043E-012  0.5930201E+02  0.7816164E-02  0.1266605E+00
        -11   -1    0    0    0    0  0.00000000000E+00  0.00000000000E+00  0.45593999997E+02  0.45594000000E+02  0.51100000000E-03 0. -1.
         11   -1    0    0    0    0 -0.00000000000E+00 -0.00000000000E+00 -0.45593999997E+02  0.45594000000E+02  0.51100000000E-03 0.  1.
    9900012    2    1    2    0    0  0.19801419828E+02 -0.23166731427E+02  0.93767253521E+01  0.59302005417E+02  0.50000111959E+02 0.  0.
         12    1    1    2    0    0 -0.19801419828E+02  0.23166731427E+02 -0.93767253521E+01  0.31885994583E+02  0.00000000000E+00 0. -1.
         11    1    3    3    0    0  0.48703654161E+01  0.10846442021E+02  0.13762516416E+02  0.18187155417E+02  0.51100000000E-03 0. -1.
        -11    1    3    3    0    0 -0.34399930130E+01 -0.59664555677E+01 -0.31261344138E+01  0.75633894918E+01  0.51100000000E-03 0.  1.
         12    1    3    3    0    0  0.18371047425E+02 -0.28046717880E+02 -0.12596566498E+01  0.33551460508E+02  0.00000000000E+00 0. -1.
</event>
<event>
 7    1  0.7821043E-012  0.5930197E+02  0.7816164E-02  0.1266605E+00
        -11   -1    0    0    0    0  0.00000000000E+00  0.00000000000E+00  0.45593999997E+02  0.45594000000E+02  0.51100000000E-03 0.  1.
         11   -1    0    0    0    0 -0.00000000000E+00 -0.00000000000E+00 -0.45593999997E+02  0.45594000000E+02  0.51100000000E-03 0. -1.
    9900012    2    1    2    0    0 -0.29551477251E+02  0.40293242496E+01 -0.11278022628E+02  0.59301967697E+02  0.50000043167E+02 0.  0.
         12    1    1    2    0    0  0.29551477251E+02 -0.40293242496E+01  0.11278022628E+02  0.31886032303E+02  0.00000000000E+00 0. -1.
         11    1    3    3    0    0 -0.10151278749E+02 -0.41570934400E+01 -0.15150890949E+02  0.18705063029E+02  0.51100000000E-03 0. -1.
        -11    1    3    3    0    0 -0.30891896472E+01 -0.34562464770E+01  0.16347108781E+02  0.16991665550E+02  0.51100000000E-03 0.  1.
        -12    1    3    3    0    0 -0.16311008855E+02  0.11642664167E+02 -0.12474240461E+02  0.23605239118E+02  0.00000000000E+00 0.  1.
</event>
<event>
 7    1  0.7821043E-012  0.5930186E+02  0.7816164E-02  0.1266605E+00
        -11   -1    0    0    0    0  0.00000000000E+00  0.00000000000E+00  0.45593999997E+02  0.45594000000E+02  0.51100000000E-03 0.  1.
         11   -1    0    0    0    0 -0.00000000000E+00 -0.00000000000E+00 -0.45593999997E+02  0.45594000000E+02  0.51100000000E-03 0. -1.
    9900012    2    1    2    0    0  0.12577783043E+02 -0.22828298992E+02  0.18368287283E+02  0.59301861337E+02  0.49999849191E+02 0.  0.
         12    1    1    2    0    0 -0.12577783043E+02  0.22828298992E+02 -0.18368287283E+02  0.31886138663E+02  0.00000000000E+00 0. -1.
         11    1    3    3    0    0  0.10397720263E+02 -0.23213832604E+01 -0.15156203143E+02  0.18525979080E+02  0.51100000000E-03 0. -1.
        -11    1    3    3    0    0  0.40763582076E+01 -0.10320484027E+02  0.25023443489E+02  0.27373377780E+02  0.51100000000E-03 0.  1.
        -12    1    3    3    0    0 -0.18962954267E+01 -0.10186431704E+02  0.85010469376E+01  0.13402504476E+02  0.00000000000E+00 0.  1.
</event>
<event>
 7    1  0.7821043E-012  0.5930197E+02  0.7816164E-02  0.1266605E+00
        -11   -1    0    0    0    0  0.00000000000E+00  0.00000000000E+00  0.45593999997E+02  0.45594000000E+02  0.51100000000E-03 0. -1.
         11   -1    0    0    0    0 -0.00000000000E+00 -0.00000000000E+00 -0.45593999997E+02  0.45594000000E+02  0.51100000000E-03 0.  1.
    9900012    2    1    2    0    0 -0.33092613448E+01  0.18163269311E+02 -0.25997373345E+02  0.59301968833E+02  0.50000045239E+02 0.  0.
         12    1    1    2    0    0  0.33092613448E+01 -0.18163269311E+02  0.25997373345E+02  0.31886031167E+02  0.00000000000E+00 0. -1.
         11    1    3    3    0    0  0.66389128274E+01  0.28756944541E+01 -0.29326362239E+00  0.72409105737E+01  0.51100000000E-03 0. -1.
        -11    1    3    3    0    0 -0.21463813813E+02  0.22736084120E+02 -0.15084253141E+02  0.34715407496E+02  0.51100000000E-03 0.  1.
        -12    1    3    3    0    0  0.11515639641E+02 -0.74485092628E+01 -0.10619856582E+02  0.17345650764E+02  0.00000000000E+00 0.  1.
</event>
<event>
 7    1  0.7821043E-012  0.5930192E+02  0.7816164E-02  0.1266605E+00
        -11   -1    0    0    0    0  0.00000000000E+00  0.00000000000E+00  0.45593999997E+02  0.45594000000E+02  0.51100000000E-03 0. -1.
         11   -1    0    0    0    0 -0.00000000000E+00 -0.00000000000E+00 -0.45593999997E+02  0.45594000000E+02  0.51100000000E-03 0.  1.
    9900012    2    1    2    0    0 -0.28563457200E+02  0.13094591615E+02 -0.54205589883E+01  0.59301923469E+02  0.49999962507E+02 0.  0.
         12    1    1    2    0    0  0.28563457200E+02 -0.13094591615E+02  0.54205589883E+01  0.31886076531E+02  0.00000000000E+00 0. -1.
         11    1    3    3    0    0 -0.21448073060E+02  0.25522385866E+02  0.86358224107E+01  0.34438197503E+02  0.51100000000E-03 0. -1.
        -11    1    3    3    0    0 -0.10376558757E+02 -0.45556427380E+01 -0.11049671948E+02  0.15827890030E+02  0.51100000000E-03 0.  1.
         12    1    3    3    0    0  0.32611746173E+01 -0.78721515136E+01 -0.30067094515E+01  0.90358359361E+01  0.00000000000E+00 0. -1.
</event>
<event>
 7    1  0.7821043E-012  0.5930193E+02  0.7816164E-02  0.1266605E+00
        -11   -1    0    0    0    0  0.00000000000E+00  0.00000000000E+00  0.45593999997E+02  0.45594000000E+02  0.51100000000E-03 0.  1.
         11   -1    0    0    0    0 -0.00000000000E+00 -0.00000000000E+00 -0.45593999997E+02  0.45594000000E+02  0.51100000000E-03 0. -1.
    9900012    2    1    2    0    0  0.12620196272E+02  0.25886935294E+02  0.13686439964E+02  0.59301930757E+02  0.49999975798E+02 0.  0.
         12    1    1    2    0    0 -0.12620196272E+02 -0.25886935294E+02 -0.13686439964E+02  0.31886069243E+02  0.00000000000E+00 0. -1.
         11    1    3    3    0    0  0.19608982318E+02 -0.19006770857E+01  0.24647332202E+01  0.19854462245E+02  0.51100000000E-03 0.  1.
        -11    1    3    3    0    0  0.72401323868E+01  0.12731071556E+02  0.11669569857E+02  0.18726413454E+02  0.51100000000E-03 0. -1.
         12    1    3    3    0    0 -0.14228918433E+02  0.15056540824E+02 -0.44786311398E+00  0.20721055058E+02  0.00000000000E+00 0. -1.
</event>
<event>
 7    1  0.7821043E-012  0.5930195E+02  0.7816164E-02  0.1266605E+00
        -11   -1    0    0    0    0  0.00000000000E+00  0.00000000000E+00  0.45593999997E+02  0.45594000000E+02  0.51100000000E-03 0. -1.
         11   -1    0    0    0    0 -0.00000000000E+00 -0.00000000000E+00 -0.45593999997E+02  0.45594000000E+02  0.51100000000E-03 0.  1.
    9900012    2    1    2    0    0 -0.96184888136E+00 -0.14765825876E+01 -0.31837313253E+02  0.59301953450E+02  0.50000017185E+02 0.  0.
         12    1    1    2    0    0  0.96184888136E+00  0.14765825876E+01  0.31837313253E+02  0.31886046550E+02  0.00000000000E+00 0. -1.
         11    1    3    3    0    0 -0.60612926658E+01 -0.12892205879E+01  0.80682114837E+00  0.62491854775E+01  0.51100000000E-03 0. -1.
        -11    1    3    3    0    0  0.16542722997E+02  0.20530910216E+01  0.17257482106E+01  0.16758731278E+02  0.51100000000E-03 0.  1.
        -12    1    3    3    0    0 -0.11443279213E+02 -0.22404530213E+01 -0.34369882612E+02  0.36294036695E+02  0.00000000000E+00 0.  1.
</event>
<event>
 7    1  0.7821043E-012  0.5930208E+02  0.7816164E-02  0.1266604E+00
        -11   -1    0    0    0    0  0.00000000000E+00  0.00000000000E+00  0.45593999997E+02  0.45594000000E+02  0.51100000000E-03 0.  1.
         11   -1    0    0    0    0 -0.00000000000E+00 -0.00000000000E+00 -0.45593999997E+02  0.45594000000E+02  0.51100000000E-03 0. -1.
    9900012    2    1    2    0    0  0.17088315154E+02  0.14297964193E+02 -0.22809424198E+02  0.59302076348E+02  0.50000241320E+02 0.  0.
         12    1    1    2    0    0 -0.17088315154E+02 -0.14297964193E+02  0.22809424198E+02  0.31885923652E+02  0.00000000000E+00 0. -1.
         11    1    3    3    0    0  0.22402165713E+01  0.98061561172E+00 -0.26174162516E+02  0.26288152483E+02  0.51100000000E-03 0. -1.
        -11    1    3    3    0    0 -0.12967098008E+01  0.57109185362E+00  0.10986397563E+02  0.11077388406E+02  0.51100000000E-03 0.  1.
         12    1    3    3    0    0  0.16144808384E+02  0.12746256728E+02 -0.76216592448E+01  0.21936535460E+02  0.00000000000E+00 0. -1.
</event>
<event>
 7    1  0.7821043E-012  0.5930196E+02  0.7816164E-02  0.1266605E+00
        -11   -1    0    0    0    0  0.00000000000E+00  0.00000000000E+00  0.45593999997E+02  0.45594000000E+02  0.51100000000E-03 0.  1.
         11   -1    0    0    0    0 -0.00000000000E+00 -0.00000000000E+00 -0.45593999997E+02  0.45594000000E+02  0.51100000000E-03 0. -1.
    9900012    2    1    2    0    0 -0.23998796228E+01  0.22128095366E+02  0.22832152962E+02  0.59301964881E+02  0.50000038032E+02 0.  0.
         12    1    1    2    0    0  0.23998796228E+01 -0.22128095366E+02 -0.22832152962E+02  0.31886035119E+02  0.00000000000E+00 0. -1.
         11    1    3    3    0    0  0.10660755426E+02 -0.16774278869E+01  0.12825521150E+02  0.16761845471E+02  0.51100000000E-03 0. -1.
        -11    1    3    3    0    0 -0.83628178196E+01 -0.30871263317E+01 -0.61384162221E+01  0.10823457158E+02  0.51100000000E-03 0.  1.
        -12    1    3    3    0    0 -0.46978172294E+01  0.26892649585E+02  0.16145048034E+02  0.31716662252E+02  0.00000000000E+00 0.  1.
</event>
<event>
 7    1  0.7821043E-012  0.5930193E+02  0.7816164E-02  0.1266605E+00
        -11   -1    0    0    0    0  0.00000000000E+00  0.00000000000E+00  0.45593999997E+02  0.45594000000E+02  0.51100000000E-03 0.  1.
         11   -1    0    0    0    0 -0.00000000000E+00 -0.00000000000E+00 -0.45593999997E+02  0.45594000000E+02  0.51100000000E-03 0. -1.
    9900012    2    1    2    0    0 -0.15872333588E+01 -0.15470668326E+02  0.27836314122E+02  0.59301932948E+02  0.49999979793E+02 0.  0.
         12    1    1    2    0    0  0.15872333588E+01  0.15470668326E+02 -0.27836314122E+02  0.31886067052E+02  0.00000000000E+00 0. -1.
         11    1    3    3    0    0  0.23848060025E+01 -0.27110759632E+02  0.31937987974E+00  0.27217321530E+02  0.51100000000E-03 0. -1.
        -11    1    3    3    0    0 -0.66833234220E+01  0.11703328015E+02  0.20218733145E+02  0.24298803856E+02  0.51100000000E-03 0.  1.
         12    1    3    3    0    0  0.27112840608E+01 -0.63236708153E-01  0.72982010969E+01  0.77858075619E+01  0.00000000000E+00 0. -1.
</event>
<event>
 7    1  0.7821043E-012  0.5930195E+02  0.7816164E-02  0.1266605E+00
        -11   -1    0    0    0    0  0.00000000000E+00  0.00000000000E+00  0.45593999997E+02  0.45594000000E+02  0.51100000000E-03 0.  1.
         11   -1    0    0    0    0 -0.00000000000E+00 -0.00000000000E+00 -0.45593999997E+02  0.45594000000E+02  0.51100000000E-03 0. -1.
    9900012    2    1    2    0    0  0.17729070021E+02  0.15006720880E+02  0.21844879915E+02  0.59301947032E+02  0.50000005480E+02 0.  0.
         12    1    1    2    0    0 -0.17729070021E+02 -0.15006720880E+02 -0.21844879915E+02  0.31886052968E+02  0.00000000000E+00 0. -1.
         11    1    3    3    0    0  0.44875166158E+01  0.20351230078E+02  0.14660572537E+02  0.25480242511E+02  0.51100000000E-03 0. -1.
        -11    1    3    3    0    0  0.56463676254E+00 -0.12532041170E+02  0.13060049738E+02  0.18108996935E+02  0.51100000000E-03 0.  1.
        -12    1    3    3    0    0  0.12676916643E+02  0.71875319719E+01 -0.58757423605E+01  0.15712707586E+02  0.00000000000E+00 0.  1.
</event>
<event>
 7    1  0.7821043E-012  0.5930192E+02  0.7816164E-02  0.1266605E+00
        -11   -1    0    0    0    0  0.00000000000E+00  0.00000000000E+00  0.45593999997E+02  0.45594000000E+02  0.51100000000E-03 0. -1.
         11   -1    0    0    0    0 -0.00000000000E+00 -0.00000000000E+00 -0.45593999997E+02  0.45594000000E+02  0.51100000000E-03 0.  1.
    9900012    2    1    2    0    0 -0.30629585731E+02 -0.26991988367E+01  0.84418636083E+01  0.59301917493E+02  0.49999951608E+02 0.  0.
         12    1    1    2    0    0  0.30629585731E+02  0.26991988367E+01 -0.84418636083E+01  0.31886082507E+02  0.00000000000E+00 0. -1.
         11    1    3    3    0    0 -0.53748520282E+01 -0.13975267376E+02 -0.49497330100E+01  0.15770129666E+02  0.51100000000E-03 0. -1.
        -11    1    3    3    0    0 -0.12845869439E+02  0.84951183026E+01  0.22939460266E+02  0.27629734602E+02  0.51100000000E-03 0.  1.
        -12    1    3    3    0    0 -0.12408864264E+02  0.27809502369E+01 -0.95478636476E+01  0.15902053225E+02  0.00000000000E+00 0.  1.
</event>
<event>
 7    1  0.7821043E-012  0.5930195E+02  0.7816164E-02  0.1266605E+00
        -11   -1    0    0    0    0  0.00000000000E+00  0.00000000000E+00  0.45593999997E+02  0.45594000000E+02  0.51100000000E-03 0.  1.
         11   -1    0    0    0    0 -0.00000000000E+00 -0.00000000000E+00 -0.45593999997E+02  0.45594000000E+02  0.51100000000E-03 0. -1.
    9900012    2    1    2    0    0 -0.59860923867E+01  0.17042440237E+02  0.26276270318E+02  0.59301945790E+02  0.50000003213E+02 0.  0.
         12    1    1    2    0    0  0.59860923867E+01 -0.17042440237E+02 -0.26276270318E+02  0.31886054210E+02  0.00000000000E+00 0. -1.
         11    1    3    3    0    0  0.27565382726E+01  0.36833610450E+01 -0.91439100659E+01  0.10236051162E+02  0.51100000000E-03 0. -1.
        -11    1    3    3    0    0 -0.19582222050E+02  0.54906995734E+01  0.24050807778E+02  0.31496865833E+02  0.51100000000E-03 0.  1.
         12    1    3    3    0    0  0.10839591391E+02  0.78683796185E+01  0.11369372605E+02  0.17569028795E+02  0.00000000000E+00 0. -1.
</event>
<event>
 7    1  0.7821043E-012  0.5930197E+02  0.7816164E-02  0.1266605E+00
        -11   -1    0    0    0    0  0.00000000000E+00  0.00000000000E+00  0.45593999997E+02  0.45594000000E+02  0.51100000000E-03 0.  1.
         11   -1    0    0    0    0 -0.00000000000E+00 -0.00000000000E+00 -0.45593999997E+02  0.45594000000E+02  0.51100000000E-03 0. -1.
    9900012    2    1    2    0    0 -0.22760654119E+02 -0.91306343627E+01  0.20378986700E+02  0.59301969223E+02  0.50000045950E+02 0.  0.
         12    1    1    2    0    0  0.22760654119E+02  0.91306343627E+01 -0.20378986700E+02  0.31886030777E+02  0.00000000000E+00 0. -1.
         11    1    3    3    0    0 -0.20086626492E+01  0.16627604592E+01 -0.15961144555E+01  0.30572993964E+01  0.51100000000E-03 0. -1.
        -11    1    3    3    0    0  0.18246345435E+01 -0.16093073199E+01  0.30369225924E+02  0.30466523345E+02  0.51100000000E-03 0.  1.
        -12    1    3    3    0    0 -0.22576626013E+02 -0.91840875020E+01 -0.83941247679E+01  0.25778146481E+02  0.00000000000E+00 0.  1.
</event>
<event>
 7    1  0.7821043E-012  0.5930196E+02  0.7816164E-02  0.1266605E+00
        -11   -1    0    0    0    0  0.00000000000E+00  0.00000000000E+00  0.45593999997E+02  0.45594000000E+02  0.51100000000E-03 0.  1.
         11   -1    0    0    0    0 -0.00000000000E+00 -0.00000000000E+00 -0.45593999997E+02  0.45594000000E+02  0.51100000000E-03 0. -1.
    9900012    2    1    2    0    0 -0.56869079260E+01  0.30991358475E+02 -0.48902369638E+01  0.59301958548E+02  0.50000026482E+02 0.  0.
         12    1    1    2    0    0  0.56869079260E+01 -0.30991358475E+02  0.48902369638E+01  0.31886041452E+02  0.00000000000E+00 0. -1.
         11    1    3    3    0    0  0.54640589412E+01 -0.76096504163E+00 -0.28191757135E+00  0.55239918253E+01  0.51100000000E-03 0. -1.
        -11    1    3    3    0    0 -0.56816550997E+01  0.21190675157E+02 -0.23057494886E+02  0.31827252300E+02  0.51100000000E-03 0.  1.
        -12    1    3    3    0    0 -0.54693117675E+01  0.10561648360E+02  0.18449175494E+02  0.21950714423E+02  0.00000000000E+00 0.  1.
</event>
<event>
 7    1  0.7821043E-012  0.5930194E+02  0.7816164E-02  0.1266605E+00
        -11   -1    0    0    0    0  0.00000000000E+00  0.00000000000E+00  0.45593999997E+02  0.45594000000E+02  0.51100000000E-03 0. -1.
         11   -1    0    0    0    0 -0.00000000000E+00 -0.00000000000E+00 -0.45593999997E+02  0.45594000000E+02  0.51100000000E-03 0.  1.
    9900012    2    1    2    0    0 -0.27969533177E+02 -0.10040326621E+02 -0.11559307779E+02  0.59301944410E+02  0.50000000697E+02 0.  0.
         12    1    1    2    0    0  0.27969533177E+02  0.10040326621E+02  0.11559307779E+02  0.31886055590E+02  0.00000000000E+00 0. -1.
         11    1    3    3    0    0  0.11174399494E+01  0.35101380812E+01 -0.70950307025E+01  0.79943231308E+01  0.51100000000E-03 0. -1.
        -11    1    3    3    0    0 -0.32380285099E+02  0.14916291981E+01  0.56239028911E+01  0.32898876952E+02  0.51100000000E-03 0.  1.
        -12    1    3    3    0    0  0.32933119726E+01 -0.15042093900E+02 -0.10088179967E+02  0.18408744327E+02  0.00000000000E+00 0.  1.
</event>
<event>
 7    1  0.7821043E-012  0.5930202E+02  0.7816164E-02  0.1266605E+00
        -11   -1    0    0    0    0  0.00000000000E+00  0.00000000000E+00  0.45593999997E+02  0.45594000000E+02  0.51100000000E-03 0.  1.
         11   -1    0    0    0    0 -0.00000000000E+00 -0.00000000000E+00 -0.45593999997E+02  0.45594000000E+02  0.51100000000E-03 0. -1.
    9900012    2    1    2    0    0  0.32178960604E+00  0.13606063814E+02  0.28835524129E+02  0.59302016044E+02  0.50000131340E+02 0.  0.
         12    1    1    2    0    0 -0.32178960604E+00 -0.13606063814E+02 -0.28835524129E+02  0.31885983956E+02  0.00000000000E+00 0. -1.
         11    1    3    3    0    0 -0.37707897611E+01  0.12030508227E+02 -0.29394211382E+01  0.12945739860E+02  0.51100000000E-03 0. -1.
        -11    1    3    3    0    0 -0.12653516524E+02 -0.36090194798E+01  0.23585005095E+02  0.27007202143E+02  0.51100000000E-03 0.  1.
        -12    1    3    3    0    0  0.16746095891E+02  0.51845750670E+01  0.81899401723E+01  0.19349074041E+02  0.00000000000E+00 0.  1.
</event>
<event>
 7    1  0.7821043E-012  0.5930196E+02  0.7816164E-02  0.1266605E+00
        -11   -1    0    0    0    0  0.00000000000E+00  0.00000000000E+00  0.45593999997E+02  0.45594000000E+02  0.51100000000E-03 0.  1.
         11   -1    0    0    0    0 -0.00000000000E+00 -0.00000000000E+00 -0.45593999997E+02  0.45594000000E+02  0.51100000000E-03 0. -1.
    9900012    2    1    2    0    0  0.99151644394E+01  0.15954666370E+02  0.25765441528E+02  0.59301955373E+02  0.50000020691E+02 0.  0.
         12    1    1    2    0    0 -0.99151644394E+01 -0.15954666370E+02 -0.25765441528E+02  0.31886044627E+02  0.00000000000E+00 0. -1.
         11    1    3    3    0    0 -0.61977179310E+01 -0.90896178199E+01  0.19446967114E+02  0.22343173227E+02  0.51100000000E-03 0. -1.
        -11    1    3    3    0    0  0.20737073644E+02  0.21255818694E+02  0.79894547168E+01  0.30751706272E+02  0.51100000000E-03 0.  1.
        -12    1    3    3    0    0 -0.46241912734E+01  0.37884654955E+01 -0.16709803029E+01  0.62070758748E+01  0.00000000000E+00 0.  1.
</event>
<event>
 7    1  0.7821043E-012  0.5930195E+02  0.7816164E-02  0.1266605E+00
        -11   -1    0    0    0    0  0.00000000000E+00  0.00000000000E+00  0.45593999997E+02  0.45594000000E+02  0.51100000000E-03 0.  1.
         11   -1    0    0    0    0 -0.00000000000E+00 -0.00000000000E+00 -0.45593999997E+02  0.45594000000E+02  0.51100000000E-03 0. -1.
    9900012    2    1    2    0    0 -0.18365197272E+02  0.21772234580E+02  0.14332124818E+02  0.59301945505E+02  0.50000002695E+02 0.  0.
         12    1    1    2    0    0  0.18365197272E+02 -0.21772234580E+02 -0.14332124818E+02  0.31886054495E+02  0.00000000000E+00 0. -1.
         11    1    3    3    0    0  0.17638962595E+01 -0.57122018394E+01 -0.79986749907E+01  0.99859592297E+01  0.51100000000E-03 0. -1.
        -11    1    3    3    0    0 -0.11618997934E+02  0.12966656937E+02 -0.41889666317E+01  0.17907617005E+02  0.51100000000E-03 0.  1.
         12    1    3    3    0    0 -0.85100955971E+01  0.14517779482E+02  0.26519766440E+02  0.31408369270E+02  0.00000000000E+00 0. -1.
</event>
<event>
 7    1  0.7821043E-012  0.5930195E+02  0.7816164E-02  0.1266605E+00
        -11   -1    0    0    0    0  0.00000000000E+00  0.00000000000E+00  0.45593999997E+02  0.45594000000E+02  0.51100000000E-03 0.  1.
         11   -1    0    0    0    0 -0.00000000000E+00 -0.00000000000E+00 -0.45593999997E+02  0.45594000000E+02  0.51100000000E-03 0. -1.
    9900012    2    1    2    0    0  0.13470367163E+01  0.23698238576E+02 -0.21290829645E+02  0.59301945893E+02  0.50000003402E+02 0.  0.
         12    1    1    2    0    0 -0.13470367163E+01 -0.23698238576E+02  0.21290829645E+02  0.31886054107E+02  0.00000000000E+00 0. -1.
         11    1    3    3    0    0  0.92460988960E+01  0.93746592425E+01 -0.22861603590E+02  0.26382333098E+02  0.51100000000E-03 0. -1.
        -11    1    3    3    0    0  0.26183749032E+01  0.16088812275E+02  0.10176159789E+02  0.19216138942E+02  0.51100000000E-03 0.  1.
         12    1    3    3    0    0 -0.10517437083E+02 -0.17652329406E+01 -0.86053858433E+01  0.13703473853E+02  0.00000000000E+00 0. -1.
</event>
<event>
 7    1  0.7821043E-012  0.5930195E+02  0.7816164E-02  0.1266605E+00
        -11   -1    0    0    0    0  0.00000000000E+00  0.00000000000E+00  0.45593999997E+02  0.45594000000E+02  0.51100000000E-03 0.  1.
         11   -1    0    0    0    0 -0.00000000000E+00 -0.00000000000E+00 -0.45593999997E+02  0.45594000000E+02  0.51100000000E-03 0. -1.
    9900012    2    1    2    0    0 -0.68868332937E+01  0.19926965871E+02  0.23920862297E+02  0.59301951410E+02  0.50000013464E+02 0.  0.
         12    1    1    2    0    0  0.68868332937E+01 -0.19926965871E+02 -0.23920862297E+02  0.31886048590E+02  0.00000000000E+00 0. -1.
         11    1    3    3    0    0  0.14272320918E+02  0.97237388298E+01 -0.31093357267E+00  0.17272721880E+02  0.51100000000E-03 0. -1.
        -11    1    3    3    0    0 -0.18877710422E+02  0.16602300895E+01  0.26798364016E+02  0.32821892525E+02  0.51100000000E-03 0.  1.
        -12    1    3    3    0    0 -0.22814437893E+01  0.85429969511E+01 -0.25665681458E+01  0.92073370047E+01  0.00000000000E+00 0.  1.
</event>
<event>
 7    1  0.7821043E-012  0.5930198E+02  0.7816164E-02  0.1266605E+00
        -11   -1    0    0    0    0  0.00000000000E+00  0.00000000000E+00  0.45593999997E+02  0.45594000000E+02  0.51100000000E-03 0. -1.
         11   -1    0    0    0    0 -0.00000000000E+00 -0.00000000000E+00 -0.45593999997E+02  0.45594000000E+02  0.51100000000E-03 0.  1.
    9900012    2    1    2    0    0  0.29298572295E+02  0.92671010185E+01 -0.85107481624E+01  0.59301979017E+02  0.50000063812E+02 0.  0.
         12    1    1    2    0    0 -0.29298572295E+02 -0.92671010185E+01  0.85107481624E+01  0.31886020983E+02  0.00000000000E+00 0. -1.
         11    1    3    3    0    0 -0.41133439172E+01  0.14256327702E+01  0.97433766316E+01  0.10671710989E+02  0.51100000000E-03 0. -1.
        -11    1    3    3    0    0  0.18981228043E+02  0.18936272562E+02 -0.12097002243E+02  0.29414399536E+02  0.51100000000E-03 0.  1.
        -12    1    3    3    0    0  0.14430688170E+02 -0.11094804313E+02 -0.61571225509E+01  0.19215868492E+02  0.00000000000E+00 0.  1.
</event>
<event>
 7    1  0.7821043E-012  0.5930194E+02  0.7816164E-02  0.1266605E+00
        -11   -1    0    0    0    0  0.00000000000E+00  0.00000000000E+00  0.45593999997E+02  0.45594000000E+02  0.51100000000E-03 0.  1.
         11   -1    0    0    0    0 -0.00000000000E+00 -0.00000000000E+00 -0.45593999997E+02  0.45594000000E+02  0.51100000000E-03 0. -1.
    9900012    2    1    2    0    0 -0.19024995318E+01 -0.24900378482E+02 -0.19826048896E+02  0.59301943990E+02  0.49999999932E+02 0.  0.
         12    1    1    2    0    0  0.19024995318E+01  0.24900378482E+02  0.19826048896E+02  0.31886056010E+02  0.00000000000E+00 0. -1.
         11    1    3    3    0    0 -0.19933973332E+02 -0.96421007345E+01 -0.25657754613E+02  0.33891795046E+02  0.51100000000E-03 0. -1.
        -11    1    3    3    0    0  0.11766683104E+02 -0.74965987016E+01  0.65438067354E+01  0.15410231349E+02  0.51100000000E-03 0.  1.
         12    1    3    3    0    0  0.62647906955E+01 -0.77616790458E+01 -0.71210101861E+00  0.99999175961E+01  0.00000000000E+00 0. -1.
</event>
<event>
 7    1  0.7821043E-012  0.5930193E+02  0.7816164E-02  0.1266605E+00
        -11   -1    0    0    0    0  0.00000000000E+00  0.00000000000E+00  0.45593999997E+02  0.45594000000E+02  0.51100000000E-03 0.  1.
         11   -1    0    0    0    0 -0.00000000000E+00 -0.00000000000E+00 -0.45593999997E+02  0.45594000000E+02  0.51100000000E-03 0. -1.
    9900012    2    1    2    0    0 -0.18632857542E+02 -0.25841379622E+02  0.13269876699E+01  0.59301934435E+02  0.49999982505E+02 0.  0.
         12    1    1    2    0    0  0.18632857542E+02  0.25841379622E+02 -0.13269876699E+01  0.31886065565E+02  0.00000000000E+00 0. -1.
         11    1    3    3    0    0 -0.16292973915E+02  0.78922629797E+01  0.14286380250E+02  0.23061861912E+02  0.51100000000E-03 0. -1.
        -11    1    3    3    0    0 -0.17068752575E+00 -0.12131489291E+02 -0.47104467820E+01  0.13015009635E+02  0.51100000000E-03 0.  1.
         12    1    3    3    0    0 -0.21691961009E+01 -0.21602153310E+02 -0.82489457979E+01  0.23225062888E+02  0.00000000000E+00 0. -1.
</event>
<event>
 7    1  0.7821043E-012  0.5930196E+02  0.7816164E-02  0.1266605E+00
        -11   -1    0    0    0    0  0.00000000000E+00  0.00000000000E+00  0.45593999997E+02  0.45594000000E+02  0.51100000000E-03 0.  1.
         11   -1    0    0    0    0 -0.00000000000E+00 -0.00000000000E+00 -0.45593999997E+02  0.45594000000E+02  0.51100000000E-03 0. -1.
    9900012    2    1    2    0    0  0.54580202462E+01  0.20775376226E+02  0.23565091915E+02  0.59301956042E+02  0.50000021911E+02 0.  0.
         12    1    1    2    0    0 -0.54580202462E+01 -0.20775376226E+02 -0.23565091915E+02  0.31886043958E+02  0.00000000000E+00 0. -1.
         11    1    3    3    0    0 -0.62783220940E+00  0.31408585369E+02  0.15679106402E+02  0.35110223383E+02  0.51100000000E-03 0. -1.
        -11    1    3    3    0    0  0.57458277276E+01 -0.13524703232E+02 -0.11098682328E+01  0.14736483351E+02  0.51100000000E-03 0.  1.
        -12    1    3    3    0    0  0.34002472805E+00  0.28914940887E+01  0.89958537448E+01  0.94552493081E+01  0.00000000000E+00 0.  1.
</event>
<event>
 7    1  0.7821043E-012  0.5930197E+02  0.7816164E-02  0.1266605E+00
        -11   -1    0    0    0    0  0.00000000000E+00  0.00000000000E+00  0.45593999997E+02  0.45594000000E+02  0.51100000000E-03 0. -1.
         11   -1    0    0    0    0 -0.00000000000E+00 -0.00000000000E+00 -0.45593999997E+02  0.45594000000E+02  0.51100000000E-03 0.  1.
    9900012    2    1    2    0    0 -0.26859856476E+02  0.85961990699E+01 -0.14878584327E+02  0.59301971713E+02  0.50000050491E+02 0.  0.
         12    1    1    2    0    0  0.26859856476E+02 -0.85961990699E+01  0.14878584327E+02  0.31886028287E+02  0.00000000000E+00 0. -1.
         11    1    3    3    0    0 -0.64296240155E+01  0.42047151405E+01  0.75097708000E+01  0.10743200274E+02  0.51100000000E-03 0. -1.
        -11    1    3    3    0    0 -0.49361663712E+01  0.10885654769E+02 -0.28322680062E+02  0.30741460999E+02  0.51100000000E-03 0.  1.
        -12    1    3    3    0    0 -0.15494066090E+02 -0.64941708399E+01  0.59343249350E+01  0.17817310440E+02  0.00000000000E+00 0.  1.
</event>
<event>
 7    1  0.7821043E-012  0.5930195E+02  0.7816164E-02  0.1266605E+00
        -11   -1    0    0    0    0  0.00000000000E+00  0.00000000000E+00  0.45593999997E+02  0.45594000000E+02  0.51100000000E-03 0.  1.
         11   -1    0    0    0    0 -0.00000000000E+00 -0.00000000000E+00 -0.45593999997E+02  0.45594000000E+02  0.51100000000E-03 0. -1.
    9900012    2    1    2    0    0  0.45806126997E+01  0.18769401589E+02  0.25366271587E+02  0.59301950026E+02  0.50000010940E+02 0.  0.
         12    1    1    2    0    0 -0.45806126997E+01 -0.18769401589E+02 -0.25366271587E+02  0.31886049974E+02  0.00000000000E+00 0. -1.
         11    1    3    3    0    0  0.87595883560E+01 -0.95814380821E+01  0.72202930390E+01  0.14854863706E+02  0.51100000000E-03 0. -1.
        -11    1    3    3    0    0  0.39966593610E+01  0.29799716629E+02  0.19773656166E+02  0.35986023337E+02  0.51100000000E-03 0.  1.
        -12    1    3    3    0    0 -0.81756350174E+01 -0.14488769585E+01 -0.16276776179E+01  0.84610629832E+01  0.00000000000E+00 0.  1.
</event>
<event>
 7    1  0.7821043E-012  0.5930193E+02  0.7816164E-02  0.1266605E+00
        -11   -1    0    0    0    0  0.00000000000E+00  0.00000000000E+00  0.45593999997E+02  0.45594000000E+02  0.51100000000E-03 0.  1.
         11   -1    0    0    0    0 -0.00000000000E+00 -0.00000000000E+00 -0.45593999997E+02  0.45594000000E+02  0.51100000000E-03 0. -1.
    9900012    2    1    2    0    0  0.77292416060E+01 -0.16689609555E+02  0.26046828720E+02  0.59301928914E+02  0.49999972437E+02 0.  0.
         12    1    1    2    0    0 -0.77292416060E+01  0.16689609555E+02 -0.26046828720E+02  0.31886071086E+02  0.00000000000E+00 0. -1.
         11    1    3    3    0    0 -0.11281317376E+02 -0.21330928399E+02  0.46476492109E+01  0.24573914454E+02  0.51100000000E-03 0. -1.
        -11    1    3    3    0    0  0.36660591974E+01  0.40994373786E+01  0.18241649838E+02  0.19052641968E+02  0.51100000000E-03 0.  1.
        -12    1    3    3    0    0  0.15344499785E+02  0.54188146541E+00  0.31575296706E+01  0.15675372493E+02  0.00000000000E+00 0.  1.
</event>
<event>
 7    1  0.7821043E-012  0.5930195E+02  0.7816164E-02  0.1266605E+00
        -11   -1    0    0    0    0  0.00000000000E+00  0.00000000000E+00  0.45593999997E+02  0.45594000000E+02  0.51100000000E-03 0. -1.
         11   -1    0    0    0    0 -0.00000000000E+00 -0.00000000000E+00 -0.45593999997E+02  0.45594000000E+02  0.51100000000E-03 0.  1.
    9900012    2    1    2    0    0 -0.73266215239E+01 -0.27769419694E+02  0.13852802260E+02  0.59301950017E+02  0.50000010923E+02 0.  0.
         12    1    1    2    0    0  0.73266215239E+01  0.27769419694E+02 -0.13852802260E+02  0.31886049983E+02  0.00000000000E+00 0. -1.
         11    1    3    3    0    0  0.76474926927E+00  0.11959689922E+01  0.13666069475E+02  0.13739601102E+02  0.51100000000E-03 0. -1.
        -11    1    3    3    0    0 -0.18493502694E+02 -0.24083208492E+02 -0.80627971655E+01  0.31416862853E+02  0.51100000000E-03 0.  1.
         12    1    3    3    0    0  0.10402131901E+02 -0.48821801940E+01  0.82495299499E+01  0.14145486062E+02  0.00000000000E+00 0. -1.
</event>
<event>
 7    1  0.7821043E-012  0.5930194E+02  0.7816164E-02  0.1266605E+00
        -11   -1    0    0    0    0  0.00000000000E+00  0.00000000000E+00  0.45593999997E+02  0.45594000000E+02  0.51100000000E-03 0.  1.
         11   -1    0    0    0    0 -0.00000000000E+00 -0.00000000000E+00 -0.45593999997E+02  0.45594000000E+02  0.51100000000E-03 0. -1.
    9900012    2    1    2    0    0 -0.13573534018E+02 -0.12505189433E+02  0.26001924049E+02  0.59301942816E+02  0.49999997791E+02 0.  0.
         12    1    1    2    0    0  0.13573534018E+02  0.12505189433E+02 -0.26001924049E+02  0.31886057184E+02  0.00000000000E+00 0. -1.
         11    1    3    3    0    0 -0.18714691452E+02 -0.17826188570E+02  0.26226431061E+02  0.36821710465E+02  0.51100000000E-03 0.  1.
        -11    1    3    3    0    0 -0.44964796485E+01  0.10581529680E+02 -0.26438392583E+00  0.11500304288E+02  0.51100000000E-03 0. -1.
         12    1    3    3    0    0  0.96376370825E+01 -0.52605305420E+01  0.39876913340E-01  0.10979928064E+02  0.00000000000E+00 0. -1.
</event>
<event>
 7    1  0.7821043E-012  0.5930195E+02  0.7816164E-02  0.1266605E+00
        -11   -1    0    0    0    0  0.00000000000E+00  0.00000000000E+00  0.45593999997E+02  0.45594000000E+02  0.51100000000E-03 0. -1.
         11   -1    0    0    0    0 -0.00000000000E+00 -0.00000000000E+00 -0.45593999997E+02  0.45594000000E+02  0.51100000000E-03 0.  1.
    9900012    2    1    2    0    0 -0.30289236424E+01 -0.23906215586E+01 -0.31651712573E+02  0.59301947270E+02  0.50000005913E+02 0.  0.
         12    1    1    2    0    0  0.30289236424E+01  0.23906215586E+01  0.31651712573E+02  0.31886052730E+02  0.00000000000E+00 0. -1.
         11    1    3    3    0    0  0.81832987413E+01 -0.16763358539E+02 -0.87713323037E+01  0.20613414041E+02  0.51100000000E-03 0. -1.
        -11    1    3    3    0    0 -0.91336116095E+01  0.17231672881E+02 -0.45578473073E+01  0.20028164760E+02  0.51100000000E-03 0.  1.
        -12    1    3    3    0    0 -0.20786107742E+01 -0.28589359008E+01 -0.18322532962E+02  0.18660368469E+02  0.00000000000E+00 0.  1.
</event>
<event>
 7    1  0.7821043E-012  0.5930188E+02  0.7816164E-02  0.1266605E+00
        -11   -1    0    0    0    0  0.00000000000E+00  0.00000000000E+00  0.45593999997E+02  0.45594000000E+02  0.51100000000E-03 0.  1.
         11   -1    0    0    0    0 -0.00000000000E+00 -0.00000000000E+00 -0.45593999997E+02  0.45594000000E+02  0.51100000000E-03 0. -1.
    9900012    2    1    2    0    0  0.25491267926E+02 -0.12163141884E+02  0.14797908249E+02  0.59301876850E+02  0.49999877484E+02 0.  0.
         12    1    1    2    0    0 -0.25491267926E+02  0.12163141884E+02 -0.14797908249E+02  0.31886123150E+02  0.00000000000E+00 0. -1.
         11    1    3    3    0    0 -0.90950780830E+01 -0.21325365694E+01  0.16876277358E+02  0.19289294837E+02  0.51100000000E-03 0. -1.
        -11    1    3    3    0    0  0.15901650459E+02 -0.67527355251E+01  0.74145133751E+01  0.18799918437E+02  0.51100000000E-03 0.  1.
         12    1    3    3    0    0  0.18684695550E+02 -0.32778697892E+01 -0.94928824840E+01  0.21212663576E+02  0.00000000000E+00 0. -1.
</event>
<event>
 7    1  0.7821043E-012  0.5930195E+02  0.7816164E-02  0.1266605E+00
        -11   -1    0    0    0    0  0.00000000000E+00  0.00000000000E+00  0.45593999997E+02  0.45594000000E+02  0.51100000000E-03 0. -1.
         11   -1    0    0    0    0 -0.00000000000E+00 -0.00000000000E+00 -0.45593999997E+02  0.45594000000E+02  0.51100000000E-03 0.  1.
    9900012    2    1    2    0    0 -0.10573134546E+02  0.21760165850E+02 -0.20770760971E+02  0.59301945003E+02  0.50000001779E+02 0.  0.
         12    1    1    2    0    0  0.10573134546E+02 -0.21760165850E+02  0.20770760971E+02  0.31886054997E+02  0.00000000000E+00 0. -1.
         11    1    3    3    0    0  0.47378132793E+01  0.11802266730E+02  0.14027085281E+02  0.18934082929E+02  0.51100000000E-03 0. -1.
        -11    1    3    3    0    0 -0.10336022288E+02  0.67530824154E+01 -0.13640118988E+02  0.18398106564E+02  0.51100000000E-03 0.  1.
         12    1    3    3    0    0 -0.49749255377E+01  0.32048167048E+01 -0.21157727264E+02  0.21969755510E+02  0.00000000000E+00 0. -1.
</event>
<event>
 7    1  0.7821043E-012  0.5930193E+02  0.7816164E-02  0.1266605E+00
        -11   -1    0    0    0    0  0.00000000000E+00  0.00000000000E+00  0.45593999997E+02  0.45594000000E+02  0.51100000000E-03 0. -1.
         11   -1    0    0    0    0 -0.00000000000E+00 -0.00000000000E+00 -0.45593999997E+02  0.45594000000E+02  0.51100000000E-03 0.  1.
    9900012    2    1    2    0    0  0.25646904057E+02 -0.18795344844E+02 -0.23859449182E+01  0.59301930805E+02  0.49999975885E+02 0.  0.
         12    1    1    2    0    0 -0.25646904057E+02  0.18795344844E+02  0.23859449182E+01  0.31886069195E+02  0.00000000000E+00 0. -1.
         11    1    3    3    0    0  0.13964961593E+02  0.13736364575E+02  0.79653313038E+01  0.21146024853E+02  0.51100000000E-03 0. -1.
        -11    1    3    3    0    0  0.14042513223E+02 -0.27021361254E+02 -0.10343973924E+02  0.32161217925E+02  0.51100000000E-03 0.  1.
         12    1    3    3    0    0 -0.23605707593E+01 -0.55103481654E+01 -0.73022981970E-02  0.59946880267E+01  0.00000000000E+00 0. -1.
</event>
<event>
 7    1  0.7821043E-012  0.5930197E+02  0.7816164E-02  0.1266605E+00
        -11   -1    0    0    0    0  0.00000000000E+00  0.00000000000E+00  0.45593999997E+02  0.45594000000E+02  0.51100000000E-03 0.  1.
         11   -1    0    0    0    0 -0.00000000000E+00 -0.00000000000E+00 -0.45593999997E+02  0.45594000000E+02  0.51100000000E-03 0. -1.
    9900012    2    1    2    0    0  0.28284835633E+01  0.30611034413E+02  0.84666060883E+01  0.59301965976E+02  0.50000040029E+02 0.  0.
         12    1    1    2    0    0 -0.28284835633E+01 -0.30611034413E+02 -0.84666060883E+01  0.31886034024E+02  0.00000000000E+00 0. -1.
         11    1    3    3    0    0 -0.55731851170E+01 -0.10990905679E+02  0.44328485375E+01  0.13096203511E+02  0.51100000000E-03 0. -1.
        -11    1    3    3    0    0  0.81838198687E+01  0.40029922783E+02  0.82660509309E+01  0.41685695675E+02  0.51100000000E-03 0.  1.
        -12    1    3    3    0    0  0.21784881160E+00  0.15720173093E+01 -0.42322933801E+01  0.45200667894E+01  0.00000000000E+00 0.  1.
</event>
<event>
 7    1  0.7821043E-012  0.5930189E+02  0.7816164E-02  0.1266605E+00
        -11   -1    0    0    0    0  0.00000000000E+00  0.00000000000E+00  0.45593999997E+02  0.45594000000E+02  0.51100000000E-03 0.  1.
         11   -1    0    0    0    0 -0.00000000000E+00 -0.00000000000E+00 -0.45593999997E+02  0.45594000000E+02  0.51100000000E-03 0. -1.
    9900012    2    1    2    0    0  0.67820811102E+01 -0.30652760848E+02  0.55799515930E+01  0.59301886540E+02  0.49999895157E+02 0.  0.
         12    1    1    2    0    0 -0.67820811102E+01  0.30652760848E+02 -0.55799515930E+01  0.31886113460E+02  0.00000000000E+00 0. -1.
         11    1    3    3    0    0 -0.25126034146E+00  0.70649156705E+01 -0.27183741985E+01  0.75740163542E+01  0.51100000000E-03 0. -1.
        -11    1    3    3    0    0  0.16513984917E+02 -0.29781260924E+02  0.15504709628E+02  0.37416991073E+02  0.51100000000E-03 0.  1.
        -12    1    3    3    0    0 -0.94806434650E+01 -0.79364155946E+01 -0.72063838365E+01  0.14310879113E+02  0.00000000000E+00 0.  1.
</event>
<event>
 7    1  0.7821043E-012  0.5930195E+02  0.7816164E-02  0.1266605E+00
        -11   -1    0    0    0    0  0.00000000000E+00  0.00000000000E+00  0.45593999997E+02  0.45594000000E+02  0.51100000000E-03 0.  1.
         11   -1    0    0    0    0 -0.00000000000E+00 -0.00000000000E+00 -0.45593999997E+02  0.45594000000E+02  0.51100000000E-03 0. -1.
    9900012    2    1    2    0    0  0.10941403057E+02 -0.22477286392E+01  0.29865596247E+02  0.59301946245E+02  0.50000004044E+02 0.  0.
         12    1    1    2    0    0 -0.10941403057E+02  0.22477286392E+01 -0.29865596247E+02  0.31886053755E+02  0.00000000000E+00 0. -1.
         11    1    3    3    0    0 -0.58050417562E+01  0.19878991786E+02  0.21781501763E+02  0.30055060199E+02  0.51100000000E-03 0. -1.
        -11    1    3    3    0    0  0.45555612307E+01 -0.89000485333E+01  0.41996508119E+01  0.10844402668E+02  0.51100000000E-03 0.  1.
         12    1    3    3    0    0  0.12190883582E+02 -0.13226671892E+02  0.38844436718E+01  0.18402483378E+02  0.00000000000E+00 0. -1.
</event>
<event>
 7    1  0.7821043E-012  0.5930195E+02  0.7816164E-02  0.1266605E+00
        -11   -1    0    0    0    0  0.00000000000E+00  0.00000000000E+00  0.45593999997E+02  0.45594000000E+02  0.51100000000E-03 0. -1.
         11   -1    0    0    0    0 -0.00000000000E+00 -0.00000000000E+00 -0.45593999997E+02  0.45594000000E+02  0.51100000000E-03 0.  1.
    9900012    2    1    2    0    0 -0.50464991257E+01  0.13239865018E+02 -0.28565001633E+02  0.59301945095E+02  0.50000001946E+02 0.  0.
         12    1    1    2    0    0  0.50464991257E+01 -0.13239865018E+02  0.28565001633E+02  0.31886054905E+02  0.00000000000E+00 0. -1.
         11    1    3    3    0    0 -0.10929306725E+02  0.37706354828E+01 -0.87070095246E+01  0.14473405009E+02  0.51100000000E-03 0. -1.
        -11    1    3    3    0    0  0.20544412163E+02 -0.22686363967E+01 -0.14662374842E+02  0.25341760367E+02  0.51100000000E-03 0.  1.
        -12    1    3    3    0    0 -0.14661604565E+02  0.11737865932E+02 -0.51956172664E+01  0.19486779719E+02  0.00000000000E+00 0.  1.
</event>
<event>
 7    1  0.7821043E-012  0.5930187E+02  0.7816164E-02  0.1266605E+00
        -11   -1    0    0    0    0  0.00000000000E+00  0.00000000000E+00  0.45593999997E+02  0.45594000000E+02  0.51100000000E-03 0.  1.
         11   -1    0    0    0    0 -0.00000000000E+00 -0.00000000000E+00 -0.45593999997E+02  0.45594000000E+02  0.51100000000E-03 0. -1.
    9900012    2    1    2    0    0  0.43436239946E+01  0.11370795500E+02  0.29471398191E+02  0.59301868673E+02  0.49999862571E+02 0.  0.
         12    1    1    2    0    0 -0.43436239946E+01 -0.11370795500E+02 -0.29471398191E+02  0.31886131327E+02  0.00000000000E+00 0. -1.
         11    1    3    3    0    0  0.13459426061E+02  0.10663901110E+01  0.12164869665E+02  0.18173535484E+02  0.51100000000E-03 0. -1.
        -11    1    3    3    0    0 -0.15423445265E+02  0.10757939350E+02 -0.37219977555E+01  0.19169485921E+02  0.51100000000E-03 0.  1.
        -12    1    3    3    0    0  0.63076431985E+01 -0.45353396163E+00  0.21028526282E+02  0.21958847268E+02  0.00000000000E+00 0.  1.
</event>
<event>
 7    1  0.7821043E-012  0.5930185E+02  0.7816164E-02  0.1266605E+00
        -11   -1    0    0    0    0  0.00000000000E+00  0.00000000000E+00  0.45593999997E+02  0.45594000000E+02  0.51100000000E-03 0. -1.
         11   -1    0    0    0    0 -0.00000000000E+00 -0.00000000000E+00 -0.45593999997E+02  0.45594000000E+02  0.51100000000E-03 0.  1.
    9900012    2    1    2    0    0  0.21873384326E+02 -0.35176448842E+01 -0.22932685915E+02  0.59301845471E+02  0.49999820256E+02 0.  0.
         12    1    1    2    0    0 -0.21873384326E+02  0.35176448842E+01  0.22932685915E+02  0.31886154529E+02  0.00000000000E+00 0. -1.
         11    1    3    3    0    0 -0.35417300765E+00 -0.28045268639E+01  0.41827426456E+01  0.50483805077E+01  0.51100000000E-03 0. -1.
        -11    1    3    3    0    0  0.11837923971E+02 -0.28735742497E+01 -0.37485994300E+02  0.39415652244E+02  0.51100000000E-03 0.  1.
        -12    1    3    3    0    0  0.10389633363E+02  0.21604562294E+01  0.10370565740E+02  0.14837812719E+02  0.00000000000E+00 0.  1.
</event>
<event>
 7    1  0.7821043E-012  0.5930197E+02  0.7816164E-02  0.1266605E+00
        -11   -1    0    0    0    0  0.00000000000E+00  0.00000000000E+00  0.45593999997E+02  0.45594000000E+02  0.51100000000E-03 0. -1.
         11   -1    0    0    0    0 -0.00000000000E+00 -0.00000000000E+00 -0.45593999997E+02  0.45594000000E+02  0.51100000000E-03 0.  1.
    9900012    2    1    2    0    0  0.30958231812E+02  0.17748699747E+01 -0.74267404795E+01  0.59301972426E+02  0.50000051791E+02 0.  0.
         12    1    1    2    0    0 -0.30958231812E+02 -0.17748699747E+01  0.74267404795E+01  0.31886027574E+02  0.00000000000E+00 0. -1.
         11    1    3    3    0    0 -0.99931659298E+01  0.28229286951E+01 -0.49032395031E+01  0.11483642698E+02  0.51100000000E-03 0. -1.
        -11    1    3    3    0    0  0.28616246392E+02 -0.15839715984E+00 -0.13168101244E+02  0.31501008521E+02  0.51100000000E-03 0.  1.
        -12    1    3    3    0    0  0.12335151350E+02 -0.88966156057E+00  0.10644600268E+02  0.16317321207E+02  0.00000000000E+00 0.  1.
</event>
<event>
 7    1  0.7821043E-012  0.5930190E+02  0.7816164E-02  0.1266605E+00
        -11   -1    0    0    0    0  0.00000000000E+00  0.00000000000E+00  0.45593999997E+02  0.45594000000E+02  0.51100000000E-03 0. -1.
         11   -1    0    0    0    0 -0.00000000000E+00 -0.00000000000E+00 -0.45593999997E+02  0.45594000000E+02  0.51100000000E-03 0.  1.
    9900012    2    1    2    0    0  0.87886998678E+01  0.28965848952E+02 -0.10023063034E+02  0.59301898898E+02  0.49999917694E+02 0.  0.
         12    1    1    2    0    0 -0.87886998678E+01 -0.28965848952E+02  0.10023063034E+02  0.31886101102E+02  0.00000000000E+00 0. -1.
         11    1    3    3    0    0 -0.17997236166E+02  0.10477132759E+02 -0.53822160076E+01  0.21509046234E+02  0.51100000000E-03 0. -1.
        -11    1    3    3    0    0  0.13329302570E+02  0.18719076560E+02  0.14386131973E+01  0.23024850541E+02  0.51100000000E-03 0.  1.
        -12    1    3    3    0    0  0.13456633464E+02 -0.23036036662E+00 -0.60794602239E+01  0.14768002123E+02  0.00000000000E+00 0.  1.
</event>
<event>
 7    1  0.7821043E-012  0.5930196E+02  0.7816164E-02  0.1266605E+00
        -11   -1    0    0    0    0  0.00000000000E+00  0.00000000000E+00  0.45593999997E+02  0.45594000000E+02  0.51100000000E-03 0.  1.
         11   -1    0    0    0    0 -0.00000000000E+00 -0.00000000000E+00 -0.45593999997E+02  0.45594000000E+02  0.51100000000E-03 0. -1.
    9900012    2    1    2    0    0  0.23641797910E+00  0.25861117598E+02  0.18651177871E+02  0.59301957084E+02  0.50000023811E+02 0.  0.
         12    1    1    2    0    0 -0.23641797910E+00 -0.25861117598E+02 -0.18651177871E+02  0.31886042916E+02  0.00000000000E+00 0. -1.
         11    1    3    3    0    0 -0.23552513500E+02  0.38612092759E+01  0.82702810656E+01  0.25259203836E+02  0.51100000000E-03 0.  1.
        -11    1    3    3    0    0  0.13690859101E+02  0.13207642088E+02  0.64835274948E+01  0.20097700402E+02  0.51100000000E-03 0. -1.
        -12    1    3    3    0    0  0.10098072379E+02  0.87922662346E+01  0.38973693105E+01  0.13945052845E+02  0.00000000000E+00 0.  1.
</event>
<event>
 7    1  0.7821043E-012  0.5930194E+02  0.7816164E-02  0.1266605E+00
        -11   -1    0    0    0    0  0.00000000000E+00  0.00000000000E+00  0.45593999997E+02  0.45594000000E+02  0.51100000000E-03 0.  1.
         11   -1    0    0    0    0 -0.00000000000E+00 -0.00000000000E+00 -0.45593999997E+02  0.45594000000E+02  0.51100000000E-03 0. -1.
    9900012    2    1    2    0    0 -0.15692187446E+00  0.16605376341E+02  0.27220541794E+02  0.59301936532E+02  0.49999986330E+02 0.  0.
         12    1    1    2    0    0  0.15692187446E+00 -0.16605376341E+02 -0.27220541794E+02  0.31886063468E+02  0.00000000000E+00 0. -1.
         11    1    3    3    0    0 -0.92348073440E+01  0.20098285442E+01 -0.77756799065E+01  0.12238556930E+02  0.51100000000E-03 0. -1.
        -11    1    3    3    0    0  0.11442409391E+02  0.13990013841E+01  0.30999705997E+02  0.33073670944E+02  0.51100000000E-03 0.  1.
        -12    1    3    3    0    0 -0.23645239212E+01  0.13196546412E+02  0.39965157041E+01  0.13989708659E+02  0.00000000000E+00 0.  1.
</event>
<event>
 7    1  0.7821043E-012  0.5930196E+02  0.7816164E-02  0.1266605E+00
        -11   -1    0    0    0    0  0.00000000000E+00  0.00000000000E+00  0.45593999997E+02  0.45594000000E+02  0.51100000000E-03 0.  1.
         11   -1    0    0    0    0 -0.00000000000E+00 -0.00000000000E+00 -0.45593999997E+02  0.45594000000E+02  0.51100000000E-03 0. -1.
    9900012    2    1    2    0    0 -0.11906562409E+02  0.29330526588E+02 -0.38305650349E+01  0.59301964705E+02  0.50000037710E+02 0.  0.
         12    1    1    2    0    0  0.11906562409E+02 -0.29330526588E+02  0.38305650349E+01  0.31886035295E+02  0.00000000000E+00 0. -1.
         11    1    3    3    0    0 -0.16514652593E+02 -0.58775020449E+01 -0.23404488876E+01  0.17684922443E+02  0.51100000000E-03 0. -1.
        -11    1    3    3    0    0  0.11600208685E+02  0.12384049394E+02 -0.45052635083E+01  0.17556392582E+02  0.51100000000E-03 0.  1.
        -12    1    3    3    0    0 -0.69921185011E+01  0.22823979239E+02  0.30151473610E+01  0.24060649680E+02  0.00000000000E+00 0.  1.
</event>
<event>
 7    1  0.7821043E-012  0.5930194E+02  0.7816164E-02  0.1266605E+00
        -11   -1    0    0    0    0  0.00000000000E+00  0.00000000000E+00  0.45593999997E+02  0.45594000000E+02  0.51100000000E-03 0.  1.
         11   -1    0    0    0    0 -0.00000000000E+00 -0.00000000000E+00 -0.45593999997E+02  0.45594000000E+02  0.51100000000E-03 0. -1.
    9900012    2    1    2    0    0  0.16724036650E+02 -0.24605453544E+02  0.11471656137E+02  0.59301942851E+02  0.49999997855E+02 0.  0.
         12    1    1    2    0    0 -0.16724036650E+02  0.24605453544E+02 -0.11471656137E+02  0.31886057149E+02  0.00000000000E+00 0. -1.
         11    1    3    3    0    0 -0.93097476462E+01 -0.11632135120E+02 -0.59065097782E+01  0.16027003048E+02  0.51100000000E-03 0. -1.
        -11    1    3    3    0    0  0.17857021659E+02  0.38115451077E+01  0.75235749244E+00  0.18274767869E+02  0.51100000000E-03 0.  1.
         12    1    3    3    0    0  0.81767626374E+01 -0.16784863532E+02  0.16625808423E+02  0.25000171934E+02  0.00000000000E+00 0. -1.
</event>
<event>
 7    1  0.7821043E-012  0.5930194E+02  0.7816164E-02  0.1266605E+00
        -11   -1    0    0    0    0  0.00000000000E+00  0.00000000000E+00  0.45593999997E+02  0.45594000000E+02  0.51100000000E-03 0. -1.
         11   -1    0    0    0    0 -0.00000000000E+00 -0.00000000000E+00 -0.45593999997E+02  0.45594000000E+02  0.51100000000E-03 0.  1.
    9900012    2    1    2    0    0 -0.18577303685E+02 -0.24532930431E+01 -0.25798950289E+02  0.59301941997E+02  0.49999996296E+02 0.  0.
         12    1    1    2    0    0  0.18577303685E+02  0.24532930431E+01  0.25798950289E+02  0.31886058003E+02  0.00000000000E+00 0. -1.
         11    1    3    3    0    0 -0.11741340327E+02  0.49230150963E+00  0.75406826017E+01  0.13962926907E+02  0.51100000000E-03 0. -1.
        -11    1    3    3    0    0  0.11639124300E+02 -0.19210556200E+01 -0.94102267668E+01  0.15090130458E+02  0.51100000000E-03 0.  1.
        -12    1    3    3    0    0 -0.18475087659E+02 -0.10245389327E+01 -0.23929406124E+02  0.30248884632E+02  0.00000000000E+00 0.  1.
</event>
<event>
 7    1  0.7821043E-012  0.5930195E+02  0.7816164E-02  0.1266605E+00
        -11   -1    0    0    0    0  0.00000000000E+00  0.00000000000E+00  0.45593999997E+02  0.45594000000E+02  0.51100000000E-03 0. -1.
         11   -1    0    0    0    0 -0.00000000000E+00 -0.00000000000E+00 -0.45593999997E+02  0.45594000000E+02  0.51100000000E-03 0.  1.
    9900012    2    1    2    0    0  0.17617099443E+02 -0.99200329778E+01 -0.24656667302E+02  0.59301945219E+02  0.50000002173E+02 0.  0.
         12    1    1    2    0    0 -0.17617099443E+02  0.99200329778E+01  0.24656667302E+02  0.31886054781E+02  0.00000000000E+00 0. -1.
         11    1    3    3    0    0  0.33240748419E+01 -0.21449613160E+02 -0.21107459016E+02  0.30276396824E+02  0.51100000000E-03 0. -1.
        -11    1    3    3    0    0  0.15469750972E+02  0.21022985104E+01 -0.90521481938E+01  0.18046446779E+02  0.51100000000E-03 0.  1.
         12    1    3    3    0    0 -0.11767263718E+01  0.94272816719E+01  0.55029399074E+01  0.10979101616E+02  0.00000000000E+00 0. -1.
</event>
<event>
 7    1  0.7821043E-012  0.5930194E+02  0.7816164E-02  0.1266605E+00
        -11   -1    0    0    0    0  0.00000000000E+00  0.00000000000E+00  0.45593999997E+02  0.45594000000E+02  0.51100000000E-03 0. -1.
         11   -1    0    0    0    0 -0.00000000000E+00 -0.00000000000E+00 -0.45593999997E+02  0.45594000000E+02  0.51100000000E-03 0.  1.
    9900012    2    1    2    0    0  0.98325556827E+00 -0.11888027756E+02 -0.29570743607E+02  0.59301939207E+02  0.49999991208E+02 0.  0.
         12    1    1    2    0    0 -0.98325556827E+00  0.11888027756E+02  0.29570743607E+02  0.31886060793E+02  0.00000000000E+00 0. -1.
         11    1    3    3    0    0 -0.60283725819E+01  0.54526715945E+01 -0.10110242022E+02  0.12972659616E+02  0.51100000000E-03 0. -1.
        -11    1    3    3    0    0 -0.77104175187E+01 -0.17817508785E+02  0.28220072311E+01  0.19618304786E+02  0.51100000000E-03 0.  1.
        -12    1    3    3    0    0  0.14722045669E+02  0.47680943419E+00 -0.22282508815E+02  0.26710974805E+02  0.00000000000E+00 0.  1.
</event>
<event>
 7    1  0.7821043E-012  0.5930194E+02  0.7816164E-02  0.1266605E+00
        -11   -1    0    0    0    0  0.00000000000E+00  0.00000000000E+00  0.45593999997E+02  0.45594000000E+02  0.51100000000E-03 0. -1.
         11   -1    0    0    0    0 -0.00000000000E+00 -0.00000000000E+00 -0.45593999997E+02  0.45594000000E+02  0.51100000000E-03 0.  1.
    9900012    2    1    2    0    0 -0.28214852879E+02  0.13133063120E+02  0.69401454502E+01  0.59301938958E+02  0.49999990754E+02 0.  0.
         12    1    1    2    0    0  0.28214852879E+02 -0.13133063120E+02 -0.69401454502E+01  0.31886061042E+02  0.00000000000E+00 0. -1.
         11    1    3    3    0    0 -0.10568895396E+02  0.75221503784E+01  0.14967411835E+02  0.19806759288E+02  0.51100000000E-03 0. -1.
        -11    1    3    3    0    0 -0.20103564115E+01  0.16865000056E+01 -0.19521090108E+02  0.19696669121E+02  0.51100000000E-03 0.  1.
        -12    1    3    3    0    0 -0.15635601071E+02  0.39244127356E+01  0.11493823724E+02  0.19798510549E+02  0.00000000000E+00 0.  1.
</event>
<event>
 7    1  0.7821043E-012  0.5930195E+02  0.7816164E-02  0.1266605E+00
        -11   -1    0    0    0    0  0.00000000000E+00  0.00000000000E+00  0.45593999997E+02  0.45594000000E+02  0.51100000000E-03 0.  1.
         11   -1    0    0    0    0 -0.00000000000E+00 -0.00000000000E+00 -0.45593999997E+02  0.45594000000E+02  0.51100000000E-03 0. -1.
    9900012    2    1    2    0    0 -0.20015567755E+02 -0.87669199860E+01  0.23221500648E+02  0.59301953978E+02  0.50000018146E+02 0.  0.
         12    1    1    2    0    0  0.20015567755E+02  0.87669199860E+01 -0.23221500648E+02  0.31886046022E+02  0.00000000000E+00 0. -1.
         11    1    3    3    0    0 -0.17832820369E+02 -0.21798180890E+02  0.29289531772E+00  0.28164800023E+02  0.51100000000E-03 0. -1.
        -11    1    3    3    0    0  0.19081557867E+01  0.76984926553E+01  0.75501395538E+00  0.79673015510E+01  0.51100000000E-03 0.  1.
         12    1    3    3    0    0 -0.40909031730E+01  0.53327682483E+01  0.22173591375E+02  0.23169852404E+02  0.00000000000E+00 0. -1.
</event>
<event>
 7    1  0.7821043E-012  0.5930195E+02  0.7816164E-02  0.1266605E+00
        -11   -1    0    0    0    0  0.00000000000E+00  0.00000000000E+00  0.45593999997E+02  0.45594000000E+02  0.51100000000E-03 0. -1.
         11   -1    0    0    0    0 -0.00000000000E+00 -0.00000000000E+00 -0.45593999997E+02  0.45594000000E+02  0.51100000000E-03 0.  1.
    9900012    2    1    2    0    0  0.20002316831E+02  0.17794456834E+02 -0.17320066715E+02  0.59301951583E+02  0.50000013779E+02 0.  0.
         12    1    1    2    0    0 -0.20002316831E+02 -0.17794456834E+02  0.17320066715E+02  0.31886048417E+02  0.00000000000E+00 0. -1.
         11    1    3    3    0    0  0.12310949230E+02  0.22270990164E+02  0.83842181460E+01  0.26792752528E+02  0.51100000000E-03 0. -1.
        -11    1    3    3    0    0 -0.11229659164E+01 -0.95648933417E+01 -0.14086286643E+02  0.17063754239E+02  0.51100000000E-03 0.  1.
        -12    1    3    3    0    0  0.88143335171E+01  0.50883600115E+01 -0.11617998219E+02  0.15445444816E+02  0.00000000000E+00 0.  1.
</event>
<event>
 7    1  0.7821043E-012  0.5930200E+02  0.7816164E-02  0.1266605E+00
        -11   -1    0    0    0    0  0.00000000000E+00  0.00000000000E+00  0.45593999997E+02  0.45594000000E+02  0.51100000000E-03 0.  1.
         11   -1    0    0    0    0 -0.00000000000E+00 -0.00000000000E+00 -0.45593999997E+02  0.45594000000E+02  0.51100000000E-03 0. -1.
    9900012    2    1    2    0    0  0.17625485806E+02 -0.35984069810E+01  0.26327000413E+02  0.59301996277E+02  0.50000095290E+02 0.  0.
         12    1    1    2    0    0 -0.17625485806E+02  0.35984069810E+01 -0.26327000413E+02  0.31886003723E+02  0.00000000000E+00 0. -1.
         11    1    3    3    0    0 -0.10358457577E+02  0.50270493918E+01  0.21161251202E+02  0.24090816127E+02  0.51100000000E-03 0. -1.
        -11    1    3    3    0    0  0.29280762348E+02 -0.59768861468E+01  0.81906380393E+01  0.30986654603E+02  0.51100000000E-03 0.  1.
        -12    1    3    3    0    0 -0.12968189652E+01 -0.26485702260E+01 -0.30248888285E+01  0.42245255468E+01  0.00000000000E+00 0.  1.
</event>
<event>
 7    1  0.7821043E-012  0.5930197E+02  0.7816164E-02  0.1266605E+00
        -11   -1    0    0    0    0  0.00000000000E+00  0.00000000000E+00  0.45593999997E+02  0.45594000000E+02  0.51100000000E-03 0.  1.
         11   -1    0    0    0    0 -0.00000000000E+00 -0.00000000000E+00 -0.45593999997E+02  0.45594000000E+02  0.51100000000E-03 0. -1.
    9900012    2    1    2    0    0 -0.76929330718E+01  0.78472326234E+00  0.30934152854E+02  0.59301971356E+02  0.50000049841E+02 0.  0.
         12    1    1    2    0    0  0.76929330718E+01 -0.78472326234E+00 -0.30934152854E+02  0.31886028644E+02  0.00000000000E+00 0. -1.
         11    1    3    3    0    0 -0.31498528424E+01  0.22808855413E+01 -0.60701356721E+01  0.72090609041E+01  0.51100000000E-03 0. -1.
        -11    1    3    3    0    0 -0.19632280538E+02  0.15639745298E+01  0.28076843274E+02  0.34295503845E+02  0.51100000000E-03 0.  1.
        -12    1    3    3    0    0  0.15089200308E+02 -0.30601368088E+01  0.89274452519E+01  0.17797406608E+02  0.00000000000E+00 0.  1.
</event>
<event>
 7    1  0.7821043E-012  0.5930193E+02  0.7816164E-02  0.1266605E+00
        -11   -1    0    0    0    0  0.00000000000E+00  0.00000000000E+00  0.45593999997E+02  0.45594000000E+02  0.51100000000E-03 0.  1.
         11   -1    0    0    0    0 -0.00000000000E+00 -0.00000000000E+00 -0.45593999997E+02  0.45594000000E+02  0.51100000000E-03 0. -1.
    9900012    2    1    2    0    0  0.66912302827E+01 -0.28251624268E+01  0.31047822692E+02  0.59301930952E+02  0.49999976153E+02 0.  0.
         12    1    1    2    0    0 -0.66912302827E+01  0.28251624268E+01 -0.31047822692E+02  0.31886069048E+02  0.00000000000E+00 0. -1.
         11    1    3    3    0    0  0.38828633804E+01  0.58028381440E+01 -0.89524022213E+01  0.11353196217E+02  0.51100000000E-03 0. -1.
        -11    1    3    3    0    0  0.13642556576E+02 -0.47111452317E+01  0.26711608631E+02  0.30361559171E+02  0.51100000000E-03 0.  1.
        -12    1    3    3    0    0 -0.10834189674E+02 -0.39168553391E+01  0.13288616282E+02  0.17587175564E+02  0.00000000000E+00 0.  1.
</event>
<event>
 7    1  0.7821043E-012  0.5930191E+02  0.7816164E-02  0.1266605E+00
        -11   -1    0    0    0    0  0.00000000000E+00  0.00000000000E+00  0.45593999997E+02  0.45594000000E+02  0.51100000000E-03 0.  1.
         11   -1    0    0    0    0 -0.00000000000E+00 -0.00000000000E+00 -0.45593999997E+02  0.45594000000E+02  0.51100000000E-03 0. -1.
    9900012    2    1    2    0    0 -0.26388528196E+02  0.16971608408E+02  0.56861754602E+01  0.59301913635E+02  0.49999944571E+02 0.  0.
         12    1    1    2    0    0  0.26388528196E+02 -0.16971608408E+02 -0.56861754602E+01  0.31886086365E+02  0.00000000000E+00 0. -1.
         11    1    3    3    0    0 -0.40073681863E+02  0.12487467599E+02  0.36323266790E+01  0.42131112286E+02  0.51100000000E-03 0. -1.
        -11    1    3    3    0    0  0.13337593602E+01  0.41813875716E+01  0.19814078214E+01  0.48154847389E+01  0.51100000000E-03 0.  1.
         12    1    3    3    0    0  0.12351394307E+02  0.30275323780E+00  0.72440959861E-01  0.12355316610E+02  0.00000000000E+00 0. -1.
</event>
<event>
 7    1  0.7821043E-012  0.5930194E+02  0.7816164E-02  0.1266605E+00
        -11   -1    0    0    0    0  0.00000000000E+00  0.00000000000E+00  0.45593999997E+02  0.45594000000E+02  0.51100000000E-03 0.  1.
         11   -1    0    0    0    0 -0.00000000000E+00 -0.00000000000E+00 -0.45593999997E+02  0.45594000000E+02  0.51100000000E-03 0. -1.
    9900012    2    1    2    0    0 -0.13307680768E+02  0.14125958278E+02  0.25299882184E+02  0.59301935595E+02  0.49999984621E+02 0.  0.
         12    1    1    2    0    0  0.13307680768E+02 -0.14125958278E+02 -0.25299882184E+02  0.31886064405E+02  0.00000000000E+00 0. -1.
         11    1    3    3    0    0 -0.23699435435E+02  0.20592509356E+02  0.29413419509E+02  0.43021668134E+02  0.51100000000E-03 0.  1.
        -11    1    3    3    0    0  0.12368579535E+02 -0.57830957948E+01 -0.37256805492E+01  0.14152973274E+02  0.51100000000E-03 0. -1.
        -12    1    3    3    0    0 -0.19768248679E+01 -0.68345528250E+00 -0.38785677599E+00  0.21272941875E+01  0.00000000000E+00 0.  1.
</event>
<event>
 7    1  0.7821043E-012  0.5930189E+02  0.7816164E-02  0.1266605E+00
        -11   -1    0    0    0    0  0.00000000000E+00  0.00000000000E+00  0.45593999997E+02  0.45594000000E+02  0.51100000000E-03 0.  1.
         11   -1    0    0    0    0 -0.00000000000E+00 -0.00000000000E+00 -0.45593999997E+02  0.45594000000E+02  0.51100000000E-03 0. -1.
    9900012    2    1    2    0    0  0.10105960593E+02 -0.62402935540E+01  0.29591427997E+02  0.59301885247E+02  0.49999892797E+02 0.  0.
         12    1    1    2    0    0 -0.10105960593E+02  0.62402935540E+01 -0.29591427997E+02  0.31886114753E+02  0.00000000000E+00 0. -1.
         11    1    3    3    0    0 -0.18908599864E+02  0.41882852773E+01  0.83417962581E+01  0.21087020829E+02  0.51100000000E-03 0. -1.
        -11    1    3    3    0    0  0.16999143861E+02 -0.94014337725E+01  0.15517387308E+02  0.24862565396E+02  0.51100000000E-03 0.  1.
         12    1    3    3    0    0  0.12015416595E+02 -0.10271450588E+01  0.57322444316E+01  0.13352299021E+02  0.00000000000E+00 0. -1.
</event>
<event>
 7    1  0.7821043E-012  0.5930194E+02  0.7816164E-02  0.1266605E+00
        -11   -1    0    0    0    0  0.00000000000E+00  0.00000000000E+00  0.45593999997E+02  0.45594000000E+02  0.51100000000E-03 0. -1.
         11   -1    0    0    0    0 -0.00000000000E+00 -0.00000000000E+00 -0.45593999997E+02  0.45594000000E+02  0.51100000000E-03 0.  1.
    9900012    2    1    2    0    0 -0.37589666644E+01 -0.75121274549E-01 -0.31663626681E+02  0.59301941476E+02  0.49999995346E+02 0.  0.
         12    1    1    2    0    0  0.37589666644E+01  0.75121274549E-01  0.31663626681E+02  0.31886058524E+02  0.00000000000E+00 0. -1.
         11    1    3    3    0    0 -0.94218247055E+01  0.11797762635E+02 -0.98270055486E+01  0.18014661315E+02  0.51100000000E-03 0. -1.
        -11    1    3    3    0    0  0.13963286513E+02 -0.19354033264E+02 -0.14778241114E+02  0.28070418318E+02  0.51100000000E-03 0.  1.
        -12    1    3    3    0    0 -0.83004284722E+01  0.74811493547E+01 -0.70583800186E+01  0.13216861843E+02  0.00000000000E+00 0.  1.
</event>
<event>
 7    1  0.7821043E-012  0.5930195E+02  0.7816164E-02  0.1266605E+00
        -11   -1    0    0    0    0  0.00000000000E+00  0.00000000000E+00  0.45593999997E+02  0.45594000000E+02  0.51100000000E-03 0. -1.
         11   -1    0    0    0    0 -0.00000000000E+00 -0.00000000000E+00 -0.45593999997E+02  0.45594000000E+02  0.51100000000E-03 0.  1.
    9900012    2    1    2    0    0  0.73771499304E+01  0.14022822571E+02 -0.27670533986E+02  0.59301947485E+02  0.50000006305E+02 0.  0.
         12    1    1    2    0    0 -0.73771499304E+01 -0.14022822571E+02  0.27670533986E+02  0.31886052515E+02  0.00000000000E+00 0. -1.
         11    1    3    3    0    0 -0.10725321446E+02  0.94205370728E+01 -0.95956655501E+01  0.17200460356E+02  0.51100000000E-03 0. -1.
        -11    1    3    3    0    0  0.19147780631E+02  0.14822499672E+02 -0.20290325322E+02  0.31591791680E+02  0.51100000000E-03 0.  1.
         12    1    3    3    0    0 -0.10453092552E+01 -0.10220214174E+02  0.22154568864E+01  0.10509695448E+02  0.00000000000E+00 0. -1.
</event>
<event>
 7    1  0.7821043E-012  0.5930191E+02  0.7816164E-02  0.1266605E+00
        -11   -1    0    0    0    0  0.00000000000E+00  0.00000000000E+00  0.45593999997E+02  0.45594000000E+02  0.51100000000E-03 0.  1.
         11   -1    0    0    0    0 -0.00000000000E+00 -0.00000000000E+00 -0.45593999997E+02  0.45594000000E+02  0.51100000000E-03 0. -1.
    9900012    2    1    2    0    0  0.20355786106E+02  0.21463012932E+02  0.11903930749E+02  0.59301913389E+02  0.49999944122E+02 0.  0.
         12    1    1    2    0    0 -0.20355786106E+02 -0.21463012932E+02 -0.11903930749E+02  0.31886086611E+02  0.00000000000E+00 0. -1.
         11    1    3    3    0    0  0.56885478322E+01 -0.71191757993E+01 -0.33627725588E-01  0.91128135933E+01  0.51100000000E-03 0.  1.
        -11    1    3    3    0    0  0.31270621251E+01  0.35163352124E+02  0.68331428416E+01  0.35957359351E+02  0.51100000000E-03 0. -1.
        -12    1    3    3    0    0  0.11540176148E+02 -0.65811633928E+01  0.51044156329E+01  0.14231740445E+02  0.00000000000E+00 0.  1.
</event>
<event>
 7    1  0.7821043E-012  0.5930197E+02  0.7816164E-02  0.1266605E+00
        -11   -1    0    0    0    0  0.00000000000E+00  0.00000000000E+00  0.45593999997E+02  0.45594000000E+02  0.51100000000E-03 0.  1.
         11   -1    0    0    0    0 -0.00000000000E+00 -0.00000000000E+00 -0.45593999997E+02  0.45594000000E+02  0.51100000000E-03 0. -1.
    9900012    2    1    2    0    0  0.24805738187E+02 -0.15341180679E+02  0.12885747021E+02  0.59301969392E+02  0.50000046258E+02 0.  0.
         12    1    1    2    0    0 -0.24805738187E+02  0.15341180679E+02 -0.12885747021E+02  0.31886030608E+02  0.00000000000E+00 0. -1.
         11    1    3    3    0    0 -0.45869761697E+01 -0.93468668841E+01 -0.57414898359E+01  0.11889868659E+02  0.51100000000E-03 0. -1.
        -11    1    3    3    0    0  0.30007881570E+02 -0.66498238547E+01  0.20431788436E+01  0.30803696104E+02  0.51100000000E-03 0.  1.
        -12    1    3    3    0    0 -0.61516721313E+00  0.65551005970E+00  0.16584058013E+02  0.16608404629E+02  0.00000000000E+00 0.  1.
</event>
<event>
 7    1  0.7821043E-012  0.5930194E+02  0.7816164E-02  0.1266605E+00
        -11   -1    0    0    0    0  0.00000000000E+00  0.00000000000E+00  0.45593999997E+02  0.45594000000E+02  0.51100000000E-03 0.  1.
         11   -1    0    0    0    0 -0.00000000000E+00 -0.00000000000E+00 -0.45593999997E+02  0.45594000000E+02  0.51100000000E-03 0. -1.
    9900012    2    1    2    0    0  0.48420527954E+01 -0.20979969352E+02  0.23518416963E+02  0.59301944651E+02  0.50000001136E+02 0.  0.
         12    1    1    2    0    0 -0.48420527954E+01  0.20979969352E+02 -0.23518416963E+02  0.31886055349E+02  0.00000000000E+00 0. -1.
         11    1    3    3    0    0 -0.54601578950E-01 -0.48724466065E+01 -0.44850876216E+01  0.66226677782E+01  0.51100000000E-03 0. -1.
        -11    1    3    3    0    0  0.13203300766E+02 -0.33067747345E+01  0.33736031518E+02  0.36378314050E+02  0.51100000000E-03 0.  1.
        -12    1    3    3    0    0 -0.83066463913E+01 -0.12800748011E+02 -0.57325269334E+01  0.16300962823E+02  0.00000000000E+00 0.  1.
</event>
<event>
 7    1  0.7821043E-012  0.5930191E+02  0.7816164E-02  0.1266605E+00
        -11   -1    0    0    0    0  0.00000000000E+00  0.00000000000E+00  0.45593999997E+02  0.45594000000E+02  0.51100000000E-03 0.  1.
         11   -1    0    0    0    0 -0.00000000000E+00 -0.00000000000E+00 -0.45593999997E+02  0.45594000000E+02  0.51100000000E-03 0. -1.
    9900012    2    1    2    0    0 -0.16246594239E+02 -0.83693279557E+01  0.26129008354E+02  0.59301912872E+02  0.49999943179E+02 0.  0.
         12    1    1    2    0    0  0.16246594239E+02  0.83693279557E+01 -0.26129008354E+02  0.31886087128E+02  0.00000000000E+00 0. -1.
         11    1    3    3    0    0  0.56410594970E+01  0.15141799481E+01  0.49663023720E+01  0.76667106816E+01  0.51100000000E-03 0. -1.
        -11    1    3    3    0    0 -0.80149636111E+01 -0.16486381034E+02 -0.69446985376E+01  0.19602786520E+02  0.51100000000E-03 0.  1.
        -12    1    3    3    0    0 -0.13872690125E+02  0.66028731304E+01  0.28107404520E+02  0.32032415671E+02  0.00000000000E+00 0.  1.
</event>
<event>
 7    1  0.7821043E-012  0.5930186E+02  0.7816164E-02  0.1266605E+00
        -11   -1    0    0    0    0  0.00000000000E+00  0.00000000000E+00  0.45593999997E+02  0.45594000000E+02  0.51100000000E-03 0.  1.
         11   -1    0    0    0    0 -0.00000000000E+00 -0.00000000000E+00 -0.45593999997E+02  0.45594000000E+02  0.51100000000E-03 0. -1.
    9900012    2    1    2    0    0 -0.22122327581E+02 -0.10401278582E+00  0.22963396288E+02  0.59301862489E+02  0.49999851293E+02 0.  0.
         12    1    1    2    0    0  0.22122327581E+02  0.10401278582E+00 -0.22963396288E+02  0.31886137511E+02  0.00000000000E+00 0. -1.
         11    1    3    3    0    0 -0.94246216747E+01 -0.60572465294E+01 -0.69563129848E+01  0.13187267338E+02  0.51100000000E-03 0. -1.
        -11    1    3    3    0    0 -0.23408652423E+02  0.24326437575E+01  0.22875231161E+02  0.32820100013E+02  0.51100000000E-03 0.  1.
        -12    1    3    3    0    0  0.10710946516E+02  0.35205899861E+01  0.70444781120E+01  0.13294495139E+02  0.00000000000E+00 0.  1.
</event>
<event>
 7    1  0.7821043E-012  0.5930193E+02  0.7816164E-02  0.1266605E+00
        -11   -1    0    0    0    0  0.00000000000E+00  0.00000000000E+00  0.45593999997E+02  0.45594000000E+02  0.51100000000E-03 0.  1.
         11   -1    0    0    0    0 -0.00000000000E+00 -0.00000000000E+00 -0.45593999997E+02  0.45594000000E+02  0.51100000000E-03 0. -1.
    9900012    2    1    2    0    0  0.99621315605E+01 -0.21827560302E+02  0.21000829101E+02  0.59301932872E+02  0.49999979655E+02 0.  0.
         12    1    1    2    0    0 -0.99621315605E+01  0.21827560302E+02 -0.21000829101E+02  0.31886067128E+02  0.00000000000E+00 0. -1.
         11    1    3    3    0    0  0.18046716527E+02 -0.17720057340E+02  0.19152673353E+01  0.25364397465E+02  0.51100000000E-03 0. -1.
        -11    1    3    3    0    0  0.23245224319E+01  0.99329946055E+01  0.98000302165E+01  0.14145966877E+02  0.51100000000E-03 0.  1.
        -12    1    3    3    0    0 -0.10409107398E+02 -0.14040497568E+02  0.92855315489E+01  0.19791568531E+02  0.00000000000E+00 0.  1.
</event>
<event>
 7    1  0.7821043E-012  0.5930194E+02  0.7816164E-02  0.1266605E+00
        -11   -1    0    0    0    0  0.00000000000E+00  0.00000000000E+00  0.45593999997E+02  0.45594000000E+02  0.51100000000E-03 0. -1.
         11   -1    0    0    0    0 -0.00000000000E+00 -0.00000000000E+00 -0.45593999997E+02  0.45594000000E+02  0.51100000000E-03 0.  1.
    9900012    2    1    2    0    0  0.31627269380E+02  0.39897300704E+01 -0.72039303200E+00  0.59301935951E+02  0.49999985269E+02 0.  0.
         12    1    1    2    0    0 -0.31627269380E+02 -0.39897300704E+01  0.72039303200E+00  0.31886064049E+02  0.00000000000E+00 0. -1.
         11    1    3    3    0    0  0.56130751833E+01 -0.19968997224E+02  0.80590269856E+00  0.20758539028E+02  0.51100000000E-03 0. -1.
        -11    1    3    3    0    0  0.14685191422E+02  0.39167838129E+01 -0.29298077286E+01  0.15478366068E+02  0.51100000000E-03 0.  1.
         12    1    3    3    0    0  0.11329002774E+02  0.20041943482E+02  0.14035119980E+01  0.23065030854E+02  0.00000000000E+00 0. -1.
</event>
<event>
 7    1  0.7821043E-012  0.5930194E+02  0.7816164E-02  0.1266605E+00
        -11   -1    0    0    0    0  0.00000000000E+00  0.00000000000E+00  0.45593999997E+02  0.45594000000E+02  0.51100000000E-03 0.  1.
         11   -1    0    0    0    0 -0.00000000000E+00 -0.00000000000E+00 -0.45593999997E+02  0.45594000000E+02  0.51100000000E-03 0. -1.
    9900012    2    1    2    0    0 -0.33477311485E+00  0.10662568442E+01  0.31866467364E+02  0.59301941621E+02  0.49999995610E+02 0.  0.
         12    1    1    2    0    0  0.33477311485E+00 -0.10662568442E+01 -0.31866467364E+02  0.31886058379E+02  0.00000000000E+00 0. -1.
         11    1    3    3    0    0 -0.19319747122E+02  0.51038276473E+01  0.18525792364E+01  0.20068227017E+02  0.51100000000E-03 0. -1.
        -11    1    3    3    0    0  0.32789699692E+01 -0.37245641032E+01  0.19995169594E+02  0.20601719083E+02  0.51100000000E-03 0.  1.
         12    1    3    3    0    0  0.15706004038E+02 -0.31300669988E+00  0.10018718534E+02  0.18631995521E+02  0.00000000000E+00 0. -1.
</event>
<event>
 7    1  0.7821043E-012  0.5930195E+02  0.7816164E-02  0.1266605E+00
        -11   -1    0    0    0    0  0.00000000000E+00  0.00000000000E+00  0.45593999997E+02  0.45594000000E+02  0.51100000000E-03 0. -1.
         11   -1    0    0    0    0 -0.00000000000E+00 -0.00000000000E+00 -0.45593999997E+02  0.45594000000E+02  0.51100000000E-03 0.  1.
    9900012    2    1    2    0    0  0.99024993585E+01  0.16861130635E+02 -0.25186567070E+02  0.59301946926E+02  0.50000005286E+02 0.  0.
         12    1    1    2    0    0 -0.99024993585E+01 -0.16861130635E+02  0.25186567070E+02  0.31886053074E+02  0.00000000000E+00 0. -1.
         11    1    3    3    0    0  0.14366257772E+02 -0.27639373318E+01 -0.18762135852E+01  0.14749538624E+02  0.51100000000E-03 0. -1.
        -11    1    3    3    0    0 -0.11932639275E+02  0.13463717095E+02  0.13681665910E+01  0.18042489799E+02  0.51100000000E-03 0.  1.
        -12    1    3    3    0    0  0.74688808616E+01  0.61613508717E+01 -0.24678520076E+02  0.26509918503E+02  0.00000000000E+00 0.  1.
</event>
<event>
 7    1  0.7821043E-012  0.5930194E+02  0.7816164E-02  0.1266605E+00
        -11   -1    0    0    0    0  0.00000000000E+00  0.00000000000E+00  0.45593999997E+02  0.45594000000E+02  0.51100000000E-03 0. -1.
         11   -1    0    0    0    0 -0.00000000000E+00 -0.00000000000E+00 -0.45593999997E+02  0.45594000000E+02  0.51100000000E-03 0.  1.
    9900012    2    1    2    0    0 -0.48738240642E+01 -0.31483183874E+02 -0.13326973413E+01  0.59301935488E+02  0.49999984425E+02 0.  0.
         12    1    1    2    0    0  0.48738240642E+01  0.31483183874E+02  0.13326973413E+01  0.31886064512E+02  0.00000000000E+00 0. -1.
         11    1    3    3    0    0 -0.12222197248E+02 -0.27710180719E+02  0.21059588340E+00  0.30286640156E+02  0.51100000000E-03 0. -1.
        -11    1    3    3    0    0  0.19963997153E+01  0.77116713745E+01  0.93660012757E+01  0.12295424652E+02  0.51100000000E-03 0.  1.
         12    1    3    3    0    0  0.53519734682E+01 -0.11484674530E+02 -0.10909294500E+02  0.16719870680E+02  0.00000000000E+00 0. -1.
</event>
<event>
 7    1  0.7821043E-012  0.5930194E+02  0.7816164E-02  0.1266605E+00
        -11   -1    0    0    0    0  0.00000000000E+00  0.00000000000E+00  0.45593999997E+02  0.45594000000E+02  0.51100000000E-03 0.  1.
         11   -1    0    0    0    0 -0.00000000000E+00 -0.00000000000E+00 -0.45593999997E+02  0.45594000000E+02  0.51100000000E-03 0. -1.
    9900012    2    1    2    0    0 -0.25879415607E+01 -0.20869429210E+02  0.23968530949E+02  0.59301937325E+02  0.49999987776E+02 0.  0.
         12    1    1    2    0    0  0.25879415607E+01  0.20869429210E+02 -0.23968530949E+02  0.31886062675E+02  0.00000000000E+00 0. -1.
         11    1    3    3    0    0  0.58245479632E+01 -0.50910583095E+01  0.27707308499E+02  0.28766980694E+02  0.51100000000E-03 0. -1.
        -11    1    3    3    0    0 -0.53586731142E+01 -0.18567605203E+02  0.57677184172E+01  0.20167744458E+02  0.51100000000E-03 0.  1.
         12    1    3    3    0    0 -0.30538164096E+01  0.27892343029E+01 -0.95064959679E+01  0.10367212173E+02  0.00000000000E+00 0. -1.
</event>
<event>
 7    1  0.7821043E-012  0.5930198E+02  0.7816164E-02  0.1266605E+00
        -11   -1    0    0    0    0  0.00000000000E+00  0.00000000000E+00  0.45593999997E+02  0.45594000000E+02  0.51100000000E-03 0. -1.
         11   -1    0    0    0    0 -0.00000000000E+00 -0.00000000000E+00 -0.45593999997E+02  0.45594000000E+02  0.51100000000E-03 0.  1.
    9900012    2    1    2    0    0  0.13239801374E+00  0.72330281346E+01 -0.31054530588E+02  0.59301982763E+02  0.50000070643E+02 0.  0.
         12    1    1    2    0    0 -0.13239801374E+00 -0.72330281346E+01  0.31054530588E+02  0.31886017237E+02  0.00000000000E+00 0. -1.
         11    1    3    3    0    0 -0.17729100952E+02  0.98063361812E+01 -0.15752990664E+02  0.25664020827E+02  0.51100000000E-03 0.  1.
        -11    1    3    3    0    0  0.95044215622E+01 -0.12600005248E+02 -0.37834569544E+01  0.16229870864E+02  0.51100000000E-03 0. -1.
         12    1    3    3    0    0  0.83570774032E+01  0.10026697201E+02 -0.11518082969E+02  0.17408091072E+02  0.00000000000E+00 0. -1.
</event>
<event>
 7    1  0.7821043E-012  0.5930192E+02  0.7816164E-02  0.1266605E+00
        -11   -1    0    0    0    0  0.00000000000E+00  0.00000000000E+00  0.45593999997E+02  0.45594000000E+02  0.51100000000E-03 0. -1.
         11   -1    0    0    0    0 -0.00000000000E+00 -0.00000000000E+00 -0.45593999997E+02  0.45594000000E+02  0.51100000000E-03 0.  1.
    9900012    2    1    2    0    0  0.11853119721E+02 -0.11692191068E+02 -0.27194084617E+02  0.59301921263E+02  0.49999958482E+02 0.  0.
         12    1    1    2    0    0 -0.11853119721E+02  0.11692191068E+02  0.27194084617E+02  0.31886078737E+02  0.00000000000E+00 0. -1.
         11    1    3    3    0    0 -0.19885176174E+01 -0.36724259174E+00  0.91553991278E+01  0.93760547613E+01  0.51100000000E-03 0. -1.
        -11    1    3    3    0    0  0.10769641920E+02  0.72152803452E+01 -0.24473984493E+02  0.27695150745E+02  0.51100000000E-03 0.  1.
         12    1    3    3    0    0  0.30719954189E+01 -0.18540228821E+02 -0.11875499251E+02  0.22230715757E+02  0.00000000000E+00 0. -1.
</event>
<event>
 7    1  0.7821043E-012  0.5930195E+02  0.7816164E-02  0.1266605E+00
        -11   -1    0    0    0    0  0.00000000000E+00  0.00000000000E+00  0.45593999997E+02  0.45594000000E+02  0.51100000000E-03 0. -1.
         11   -1    0    0    0    0 -0.00000000000E+00 -0.00000000000E+00 -0.45593999997E+02  0.45594000000E+02  0.51100000000E-03 0.  1.
    9900012    2    1    2    0    0  0.20694482587E+02 -0.24236794644E+02 -0.10178935874E+01  0.59301953968E+02  0.50000018129E+02 0.  0.
         12    1    1    2    0    0 -0.20694482587E+02  0.24236794644E+02  0.10178935874E+01  0.31886046032E+02  0.00000000000E+00 0. -1.
         11    1    3    3    0    0  0.25255080043E+02  0.74270543937E+00 -0.20742747032E+00  0.25266849938E+02  0.51100000000E-03 0. -1.
        -11    1    3    3    0    0 -0.10329301904E+02 -0.19313227173E+02  0.67975577415E+01  0.22932553569E+02  0.51100000000E-03 0.  1.
         12    1    3    3    0    0  0.57687044487E+01 -0.56662729107E+01 -0.76080238587E+01  0.11102550461E+02  0.00000000000E+00 0. -1.
</event>
<event>
 7    1  0.7821043E-012  0.5930197E+02  0.7816164E-02  0.1266605E+00
        -11   -1    0    0    0    0  0.00000000000E+00  0.00000000000E+00  0.45593999997E+02  0.45594000000E+02  0.51100000000E-03 0. -1.
         11   -1    0    0    0    0 -0.00000000000E+00 -0.00000000000E+00 -0.45593999997E+02  0.45594000000E+02  0.51100000000E-03 0.  1.
    9900012    2    1    2    0    0 -0.23391958374E+01 -0.28133614792E+02 -0.14823856105E+02  0.59301971269E+02  0.50000049681E+02 0.  0.
         12    1    1    2    0    0  0.23391958374E+01  0.28133614792E+02  0.14823856105E+02  0.31886028731E+02  0.00000000000E+00 0. -1.
         11    1    3    3    0    0 -0.11378578798E+02  0.80557747201E+01 -0.80335738706E+01  0.16090552234E+02  0.51100000000E-03 0. -1.
        -11    1    3    3    0    0  0.11306656305E+02 -0.13517659591E+02 -0.99033093825E+01  0.20214923562E+02  0.51100000000E-03 0.  1.
         12    1    3    3    0    0 -0.22672733445E+01 -0.22671729921E+02  0.31130271483E+01  0.22996495473E+02  0.00000000000E+00 0. -1.
</event>
<event>
 7    1  0.7821043E-012  0.5930193E+02  0.7816164E-02  0.1266605E+00
        -11   -1    0    0    0    0  0.00000000000E+00  0.00000000000E+00  0.45593999997E+02  0.45594000000E+02  0.51100000000E-03 0. -1.
         11   -1    0    0    0    0 -0.00000000000E+00 -0.00000000000E+00 -0.45593999997E+02  0.45594000000E+02  0.51100000000E-03 0.  1.
    9900012    2    1    2    0    0  0.28152569264E+02  0.14596892157E+02  0.33293927368E+01  0.59301932936E+02  0.49999979771E+02 0.  0.
         12    1    1    2    0    0 -0.28152569264E+02 -0.14596892157E+02 -0.33293927368E+01  0.31886067064E+02  0.00000000000E+00 0. -1.
         11    1    3    3    0    0  0.49708882704E+01  0.10866879388E+02 -0.10247498223E+02  0.15741982655E+02  0.51100000000E-03 0. -1.
        -11    1    3    3    0    0 -0.79871279931E+01  0.35486938017E+01  0.80937218847E+01  0.11912001322E+02  0.51100000000E-03 0.  1.
        -12    1    3    3    0    0  0.31168808987E+02  0.18131896798E+00  0.54831690751E+01  0.31647948959E+02  0.00000000000E+00 0.  1.
</event>
<event>
 7    1  0.7821043E-012  0.5930194E+02  0.7816164E-02  0.1266605E+00
        -11   -1    0    0    0    0  0.00000000000E+00  0.00000000000E+00  0.45593999997E+02  0.45594000000E+02  0.51100000000E-03 0. -1.
         11   -1    0    0    0    0 -0.00000000000E+00 -0.00000000000E+00 -0.45593999997E+02  0.45594000000E+02  0.51100000000E-03 0.  1.
    9900012    2    1    2    0    0 -0.27119783913E+02 -0.29871257039E+01 -0.16501985867E+02  0.59301935065E+02  0.49999983654E+02 0.  0.
         12    1    1    2    0    0  0.27119783913E+02  0.29871257039E+01  0.16501985867E+02  0.31886064935E+02  0.00000000000E+00 0. -1.
         11    1    3    3    0    0 -0.35982865283E+02  0.31108893172E+01 -0.82171138229E+01  0.37040048410E+02  0.51100000000E-03 0. -1.
        -11    1    3    3    0    0  0.68428621903E+01 -0.29842934231E+01 -0.13755651216E+02  0.15650837384E+02  0.51100000000E-03 0.  1.
         12    1    3    3    0    0  0.20202191797E+01 -0.31137215980E+01  0.54707791716E+01  0.66110492714E+01  0.00000000000E+00 0. -1.
</event>
<event>
 7    1  0.7821043E-012  0.5930194E+02  0.7816164E-02  0.1266605E+00
        -11   -1    0    0    0    0  0.00000000000E+00  0.00000000000E+00  0.45593999997E+02  0.45594000000E+02  0.51100000000E-03 0.  1.
         11   -1    0    0    0    0 -0.00000000000E+00 -0.00000000000E+00 -0.45593999997E+02  0.45594000000E+02  0.51100000000E-03 0. -1.
    9900012    2    1    2    0    0 -0.21559960340E+01  0.31807729096E+02  0.58370510627E+00  0.59301942533E+02  0.49999997273E+02 0.  0.
         12    1    1    2    0    0  0.21559960340E+01 -0.31807729096E+02 -0.58370510627E+00  0.31886057467E+02  0.00000000000E+00 0. -1.
         11    1    3    3    0    0 -0.93405443471E+01 -0.50457325092E+01 -0.72219717670E+01  0.12839862216E+02  0.51100000000E-03 0. -1.
        -11    1    3    3    0    0  0.23637190472E+01  0.21792984701E+02  0.17381328206E+02  0.27975559340E+02  0.51100000000E-03 0.  1.
         12    1    3    3    0    0  0.48208292659E+01  0.15060476905E+02 -0.95756513325E+01  0.18486520977E+02  0.00000000000E+00 0. -1.
</event>
<event>
 7    1  0.7821043E-012  0.5930209E+02  0.7816164E-02  0.1266604E+00
        -11   -1    0    0    0    0  0.00000000000E+00  0.00000000000E+00  0.45593999997E+02  0.45594000000E+02  0.51100000000E-03 0.  1.
         11   -1    0    0    0    0 -0.00000000000E+00 -0.00000000000E+00 -0.45593999997E+02  0.45594000000E+02  0.51100000000E-03 0. -1.
    9900012    2    1    2    0    0 -0.19809856845E+02 -0.64535444596E+01  0.24137782348E+02  0.59302090871E+02  0.50000267806E+02 0.  0.
         12    1    1    2    0    0  0.19809856845E+02  0.64535444596E+01 -0.24137782348E+02  0.31885909129E+02  0.00000000000E+00 0. -1.
         11    1    3    3    0    0 -0.11253330018E+02 -0.15511754620E+02  0.84607382690E+01  0.20948414264E+02  0.51100000000E-03 0.  1.
        -11    1    3    3    0    0  0.33876397789E+01  0.94860375220E+01 -0.73096000714E+01  0.12445531913E+02  0.51100000000E-03 0. -1.
        -12    1    3    3    0    0 -0.11944166606E+02 -0.42782736174E+00  0.22986644150E+02  0.25908144693E+02  0.00000000000E+00 0.  1.
</event>
<event>
 7    1  0.7821043E-012  0.5930192E+02  0.7816164E-02  0.1266605E+00
        -11   -1    0    0    0    0  0.00000000000E+00  0.00000000000E+00  0.45593999997E+02  0.45594000000E+02  0.51100000000E-03 0. -1.
         11   -1    0    0    0    0 -0.00000000000E+00 -0.00000000000E+00 -0.45593999997E+02  0.45594000000E+02  0.51100000000E-03 0.  1.
    9900012    2    1    2    0    0  0.56400190567E+01 -0.63661136696E+01 -0.30730844989E+02  0.59301920719E+02  0.49999957490E+02 0.  0.
         12    1    1    2    0    0 -0.56400190567E+01  0.63661136696E+01  0.30730844989E+02  0.31886079281E+02  0.00000000000E+00 0. -1.
         11    1    3    3    0    0 -0.10976713843E+02 -0.53490524317E+01  0.50145584104E+01  0.13200242612E+02  0.51100000000E-03 0. -1.
        -11    1    3    3    0    0  0.16575539544E+02  0.30319839033E+01 -0.37927244465E+02  0.41502015740E+02  0.51100000000E-03 0.  1.
        -12    1    3    3    0    0  0.41193355887E-01 -0.40490451411E+01  0.21818410656E+01  0.45996623662E+01  0.00000000000E+00 0.  1.
</event>
<event>
 7    1  0.7821043E-012  0.5930193E+02  0.7816164E-02  0.1266605E+00
        -11   -1    0    0    0    0  0.00000000000E+00  0.00000000000E+00  0.45593999997E+02  0.45594000000E+02  0.51100000000E-03 0.  1.
         11   -1    0    0    0    0 -0.00000000000E+00 -0.00000000000E+00 -0.45593999997E+02  0.45594000000E+02  0.51100000000E-03 0. -1.
    9900012    2    1    2    0    0  0.16114107431E+02  0.60644896167E+01  0.26838014675E+02  0.59301928992E+02  0.49999972579E+02 0.  0.
         12    1    1    2    0    0 -0.16114107431E+02 -0.60644896167E+01 -0.26838014675E+02  0.31886071008E+02  0.00000000000E+00 0. -1.
         11    1    3    3    0    0  0.26818584126E+02 -0.73187972684E+01  0.16740289817E+02  0.32450555487E+02  0.51100000000E-03 0.  1.
        -11    1    3    3    0    0 -0.10037895776E+02  0.61981439441E+00  0.98366985274E+01  0.14067841329E+02  0.51100000000E-03 0. -1.
        -12    1    3    3    0    0 -0.66658092003E+00  0.12763472491E+02  0.26102633091E+00  0.12783532176E+02  0.00000000000E+00 0.  1.
</event>
<event>
 7    1  0.7821043E-012  0.5930194E+02  0.7816164E-02  0.1266605E+00
        -11   -1    0    0    0    0  0.00000000000E+00  0.00000000000E+00  0.45593999997E+02  0.45594000000E+02  0.51100000000E-03 0.  1.
         11   -1    0    0    0    0 -0.00000000000E+00 -0.00000000000E+00 -0.45593999997E+02  0.45594000000E+02  0.51100000000E-03 0. -1.
    9900012    2    1    2    0    0 -0.28816723094E+02 -0.11140194183E+02 -0.78875434602E+01  0.59301940379E+02  0.49999993346E+02 0.  0.
         12    1    1    2    0    0  0.28816723094E+02  0.11140194183E+02  0.78875434602E+01  0.31886059621E+02  0.00000000000E+00 0. -1.
         11    1    3    3    0    0 -0.28314489823E+02 -0.17973756455E+02 -0.66467359909E+01  0.34189842858E+02  0.51100000000E-03 0.  1.
        -11    1    3    3    0    0  0.10059226247E+02  0.38945942450E+01  0.56365137818E+01  0.12170710123E+02  0.51100000000E-03 0. -1.
         12    1    3    3    0    0 -0.10561459518E+02  0.29389680268E+01 -0.68773212511E+01  0.12941387398E+02  0.00000000000E+00 0. -1.
</event>
<event>
 7    1  0.7821043E-012  0.5930194E+02  0.7816164E-02  0.1266605E+00
        -11   -1    0    0    0    0  0.00000000000E+00  0.00000000000E+00  0.45593999997E+02  0.45594000000E+02  0.51100000000E-03 0. -1.
         11   -1    0    0    0    0 -0.00000000000E+00 -0.00000000000E+00 -0.45593999997E+02  0.45594000000E+02  0.51100000000E-03 0.  1.
    9900012    2    1    2    0    0 -0.60838981343E+01 -0.58267525459E+01 -0.30753149935E+02  0.59301935760E+02  0.49999984922E+02 0.  0.
         12    1    1    2    0    0  0.60838981343E+01  0.58267525459E+01  0.30753149935E+02  0.31886064240E+02  0.00000000000E+00 0. -1.
         11    1    3    3    0    0  0.72157681133E+01 -0.80711731255E+01 -0.17517577708E+01  0.10967214808E+02  0.51100000000E-03 0. -1.
        -11    1    3    3    0    0 -0.15994809258E+02 -0.10376002776E+02 -0.29830917798E+02  0.35403093279E+02  0.51100000000E-03 0.  1.
        -12    1    3    3    0    0  0.26951430101E+01  0.12620423355E+02  0.82952563328E+00  0.12931627674E+02  0.00000000000E+00 0.  1.
</event>
<event>
 7    1  0.7821043E-012  0.5930196E+02  0.7816164E-02  0.1266605E+00
        -11   -1    0    0    0    0  0.00000000000E+00  0.00000000000E+00  0.45593999997E+02  0.45594000000E+02  0.51100000000E-03 0.  1.
         11   -1    0    0    0    0 -0.00000000000E+00 -0.00000000000E+00 -0.45593999997E+02  0.45594000000E+02  0.51100000000E-03 0. -1.
    9900012    2    1    2    0    0 -0.57196847487E+01  0.30869422553E+02  0.55752714298E+01  0.59301957695E+02  0.50000024926E+02 0.  0.
         12    1    1    2    0    0  0.57196847487E+01 -0.30869422553E+02 -0.55752714298E+01  0.31886042305E+02  0.00000000000E+00 0. -1.
         11    1    3    3    0    0 -0.91248041370E+01  0.37121997625E+01  0.17099625045E+02  0.19734225461E+02  0.51100000000E-03 0. -1.
        -11    1    3    3    0    0  0.13938886790E+02  0.10207424061E+02 -0.18059882243E+01  0.17370827978E+02  0.51100000000E-03 0.  1.
         12    1    3    3    0    0 -0.10533767402E+02  0.16949798730E+02 -0.97183653912E+01  0.22196904256E+02  0.00000000000E+00 0. -1.
</event>
<event>
 7    1  0.7821043E-012  0.5930200E+02  0.7816164E-02  0.1266605E+00
        -11   -1    0    0    0    0  0.00000000000E+00  0.00000000000E+00  0.45593999997E+02  0.45594000000E+02  0.51100000000E-03 0.  1.
         11   -1    0    0    0    0 -0.00000000000E+00 -0.00000000000E+00 -0.45593999997E+02  0.45594000000E+02  0.51100000000E-03 0. -1.
    9900012    2    1    2    0    0  0.26233613251E+02  0.13044733306E+02  0.12583708638E+02  0.59301995950E+02  0.50000094694E+02 0.  0.
         12    1    1    2    0    0 -0.26233613251E+02 -0.13044733306E+02 -0.12583708638E+02  0.31886004050E+02  0.00000000000E+00 0. -1.
         11    1    3    3    0    0 -0.10857823312E+02  0.66348158906E+01  0.61413229105E+01  0.14129011159E+02  0.51100000000E-03 0. -1.
        -11    1    3    3    0    0  0.73861000066E+01 -0.77966632273E+01 -0.25522828258E+01  0.11038866729E+02  0.51100000000E-03 0.  1.
        -12    1    3    3    0    0  0.29705336556E+02  0.14206580642E+02  0.89946685531E+01  0.34134118061E+02  0.00000000000E+00 0.  1.
</event>
<event>
 7    1  0.7821043E-012  0.5930196E+02  0.7816164E-02  0.1266605E+00
        -11   -1    0    0    0    0  0.00000000000E+00  0.00000000000E+00  0.45593999997E+02  0.45594000000E+02  0.51100000000E-03 0.  1.
         11   -1    0    0    0    0 -0.00000000000E+00 -0.00000000000E+00 -0.45593999997E+02  0.45594000000E+02  0.51100000000E-03 0. -1.
    9900012    2    1    2    0    0 -0.30322467318E+02 -0.56937775573E+01  0.80528538712E+01  0.59301959440E+02  0.50000028108E+02 0.  0.
         12    1    1    2    0    0  0.30322467318E+02  0.56937775573E+01 -0.80528538712E+01  0.31886040560E+02  0.00000000000E+00 0. -1.
         11    1    3    3    0    0  0.87174823248E+01 -0.34088678871E+00 -0.60057346046E+01  0.10591484801E+02  0.51100000000E-03 0. -1.
        -11    1    3    3    0    0 -0.40931442406E+02 -0.72702402138E+01  0.83555905180E+01  0.42403481736E+02  0.51100000000E-03 0.  1.
        -12    1    3    3    0    0  0.18914927627E+01  0.19173494452E+01  0.57029979579E+01  0.63069929026E+01  0.00000000000E+00 0.  1.
</event>
<event>
 7    1  0.7821043E-012  0.5930194E+02  0.7816164E-02  0.1266605E+00
        -11   -1    0    0    0    0  0.00000000000E+00  0.00000000000E+00  0.45593999997E+02  0.45594000000E+02  0.51100000000E-03 0.  1.
         11   -1    0    0    0    0 -0.00000000000E+00 -0.00000000000E+00 -0.45593999997E+02  0.45594000000E+02  0.51100000000E-03 0. -1.
    9900012    2    1    2    0    0  0.20029173904E+01 -0.13558564459E+02  0.28790178674E+02  0.59301941348E+02  0.49999995112E+02 0.  0.
         12    1    1    2    0    0 -0.20029173904E+01  0.13558564459E+02 -0.28790178674E+02  0.31886058652E+02  0.00000000000E+00 0. -1.
         11    1    3    3    0    0  0.14526624544E+02  0.36790207925E+01  0.28462699021E+00  0.14987962751E+02  0.51100000000E-03 0. -1.
        -11    1    3    3    0    0  0.54717220353E+00 -0.19616446966E+02  0.22130312148E+02  0.29577949642E+02  0.51100000000E-03 0.  1.
         12    1    3    3    0    0 -0.13070879357E+02  0.23788617146E+01  0.63752395358E+01  0.14736028955E+02  0.00000000000E+00 0. -1.
</event>
<event>
 7    1  0.7821043E-012  0.5930197E+02  0.7816164E-02  0.1266605E+00
        -11   -1    0    0    0    0  0.00000000000E+00  0.00000000000E+00  0.45593999997E+02  0.45594000000E+02  0.51100000000E-03 0.  1.
         11   -1    0    0    0    0 -0.00000000000E+00 -0.00000000000E+00 -0.45593999997E+02  0.45594000000E+02  0.51100000000E-03 0. -1.
    9900012    2    1    2    0    0 -0.23915971388E+02  0.12539516761E+02  0.16956003366E+02  0.59301965154E+02  0.50000038529E+02 0.  0.
         12    1    1    2    0    0  0.23915971388E+02 -0.12539516761E+02 -0.16956003366E+02  0.31886034846E+02  0.00000000000E+00 0. -1.
         11    1    3    3    0    0 -0.89602748214E+01 -0.97741821839E+01  0.43006924015E+00  0.13266729893E+02  0.51100000000E-03 0. -1.
        -11    1    3    3    0    0  0.16709895539E+01  0.24772997935E+02  0.15340206046E+02  0.29185879369E+02  0.51100000000E-03 0.  1.
        -12    1    3    3    0    0 -0.16626686121E+02 -0.24592989902E+01  0.11857280801E+01  0.16849355892E+02  0.00000000000E+00 0.  1.
</event>
<event>
 7    1  0.7821043E-012  0.5930197E+02  0.7816164E-02  0.1266605E+00
        -11   -1    0    0    0    0  0.00000000000E+00  0.00000000000E+00  0.45593999997E+02  0.45594000000E+02  0.51100000000E-03 0.  1.
         11   -1    0    0    0    0 -0.00000000000E+00 -0.00000000000E+00 -0.45593999997E+02  0.45594000000E+02  0.51100000000E-03 0. -1.
    9900012    2    1    2    0    0  0.56173176583E+01 -0.22071281541E+02  0.22316438444E+02  0.59301966202E+02  0.50000040441E+02 0.  0.
         12    1    1    2    0    0 -0.56173176583E+01  0.22071281541E+02 -0.22316438444E+02  0.31886033798E+02  0.00000000000E+00 0. -1.
         11    1    3    3    0    0  0.15363932506E+02 -0.24701128320E+02  0.96586350520E+00  0.29105481526E+02  0.51100000000E-03 0. -1.
        -11    1    3    3    0    0  0.33539466425E+01 -0.95721994173E+00  0.14633777234E+02  0.15043691850E+02  0.51100000000E-03 0.  1.
         12    1    3    3    0    0 -0.13100561490E+02  0.35870667205E+01  0.67167977048E+01  0.15152792826E+02  0.00000000000E+00 0. -1.
</event>
<event>
 7    1  0.7821043E-012  0.5930197E+02  0.7816164E-02  0.1266605E+00
        -11   -1    0    0    0    0  0.00000000000E+00  0.00000000000E+00  0.45593999997E+02  0.45594000000E+02  0.51100000000E-03 0.  1.
         11   -1    0    0    0    0 -0.00000000000E+00 -0.00000000000E+00 -0.45593999997E+02  0.45594000000E+02  0.51100000000E-03 0. -1.
    9900012    2    1    2    0    0 -0.29062218712E+02 -0.30489919527E+01  0.12759710260E+02  0.59301966783E+02  0.50000041501E+02 0.  0.
         12    1    1    2    0    0  0.29062218712E+02  0.30489919527E+01 -0.12759710260E+02  0.31886033217E+02  0.00000000000E+00 0. -1.
         11    1    3    3    0    0  0.69163819889E+01  0.18264327623E+01  0.21258462191E+01  0.74626683472E+01  0.51100000000E-03 0. -1.
        -11    1    3    3    0    0 -0.34220691716E+02 -0.66869412254E+01  0.21313047013E+02  0.40865840230E+02  0.51100000000E-03 0.  1.
         12    1    3    3    0    0 -0.17579089845E+01  0.18115165104E+01 -0.10679182971E+02  0.10973458206E+02  0.00000000000E+00 0. -1.
</event>
<event>
 7    1  0.7821043E-012  0.5930192E+02  0.7816164E-02  0.1266605E+00
        -11   -1    0    0    0    0  0.00000000000E+00  0.00000000000E+00  0.45593999997E+02  0.45594000000E+02  0.51100000000E-03 0.  1.
         11   -1    0    0    0    0 -0.00000000000E+00 -0.00000000000E+00 -0.45593999997E+02  0.45594000000E+02  0.51100000000E-03 0. -1.
    9900012    2    1    2    0    0  0.25054196094E+01  0.28937709735E+01  0.31655503098E+02  0.59301922878E+02  0.49999961428E+02 0.  0.
         12    1    1    2    0    0 -0.25054196094E+01 -0.28937709735E+01 -0.31655503098E+02  0.31886077122E+02  0.00000000000E+00 0. -1.
         11    1    3    3    0    0 -0.29428629845E+01 -0.76892731822E+01 -0.26778522560E+01  0.86577281998E+01  0.51100000000E-03 0. -1.
        -11    1    3    3    0    0 -0.14040846011E+02  0.10631932611E+02  0.14204312009E+02  0.22626219915E+02  0.51100000000E-03 0.  1.
        -12    1    3    3    0    0  0.19489128605E+02 -0.48888455217E-01  0.20129043344E+02  0.28017974763E+02  0.00000000000E+00 0.  1.
</event>
<event>
 7    1  0.7821043E-012  0.5930194E+02  0.7816164E-02  0.1266605E+00
        -11   -1    0    0    0    0  0.00000000000E+00  0.00000000000E+00  0.45593999997E+02  0.45594000000E+02  0.51100000000E-03 0. -1.
         11   -1    0    0    0    0 -0.00000000000E+00 -0.00000000000E+00 -0.45593999997E+02  0.45594000000E+02  0.51100000000E-03 0.  1.
    9900012    2    1    2    0    0 -0.50912212973E+01  0.74265528971E+01 -0.30588337740E+02  0.59301943049E+02  0.49999998215E+02 0.  0.
         12    1    1    2    0    0  0.50912212973E+01 -0.74265528971E+01  0.30588337740E+02  0.31886056951E+02  0.00000000000E+00 0. -1.
         11    1    3    3    0    0  0.11919690766E+02 -0.57099255013E+01 -0.51549534618E+01  0.14186466179E+02  0.51100000000E-03 0. -1.
        -11    1    3    3    0    0 -0.11588246428E+02  0.23125278084E+02 -0.18510336660E+02  0.31807208385E+02  0.51100000000E-03 0.  1.
         12    1    3    3    0    0 -0.54226656354E+01 -0.99887996854E+01 -0.69230476180E+01  0.13308268485E+02  0.00000000000E+00 0. -1.
</event>
<event>
 7    1  0.7821043E-012  0.5930196E+02  0.7816164E-02  0.1266605E+00
        -11   -1    0    0    0    0  0.00000000000E+00  0.00000000000E+00  0.45593999997E+02  0.45594000000E+02  0.51100000000E-03 0.  1.
         11   -1    0    0    0    0 -0.00000000000E+00 -0.00000000000E+00 -0.45593999997E+02  0.45594000000E+02  0.51100000000E-03 0. -1.
    9900012    2    1    2    0    0 -0.26481911902E+02  0.23914937610E+01  0.17598536324E+02  0.59301962599E+02  0.50000033870E+02 0.  0.
         12    1    1    2    0    0  0.26481911902E+02 -0.23914937610E+01 -0.17598536324E+02  0.31886037401E+02  0.00000000000E+00 0. -1.
         11    1    3    3    0    0  0.99254594823E+01 -0.45625322859E+01  0.11585974573E+02  0.15923763810E+02  0.51100000000E-03 0. -1.
        -11    1    3    3    0    0 -0.23005568630E+02 -0.62143141500E+01  0.60636974223E+01  0.24589475696E+02  0.51100000000E-03 0.  1.
         12    1    3    3    0    0 -0.13401802755E+02  0.13168340197E+02 -0.51135671431E-01  0.18788723093E+02  0.00000000000E+00 0. -1.
</event>
<event>
 7    1  0.7821043E-012  0.5930194E+02  0.7816164E-02  0.1266605E+00
        -11   -1    0    0    0    0  0.00000000000E+00  0.00000000000E+00  0.45593999997E+02  0.45594000000E+02  0.51100000000E-03 0. -1.
         11   -1    0    0    0    0 -0.00000000000E+00 -0.00000000000E+00 -0.45593999997E+02  0.45594000000E+02  0.51100000000E-03 0.  1.
    9900012    2    1    2    0    0 -0.21147666380E+02  0.11341544064E+02 -0.20996812721E+02  0.59301944122E+02  0.50000000171E+02 0.  0.
         12    1    1    2    0    0  0.21147666380E+02 -0.11341544064E+02  0.20996812721E+02  0.31886055878E+02  0.00000000000E+00 0. -1.
         11    1    3    3    0    0 -0.13987696096E+02  0.19585404958E+02 -0.25066015384E+02  0.34749803696E+02  0.51100000000E-03 0.  1.
        -11    1    3    3    0    0 -0.41657060642E+01 -0.15502433227E+02  0.87753299679E+00  0.16076336877E+02  0.51100000000E-03 0. -1.
         12    1    3    3    0    0 -0.29942642195E+01  0.72585723328E+01  0.31916696669E+01  0.84758035483E+01  0.00000000000E+00 0. -1.
</event>
<event>
 7    1  0.7821043E-012  0.5930197E+02  0.7816164E-02  0.1266605E+00
        -11   -1    0    0    0    0  0.00000000000E+00  0.00000000000E+00  0.45593999997E+02  0.45594000000E+02  0.51100000000E-03 0. -1.
         11   -1    0    0    0    0 -0.00000000000E+00 -0.00000000000E+00 -0.45593999997E+02  0.45594000000E+02  0.51100000000E-03 0.  1.
    9900012    2    1    2    0    0 -0.12193990451E+02 -0.11576258453E+02 -0.27092725948E+02  0.59301969169E+02  0.50000045852E+02 0.  0.
         12    1    1    2    0    0  0.12193990451E+02  0.11576258453E+02  0.27092725948E+02  0.31886030831E+02  0.00000000000E+00 0. -1.
         11    1    3    3    0    0 -0.62820406505E+01  0.11027691488E+02  0.33131006017E+01  0.13116807925E+02  0.51100000000E-03 0. -1.
        -11    1    3    3    0    0 -0.14422834080E+02 -0.21698685576E+02 -0.24676442042E+02  0.35885622340E+02  0.51100000000E-03 0.  1.
         12    1    3    3    0    0  0.85108842804E+01 -0.90526436549E+00 -0.57293845071E+01  0.10299538904E+02  0.00000000000E+00 0. -1.
</event>
<event>
 7    1  0.7821043E-012  0.5930194E+02  0.7816164E-02  0.1266605E+00
        -11   -1    0    0    0    0  0.00000000000E+00  0.00000000000E+00  0.45593999997E+02  0.45594000000E+02  0.51100000000E-03 0. -1.
         11   -1    0    0    0    0 -0.00000000000E+00 -0.00000000000E+00 -0.45593999997E+02  0.45594000000E+02  0.51100000000E-03 0.  1.
    9900012    2    1    2    0    0 -0.57986870017E+01 -0.11219720288E+02 -0.29278219714E+02  0.59301936525E+02  0.49999986318E+02 0.  0.
         12    1    1    2    0    0  0.57986870017E+01  0.11219720288E+02  0.29278219714E+02  0.31886063475E+02  0.00000000000E+00 0. -1.
         11    1    3    3    0    0  0.52127913442E+01 -0.27205277017E+02 -0.17343465645E+02  0.32681739428E+02  0.51100000000E-03 0. -1.
        -11    1    3    3    0    0 -0.10678809976E+02  0.91734554026E+01 -0.13627217294E+02  0.19593119149E+02  0.51100000000E-03 0.  1.
         12    1    3    3    0    0 -0.33266836948E+00  0.68121013268E+01  0.16924632250E+01  0.70270779489E+01  0.00000000000E+00 0. -1.
</event>
<event>
 7    1  0.7821043E-012  0.5930194E+02  0.7816164E-02  0.1266605E+00
        -11   -1    0    0    0    0  0.00000000000E+00  0.00000000000E+00  0.45593999997E+02  0.45594000000E+02  0.51100000000E-03 0. -1.
         11   -1    0    0    0    0 -0.00000000000E+00 -0.00000000000E+00 -0.45593999997E+02  0.45594000000E+02  0.51100000000E-03 0.  1.
    9900012    2    1    2    0    0  0.18991376419E+02 -0.17170213031E+02 -0.19006106754E+02  0.59301942110E+02  0.49999996502E+02 0.  0.
         12    1    1    2    0    0 -0.18991376419E+02  0.17170213031E+02  0.19006106754E+02  0.31886057890E+02  0.00000000000E+00 0. -1.
         11    1    3    3    0    0  0.95544310785E+00 -0.22577407134E+02  0.85522997443E+01  0.24161829724E+02  0.51100000000E-03 0. -1.
        -11    1    3    3    0    0  0.51886914595E+01  0.65251538463E+01 -0.70691048043E+01  0.10930342848E+02  0.51100000000E-03 0.  1.
         12    1    3    3    0    0  0.12847241852E+02 -0.11179597438E+01 -0.20489301694E+02  0.24209769538E+02  0.00000000000E+00 0. -1.
</event>
<event>
 7    1  0.7821043E-012  0.5930196E+02  0.7816164E-02  0.1266605E+00
        -11   -1    0    0    0    0  0.00000000000E+00  0.00000000000E+00  0.45593999997E+02  0.45594000000E+02  0.51100000000E-03 0.  1.
         11   -1    0    0    0    0 -0.00000000000E+00 -0.00000000000E+00 -0.45593999997E+02  0.45594000000E+02  0.51100000000E-03 0. -1.
    9900012    2    1    2    0    0  0.23657299236E+02 -0.21241046842E+02  0.24227615202E+01  0.59301958360E+02  0.50000026138E+02 0.  0.
         12    1    1    2    0    0 -0.23657299236E+02  0.21241046842E+02 -0.24227615202E+01  0.31886041640E+02  0.00000000000E+00 0. -1.
         11    1    3    3    0    0  0.18151471782E+01 -0.23082315680E+01 -0.10217697974E+02  0.10631276706E+02  0.51100000000E-03 0. -1.
        -11    1    3    3    0    0  0.21492814055E+02  0.22179644444E+01  0.16476097885E+02  0.27172085383E+02  0.51100000000E-03 0.  1.
        -12    1    3    3    0    0  0.34933800342E+00 -0.21150779719E+02 -0.38356383914E+01  0.21498596271E+02  0.00000000000E+00 0.  1.
</event>
<event>
 7    1  0.7821043E-012  0.5930186E+02  0.7816164E-02  0.1266605E+00
        -11   -1    0    0    0    0  0.00000000000E+00  0.00000000000E+00  0.45593999997E+02  0.45594000000E+02  0.51100000000E-03 0. -1.
         11   -1    0    0    0    0 -0.00000000000E+00 -0.00000000000E+00 -0.45593999997E+02  0.45594000000E+02  0.51100000000E-03 0.  1.
    9900012    2    1    2    0    0 -0.29114917935E+02 -0.12384231262E+02  0.39596104997E+01  0.59301856526E+02  0.49999840418E+02 0.  0.
         12    1    1    2    0    0  0.29114917935E+02  0.12384231262E+02 -0.39596104997E+01  0.31886143474E+02  0.00000000000E+00 0. -1.
         11    1    3    3    0    0  0.12964388018E+02  0.30505275623E+01  0.27169632273E+01  0.13592754118E+02  0.51100000000E-03 0. -1.
        -11    1    3    3    0    0 -0.19578694789E+02 -0.11910612021E+02  0.70678240541E+00  0.22927876264E+02  0.51100000000E-03 0.  1.
         12    1    3    3    0    0 -0.22500611164E+02 -0.35241468032E+01  0.53586486695E+00  0.22781226144E+02  0.00000000000E+00 0. -1.
</event>
<event>
 7    1  0.7821043E-012  0.5930194E+02  0.7816164E-02  0.1266605E+00
        -11   -1    0    0    0    0  0.00000000000E+00  0.00000000000E+00  0.45593999997E+02  0.45594000000E+02  0.51100000000E-03 0. -1.
         11   -1    0    0    0    0 -0.00000000000E+00 -0.00000000000E+00 -0.45593999997E+02  0.45594000000E+02  0.51100000000E-03 0.  1.
    9900012    2    1    2    0    0  0.31263344448E+02  0.48376869375E+01 -0.39900634960E+01  0.59301944620E+02  0.50000001080E+02 0.  0.
         12    1    1    2    0    0 -0.31263344448E+02 -0.48376869375E+01  0.39900634960E+01  0.31886055380E+02  0.00000000000E+00 0. -1.
         11    1    3    3    0    0 -0.16251164968E+01 -0.56762843402E+01  0.68911801070E+01  0.90746664439E+01  0.51100000000E-03 0. -1.
        -11    1    3    3    0    0  0.18415224781E+02  0.75740655708E-01 -0.22392255788E+02  0.28992056842E+02  0.51100000000E-03 0.  1.
        -12    1    3    3    0    0  0.14473236164E+02  0.10438230622E+02  0.11511012185E+02  0.21235221334E+02  0.00000000000E+00 0.  1.
</event>
<event>
 7    1  0.7821043E-012  0.5930197E+02  0.7816164E-02  0.1266605E+00
        -11   -1    0    0    0    0  0.00000000000E+00  0.00000000000E+00  0.45593999997E+02  0.45594000000E+02  0.51100000000E-03 0.  1.
         11   -1    0    0    0    0 -0.00000000000E+00 -0.00000000000E+00 -0.45593999997E+02  0.45594000000E+02  0.51100000000E-03 0. -1.
    9900012    2    1    2    0    0 -0.17533806281E+02  0.11133213258E+02  0.24193718837E+02  0.59301971221E+02  0.50000049593E+02 0.  0.
         12    1    1    2    0    0  0.17533806281E+02 -0.11133213258E+02 -0.24193718837E+02  0.31886028779E+02  0.00000000000E+00 0. -1.
         11    1    3    3    0    0 -0.68483610807E+00 -0.94994904318E+01 -0.10572684270E+02  0.14229932252E+02  0.51100000000E-03 0. -1.
        -11    1    3    3    0    0 -0.56363705150E+01  0.27525684945E+01  0.14559444298E+02  0.15853161339E+02  0.51100000000E-03 0.  1.
         12    1    3    3    0    0 -0.11212599658E+02  0.17880135195E+02  0.20206958809E+02  0.29218877630E+02  0.00000000000E+00 0. -1.
</event>
<event>
 7    1  0.7821043E-012  0.5930179E+02  0.7816164E-02  0.1266605E+00
        -11   -1    0    0    0    0  0.00000000000E+00  0.00000000000E+00  0.45593999997E+02  0.45594000000E+02  0.51100000000E-03 0.  1.
         11   -1    0    0    0    0 -0.00000000000E+00 -0.00000000000E+00 -0.45593999997E+02  0.45594000000E+02  0.51100000000E-03 0. -1.
    9900012    2    1    2    0    0 -0.20160420899E+02 -0.17878353244E+02 -0.17048534202E+02  0.59301786616E+02  0.49999712917E+02 0.  0.
         12    1    1    2    0    0  0.20160420899E+02  0.17878353244E+02  0.17048534202E+02  0.31886213384E+02  0.00000000000E+00 0. -1.
         11    1    3    3    0    0  0.41693692580E+01 -0.30283334392E+01 -0.11281050315E+02  0.12402279625E+02  0.51100000000E-03 0. -1.
        -11    1    3    3    0    0 -0.17965091280E+02 -0.24279855413E+02  0.57104109114E+01  0.30738651184E+02  0.51100000000E-03 0.  1.
        -12    1    3    3    0    0 -0.63646988777E+01  0.94298356080E+01 -0.11477894798E+02  0.16160855806E+02  0.00000000000E+00 0.  1.
</event>
<event>
 7    1  0.7821043E-012  0.5930180E+02  0.7816164E-02  0.1266605E+00
        -11   -1    0    0    0    0  0.00000000000E+00  0.00000000000E+00  0.45593999997E+02  0.45594000000E+02  0.51100000000E-03 0.  1.
         11   -1    0    0    0    0 -0.00000000000E+00 -0.00000000000E+00 -0.45593999997E+02  0.45594000000E+02  0.51100000000E-03 0. -1.
    9900012    2    1    2    0    0 -0.32692181493E+00  0.20158987714E+02  0.24702994575E+02  0.59301802288E+02  0.49999741501E+02 0.  0.
         12    1    1    2    0    0  0.32692181493E+00 -0.20158987714E+02 -0.24702994575E+02  0.31886197712E+02  0.00000000000E+00 0. -1.
         11    1    3    3    0    0 -0.61458190305E+00 -0.75336159004E+01 -0.36003909715E+01  0.83723291179E+01  0.51100000000E-03 0. -1.
        -11    1    3    3    0    0  0.17943428766E+01  0.21981726946E+02  0.35392805434E+02  0.41702118204E+02  0.51100000000E-03 0.  1.
        -12    1    3    3    0    0 -0.15066827885E+01  0.57108766680E+01 -0.70894198874E+01  0.92273549667E+01  0.00000000000E+00 0.  1.
</event>
<event>
 7    1  0.7821043E-012  0.5930199E+02  0.7816164E-02  0.1266605E+00
        -11   -1    0    0    0    0  0.00000000000E+00  0.00000000000E+00  0.45593999997E+02  0.45594000000E+02  0.51100000000E-03 0.  1.
         11   -1    0    0    0    0 -0.00000000000E+00 -0.00000000000E+00 -0.45593999997E+02  0.45594000000E+02  0.51100000000E-03 0. -1.
    9900012    2    1    2    0    0  0.31526959259E+02  0.47472428058E+01  0.48204797484E+00  0.59301986693E+02  0.50000077811E+02 0.  0.
         12    1    1    2    0    0 -0.31526959259E+02 -0.47472428058E+01 -0.48204797484E+00  0.31886013307E+02  0.00000000000E+00 0. -1.
         11    1    3    3    0    0  0.32850703321E+02 -0.54658273216E+01 -0.13032542460E+02  0.35761587496E+02  0.51100000000E-03 0. -1.
        -11    1    3    3    0    0 -0.37320325037E+00  0.60367868774E+01  0.16983759764E+02  0.18028593191E+02  0.51100000000E-03 0.  1.
         12    1    3    3    0    0 -0.95054081145E+00  0.41762832500E+01 -0.34691693288E+01  0.55118060062E+01  0.00000000000E+00 0. -1.
</event>
<event>
 7    1  0.7821043E-012  0.5930198E+02  0.7816164E-02  0.1266605E+00
        -11   -1    0    0    0    0  0.00000000000E+00  0.00000000000E+00  0.45593999997E+02  0.45594000000E+02  0.51100000000E-03 0. -1.
         11   -1    0    0    0    0 -0.00000000000E+00 -0.00000000000E+00 -0.45593999997E+02  0.45594000000E+02  0.51100000000E-03 0.  1.
    9900012    2    1    2    0    0 -0.73925555207E+01  0.20243538390E+02 -0.23500372432E+02  0.59301980679E+02  0.50000066843E+02 0.  0.
         12    1    1    2    0    0  0.73925555207E+01 -0.20243538390E+02  0.23500372432E+02  0.31886019321E+02  0.00000000000E+00 0. -1.
         11    1    3    3    0    0 -0.15081036013E+02  0.12320176073E+02 -0.27892340943E+02  0.34017746386E+02  0.51100000000E-03 0. -1.
        -11    1    3    3    0    0  0.10650157539E+02  0.13131365982E+02 -0.13817707367E+01  0.16963723612E+02  0.51100000000E-03 0.  1.
         12    1    3    3    0    0 -0.29616770461E+01 -0.52080036648E+01  0.57737392471E+01  0.83205106809E+01  0.00000000000E+00 0. -1.
</event>
<event>
 7    1  0.7821043E-012  0.5930192E+02  0.7816164E-02  0.1266605E+00
        -11   -1    0    0    0    0  0.00000000000E+00  0.00000000000E+00  0.45593999997E+02  0.45594000000E+02  0.51100000000E-03 0. -1.
         11   -1    0    0    0    0 -0.00000000000E+00 -0.00000000000E+00 -0.45593999997E+02  0.45594000000E+02  0.51100000000E-03 0.  1.
    9900012    2    1    2    0    0 -0.78027929895E+01  0.21135347454E+02 -0.22564029783E+02  0.59301922623E+02  0.49999960963E+02 0.  0.
         12    1    1    2    0    0  0.78027929895E+01 -0.21135347454E+02  0.22564029783E+02  0.31886077377E+02  0.00000000000E+00 0. -1.
         11    1    3    3    0    0 -0.47779586600E+01 -0.47432263579E-01  0.11337458254E+02  0.12303214974E+02  0.51100000000E-03 0. -1.
        -11    1    3    3    0    0 -0.29655569492E+01 -0.19668954482E+01 -0.19307626584E+02  0.19632820742E+02  0.51100000000E-03 0.  1.
         12    1    3    3    0    0 -0.59277380237E-01  0.23149675166E+02 -0.14593861453E+02  0.27365886907E+02  0.00000000000E+00 0. -1.
</event>
<event>
 7    1  0.7821043E-012  0.5930194E+02  0.7816164E-02  0.1266605E+00
        -11   -1    0    0    0    0  0.00000000000E+00  0.00000000000E+00  0.45593999997E+02  0.45594000000E+02  0.51100000000E-03 0.  1.
         11   -1    0    0    0    0 -0.00000000000E+00 -0.00000000000E+00 -0.45593999997E+02  0.45594000000E+02  0.51100000000E-03 0. -1.
    9900012    2    1    2    0    0  0.18955029000E+02 -0.17882831488E+02  0.18374765540E+02  0.59301940427E+02  0.49999993434E+02 0.  0.
         12    1    1    2    0    0 -0.18955029000E+02  0.17882831488E+02 -0.18374765540E+02  0.31886059573E+02  0.00000000000E+00 0. -1.
         11    1    3    3    0    0 -0.32043116124E+01 -0.11982514150E+02 -0.93359399408E+01  0.15524433423E+02  0.51100000000E-03 0. -1.
        -11    1    3    3    0    0  0.15576042891E+02 -0.12659611300E+02  0.27864166331E+02  0.34340801330E+02  0.51100000000E-03 0.  1.
         12    1    3    3    0    0  0.65832977216E+01  0.67592939617E+01 -0.15346085019E+00  0.94367056743E+01  0.00000000000E+00 0. -1.
</event>
<event>
 7    1  0.7821043E-012  0.5930194E+02  0.7816164E-02  0.1266605E+00
        -11   -1    0    0    0    0  0.00000000000E+00  0.00000000000E+00  0.45593999997E+02  0.45594000000E+02  0.51100000000E-03 0.  1.
         11   -1    0    0    0    0 -0.00000000000E+00 -0.00000000000E+00 -0.45593999997E+02  0.45594000000E+02  0.51100000000E-03 0. -1.
    9900012    2    1    2    0    0 -0.40542974868E+01  0.21406090045E+02  0.23282240112E+02  0.59301941546E+02  0.49999995473E+02 0.  0.
         12    1    1    2    0    0  0.40542974868E+01 -0.21406090045E+02 -0.23282240112E+02  0.31886058454E+02  0.00000000000E+00 0. -1.
         11    1    3    3    0    0 -0.11530240158E+02  0.81254956009E+01 -0.12857381758E+02  0.19086183034E+02  0.51100000000E-03 0. -1.
        -11    1    3    3    0    0 -0.16506714720E+00 -0.11591221029E+01  0.13892634415E+01  0.18168281106E+01  0.51100000000E-03 0.  1.
         12    1    3    3    0    0  0.76410098186E+01  0.14439716547E+02  0.34750358429E+02  0.38398930401E+02  0.00000000000E+00 0. -1.
</event>
<event>
 7    1  0.7821043E-012  0.5930201E+02  0.7816164E-02  0.1266605E+00
        -11   -1    0    0    0    0  0.00000000000E+00  0.00000000000E+00  0.45593999997E+02  0.45594000000E+02  0.51100000000E-03 0. -1.
         11   -1    0    0    0    0 -0.00000000000E+00 -0.00000000000E+00 -0.45593999997E+02  0.45594000000E+02  0.51100000000E-03 0.  1.
    9900012    2    1    2    0    0  0.10207841295E+02 -0.24500156826E+02  0.17670841016E+02  0.59302010434E+02  0.50000121108E+02 0.  0.
         12    1    1    2    0    0 -0.10207841295E+02  0.24500156826E+02 -0.17670841016E+02  0.31885989566E+02  0.00000000000E+00 0. -1.
         11    1    3    3    0    0  0.51916280617E+01 -0.14034055254E+02  0.27888905630E+02  0.31649625058E+02  0.51100000000E-03 0. -1.
        -11    1    3    3    0    0 -0.31443998062E+00  0.67980143285E+01 -0.60585760624E+01  0.91114332285E+01  0.51100000000E-03 0.  1.
         12    1    3    3    0    0  0.53306532140E+01 -0.17264115900E+02 -0.41594885518E+01  0.18540952147E+02  0.00000000000E+00 0. -1.
</event>
<event>
 7    1  0.7821043E-012  0.5930197E+02  0.7816164E-02  0.1266605E+00
        -11   -1    0    0    0    0  0.00000000000E+00  0.00000000000E+00  0.45593999997E+02  0.45594000000E+02  0.51100000000E-03 0.  1.
         11   -1    0    0    0    0 -0.00000000000E+00 -0.00000000000E+00 -0.45593999997E+02  0.45594000000E+02  0.51100000000E-03 0. -1.
    9900012    2    1    2    0    0 -0.12538601945E+02  0.26276195379E+02  0.13002455037E+02  0.59301971409E+02  0.50000049936E+02 0.  0.
         12    1    1    2    0    0  0.12538601945E+02 -0.26276195379E+02 -0.13002455037E+02  0.31886028591E+02  0.00000000000E+00 0. -1.
         11    1    3    3    0    0  0.49059155309E+01  0.72596895386E+00 -0.66625627242E+01  0.83057077022E+01  0.51100000000E-03 0. -1.
        -11    1    3    3    0    0  0.73338395622E-02 -0.44245320215E+01  0.15432118768E+02  0.16053872658E+02  0.51100000000E-03 0.  1.
        -12    1    3    3    0    0 -0.17451851316E+02  0.29974758447E+02  0.42328989929E+01  0.34942391048E+02  0.00000000000E+00 0.  1.
</event>
<event>
 7    1  0.7821043E-012  0.5930195E+02  0.7816164E-02  0.1266605E+00
        -11   -1    0    0    0    0  0.00000000000E+00  0.00000000000E+00  0.45593999997E+02  0.45594000000E+02  0.51100000000E-03 0. -1.
         11   -1    0    0    0    0 -0.00000000000E+00 -0.00000000000E+00 -0.45593999997E+02  0.45594000000E+02  0.51100000000E-03 0.  1.
    9900012    2    1    2    0    0 -0.23650529431E+02 -0.51356846883E+01 -0.20760477555E+02  0.59301949321E+02  0.50000009654E+02 0.  0.
         12    1    1    2    0    0  0.23650529431E+02  0.51356846883E+01  0.20760477555E+02  0.31886050679E+02  0.00000000000E+00 0. -1.
         11    1    3    3    0    0 -0.25592969089E+01 -0.93834829803E+01 -0.34873077203E+01  0.10332524808E+02  0.51100000000E-03 0. -1.
        -11    1    3    3    0    0 -0.33284849233E+02  0.21411124001E+01 -0.13975876065E+02  0.36163388431E+02  0.51100000000E-03 0.  1.
        -12    1    3    3    0    0  0.12193616711E+02  0.21066858918E+01 -0.32972937690E+01  0.12806036082E+02  0.00000000000E+00 0.  1.
</event>
<event>
 7    1  0.7821043E-012  0.5930193E+02  0.7816164E-02  0.1266605E+00
        -11   -1    0    0    0    0  0.00000000000E+00  0.00000000000E+00  0.45593999997E+02  0.45594000000E+02  0.51100000000E-03 0.  1.
         11   -1    0    0    0    0 -0.00000000000E+00 -0.00000000000E+00 -0.45593999997E+02  0.45594000000E+02  0.51100000000E-03 0. -1.
    9900012    2    1    2    0    0  0.30829803213E+02  0.24807936349E+01 -0.77517827800E+01  0.59301933459E+02  0.49999980725E+02 0.  0.
         12    1    1    2    0    0 -0.30829803213E+02 -0.24807936349E+01  0.77517827800E+01  0.31886066541E+02  0.00000000000E+00 0. -1.
         11    1    3    3    0    0  0.64691598684E+01  0.25459368381E+01 -0.52707522228E+01  0.87242565896E+01  0.51100000000E-03 0. -1.
        -11    1    3    3    0    0 -0.13048706316E+02 -0.85543253698E+00 -0.13025283312E+01  0.13141426165E+02  0.51100000000E-03 0.  1.
        -12    1    3    3    0    0  0.37409349660E+02  0.79028933378E+00 -0.11785022260E+01  0.37436250704E+02  0.00000000000E+00 0.  1.
</event>
<event>
 7    1  0.7821043E-012  0.5930195E+02  0.7816164E-02  0.1266605E+00
        -11   -1    0    0    0    0  0.00000000000E+00  0.00000000000E+00  0.45593999997E+02  0.45594000000E+02  0.51100000000E-03 0. -1.
         11   -1    0    0    0    0 -0.00000000000E+00 -0.00000000000E+00 -0.45593999997E+02  0.45594000000E+02  0.51100000000E-03 0.  1.
    9900012    2    1    2    0    0 -0.80375486713E+01 -0.22731894173E+02 -0.20865729651E+02  0.59301954852E+02  0.50000019740E+02 0.  0.
         12    1    1    2    0    0  0.80375486713E+01  0.22731894173E+02  0.20865729651E+02  0.31886045148E+02  0.00000000000E+00 0. -1.
         11    1    3    3    0    0  0.37030814371E+01 -0.52084819507E+01 -0.33986152857E+01  0.72382098949E+01  0.51100000000E-03 0. -1.
        -11    1    3    3    0    0 -0.69969227956E+01  0.14563855210E+02 -0.25326401348E+01  0.16354726335E+02  0.51100000000E-03 0.  1.
        -12    1    3    3    0    0 -0.47437073128E+01 -0.32087267433E+02 -0.14934474230E+02  0.35709018621E+02  0.00000000000E+00 0.  1.
</event>
<event>
 7    1  0.7821043E-012  0.5930195E+02  0.7816164E-02  0.1266605E+00
        -11   -1    0    0    0    0  0.00000000000E+00  0.00000000000E+00  0.45593999997E+02  0.45594000000E+02  0.51100000000E-03 0.  1.
         11   -1    0    0    0    0 -0.00000000000E+00 -0.00000000000E+00 -0.45593999997E+02  0.45594000000E+02  0.51100000000E-03 0. -1.
    9900012    2    1    2    0    0  0.29352403955E+02  0.60669395745E+01  0.10878814535E+02  0.59301953217E+02  0.50000016759E+02 0.  0.
         12    1    1    2    0    0 -0.29352403955E+02 -0.60669395745E+01 -0.10878814535E+02  0.31886046783E+02  0.00000000000E+00 0. -1.
         11    1    3    3    0    0  0.35054584537E+00  0.16808939281E+02 -0.66207542719E+01  0.18069247619E+02  0.51100000000E-03 0.  1.
        -11    1    3    3    0    0  0.26468534215E+02 -0.15882443075E+02  0.11512629406E+02  0.32945044204E+02  0.51100000000E-03 0. -1.
         12    1    3    3    0    0  0.25333238951E+01  0.51404433692E+01  0.59869394007E+01  0.82876613937E+01  0.00000000000E+00 0. -1.
</event>
<event>
 7    1  0.7821043E-012  0.5930193E+02  0.7816164E-02  0.1266605E+00
        -11   -1    0    0    0    0  0.00000000000E+00  0.00000000000E+00  0.45593999997E+02  0.45594000000E+02  0.51100000000E-03 0.  1.
         11   -1    0    0    0    0 -0.00000000000E+00 -0.00000000000E+00 -0.45593999997E+02  0.45594000000E+02  0.51100000000E-03 0. -1.
    9900012    2    1    2    0    0 -0.51489099174E+01  0.17471215238E+02  0.26171869524E+02  0.59301931104E+02  0.49999976431E+02 0.  0.
         12    1    1    2    0    0  0.51489099174E+01 -0.17471215238E+02 -0.26171869524E+02  0.31886068896E+02  0.00000000000E+00 0. -1.
         11    1    3    3    0    0  0.58137045992E+01 -0.86019457736E+01  0.11070300911E+02  0.15177094412E+02  0.51100000000E-03 0.  1.
        -11    1    3    3    0    0 -0.14050224826E+02  0.22572327639E+02  0.22864120805E+02  0.35066890554E+02  0.51100000000E-03 0. -1.
        -12    1    3    3    0    0  0.30876103092E+01  0.35008333727E+01 -0.77625521915E+01  0.90579461386E+01  0.00000000000E+00 0.  1.
</event>
<event>
 7    1  0.7821043E-012  0.5930192E+02  0.7816164E-02  0.1266605E+00
        -11   -1    0    0    0    0  0.00000000000E+00  0.00000000000E+00  0.45593999997E+02  0.45594000000E+02  0.51100000000E-03 0.  1.
         11   -1    0    0    0    0 -0.00000000000E+00 -0.00000000000E+00 -0.45593999997E+02  0.45594000000E+02  0.51100000000E-03 0. -1.
    9900012    2    1    2    0    0  0.13469076799E+01 -0.45707635647E+01  0.31528020190E+02  0.59301920012E+02  0.49999956202E+02 0.  0.
         12    1    1    2    0    0 -0.13469076799E+01  0.45707635647E+01 -0.31528020190E+02  0.31886079988E+02  0.00000000000E+00 0. -1.
         11    1    3    3    0    0 -0.20418387781E+02 -0.53518329179E+00  0.38280781863E+00  0.20428987317E+02  0.51100000000E-03 0. -1.
        -11    1    3    3    0    0  0.14057981356E+02  0.18963197240E+00  0.15489080755E+02  0.20918279637E+02  0.51100000000E-03 0.  1.
        -12    1    3    3    0    0  0.77073141048E+01 -0.42252122453E+01  0.15656131617E+02  0.17954653058E+02  0.00000000000E+00 0.  1.
</event>
<event>
 7    1  0.7821043E-012  0.5930195E+02  0.7816164E-02  0.1266605E+00
        -11   -1    0    0    0    0  0.00000000000E+00  0.00000000000E+00  0.45593999997E+02  0.45594000000E+02  0.51100000000E-03 0. -1.
         11   -1    0    0    0    0 -0.00000000000E+00 -0.00000000000E+00 -0.45593999997E+02  0.45594000000E+02  0.51100000000E-03 0.  1.
    9900012    2    1    2    0    0  0.17793289253E+02  0.44795711000E+01 -0.26077818434E+02  0.59301947972E+02  0.50000007193E+02 0.  0.
         12    1    1    2    0    0 -0.17793289253E+02 -0.44795711000E+01  0.26077818434E+02  0.31886052028E+02  0.00000000000E+00 0. -1.
         11    1    3    3    0    0 -0.39886818443E+00  0.11859586970E+02 -0.74887209587E+00  0.11889899437E+02  0.51100000000E-03 0. -1.
        -11    1    3    3    0    0  0.12182316973E+02 -0.10825097673E+02  0.44050125083E+01  0.16881816310E+02  0.51100000000E-03 0.  1.
        -12    1    3    3    0    0  0.60098404648E+01  0.34450818029E+01 -0.29733958846E+02  0.30530232225E+02  0.00000000000E+00 0.  1.
</event>
<event>
 7    1  0.7821043E-012  0.5930197E+02  0.7816164E-02  0.1266605E+00
        -11   -1    0    0    0    0  0.00000000000E+00  0.00000000000E+00  0.45593999997E+02  0.45594000000E+02  0.51100000000E-03 0. -1.
         11   -1    0    0    0    0 -0.00000000000E+00 -0.00000000000E+00 -0.45593999997E+02  0.45594000000E+02  0.51100000000E-03 0.  1.
    9900012    2    1    2    0    0 -0.30125537571E+02 -0.10438754030E+02  0.45066554103E+00  0.59301973295E+02  0.50000053376E+02 0.  0.
         12    1    1    2    0    0  0.30125537571E+02  0.10438754030E+02 -0.45066554103E+00  0.31886026705E+02  0.00000000000E+00 0. -1.
         11    1    3    3    0    0  0.10613093526E+02 -0.82906410451E+01  0.37994422640E+01  0.13993149928E+02  0.51100000000E-03 0. -1.
        -11    1    3    3    0    0 -0.27486713640E+02 -0.13683486795E+01  0.70922053628E+01  0.28419908199E+02  0.51100000000E-03 0.  1.
         12    1    3    3    0    0 -0.13251917456E+02 -0.77976430532E+00 -0.10440982086E+02  0.16888915168E+02  0.00000000000E+00 0. -1.
</event>
<event>
 7    1  0.7821043E-012  0.5930193E+02  0.7816164E-02  0.1266605E+00
        -11   -1    0    0    0    0  0.00000000000E+00  0.00000000000E+00  0.45593999997E+02  0.45594000000E+02  0.51100000000E-03 0. -1.
         11   -1    0    0    0    0 -0.00000000000E+00 -0.00000000000E+00 -0.45593999997E+02  0.45594000000E+02  0.51100000000E-03 0.  1.
    9900012    2    1    2    0    0  0.13949586536E+02  0.19308978493E+02 -0.21196549730E+02  0.59301931954E+02  0.49999977981E+02 0.  0.
         12    1    1    2    0    0 -0.13949586536E+02 -0.19308978493E+02  0.21196549730E+02  0.31886068046E+02  0.00000000000E+00 0. -1.
         11    1    3    3    0    0  0.70685449808E+01  0.22550454166E+02  0.56080056383E+01  0.24288619532E+02  0.51100000000E-03 0. -1.
        -11    1    3    3    0    0  0.13110547071E+01  0.79817274216E+01 -0.17897908672E+02  0.19640824121E+02  0.51100000000E-03 0.  1.
         12    1    3    3    0    0  0.55699868479E+01 -0.11223203095E+02 -0.89066466970E+01  0.15372488302E+02  0.00000000000E+00 0. -1.
</event>
<event>
 7    1  0.7821043E-012  0.5930191E+02  0.7816164E-02  0.1266605E+00
        -11   -1    0    0    0    0  0.00000000000E+00  0.00000000000E+00  0.45593999997E+02  0.45594000000E+02  0.51100000000E-03 0. -1.
         11   -1    0    0    0    0 -0.00000000000E+00 -0.00000000000E+00 -0.45593999997E+02  0.45594000000E+02  0.51100000000E-03 0.  1.
    9900012    2    1    2    0    0  0.39238953937E+01  0.23885345794E+02 -0.20756102786E+02  0.59301913667E+02  0.49999944630E+02 0.  0.
         12    1    1    2    0    0 -0.39238953937E+01 -0.23885345794E+02  0.20756102786E+02  0.31886086333E+02  0.00000000000E+00 0. -1.
         11    1    3    3    0    0 -0.68526226743E+01 -0.13005870573E+01 -0.49293937713E+01  0.85410120843E+01  0.51100000000E-03 0. -1.
        -11    1    3    3    0    0  0.25417090593E+02  0.19258033053E+02 -0.14115606569E+02  0.34873352009E+02  0.51100000000E-03 0.  1.
        -12    1    3    3    0    0 -0.14640572525E+02  0.59278997990E+01 -0.17111024452E+01  0.15887549574E+02  0.00000000000E+00 0.  1.
</event>
<event>
 7    1  0.7821043E-012  0.5930190E+02  0.7816164E-02  0.1266605E+00
        -11   -1    0    0    0    0  0.00000000000E+00  0.00000000000E+00  0.45593999997E+02  0.45594000000E+02  0.51100000000E-03 0.  1.
         11   -1    0    0    0    0 -0.00000000000E+00 -0.00000000000E+00 -0.45593999997E+02  0.45594000000E+02  0.51100000000E-03 0. -1.
    9900012    2    1    2    0    0  0.67220275199E+01  0.31089268755E+02  0.22349757087E+01  0.59301899547E+02  0.49999918878E+02 0.  0.
         12    1    1    2    0    0 -0.67220275199E+01 -0.31089268755E+02 -0.22349757087E+01  0.31886100453E+02  0.00000000000E+00 0. -1.
         11    1    3    3    0    0  0.11548981851E+02 -0.34219381053E+01 -0.10285028935E+02  0.15838890827E+02  0.51100000000E-03 0. -1.
        -11    1    3    3    0    0  0.21867882978E+01  0.28781736433E+02  0.16851847740E+02  0.33423871224E+02  0.51100000000E-03 0.  1.
         12    1    3    3    0    0 -0.70137426287E+01  0.57294704274E+01 -0.43318430963E+01  0.10039137495E+02  0.00000000000E+00 0. -1.
</event>
<event>
 7    1  0.7821043E-012  0.5930194E+02  0.7816164E-02  0.1266605E+00
        -11   -1    0    0    0    0  0.00000000000E+00  0.00000000000E+00  0.45593999997E+02  0.45594000000E+02  0.51100000000E-03 0. -1.
         11   -1    0    0    0    0 -0.00000000000E+00 -0.00000000000E+00 -0.45593999997E+02  0.45594000000E+02  0.51100000000E-03 0.  1.
    9900012    2    1    2    0    0  0.75247533043E+01  0.18338249097E+02 -0.24976141577E+02  0.59301938150E+02  0.49999989280E+02 0.  0.
         12    1    1    2    0    0 -0.75247533043E+01 -0.18338249097E+02  0.24976141577E+02  0.31886061850E+02  0.00000000000E+00 0. -1.
         11    1    3    3    0    0  0.18663867554E+02  0.12483068771E+02  0.17712063430E+01  0.22523412934E+02  0.51100000000E-03 0. -1.
        -11    1    3    3    0    0 -0.17204919319E+02  0.69125118436E+01 -0.16482302286E+02  0.24808433196E+02  0.51100000000E-03 0.  1.
        -12    1    3    3    0    0  0.60658050692E+01 -0.10573315181E+01 -0.10265045635E+02  0.11970092020E+02  0.00000000000E+00 0.  1.
</event>
<event>
 7    1  0.7821043E-012  0.5930186E+02  0.7816164E-02  0.1266605E+00
        -11   -1    0    0    0    0  0.00000000000E+00  0.00000000000E+00  0.45593999997E+02  0.45594000000E+02  0.51100000000E-03 0.  1.
         11   -1    0    0    0    0 -0.00000000000E+00 -0.00000000000E+00 -0.45593999997E+02  0.45594000000E+02  0.51100000000E-03 0. -1.
    9900012    2    1    2    0    0 -0.24466198426E+02 -0.14294179880E+02  0.14622155734E+02  0.59301860657E+02  0.49999847952E+02 0.  0.
         12    1    1    2    0    0  0.24466198426E+02  0.14294179880E+02 -0.14622155734E+02  0.31886139343E+02  0.00000000000E+00 0. -1.
         11    1    3    3    0    0 -0.14461224930E+02  0.93514972548E+01  0.73666844941E+01  0.18730872059E+02  0.51100000000E-03 0. -1.
        -11    1    3    3    0    0 -0.10517661647E+02 -0.30230025798E+02  0.98296037454E+01  0.33482783282E+02  0.51100000000E-03 0.  1.
        -12    1    3    3    0    0  0.51268815173E+00  0.65843486626E+01 -0.25741325059E+01  0.70882053166E+01  0.00000000000E+00 0.  1.
</event>
<event>
 7    1  0.7821043E-012  0.5930192E+02  0.7816164E-02  0.1266605E+00
        -11   -1    0    0    0    0  0.00000000000E+00  0.00000000000E+00  0.45593999997E+02  0.45594000000E+02  0.51100000000E-03 0.  1.
         11   -1    0    0    0    0 -0.00000000000E+00 -0.00000000000E+00 -0.45593999997E+02  0.45594000000E+02  0.51100000000E-03 0. -1.
    9900012    2    1    2    0    0 -0.27348621264E+02 -0.12766652547E+02 -0.10285305013E+02  0.59301921509E+02  0.49999958932E+02 0.  0.
         12    1    1    2    0    0  0.27348621264E+02  0.12766652547E+02  0.10285305013E+02  0.31886078491E+02  0.00000000000E+00 0. -1.
         11    1    3    3    0    0 -0.15856997590E+02 -0.20472331733E+01 -0.16076389556E+02  0.22673461086E+02  0.51100000000E-03 0. -1.
        -11    1    3    3    0    0 -0.85209380644E+01  0.91207871670E+01  0.10163256206E+02  0.16096177217E+02  0.51100000000E-03 0.  1.
        -12    1    3    3    0    0 -0.29706856096E+01 -0.19840206541E+02 -0.43721716635E+01  0.20532283206E+02  0.00000000000E+00 0.  1.
</event>
<event>
 7    1  0.7821043E-012  0.5930195E+02  0.7816164E-02  0.1266605E+00
        -11   -1    0    0    0    0  0.00000000000E+00  0.00000000000E+00  0.45593999997E+02  0.45594000000E+02  0.51100000000E-03 0.  1.
         11   -1    0    0    0    0 -0.00000000000E+00 -0.00000000000E+00 -0.45593999997E+02  0.45594000000E+02  0.51100000000E-03 0. -1.
    9900012    2    1    2    0    0  0.12924796648E+02  0.26174019960E+02  0.12829284129E+02  0.59301949437E+02  0.50000009865E+02 0.  0.
         12    1    1    2    0    0 -0.12924796648E+02 -0.26174019960E+02 -0.12829284129E+02  0.31886050563E+02  0.00000000000E+00 0. -1.
         11    1    3    3    0    0  0.70670254810E+01  0.17654390759E+02 -0.12609662148E+01  0.19058079606E+02  0.51100000000E-03 0. -1.
        -11    1    3    3    0    0  0.14657986918E+02 -0.90541314538E+01  0.10751311394E+02  0.20308239063E+02  0.51100000000E-03 0.  1.
        -12    1    3    3    0    0 -0.88002157505E+01  0.17573760655E+02  0.33389389498E+01  0.19935630768E+02  0.00000000000E+00 0.  1.
</event>
<event>
 7    1  0.7821043E-012  0.5930194E+02  0.7816164E-02  0.1266605E+00
        -11   -1    0    0    0    0  0.00000000000E+00  0.00000000000E+00  0.45593999997E+02  0.45594000000E+02  0.51100000000E-03 0.  1.
         11   -1    0    0    0    0 -0.00000000000E+00 -0.00000000000E+00 -0.45593999997E+02  0.45594000000E+02  0.51100000000E-03 0. -1.
    9900012    2    1    2    0    0  0.95276730006E+01  0.30397016883E+02 -0.14019945418E+01  0.59301940713E+02  0.49999993954E+02 0.  0.
         12    1    1    2    0    0 -0.95276730006E+01 -0.30397016883E+02  0.14019945418E+01  0.31886059287E+02  0.00000000000E+00 0. -1.
         11    1    3    3    0    0 -0.55778567675E+01  0.19440988546E+02  0.19928599057E+02  0.28393900444E+02  0.51100000000E-03 0.  1.
        -11    1    3    3    0    0  0.14458947754E+02  0.36030103223E+01 -0.12968202893E+02  0.19753914550E+02  0.51100000000E-03 0. -1.
        -12    1    3    3    0    0  0.64658201458E+00  0.73530180145E+01 -0.83623907065E+01  0.11154125719E+02  0.00000000000E+00 0.  1.
</event>
<event>
 7    1  0.7821043E-012  0.5930192E+02  0.7816164E-02  0.1266605E+00
        -11   -1    0    0    0    0  0.00000000000E+00  0.00000000000E+00  0.45593999997E+02  0.45594000000E+02  0.51100000000E-03 0.  1.
         11   -1    0    0    0    0 -0.00000000000E+00 -0.00000000000E+00 -0.45593999997E+02  0.45594000000E+02  0.51100000000E-03 0. -1.
    9900012    2    1    2    0    0 -0.13981397857E+02  0.25719856764E+02  0.12638484300E+02  0.59301924616E+02  0.49999964598E+02 0.  0.
         12    1    1    2    0    0  0.13981397857E+02 -0.25719856764E+02 -0.12638484300E+02  0.31886075384E+02  0.00000000000E+00 0. -1.
         11    1    3    3    0    0  0.11544281678E+02  0.14073458458E+02  0.20297121717E+02  0.27263635537E+02  0.51100000000E-03 0. -1.
        -11    1    3    3    0    0 -0.22567278811E+02  0.49824042688E+01 -0.28072595176E+01  0.23280617077E+02  0.51100000000E-03 0.  1.
        -12    1    3    3    0    0 -0.29584007245E+01  0.66639940369E+01 -0.48513778998E+01  0.87576720022E+01  0.00000000000E+00 0.  1.
</event>
<event>
 7    1  0.7821043E-012  0.5930199E+02  0.7816164E-02  0.1266605E+00
        -11   -1    0    0    0    0  0.00000000000E+00  0.00000000000E+00  0.45593999997E+02  0.45594000000E+02  0.51100000000E-03 0.  1.
         11   -1    0    0    0    0 -0.00000000000E+00 -0.00000000000E+00 -0.45593999997E+02  0.45594000000E+02  0.51100000000E-03 0. -1.
    9900012    2    1    2    0    0 -0.25666222390E+02 -0.98232991259E-01  0.18919646969E+02  0.59301989542E+02  0.50000083007E+02 0.  0.
         12    1    1    2    0    0  0.25666222390E+02  0.98232991259E-01 -0.18919646969E+02  0.31886010458E+02  0.00000000000E+00 0. -1.
         11    1    3    3    0    0 -0.10194759917E+02  0.17448250880E+02  0.30972304056E+01  0.20444251637E+02  0.51100000000E-03 0. -1.
        -11    1    3    3    0    0  0.24572611887E+01 -0.12886722613E+02 -0.18583634390E+01  0.13249878007E+02  0.51100000000E-03 0.  1.
        -12    1    3    3    0    0 -0.17928723662E+02 -0.46597612579E+01  0.17680780002E+02  0.25607859899E+02  0.00000000000E+00 0.  1.
</event>
<event>
 7    1  0.7821043E-012  0.5930195E+02  0.7816164E-02  0.1266605E+00
        -11   -1    0    0    0    0  0.00000000000E+00  0.00000000000E+00  0.45593999997E+02  0.45594000000E+02  0.51100000000E-03 0.  1.
         11   -1    0    0    0    0 -0.00000000000E+00 -0.00000000000E+00 -0.45593999997E+02  0.45594000000E+02  0.51100000000E-03 0. -1.
    9900012    2    1    2    0    0  0.18477416437E+01  0.10009065238E+02  0.30217949771E+02  0.59301952511E+02  0.50000015471E+02 0.  0.
         12    1    1    2    0    0 -0.18477416437E+01 -0.10009065238E+02 -0.30217949771E+02  0.31886047489E+02  0.00000000000E+00 0. -1.
         11    1    3    3    0    0 -0.44335228677E+01 -0.63232249888E+00 -0.29922126167E+01  0.53860276053E+01  0.51100000000E-03 0. -1.
        -11    1    3    3    0    0  0.79605884352E+00  0.26078629358E+02  0.20345295107E+02  0.33085641177E+02  0.51100000000E-03 0.  1.
        -12    1    3    3    0    0  0.54852056678E+01 -0.15437241620E+02  0.12864867280E+02  0.20830283728E+02  0.00000000000E+00 0.  1.
</event>
<event>
 7    1  0.7821043E-012  0.5930195E+02  0.7816164E-02  0.1266605E+00
        -11   -1    0    0    0    0  0.00000000000E+00  0.00000000000E+00  0.45593999997E+02  0.45594000000E+02  0.51100000000E-03 0. -1.
         11   -1    0    0    0    0 -0.00000000000E+00 -0.00000000000E+00 -0.45593999997E+02  0.45594000000E+02  0.51100000000E-03 0.  1.
    9900012    2    1    2    0    0  0.23559541311E+02  0.19008613301E+02 -0.10017013144E+02  0.59301954169E+02  0.50000018495E+02 0.  0.
         12    1    1    2    0    0 -0.23559541311E+02 -0.19008613301E+02  0.10017013144E+02  0.31886045831E+02  0.00000000000E+00 0. -1.
         11    1    3    3    0    0  0.69117671334E+01 -0.67026610249E+01 -0.46596685664E+00  0.96392590531E+01  0.51100000000E-03 0.  1.
        -11    1    3    3    0    0  0.25693810005E+02  0.27801712408E+02 -0.23796307116E+01  0.37931118201E+02  0.51100000000E-03 0. -1.
         12    1    3    3    0    0 -0.90460358269E+01 -0.20904380817E+01 -0.71714155755E+01  0.11731576915E+02  0.00000000000E+00 0. -1.
</event>
<event>
 7    1  0.7821043E-012  0.5930190E+02  0.7816164E-02  0.1266605E+00
        -11   -1    0    0    0    0  0.00000000000E+00  0.00000000000E+00  0.45593999997E+02  0.45594000000E+02  0.51100000000E-03 0.  1.
         11   -1    0    0    0    0 -0.00000000000E+00 -0.00000000000E+00 -0.45593999997E+02  0.45594000000E+02  0.51100000000E-03 0. -1.
    9900012    2    1    2    0    0 -0.14770189231E+02 -0.30380523190E+01  0.28095109366E+02  0.59301899233E+02  0.49999918305E+02 0.  0.
         12    1    1    2    0    0  0.14770189231E+02  0.30380523190E+01 -0.28095109366E+02  0.31886100767E+02  0.00000000000E+00 0. -1.
         11    1    3    3    0    0 -0.14310016466E+02  0.47434778697E+01 -0.45510868824E+01  0.15747683818E+02  0.51100000000E-03 0. -1.
        -11    1    3    3    0    0 -0.13312360336E+02 -0.64488685491E+01  0.23332363382E+02  0.27626183677E+02  0.51100000000E-03 0.  1.
         12    1    3    3    0    0  0.12852187571E+02 -0.13326616396E+01  0.93138328668E+01  0.15928031739E+02  0.00000000000E+00 0. -1.
</event>
<event>
 7    1  0.7821043E-012  0.5930194E+02  0.7816164E-02  0.1266605E+00
        -11   -1    0    0    0    0  0.00000000000E+00  0.00000000000E+00  0.45593999997E+02  0.45594000000E+02  0.51100000000E-03 0.  1.
         11   -1    0    0    0    0 -0.00000000000E+00 -0.00000000000E+00 -0.45593999997E+02  0.45594000000E+02  0.51100000000E-03 0. -1.
    9900012    2    1    2    0    0  0.68745445212E+01  0.30783311170E+02 -0.46743099718E+01  0.59301940622E+02  0.49999993788E+02 0.  0.
         12    1    1    2    0    0 -0.68745445212E+01 -0.30783311170E+02  0.46743099718E+01  0.31886059378E+02  0.00000000000E+00 0. -1.
         11    1    3    3    0    0  0.16396423857E+02 -0.59334649020E+00 -0.19590232866E+01  0.16523696556E+02  0.51100000000E-03 0. -1.
        -11    1    3    3    0    0 -0.19174747361E+02  0.19262028812E+02 -0.24035066822E+01  0.27285042330E+02  0.51100000000E-03 0.  1.
        -12    1    3    3    0    0  0.96528680253E+01  0.12114628849E+02 -0.31178000295E+00  0.15493201736E+02  0.00000000000E+00 0.  1.
</event>
<event>
 7    1  0.7821043E-012  0.5930196E+02  0.7816164E-02  0.1266605E+00
        -11   -1    0    0    0    0  0.00000000000E+00  0.00000000000E+00  0.45593999997E+02  0.45594000000E+02  0.51100000000E-03 0. -1.
         11   -1    0    0    0    0 -0.00000000000E+00 -0.00000000000E+00 -0.45593999997E+02  0.45594000000E+02  0.51100000000E-03 0.  1.
    9900012    2    1    2    0    0 -0.68996249000E+01 -0.24566683705E+02 -0.19120473376E+02  0.59301964277E+02  0.50000036930E+02 0.  0.
         12    1    1    2    0    0  0.68996249000E+01  0.24566683705E+02  0.19120473376E+02  0.31886035723E+02  0.00000000000E+00 0. -1.
         11    1    3    3    0    0 -0.10671638707E+02 -0.34159379994E+02 -0.78635388835E+00  0.35796165535E+02  0.51100000000E-03 0. -1.
        -11    1    3    3    0    0  0.17911871557E+01 -0.70419708568E+00 -0.97969899211E+01  0.99842504345E+01  0.51100000000E-03 0.  1.
         12    1    3    3    0    0  0.19808266517E+01  0.10296893375E+02 -0.85371295661E+01  0.13521548308E+02  0.00000000000E+00 0. -1.
</event>
<event>
 7    1  0.7821043E-012  0.5930195E+02  0.7816164E-02  0.1266605E+00
        -11   -1    0    0    0    0  0.00000000000E+00  0.00000000000E+00  0.45593999997E+02  0.45594000000E+02  0.51100000000E-03 0.  1.
         11   -1    0    0    0    0 -0.00000000000E+00 -0.00000000000E+00 -0.45593999997E+02  0.45594000000E+02  0.51100000000E-03 0. -1.
    9900012    2    1    2    0    0 -0.83895595120E+01 -0.23563366470E+02  0.19776327041E+02  0.59301951962E+02  0.50000014471E+02 0.  0.
         12    1    1    2    0    0  0.83895595120E+01  0.23563366470E+02 -0.19776327041E+02  0.31886048038E+02  0.00000000000E+00 0. -1.
         11    1    3    3    0    0 -0.13064620618E+02  0.32503648945E+01  0.15024545276E+02  0.20173897612E+02  0.51100000000E-03 0. -1.
        -11    1    3    3    0    0  0.18798644673E+01 -0.19345238492E+02  0.16113505213E+02  0.25247122475E+02  0.51100000000E-03 0.  1.
         12    1    3    3    0    0  0.27951966388E+01 -0.74684928729E+01 -0.11361723448E+02  0.13880931876E+02  0.00000000000E+00 0. -1.
</event>
<event>
 7    1  0.7821043E-012  0.5930194E+02  0.7816164E-02  0.1266605E+00
        -11   -1    0    0    0    0  0.00000000000E+00  0.00000000000E+00  0.45593999997E+02  0.45594000000E+02  0.51100000000E-03 0. -1.
         11   -1    0    0    0    0 -0.00000000000E+00 -0.00000000000E+00 -0.45593999997E+02  0.45594000000E+02  0.51100000000E-03 0.  1.
    9900012    2    1    2    0    0  0.11864891338E+02 -0.73556134955E+01 -0.28667758270E+02  0.59301936264E+02  0.49999985840E+02 0.  0.
         12    1    1    2    0    0 -0.11864891338E+02  0.73556134955E+01  0.28667758270E+02  0.31886063736E+02  0.00000000000E+00 0. -1.
         11    1    3    3    0    0 -0.24818780871E+01  0.76463845051E+01 -0.20430817215E+02  0.21955527941E+02  0.51100000000E-03 0.  1.
        -11    1    3    3    0    0  0.33064632177E+01 -0.22300285652E+02 -0.17619903418E+01  0.22612829309E+02  0.51100000000E-03 0. -1.
         12    1    3    3    0    0  0.11040306207E+02  0.72982876510E+01 -0.64749507138E+01  0.14733579013E+02  0.00000000000E+00 0. -1.
</event>
<event>
 7    1  0.7821043E-012  0.5930198E+02  0.7816164E-02  0.1266605E+00
        -11   -1    0    0    0    0  0.00000000000E+00  0.00000000000E+00  0.45593999997E+02  0.45594000000E+02  0.51100000000E-03 0.  1.
         11   -1    0    0    0    0 -0.00000000000E+00 -0.00000000000E+00 -0.45593999997E+02  0.45594000000E+02  0.51100000000E-03 0. -1.
    9900012    2    1    2    0    0 -0.15631104054E+02  0.19743626494E+02 -0.19559558880E+02  0.59301975716E+02  0.50000057792E+02 0.  0.
         12    1    1    2    0    0  0.15631104054E+02 -0.19743626494E+02  0.19559558880E+02  0.31886024284E+02  0.00000000000E+00 0. -1.
         11    1    3    3    0    0  0.33158798249E+01  0.14103928455E+02  0.13792943525E+02  0.20004028300E+02  0.51100000000E-03 0. -1.
        -11    1    3    3    0    0 -0.14497422056E+02  0.54447112849E+01 -0.29864397143E+02  0.33640783942E+02  0.51100000000E-03 0.  1.
         12    1    3    3    0    0 -0.44495618226E+01  0.19498675311E+00 -0.34881052619E+01  0.56571634735E+01  0.00000000000E+00 0. -1.
</event>
<event>
 7    1  0.7821043E-012  0.5930200E+02  0.7816164E-02  0.1266605E+00
        -11   -1    0    0    0    0  0.00000000000E+00  0.00000000000E+00  0.45593999997E+02  0.45594000000E+02  0.51100000000E-03 0.  1.
         11   -1    0    0    0    0 -0.00000000000E+00 -0.00000000000E+00 -0.45593999997E+02  0.45594000000E+02  0.51100000000E-03 0. -1.
    9900012    2    1    2    0    0 -0.15146875469E+00  0.17765406070E+02  0.26478003648E+02  0.59301995660E+02  0.50000094164E+02 0.  0.
         12    1    1    2    0    0  0.15146875469E+00 -0.17765406070E+02 -0.26478003648E+02  0.31886004340E+02  0.00000000000E+00 0. -1.
         11    1    3    3    0    0  0.17589296117E+02  0.96248805790E+00  0.12894409624E+02  0.21830609725E+02  0.51100000000E-03 0. -1.
        -11    1    3    3    0    0 -0.11268902200E+02 -0.19065726016E+00  0.15524094338E+02  0.19183899818E+02  0.51100000000E-03 0.  1.
         12    1    3    3    0    0 -0.64718626721E+01  0.16993575272E+02 -0.19405003137E+01  0.18287486116E+02  0.00000000000E+00 0. -1.
</event>
<event>
 7    1  0.7821043E-012  0.5930198E+02  0.7816164E-02  0.1266605E+00
        -11   -1    0    0    0    0  0.00000000000E+00  0.00000000000E+00  0.45593999997E+02  0.45594000000E+02  0.51100000000E-03 0.  1.
         11   -1    0    0    0    0 -0.00000000000E+00 -0.00000000000E+00 -0.45593999997E+02  0.45594000000E+02  0.51100000000E-03 0. -1.
    9900012    2    1    2    0    0 -0.16765331137E+02  0.22593618354E+02  0.15005683599E+02  0.59301977063E+02  0.50000060248E+02 0.  0.
         12    1    1    2    0    0  0.16765331137E+02 -0.22593618354E+02 -0.15005683599E+02  0.31886022937E+02  0.00000000000E+00 0. -1.
         11    1    3    3    0    0  0.83522134638E+01 -0.11224895476E+02  0.89145598109E+01  0.16589970617E+02  0.51100000000E-03 0. -1.
        -11    1    3    3    0    0 -0.12401040164E+02  0.15679985978E+02  0.12052766279E+01  0.20027492341E+02  0.51100000000E-03 0.  1.
         12    1    3    3    0    0 -0.12716504436E+02  0.18138527852E+02  0.48858471602E+01  0.22684514105E+02  0.00000000000E+00 0. -1.
</event>
<event>
 7    1  0.7821043E-012  0.5930189E+02  0.7816164E-02  0.1266605E+00
        -11   -1    0    0    0    0  0.00000000000E+00  0.00000000000E+00  0.45593999997E+02  0.45594000000E+02  0.51100000000E-03 0.  1.
         11   -1    0    0    0    0 -0.00000000000E+00 -0.00000000000E+00 -0.45593999997E+02  0.45594000000E+02  0.51100000000E-03 0. -1.
    9900012    2    1    2    0    0  0.14672064369E+00  0.25080340441E+02  0.19689561788E+02  0.59301892570E+02  0.49999906154E+02 0.  0.
         12    1    1    2    0    0 -0.14672064369E+00 -0.25080340441E+02 -0.19689561788E+02  0.31886107430E+02  0.00000000000E+00 0. -1.
         11    1    3    3    0    0 -0.97761736682E+01  0.11948258042E+01  0.98970677621E+01  0.13962561758E+02  0.51100000000E-03 0. -1.
        -11    1    3    3    0    0 -0.77576607697E+01  0.20525663494E+02 -0.44488989500E+01  0.22389213131E+02  0.51100000000E-03 0.  1.
        -12    1    3    3    0    0  0.17680555082E+02  0.33598511429E+01  0.14241392976E+02  0.22950117682E+02  0.00000000000E+00 0.  1.
</event>
<event>
 7    1  0.7821043E-012  0.5930194E+02  0.7816164E-02  0.1266605E+00
        -11   -1    0    0    0    0  0.00000000000E+00  0.00000000000E+00  0.45593999997E+02  0.45594000000E+02  0.51100000000E-03 0.  1.
         11   -1    0    0    0    0 -0.00000000000E+00 -0.00000000000E+00 -0.45593999997E+02  0.45594000000E+02  0.51100000000E-03 0. -1.
    9900012    2    1    2    0    0  0.43491013506E+01  0.13871840934E+02  0.28379184902E+02  0.59301940520E+02  0.49999993602E+02 0.  0.
         12    1    1    2    0    0 -0.43491013506E+01 -0.13871840934E+02 -0.28379184902E+02  0.31886059480E+02  0.00000000000E+00 0. -1.
         11    1    3    3    0    0  0.80879449530E+01  0.12987287932E+01  0.42343154426E+01  0.92212242989E+01  0.51100000000E-03 0. -1.
        -11    1    3    3    0    0 -0.19954691576E+02  0.16592246464E+02  0.20272656969E+02  0.32931337347E+02  0.51100000000E-03 0.  1.
        -12    1    3    3    0    0  0.16215847973E+02 -0.40191343225E+01  0.38722124901E+01  0.17149378874E+02  0.00000000000E+00 0.  1.
</event>
<event>
 7    1  0.7821043E-012  0.5930193E+02  0.7816164E-02  0.1266605E+00
        -11   -1    0    0    0    0  0.00000000000E+00  0.00000000000E+00  0.45593999997E+02  0.45594000000E+02  0.51100000000E-03 0. -1.
         11   -1    0    0    0    0 -0.00000000000E+00 -0.00000000000E+00 -0.45593999997E+02  0.45594000000E+02  0.51100000000E-03 0.  1.
    9900012    2    1    2    0    0  0.15989487702E+02  0.12346199332E+02 -0.24670408393E+02  0.59301930860E+02  0.49999975985E+02 0.  0.
         12    1    1    2    0    0 -0.15989487702E+02 -0.12346199332E+02  0.24670408393E+02  0.31886069140E+02  0.00000000000E+00 0. -1.
         11    1    3    3    0    0 -0.37355071351E+01 -0.15018961407E+02  0.78374665007E+00  0.15496369716E+02  0.51100000000E-03 0. -1.
        -11    1    3    3    0    0  0.68118268600E+01  0.18980491786E+02 -0.15957725303E+02  0.25715929902E+02  0.51100000000E-03 0.  1.
         12    1    3    3    0    0  0.12913167977E+02  0.83846689536E+01 -0.94964297403E+01  0.18089631242E+02  0.00000000000E+00 0. -1.
</event>
<event>
 7    1  0.7821043E-012  0.5930196E+02  0.7816164E-02  0.1266605E+00
        -11   -1    0    0    0    0  0.00000000000E+00  0.00000000000E+00  0.45593999997E+02  0.45594000000E+02  0.51100000000E-03 0.  1.
         11   -1    0    0    0    0 -0.00000000000E+00 -0.00000000000E+00 -0.45593999997E+02  0.45594000000E+02  0.51100000000E-03 0. -1.
    9900012    2    1    2    0    0  0.23939072742E+02  0.20700131571E+02  0.38916345384E+01  0.59301961203E+02  0.50000031323E+02 0.  0.
         12    1    1    2    0    0 -0.23939072742E+02 -0.20700131571E+02 -0.38916345384E+01  0.31886038797E+02  0.00000000000E+00 0. -1.
         11    1    3    3    0    0  0.87102245219E+01  0.36042077168E+01 -0.60895774781E-01  0.94266660620E+01  0.51100000000E-03 0.  1.
        -11    1    3    3    0    0 -0.74026767588E+01  0.39400899014E+01 -0.15254299439E+02  0.17407400244E+02  0.51100000000E-03 0. -1.
        -12    1    3    3    0    0  0.22631524979E+02  0.13155833953E+02  0.19206829752E+02  0.32467894896E+02  0.00000000000E+00 0.  1.
</event>
<event>
 7    1  0.7821043E-012  0.5930194E+02  0.7816164E-02  0.1266605E+00
        -11   -1    0    0    0    0  0.00000000000E+00  0.00000000000E+00  0.45593999997E+02  0.45594000000E+02  0.51100000000E-03 0.  1.
         11   -1    0    0    0    0 -0.00000000000E+00 -0.00000000000E+00 -0.45593999997E+02  0.45594000000E+02  0.51100000000E-03 0. -1.
    9900012    2    1    2    0    0 -0.22353327559E+02  0.22182095212E+01  0.22630274925E+02  0.59301936435E+02  0.49999986154E+02 0.  0.
         12    1    1    2    0    0  0.22353327559E+02 -0.22182095212E+01 -0.22630274925E+02  0.31886063565E+02  0.00000000000E+00 0. -1.
         11    1    3    3    0    0 -0.28582365713E+02 -0.92205183276E+01  0.13844615859E+02  0.33070273306E+02  0.51100000000E-03 0. -1.
        -11    1    3    3    0    0  0.13938501973E+02  0.89777118083E+01  0.51607542477E+01  0.17364173785E+02  0.51100000000E-03 0.  1.
        -12    1    3    3    0    0 -0.77094638188E+01  0.24610160406E+01  0.36249048186E+01  0.88674893442E+01  0.00000000000E+00 0.  1.
</event>
<event>
 7    1  0.7821043E-012  0.5930195E+02  0.7816164E-02  0.1266605E+00
        -11   -1    0    0    0    0  0.00000000000E+00  0.00000000000E+00  0.45593999997E+02  0.45594000000E+02  0.51100000000E-03 0.  1.
         11   -1    0    0    0    0 -0.00000000000E+00 -0.00000000000E+00 -0.45593999997E+02  0.45594000000E+02  0.51100000000E-03 0. -1.
    9900012    2    1    2    0    0 -0.73424544422E+01  0.28021480605E+02  0.13326854626E+02  0.59301951848E+02  0.50000014263E+02 0.  0.
         12    1    1    2    0    0  0.73424544422E+01 -0.28021480605E+02 -0.13326854626E+02  0.31886048152E+02  0.00000000000E+00 0. -1.
         11    1    3    3    0    0 -0.18814987731E+01  0.35988165012E+02  0.84150823608E+01  0.37006778703E+02  0.51100000000E-03 0. -1.
        -11    1    3    3    0    0 -0.87780741930E+01 -0.78274807073E-01  0.92061635157E+01  0.12720619498E+02  0.51100000000E-03 0.  1.
         12    1    3    3    0    0  0.33171185239E+01 -0.78884096003E+01 -0.42943912505E+01  0.95745536468E+01  0.00000000000E+00 0. -1.
</event>
<event>
 7    1  0.7821043E-012  0.5930231E+02  0.7816164E-02  0.1266603E+00
        -11   -1    0    0    0    0  0.00000000000E+00  0.00000000000E+00  0.45593999997E+02  0.45594000000E+02  0.51100000000E-03 0.  1.
         11   -1    0    0    0    0 -0.00000000000E+00 -0.00000000000E+00 -0.45593999997E+02  0.45594000000E+02  0.51100000000E-03 0. -1.
    9900012    2    1    2    0    0 -0.96462194928E+01 -0.68199836214E+01  0.29616469540E+02  0.59302313633E+02  0.50000674067E+02 0.  0.
         12    1    1    2    0    0  0.96462194928E+01  0.68199836214E+01 -0.29616469540E+02  0.31885686367E+02  0.00000000000E+00 0. -1.
         11    1    3    3    0    0  0.96050914128E+01 -0.63514066499E+00  0.73290052171E+01  0.12098574397E+02  0.51100000000E-03 0. -1.
        -11    1    3    3    0    0 -0.18532241109E+02 -0.16291155422E+02  0.22834912972E+01  0.24780234830E+02  0.51100000000E-03 0.  1.
        -12    1    3    3    0    0 -0.71906979711E+00  0.10106312465E+02  0.20003973025E+02  0.22423504405E+02  0.00000000000E+00 0.  1.
</event>
<event>
 7    1  0.7821043E-012  0.5930195E+02  0.7816164E-02  0.1266605E+00
        -11   -1    0    0    0    0  0.00000000000E+00  0.00000000000E+00  0.45593999997E+02  0.45594000000E+02  0.51100000000E-03 0. -1.
         11   -1    0    0    0    0 -0.00000000000E+00 -0.00000000000E+00 -0.45593999997E+02  0.45594000000E+02  0.51100000000E-03 0.  1.
    9900012    2    1    2    0    0 -0.26944638478E+02  0.55019698049E+01 -0.16137999614E+02  0.59301949037E+02  0.50000009136E+02 0.  0.
         12    1    1    2    0    0  0.26944638478E+02 -0.55019698049E+01  0.16137999614E+02  0.31886050963E+02  0.00000000000E+00 0. -1.
         11    1    3    3    0    0  0.91280971807E-01 -0.11548037194E+02  0.11749523509E+02  0.16474732113E+02  0.51100000000E-03 0. -1.
        -11    1    3    3    0    0 -0.26146948398E+02  0.15024738327E+02 -0.26877960883E+02  0.40395921252E+02  0.51100000000E-03 0.  1.
         12    1    3    3    0    0 -0.88897105196E+00  0.20252686721E+01 -0.10095622399E+01  0.24312956714E+01  0.00000000000E+00 0. -1.
</event>
<event>
 7    1  0.7821043E-012  0.5930196E+02  0.7816164E-02  0.1266605E+00
        -11   -1    0    0    0    0  0.00000000000E+00  0.00000000000E+00  0.45593999997E+02  0.45594000000E+02  0.51100000000E-03 0.  1.
         11   -1    0    0    0    0 -0.00000000000E+00 -0.00000000000E+00 -0.45593999997E+02  0.45594000000E+02  0.51100000000E-03 0. -1.
    9900012    2    1    2    0    0 -0.91972756476E+01  0.28801412667E+02 -0.10129589765E+02  0.59301955408E+02  0.50000020754E+02 0.  0.
         12    1    1    2    0    0  0.91972756476E+01 -0.28801412667E+02  0.10129589765E+02  0.31886044592E+02  0.00000000000E+00 0. -1.
         11    1    3    3    0    0  0.22316243741E+01 -0.93497864187E+01 -0.35988098830E-01  0.96124892108E+01  0.51100000000E-03 0.  1.
        -11    1    3    3    0    0 -0.19048064454E+01  0.38894456061E+02 -0.96865375448E+01  0.40127746133E+02  0.51100000000E-03 0. -1.
         12    1    3    3    0    0 -0.95240935763E+01 -0.74325697538E+00 -0.40706412122E+00  0.95617200639E+01  0.00000000000E+00 0. -1.
</event>
<event>
 7    1  0.7821043E-012  0.5930193E+02  0.7816164E-02  0.1266605E+00
        -11   -1    0    0    0    0  0.00000000000E+00  0.00000000000E+00  0.45593999997E+02  0.45594000000E+02  0.51100000000E-03 0.  1.
         11   -1    0    0    0    0 -0.00000000000E+00 -0.00000000000E+00 -0.45593999997E+02  0.45594000000E+02  0.51100000000E-03 0. -1.
    9900012    2    1    2    0    0  0.11617062356E+02 -0.86503352484E+01  0.28406634633E+02  0.59301932057E+02  0.49999978168E+02 0.  0.
         12    1    1    2    0    0 -0.11617062356E+02  0.86503352484E+01 -0.28406634633E+02  0.31886067943E+02  0.00000000000E+00 0. -1.
         11    1    3    3    0    0 -0.10300566798E+02 -0.56826682816E+00 -0.14292230852E+01  0.10414762716E+02  0.51100000000E-03 0. -1.
        -11    1    3    3    0    0  0.17188136527E+02  0.10016940220E+02  0.13402862762E+02  0.23987660560E+02  0.51100000000E-03 0.  1.
        -12    1    3    3    0    0  0.47294926277E+01 -0.18099008641E+02  0.16432994956E+02  0.24899508781E+02  0.00000000000E+00 0.  1.
</event>
<event>
 7    1  0.7821043E-012  0.5930196E+02  0.7816164E-02  0.1266605E+00
        -11   -1    0    0    0    0  0.00000000000E+00  0.00000000000E+00  0.45593999997E+02  0.45594000000E+02  0.51100000000E-03 0.  1.
         11   -1    0    0    0    0 -0.00000000000E+00 -0.00000000000E+00 -0.45593999997E+02  0.45594000000E+02  0.51100000000E-03 0. -1.
    9900012    2    1    2    0    0 -0.22120471690E+02 -0.99902473678E+01  0.20678467283E+02  0.59301963567E+02  0.50000035635E+02 0.  0.
         12    1    1    2    0    0  0.22120471690E+02  0.99902473678E+01 -0.20678467283E+02  0.31886036433E+02  0.00000000000E+00 0. -1.
         11    1    3    3    0    0  0.10099835562E+02  0.78662763943E+01  0.65182569301E+01  0.14365676328E+02  0.51100000000E-03 0. -1.
        -11    1    3    3    0    0 -0.23748540489E+02 -0.11939607632E+02  0.19817641408E+02  0.33155486982E+02  0.51100000000E-03 0.  1.
         12    1    3    3    0    0 -0.84717667624E+01 -0.59169161297E+01 -0.56574310548E+01  0.11780800257E+02  0.00000000000E+00 0. -1.
</event>
<event>
 7    1  0.7821043E-012  0.5930192E+02  0.7816164E-02  0.1266605E+00
        -11   -1    0    0    0    0  0.00000000000E+00  0.00000000000E+00  0.45593999997E+02  0.45594000000E+02  0.51100000000E-03 0. -1.
         11   -1    0    0    0    0 -0.00000000000E+00 -0.00000000000E+00 -0.45593999997E+02  0.45594000000E+02  0.51100000000E-03 0.  1.
    9900012    2    1    2    0    0  0.87641121124E+01  0.25070151674E+02 -0.17646526049E+02  0.59301920785E+02  0.49999957611E+02 0.  0.
         12    1    1    2    0    0 -0.87641121124E+01 -0.25070151674E+02  0.17646526049E+02  0.31886079215E+02  0.00000000000E+00 0. -1.
         11    1    3    3    0    0 -0.13483156497E+02  0.54372479770E+01 -0.11534535052E+02  0.18558143059E+02  0.51100000000E-03 0. -1.
        -11    1    3    3    0    0  0.96602865223E+01  0.24803016697E+02 -0.50708577257E+01  0.27096574900E+02  0.51100000000E-03 0.  1.
         12    1    3    3    0    0  0.12586982087E+02 -0.51701129997E+01 -0.10411332714E+01  0.13647202826E+02  0.00000000000E+00 0. -1.
</event>
<event>
 7    1  0.7821043E-012  0.5930196E+02  0.7816164E-02  0.1266605E+00
        -11   -1    0    0    0    0  0.00000000000E+00  0.00000000000E+00  0.45593999997E+02  0.45594000000E+02  0.51100000000E-03 0.  1.
         11   -1    0    0    0    0 -0.00000000000E+00 -0.00000000000E+00 -0.45593999997E+02  0.45594000000E+02  0.51100000000E-03 0. -1.
    9900012    2    1    2    0    0 -0.25600491595E+02  0.86613898889E+01  0.16920829390E+02  0.59301963684E+02  0.50000035848E+02 0.  0.
         12    1    1    2    0    0  0.25600491595E+02 -0.86613898889E+01 -0.16920829390E+02  0.31886036316E+02  0.00000000000E+00 0. -1.
         11    1    3    3    0    0 -0.29619464392E+01 -0.13795061745E+02 -0.27989174868E+01  0.14384394135E+02  0.51100000000E-03 0. -1.
        -11    1    3    3    0    0 -0.16604375276E+02  0.19593388584E+02  0.17449356099E+01  0.25742007595E+02  0.51100000000E-03 0.  1.
         12    1    3    3    0    0 -0.60341698802E+01  0.28630630500E+01  0.17974811267E+02  0.19175561954E+02  0.00000000000E+00 0. -1.
</event>
<event>
 7    1  0.7821043E-012  0.5930199E+02  0.7816164E-02  0.1266605E+00
        -11   -1    0    0    0    0  0.00000000000E+00  0.00000000000E+00  0.45593999997E+02  0.45594000000E+02  0.51100000000E-03 0.  1.
         11   -1    0    0    0    0 -0.00000000000E+00 -0.00000000000E+00 -0.45593999997E+02  0.45594000000E+02  0.51100000000E-03 0. -1.
    9900012    2    1    2    0    0  0.60421222967E+01 -0.23843311989E+02  0.20290562227E+02  0.59301989212E+02  0.50000082406E+02 0.  0.
         12    1    1    2    0    0 -0.60421222967E+01  0.23843311989E+02 -0.20290562227E+02  0.31886010788E+02  0.00000000000E+00 0. -1.
         11    1    3    3    0    0 -0.67079014317E+01 -0.51154065005E+01 -0.10371912359E+02  0.13369363916E+02  0.51100000000E-03 0. -1.
        -11    1    3    3    0    0  0.63459936436E+01 -0.19962973177E+02  0.32929789458E+02  0.39027720500E+02  0.51100000000E-03 0.  1.
        -12    1    3    3    0    0  0.64040300848E+01  0.12350676881E+01 -0.22673148725E+01  0.69049047968E+01  0.00000000000E+00 0.  1.
</event>
<event>
 7    1  0.7821043E-012  0.5930201E+02  0.7816164E-02  0.1266605E+00
        -11   -1    0    0    0    0  0.00000000000E+00  0.00000000000E+00  0.45593999997E+02  0.45594000000E+02  0.51100000000E-03 0.  1.
         11   -1    0    0    0    0 -0.00000000000E+00 -0.00000000000E+00 -0.45593999997E+02  0.45594000000E+02  0.51100000000E-03 0. -1.
    9900012    2    1    2    0    0 -0.28509748581E+01 -0.26583654036E+02 -0.17375209959E+02  0.59302005572E+02  0.50000112241E+02 0.  0.
         12    1    1    2    0    0  0.28509748581E+01  0.26583654036E+02  0.17375209959E+02  0.31885994428E+02  0.00000000000E+00 0. -1.
         11    1    3    3    0    0  0.53147114155E+01 -0.74017829611E+01 -0.26287075305E+02  0.27821626062E+02  0.51100000000E-03 0. -1.
        -11    1    3    3    0    0 -0.14372799756E+02 -0.73943893399E+01  0.82375319144E+01  0.18141424939E+02  0.51100000000E-03 0.  1.
         12    1    3    3    0    0  0.62071134819E+01 -0.11787481735E+02  0.67433343113E+00  0.13338954570E+02  0.00000000000E+00 0. -1.
</event>
<event>
 7    1  0.7821043E-012  0.5930193E+02  0.7816164E-02  0.1266605E+00
        -11   -1    0    0    0    0  0.00000000000E+00  0.00000000000E+00  0.45593999997E+02  0.45594000000E+02  0.51100000000E-03 0. -1.
         11   -1    0    0    0    0 -0.00000000000E+00 -0.00000000000E+00 -0.45593999997E+02  0.45594000000E+02  0.51100000000E-03 0.  1.
    9900012    2    1    2    0    0 -0.93851036615E+01  0.87043388600E+00 -0.30461178843E+02  0.59301933413E+02  0.49999980641E+02 0.  0.
         12    1    1    2    0    0  0.93851036615E+01 -0.87043388600E+00  0.30461178843E+02  0.31886066587E+02  0.00000000000E+00 0. -1.
         11    1    3    3    0    0  0.18169542778E+02  0.76457541385E+01 -0.13578561631E+02  0.23936732805E+02  0.51100000000E-03 0. -1.
        -11    1    3    3    0    0 -0.12193258928E+02 -0.10895298311E+01 -0.14231318061E+02  0.18772135002E+02  0.51100000000E-03 0.  1.
         12    1    3    3    0    0 -0.15361387512E+02 -0.56857904213E+01 -0.26512991509E+01  0.16593065606E+02  0.00000000000E+00 0. -1.
</event>
<event>
 7    1  0.7821043E-012  0.5930195E+02  0.7816164E-02  0.1266605E+00
        -11   -1    0    0    0    0  0.00000000000E+00  0.00000000000E+00  0.45593999997E+02  0.45594000000E+02  0.51100000000E-03 0.  1.
         11   -1    0    0    0    0 -0.00000000000E+00 -0.00000000000E+00 -0.45593999997E+02  0.45594000000E+02  0.51100000000E-03 0. -1.
    9900012    2    1    2    0    0 -0.29958004419E+02 -0.62738998644E+00  0.10901581941E+02  0.59301950766E+02  0.50000012289E+02 0.  0.
         12    1    1    2    0    0  0.29958004419E+02  0.62738998644E+00 -0.10901581941E+02  0.31886049234E+02  0.00000000000E+00 0. -1.
         11    1    3    3    0    0 -0.24205608967E+01  0.51208038688E+01 -0.82757329657E+01  0.10028434758E+02  0.51100000000E-03 0. -1.
        -11    1    3    3    0    0 -0.17703557797E+02 -0.17778798423E+02  0.22132445781E+02  0.33456640425E+02  0.51100000000E-03 0.  1.
        -12    1    3    3    0    0 -0.98338857248E+01  0.12030604567E+02 -0.29551308742E+01  0.15816875582E+02  0.00000000000E+00 0.  1.
</event>
<event>
 7    1  0.7821043E-012  0.5930195E+02  0.7816164E-02  0.1266605E+00
        -11   -1    0    0    0    0  0.00000000000E+00  0.00000000000E+00  0.45593999997E+02  0.45594000000E+02  0.51100000000E-03 0. -1.
         11   -1    0    0    0    0 -0.00000000000E+00 -0.00000000000E+00 -0.45593999997E+02  0.45594000000E+02  0.51100000000E-03 0.  1.
    9900012    2    1    2    0    0 -0.76159005894E+01  0.20326819091E+02 -0.23356769460E+02  0.59301949825E+02  0.50000010573E+02 0.  0.
         12    1    1    2    0    0  0.76159005894E+01 -0.20326819091E+02  0.23356769460E+02  0.31886050175E+02  0.00000000000E+00 0. -1.
         11    1    3    3    0    0 -0.14423969780E+02  0.56129075584E+01 -0.93465542382E+01  0.18080755290E+02  0.51100000000E-03 0. -1.
        -11    1    3    3    0    0 -0.32788815416E+01  0.17334412135E+02  0.60210706078E+01  0.18640981727E+02  0.51100000000E-03 0.  1.
        -12    1    3    3    0    0  0.10086950732E+02 -0.26205006025E+01 -0.20031285830E+02  0.22580212808E+02  0.00000000000E+00 0.  1.
</event>
<event>
 7    1  0.7821043E-012  0.5930189E+02  0.7816164E-02  0.1266605E+00
        -11   -1    0    0    0    0  0.00000000000E+00  0.00000000000E+00  0.45593999997E+02  0.45594000000E+02  0.51100000000E-03 0.  1.
         11   -1    0    0    0    0 -0.00000000000E+00 -0.00000000000E+00 -0.45593999997E+02  0.45594000000E+02  0.51100000000E-03 0. -1.
    9900012    2    1    2    0    0  0.29269923681E+02  0.97883806871E+01  0.80114399373E+01  0.59301890193E+02  0.49999901817E+02 0.  0.
         12    1    1    2    0    0 -0.29269923681E+02 -0.97883806871E+01 -0.80114399373E+01  0.31886109807E+02  0.00000000000E+00 0. -1.
         11    1    3    3    0    0  0.87807616049E+01 -0.33997560187E+01 -0.19617633224E+01  0.96181407218E+01  0.51100000000E-03 0. -1.
        -11    1    3    3    0    0  0.59620663197E+01  0.26529499668E+02 -0.81292480178E+00  0.27203334987E+02  0.51100000000E-03 0.  1.
        -12    1    3    3    0    0  0.14527095757E+02 -0.13341362962E+02  0.10786128062E+02  0.22480414484E+02  0.00000000000E+00 0.  1.
</event>
<event>
 7    1  0.7821043E-012  0.5930194E+02  0.7816164E-02  0.1266605E+00
        -11   -1    0    0    0    0  0.00000000000E+00  0.00000000000E+00  0.45593999997E+02  0.45594000000E+02  0.51100000000E-03 0. -1.
         11   -1    0    0    0    0 -0.00000000000E+00 -0.00000000000E+00 -0.45593999997E+02  0.45594000000E+02  0.51100000000E-03 0.  1.
    9900012    2    1    2    0    0  0.22792681515E+02  0.14371298047E+02 -0.17049341012E+02  0.59301944002E+02  0.49999999953E+02 0.  0.
         12    1    1    2    0    0 -0.22792681515E+02 -0.14371298047E+02  0.17049341012E+02  0.31886055998E+02  0.00000000000E+00 0. -1.
         11    1    3    3    0    0  0.12120168756E+01  0.12050764943E+02  0.38163452258E+01  0.12698598811E+02  0.51100000000E-03 0. -1.
        -11    1    3    3    0    0  0.26707158499E+02 -0.81837585882E+01 -0.20947082187E+02  0.34914559601E+02  0.51100000000E-03 0.  1.
        -12    1    3    3    0    0 -0.51264938605E+01  0.10504291692E+02  0.81395949650E-01  0.11688785589E+02  0.00000000000E+00 0.  1.
</event>
<event>
 7    1  0.7821043E-012  0.5930197E+02  0.7816164E-02  0.1266605E+00
        -11   -1    0    0    0    0  0.00000000000E+00  0.00000000000E+00  0.45593999997E+02  0.45594000000E+02  0.51100000000E-03 0.  1.
         11   -1    0    0    0    0 -0.00000000000E+00 -0.00000000000E+00 -0.45593999997E+02  0.45594000000E+02  0.51100000000E-03 0. -1.
    9900012    2    1    2    0    0 -0.22749751177E+02  0.29645184761E+01  0.22144516831E+02  0.59301965845E+02  0.50000039790E+02 0.  0.
         12    1    1    2    0    0  0.22749751177E+02 -0.29645184761E+01 -0.22144516831E+02  0.31886034155E+02  0.00000000000E+00 0. -1.
         11    1    3    3    0    0 -0.10913880355E+02  0.17878975389E+02  0.17252496780E+02  0.27137044621E+02  0.51100000000E-03 0. -1.
        -11    1    3    3    0    0 -0.15264727543E+02 -0.18817040400E+02  0.86776182437E+01  0.25737015659E+02  0.51100000000E-03 0.  1.
         12    1    3    3    0    0  0.34288567208E+01  0.39025834876E+01 -0.37855981922E+01  0.64279055657E+01  0.00000000000E+00 0. -1.
</event>
<event>
 7    1  0.7821043E-012  0.5930215E+02  0.7816164E-02  0.1266604E+00
        -11   -1    0    0    0    0  0.00000000000E+00  0.00000000000E+00  0.45593999997E+02  0.45594000000E+02  0.51100000000E-03 0.  1.
         11   -1    0    0    0    0 -0.00000000000E+00 -0.00000000000E+00 -0.45593999997E+02  0.45594000000E+02  0.51100000000E-03 0. -1.
    9900012    2    1    2    0    0  0.11063703836E+02  0.51265156882E+01  0.29462195245E+02  0.59302146485E+02  0.50000369233E+02 0.  0.
         12    1    1    2    0    0 -0.11063703836E+02 -0.51265156882E+01 -0.29462195245E+02  0.31885853515E+02  0.00000000000E+00 0. -1.
         11    1    3    3    0    0  0.10899858367E+02 -0.14804498264E+02 -0.23497991689E+01  0.18533797174E+02  0.51100000000E-03 0. -1.
        -11    1    3    3    0    0  0.28552671366E+01  0.11944058975E+02  0.29612310393E+02  0.32057791913E+02  0.51100000000E-03 0.  1.
        -12    1    3    3    0    0 -0.26914216672E+01  0.79869549780E+01  0.21996840209E+01  0.87105573991E+01  0.00000000000E+00 0.  1.
</event>
<event>
 7    1  0.7821043E-012  0.5930191E+02  0.7816164E-02  0.1266605E+00
        -11   -1    0    0    0    0  0.00000000000E+00  0.00000000000E+00  0.45593999997E+02  0.45594000000E+02  0.51100000000E-03 0. -1.
         11   -1    0    0    0    0 -0.00000000000E+00 -0.00000000000E+00 -0.45593999997E+02  0.45594000000E+02  0.51100000000E-03 0.  1.
    9900012    2    1    2    0    0  0.24239954213E+02  0.16329093268E+02 -0.12747856272E+02  0.59301913587E+02  0.49999944484E+02 0.  0.
         12    1    1    2    0    0 -0.24239954213E+02 -0.16329093268E+02  0.12747856272E+02  0.31886086413E+02  0.00000000000E+00 0. -1.
         11    1    3    3    0    0 -0.54527147747E+01  0.33707828535E+00  0.11338234228E+01  0.55795408413E+01  0.51100000000E-03 0. -1.
        -11    1    3    3    0    0  0.29622304809E+02  0.16560610092E+01  0.49250741047E+01  0.30074571243E+02  0.51100000000E-03 0.  1.
        -12    1    3    3    0    0  0.70364178809E-01  0.14335953974E+02 -0.18806753799E+02  0.23647801503E+02  0.00000000000E+00 0.  1.
</event>
<event>
 7    1  0.7821043E-012  0.5930195E+02  0.7816164E-02  0.1266605E+00
        -11   -1    0    0    0    0  0.00000000000E+00  0.00000000000E+00  0.45593999997E+02  0.45594000000E+02  0.51100000000E-03 0. -1.
         11   -1    0    0    0    0 -0.00000000000E+00 -0.00000000000E+00 -0.45593999997E+02  0.45594000000E+02  0.51100000000E-03 0.  1.
    9900012    2    1    2    0    0  0.29649965302E+02  0.98896837171E+01 -0.63082333371E+01  0.59301951416E+02  0.50000013475E+02 0.  0.
         12    1    1    2    0    0 -0.29649965302E+02 -0.98896837171E+01  0.63082333371E+01  0.31886048584E+02  0.00000000000E+00 0. -1.
         11    1    3    3    0    0 -0.48946460179E+01 -0.23656234348E+01  0.14879648933E+02  0.15841644060E+02  0.51100000000E-03 0. -1.
        -11    1    3    3    0    0  0.13794828812E+02  0.38856950093E+00 -0.10152762369E+02  0.17132625957E+02  0.51100000000E-03 0.  1.
         12    1    3    3    0    0  0.20749782508E+02  0.11866737651E+02 -0.11035119901E+02  0.26327681399E+02  0.00000000000E+00 0. -1.
</event>
<event>
 7    1  0.7821043E-012  0.5930196E+02  0.7816164E-02  0.1266605E+00
        -11   -1    0    0    0    0  0.00000000000E+00  0.00000000000E+00  0.45593999997E+02  0.45594000000E+02  0.51100000000E-03 0. -1.
         11   -1    0    0    0    0 -0.00000000000E+00 -0.00000000000E+00 -0.45593999997E+02  0.45594000000E+02  0.51100000000E-03 0.  1.
    9900012    2    1    2    0    0  0.46261486970E+01 -0.31180393350E+02  0.48063936257E+01  0.59301959153E+02  0.50000027585E+02 0.  0.
         12    1    1    2    0    0 -0.46261486970E+01  0.31180393350E+02 -0.48063936257E+01  0.31886040847E+02  0.00000000000E+00 0. -1.
         11    1    3    3    0    0  0.97889759132E+01 -0.14602849131E+02 -0.15170173567E+02  0.23220710981E+02  0.51100000000E-03 0.  1.
        -11    1    3    3    0    0  0.52155064471E+01 -0.13299910342E+02  0.20725271327E+02  0.25171928700E+02  0.51100000000E-03 0. -1.
         12    1    3    3    0    0 -0.10378333663E+02 -0.32776338771E+01 -0.74870413448E+00  0.10909319472E+02  0.00000000000E+00 0. -1.
</event>
<event>
 7    1  0.7821043E-012  0.5930196E+02  0.7816164E-02  0.1266605E+00
        -11   -1    0    0    0    0  0.00000000000E+00  0.00000000000E+00  0.45593999997E+02  0.45594000000E+02  0.51100000000E-03 0.  1.
         11   -1    0    0    0    0 -0.00000000000E+00 -0.00000000000E+00 -0.45593999997E+02  0.45594000000E+02  0.51100000000E-03 0. -1.
    9900012    2    1    2    0    0  0.28082204671E+02  0.49230674429E+01 -0.14278396218E+02  0.59301962134E+02  0.50000033022E+02 0.  0.
         12    1    1    2    0    0 -0.28082204671E+02 -0.49230674429E+01  0.14278396218E+02  0.31886037866E+02  0.00000000000E+00 0. -1.
         11    1    3    3    0    0  0.12605507853E+01  0.10756369565E+02  0.10808078446E+02  0.15300425956E+02  0.51100000000E-03 0. -1.
        -11    1    3    3    0    0  0.14183029467E+02 -0.41480110983E+01  0.11592457549E+01  0.14822556187E+02  0.51100000000E-03 0.  1.
         12    1    3    3    0    0  0.12638624418E+02 -0.16852910233E+01 -0.26245720418E+02  0.29178979991E+02  0.00000000000E+00 0. -1.
</event>
<event>
 7    1  0.7821043E-012  0.5930192E+02  0.7816164E-02  0.1266605E+00
        -11   -1    0    0    0    0  0.00000000000E+00  0.00000000000E+00  0.45593999997E+02  0.45594000000E+02  0.51100000000E-03 0. -1.
         11   -1    0    0    0    0 -0.00000000000E+00 -0.00000000000E+00 -0.45593999997E+02  0.45594000000E+02  0.51100000000E-03 0.  1.
    9900012    2    1    2    0    0  0.25850286925E+02  0.97211117959E+01 -0.15936890361E+02  0.59301924308E+02  0.49999964036E+02 0.  0.
         12    1    1    2    0    0 -0.25850286925E+02 -0.97211117959E+01  0.15936890361E+02  0.31886075692E+02  0.00000000000E+00 0. -1.
         11    1    3    3    0    0  0.15680157906E+02 -0.16076827489E+01  0.14623544611E+02  0.21501163992E+02  0.51100000000E-03 0. -1.
        -11    1    3    3    0    0  0.64640585114E+01  0.14289140134E+02 -0.28700240402E+02  0.32705769790E+02  0.51100000000E-03 0.  1.
         12    1    3    3    0    0  0.37060705079E+01 -0.29603455891E+01 -0.18601945703E+01  0.50949905256E+01  0.00000000000E+00 0. -1.
</event>
<event>
 7    1  0.7821043E-012  0.5930189E+02  0.7816164E-02  0.1266605E+00
        -11   -1    0    0    0    0  0.00000000000E+00  0.00000000000E+00  0.45593999997E+02  0.45594000000E+02  0.51100000000E-03 0. -1.
         11   -1    0    0    0    0 -0.00000000000E+00 -0.00000000000E+00 -0.45593999997E+02  0.45594000000E+02  0.51100000000E-03 0.  1.
    9900012    2    1    2    0    0  0.26070031360E+02 -0.17326735416E+02 -0.60713750790E+01  0.59301891886E+02  0.49999904906E+02 0.  0.
         12    1    1    2    0    0 -0.26070031360E+02  0.17326735416E+02  0.60713750790E+01  0.31886108114E+02  0.00000000000E+00 0. -1.
         11    1    3    3    0    0  0.72345223488E+01 -0.57375894185E+01  0.13022117349E+02  0.15963514227E+02  0.51100000000E-03 0. -1.
        -11    1    3    3    0    0  0.25022457069E+02 -0.14754203873E+02 -0.21329180608E+02  0.36038088675E+02  0.51100000000E-03 0.  1.
        -12    1    3    3    0    0 -0.61869480576E+01  0.31650578754E+01  0.22356881794E+01  0.73002889845E+01  0.00000000000E+00 0.  1.
</event>
<event>
 7    1  0.7821043E-012  0.5930199E+02  0.7816164E-02  0.1266605E+00
        -11   -1    0    0    0    0  0.00000000000E+00  0.00000000000E+00  0.45593999997E+02  0.45594000000E+02  0.51100000000E-03 0. -1.
         11   -1    0    0    0    0 -0.00000000000E+00 -0.00000000000E+00 -0.45593999997E+02  0.45594000000E+02  0.51100000000E-03 0.  1.
    9900012    2    1    2    0    0 -0.20945403678E+02  0.19505466320E+02 -0.14055055313E+02  0.59301988468E+02  0.50000081048E+02 0.  0.
         12    1    1    2    0    0  0.20945403678E+02 -0.19505466320E+02  0.14055055313E+02  0.31886011532E+02  0.00000000000E+00 0. -1.
         11    1    3    3    0    0 -0.15226543069E+01  0.51542377958E+01 -0.23744919417E+02  0.24345550759E+02  0.51100000000E-03 0.  1.
        -11    1    3    3    0    0 -0.12248710622E+02  0.17070128036E+02  0.14834410383E+02  0.25719251831E+02  0.51100000000E-03 0. -1.
         12    1    3    3    0    0 -0.71740387485E+01 -0.27188995117E+01 -0.51445462788E+01  0.92371858775E+01  0.00000000000E+00 0. -1.
</event>
<event>
 7    1  0.7821043E-012  0.5930194E+02  0.7816164E-02  0.1266605E+00
        -11   -1    0    0    0    0  0.00000000000E+00  0.00000000000E+00  0.45593999997E+02  0.45594000000E+02  0.51100000000E-03 0.  1.
         11   -1    0    0    0    0 -0.00000000000E+00 -0.00000000000E+00 -0.45593999997E+02  0.45594000000E+02  0.51100000000E-03 0. -1.
    9900012    2    1    2    0    0 -0.16939218887E+02 -0.13612245034E+02  0.23334314835E+02  0.59301943483E+02  0.49999999007E+02 0.  0.
         12    1    1    2    0    0  0.16939218887E+02  0.13612245034E+02 -0.23334314835E+02  0.31886056517E+02  0.00000000000E+00 0. -1.
         11    1    3    3    0    0  0.28051418555E+01  0.16199658731E+02  0.54790842036E+01  0.17329689201E+02  0.51100000000E-03 0. -1.
        -11    1    3    3    0    0 -0.88530941519E+01 -0.21107898660E+02  0.15955114853E+02  0.27901368284E+02  0.51100000000E-03 0.  1.
         12    1    3    3    0    0 -0.10891266590E+02 -0.87040051047E+01  0.19001157787E+01  0.14070885998E+02  0.00000000000E+00 0. -1.
</event>
<event>
 7    1  0.7821043E-012  0.5930193E+02  0.7816164E-02  0.1266605E+00
        -11   -1    0    0    0    0  0.00000000000E+00  0.00000000000E+00  0.45593999997E+02  0.45594000000E+02  0.51100000000E-03 0.  1.
         11   -1    0    0    0    0 -0.00000000000E+00 -0.00000000000E+00 -0.45593999997E+02  0.45594000000E+02  0.51100000000E-03 0. -1.
    9900012    2    1    2    0    0  0.28754836260E+02  0.13779583225E+02 -0.61617645976E-01  0.59301932213E+02  0.49999978452E+02 0.  0.
         12    1    1    2    0    0 -0.28754836260E+02 -0.13779583225E+02  0.61617645976E-01  0.31886067787E+02  0.00000000000E+00 0. -1.
         11    1    3    3    0    0  0.16038268696E+02  0.13610439676E+02 -0.15032461583E+02  0.25854303944E+02  0.51100000000E-03 0. -1.
        -11    1    3    3    0    0  0.34725198077E+01  0.97758898097E+01  0.17046337150E+02  0.19955050134E+02  0.51100000000E-03 0.  1.
        -12    1    3    3    0    0  0.92440477567E+01 -0.96067462602E+01 -0.20754932125E+01  0.13492578134E+02  0.00000000000E+00 0.  1.
</event>
<event>
 7    1  0.7821043E-012  0.5930203E+02  0.7816164E-02  0.1266604E+00
        -11   -1    0    0    0    0  0.00000000000E+00  0.00000000000E+00  0.45593999997E+02  0.45594000000E+02  0.51100000000E-03 0.  1.
         11   -1    0    0    0    0 -0.00000000000E+00 -0.00000000000E+00 -0.45593999997E+02  0.45594000000E+02  0.51100000000E-03 0. -1.
    9900012    2    1    2    0    0  0.42736345499E+01  0.89120080985E+01  0.30315458675E+02  0.59302033255E+02  0.50000162729E+02 0.  0.
         12    1    1    2    0    0 -0.42736345499E+01 -0.89120080985E+01 -0.30315458675E+02  0.31885966745E+02  0.00000000000E+00 0. -1.
         11    1    3    3    0    0  0.10475069300E+01 -0.30915620738E+01 -0.12099200534E+02  0.12531786810E+02  0.51100000000E-03 0. -1.
        -11    1    3    3    0    0  0.23111972793E+01  0.33501272380E+01  0.35289982247E+02  0.35523905087E+02  0.51100000000E-03 0.  1.
        -12    1    3    3    0    0  0.91493034054E+00  0.86534429343E+01  0.71246769608E+01  0.11246341358E+02  0.00000000000E+00 0.  1.
</event>
<event>
 7    1  0.7821043E-012  0.5930191E+02  0.7816164E-02  0.1266605E+00
        -11   -1    0    0    0    0  0.00000000000E+00  0.00000000000E+00  0.45593999997E+02  0.45594000000E+02  0.51100000000E-03 0. -1.
         11   -1    0    0    0    0 -0.00000000000E+00 -0.00000000000E+00 -0.45593999997E+02  0.45594000000E+02  0.51100000000E-03 0.  1.
    9900012    2    1    2    0    0  0.20014680653E+02  0.23394976455E+02 -0.82952205691E+01  0.59301905080E+02  0.49999928968E+02 0.  0.
         12    1    1    2    0    0 -0.20014680653E+02 -0.23394976455E+02  0.82952205691E+01  0.31886094920E+02  0.00000000000E+00 0. -1.
         11    1    3    3    0    0  0.11975094929E+02  0.28650538304E+02  0.36903284842E+00  0.31054668396E+02  0.51100000000E-03 0.  1.
        -11    1    3    3    0    0 -0.55105194942E+01 -0.52497956715E+01  0.49181043420E+01  0.90616737012E+01  0.51100000000E-03 0. -1.
        -12    1    3    3    0    0  0.13550105218E+02 -0.57661775311E-02 -0.13582357760E+02  0.19185562983E+02  0.00000000000E+00 0.  1.
</event>
<event>
 7    1  0.7821043E-012  0.5930193E+02  0.7816164E-02  0.1266605E+00
        -11   -1    0    0    0    0  0.00000000000E+00  0.00000000000E+00  0.45593999997E+02  0.45594000000E+02  0.51100000000E-03 0. -1.
         11   -1    0    0    0    0 -0.00000000000E+00 -0.00000000000E+00 -0.45593999997E+02  0.45594000000E+02  0.51100000000E-03 0.  1.
    9900012    2    1    2    0    0  0.82673774854E+01  0.20153920141E+02 -0.23285004341E+02  0.59301930084E+02  0.49999974570E+02 0.  0.
         12    1    1    2    0    0 -0.82673774854E+01 -0.20153920141E+02  0.23285004341E+02  0.31886069916E+02  0.00000000000E+00 0. -1.
         11    1    3    3    0    0 -0.11285802744E+02  0.11967554538E+02 -0.39554814791E+01  0.16918556061E+02  0.51100000000E-03 0. -1.
        -11    1    3    3    0    0  0.21586249557E+02  0.93649472268E+00 -0.24936844404E+02  0.32995293625E+02  0.51100000000E-03 0.  1.
        -12    1    3    3    0    0 -0.20330693277E+01  0.72498708808E+01  0.56073215426E+01  0.93880803981E+01  0.00000000000E+00 0.  1.
</event>
<event>
 7    1  0.7821043E-012  0.5930220E+02  0.7816164E-02  0.1266604E+00
        -11   -1    0    0    0    0  0.00000000000E+00  0.00000000000E+00  0.45593999997E+02  0.45594000000E+02  0.51100000000E-03 0.  1.
         11   -1    0    0    0    0 -0.00000000000E+00 -0.00000000000E+00 -0.45593999997E+02  0.45594000000E+02  0.51100000000E-03 0. -1.
    9900012    2    1    2    0    0 -0.46441565020E+01  0.51741538828E+01  0.31118549100E+02  0.59302201341E+02  0.50000469275E+02 0.  0.
         12    1    1    2    0    0  0.46441565020E+01 -0.51741538828E+01 -0.31118549100E+02  0.31885798659E+02  0.00000000000E+00 0. -1.
         11    1    3    3    0    0 -0.16973967099E+02  0.67296592860E+01  0.13031383011E+02  0.22432583815E+02  0.51100000000E-03 0. -1.
        -11    1    3    3    0    0  0.18979302321E+02 -0.70578732374E+01  0.19514025416E+02  0.28121605207E+02  0.51100000000E-03 0.  1.
        -12    1    3    3    0    0 -0.66494917246E+01  0.55023678343E+01 -0.14268593267E+01  0.87480123181E+01  0.00000000000E+00 0.  1.
</event>
<event>
 7    1  0.7821043E-012  0.5930187E+02  0.7816164E-02  0.1266605E+00
        -11   -1    0    0    0    0  0.00000000000E+00  0.00000000000E+00  0.45593999997E+02  0.45594000000E+02  0.51100000000E-03 0.  1.
         11   -1    0    0    0    0 -0.00000000000E+00 -0.00000000000E+00 -0.45593999997E+02  0.45594000000E+02  0.51100000000E-03 0. -1.
    9900012    2    1    2    0    0 -0.17035151201E+02 -0.78640584987E+01  0.25781501256E+02  0.59301865090E+02  0.49999856037E+02 0.  0.
         12    1    1    2    0    0  0.17035151201E+02  0.78640584987E+01 -0.25781501256E+02  0.31886134910E+02  0.00000000000E+00 0. -1.
         11    1    3    3    0    0  0.58412292138E+01  0.24872101428E+01  0.22590868752E+02  0.23466007846E+02  0.51100000000E-03 0. -1.
        -11    1    3    3    0    0  0.32909675430E+01  0.20234154423E+01 -0.44555175400E+01  0.58971445829E+01  0.51100000000E-03 0.  1.
         12    1    3    3    0    0 -0.26167347958E+02 -0.12374684084E+02  0.76461500439E+01  0.29938712661E+02  0.00000000000E+00 0. -1.
</event>
<event>
 7    1  0.7821043E-012  0.5930194E+02  0.7816164E-02  0.1266605E+00
        -11   -1    0    0    0    0  0.00000000000E+00  0.00000000000E+00  0.45593999997E+02  0.45594000000E+02  0.51100000000E-03 0. -1.
         11   -1    0    0    0    0 -0.00000000000E+00 -0.00000000000E+00 -0.45593999997E+02  0.45594000000E+02  0.51100000000E-03 0.  1.
    9900012    2    1    2    0    0  0.65864680656E+01  0.19470779568E+02 -0.24376786764E+02  0.59301944247E+02  0.50000000400E+02 0.  0.
         12    1    1    2    0    0 -0.65864680656E+01 -0.19470779568E+02  0.24376786764E+02  0.31886055753E+02  0.00000000000E+00 0. -1.
         11    1    3    3    0    0 -0.71069526849E+01 -0.12887223812E+02 -0.10166145256E+02  0.17886861762E+02  0.51100000000E-03 0. -1.
        -11    1    3    3    0    0  0.46580284810E+00  0.91994043850E+01 -0.11312112764E+02  0.14588005647E+02  0.51100000000E-03 0.  1.
         12    1    3    3    0    0  0.13227617902E+02  0.23158598995E+02 -0.28985287447E+01  0.26827076838E+02  0.00000000000E+00 0. -1.
</event>
<event>
 7    1  0.7821043E-012  0.5930200E+02  0.7816164E-02  0.1266605E+00
        -11   -1    0    0    0    0  0.00000000000E+00  0.00000000000E+00  0.45593999997E+02  0.45594000000E+02  0.51100000000E-03 0. -1.
         11   -1    0    0    0    0 -0.00000000000E+00 -0.00000000000E+00 -0.45593999997E+02  0.45594000000E+02  0.51100000000E-03 0.  1.
    9900012    2    1    2    0    0  0.65724331777E+01 -0.27851337632E+02 -0.14064963563E+02  0.59301998592E+02  0.50000099512E+02 0.  0.
         12    1    1    2    0    0 -0.65724331777E+01  0.27851337632E+02  0.14064963563E+02  0.31886001408E+02  0.00000000000E+00 0. -1.
         11    1    3    3    0    0 -0.39195935776E+01  0.52006077599E+01  0.12065543288E+02  0.13710830390E+02  0.51100000000E-03 0. -1.
        -11    1    3    3    0    0  0.51230247666E+01 -0.30842922378E+02 -0.19830636344E+02  0.37024118918E+02  0.51100000000E-03 0.  1.
         12    1    3    3    0    0  0.53690019887E+01 -0.22090230136E+01 -0.62998705070E+01  0.85670492840E+01  0.00000000000E+00 0. -1.
</event>
<event>
 7    1  0.7821043E-012  0.5930199E+02  0.7816164E-02  0.1266605E+00
        -11   -1    0    0    0    0  0.00000000000E+00  0.00000000000E+00  0.45593999997E+02  0.45594000000E+02  0.51100000000E-03 0.  1.
         11   -1    0    0    0    0 -0.00000000000E+00 -0.00000000000E+00 -0.45593999997E+02  0.45594000000E+02  0.51100000000E-03 0. -1.
    9900012    2    1    2    0    0  0.10872381078E+02 -0.29301030394E+02  0.63212920147E+01  0.59301987625E+02  0.50000079510E+02 0.  0.
         12    1    1    2    0    0 -0.10872381078E+02  0.29301030394E+02 -0.63212920147E+01  0.31886012375E+02  0.00000000000E+00 0. -1.
         11    1    3    3    0    0 -0.91172568905E+01 -0.26455061693E+01 -0.12932476430E+02  0.16042818424E+02  0.51100000000E-03 0. -1.
        -11    1    3    3    0    0  0.11939260997E+02 -0.28058553386E+02  0.14075846306E+02  0.33585083307E+02  0.51100000000E-03 0.  1.
        -12    1    3    3    0    0  0.80503769714E+01  0.14030291608E+01  0.51779221382E+01  0.96740858936E+01  0.00000000000E+00 0.  1.
</event>
<event>
 7    1  0.7821043E-012  0.5930197E+02  0.7816164E-02  0.1266605E+00
        -11   -1    0    0    0    0  0.00000000000E+00  0.00000000000E+00  0.45593999997E+02  0.45594000000E+02  0.51100000000E-03 0.  1.
         11   -1    0    0    0    0 -0.00000000000E+00 -0.00000000000E+00 -0.45593999997E+02  0.45594000000E+02  0.51100000000E-03 0. -1.
    9900012    2    1    2    0    0 -0.28433318366E+02  0.14274756978E+02 -0.21205409688E+01  0.59301968982E+02  0.50000045510E+02 0.  0.
         12    1    1    2    0    0  0.28433318366E+02 -0.14274756978E+02  0.21205409688E+01  0.31886031018E+02  0.00000000000E+00 0. -1.
         11    1    3    3    0    0  0.11915053467E+01  0.64011226035E+00 -0.14925215029E+02  0.14986376233E+02  0.51100000000E-03 0. -1.
        -11    1    3    3    0    0 -0.33571496505E+02  0.86962825506E+01  0.14772389913E+02  0.37694750454E+02  0.51100000000E-03 0.  1.
        -12    1    3    3    0    0  0.39466727915E+01  0.49383621668E+01 -0.19677158532E+01  0.66208422948E+01  0.00000000000E+00 0.  1.
</event>
<event>
 7    1  0.7821043E-012  0.5930195E+02  0.7816164E-02  0.1266605E+00
        -11   -1    0    0    0    0  0.00000000000E+00  0.00000000000E+00  0.45593999997E+02  0.45594000000E+02  0.51100000000E-03 0. -1.
         11   -1    0    0    0    0 -0.00000000000E+00 -0.00000000000E+00 -0.45593999997E+02  0.45594000000E+02  0.51100000000E-03 0.  1.
    9900012    2    1    2    0    0  0.20586327610E+01  0.31395194671E+02  0.51791742425E+01  0.59301951906E+02  0.50000014367E+02 0.  0.
         12    1    1    2    0    0 -0.20586327610E+01 -0.31395194671E+02 -0.51791742425E+01  0.31886048094E+02  0.00000000000E+00 0. -1.
         11    1    3    3    0    0  0.12317220201E+02  0.24848047581E+02  0.86399759272E+01  0.29048038942E+02  0.51100000000E-03 0. -1.
        -11    1    3    3    0    0  0.20143805841E+01 -0.27208752871E+01 -0.12134108882E+02  0.12597519203E+02  0.51100000000E-03 0.  1.
         12    1    3    3    0    0 -0.12272968024E+02  0.92680223762E+01  0.86733071969E+01  0.17656393760E+02  0.00000000000E+00 0. -1.
</event>
<event>
 7    1  0.7821043E-012  0.5930193E+02  0.7816164E-02  0.1266605E+00
        -11   -1    0    0    0    0  0.00000000000E+00  0.00000000000E+00  0.45593999997E+02  0.45594000000E+02  0.51100000000E-03 0. -1.
         11   -1    0    0    0    0 -0.00000000000E+00 -0.00000000000E+00 -0.45593999997E+02  0.45594000000E+02  0.51100000000E-03 0.  1.
    9900012    2    1    2    0    0  0.11941839354E+02  0.17854182246E+02 -0.23565702293E+02  0.59301926623E+02  0.49999968258E+02 0.  0.
         12    1    1    2    0    0 -0.11941839354E+02 -0.17854182246E+02  0.23565702293E+02  0.31886073377E+02  0.00000000000E+00 0. -1.
         11    1    3    3    0    0  0.28393566296E+01 -0.13699810690E+02 -0.83616604410E+01  0.16299206257E+02  0.51100000000E-03 0. -1.
        -11    1    3    3    0    0 -0.75004650556E+01  0.10794267296E+02 -0.19131196772E+01  0.13282816330E+02  0.51100000000E-03 0.  1.
         12    1    3    3    0    0  0.16602947780E+02  0.20759725640E+02 -0.13290922175E+02  0.29719904036E+02  0.00000000000E+00 0. -1.
</event>
<event>
 7    1  0.7821043E-012  0.5930195E+02  0.7816164E-02  0.1266605E+00
        -11   -1    0    0    0    0  0.00000000000E+00  0.00000000000E+00  0.45593999997E+02  0.45594000000E+02  0.51100000000E-03 0. -1.
         11   -1    0    0    0    0 -0.00000000000E+00 -0.00000000000E+00 -0.45593999997E+02  0.45594000000E+02  0.51100000000E-03 0.  1.
    9900012    2    1    2    0    0 -0.31486304685E+02 -0.47763040203E+01  0.15874589115E+01  0.59301945233E+02  0.50000002199E+02 0.  0.
         12    1    1    2    0    0  0.31486304685E+02  0.47763040203E+01 -0.15874589115E+01  0.31886054767E+02  0.00000000000E+00 0. -1.
         11    1    3    3    0    0 -0.15161529921E+02 -0.11820254945E+02  0.93965042251E+01  0.21398240778E+02  0.51100000000E-03 0. -1.
        -11    1    3    3    0    0  0.89189894655E+01 -0.31678552826E+01  0.36628457787E+00  0.94719504237E+01  0.51100000000E-03 0.  1.
        -12    1    3    3    0    0 -0.25243764229E+02  0.10211806207E+02 -0.81753298915E+01  0.28431754031E+02  0.00000000000E+00 0.  1.
</event>
<event>
 7    1  0.7821043E-012  0.5930195E+02  0.7816164E-02  0.1266605E+00
        -11   -1    0    0    0    0  0.00000000000E+00  0.00000000000E+00  0.45593999997E+02  0.45594000000E+02  0.51100000000E-03 0.  1.
         11   -1    0    0    0    0 -0.00000000000E+00 -0.00000000000E+00 -0.45593999997E+02  0.45594000000E+02  0.51100000000E-03 0. -1.
    9900012    2    1    2    0    0  0.45574468158E+01  0.32039053964E+01  0.31395621071E+02  0.59301947349E+02  0.50000006056E+02 0.  0.
         12    1    1    2    0    0 -0.45574468158E+01 -0.32039053964E+01 -0.31395621071E+02  0.31886052651E+02  0.00000000000E+00 0. -1.
         11    1    3    3    0    0  0.55002459587E+01  0.37318107835E+01 -0.14187596312E+01  0.67964694130E+01  0.51100000000E-03 0. -1.
        -11    1    3    3    0    0 -0.19576633965E+02  0.65289882067E+01  0.12913123091E+02  0.24343808918E+02  0.51100000000E-03 0.  1.
        -12    1    3    3    0    0  0.18633834822E+02 -0.70568935938E+01  0.19901257611E+02  0.28161669018E+02  0.00000000000E+00 0.  1.
</event>
<event>
 7    1  0.7821043E-012  0.5930190E+02  0.7816164E-02  0.1266605E+00
        -11   -1    0    0    0    0  0.00000000000E+00  0.00000000000E+00  0.45593999997E+02  0.45594000000E+02  0.51100000000E-03 0.  1.
         11   -1    0    0    0    0 -0.00000000000E+00 -0.00000000000E+00 -0.45593999997E+02  0.45594000000E+02  0.51100000000E-03 0. -1.
    9900012    2    1    2    0    0  0.20180409840E+02  0.26649817519E+01  0.24543269455E+02  0.59301903585E+02  0.49999926243E+02 0.  0.
         12    1    1    2    0    0 -0.20180409840E+02 -0.26649817519E+01 -0.24543269455E+02  0.31886096415E+02  0.00000000000E+00 0. -1.
         11    1    3    3    0    0 -0.48525113024E+01  0.12700905537E+02  0.35809780300E+01  0.14059988311E+02  0.51100000000E-03 0. -1.
        -11    1    3    3    0    0  0.20983314321E+02 -0.41265263617E+01  0.27977952659E+02  0.35214961805E+02  0.51100000000E-03 0.  1.
        -12    1    3    3    0    0  0.40496068208E+01 -0.59093974237E+01 -0.70156612339E+01  0.10026953469E+02  0.00000000000E+00 0.  1.
</event>
<event>
 7    1  0.7821043E-012  0.5930195E+02  0.7816164E-02  0.1266605E+00
        -11   -1    0    0    0    0  0.00000000000E+00  0.00000000000E+00  0.45593999997E+02  0.45594000000E+02  0.51100000000E-03 0.  1.
         11   -1    0    0    0    0 -0.00000000000E+00 -0.00000000000E+00 -0.45593999997E+02  0.45594000000E+02  0.51100000000E-03 0. -1.
    9900012    2    1    2    0    0  0.18674689351E+02  0.40667764493E+01  0.25523269836E+02  0.59301952955E+02  0.50000016281E+02 0.  0.
         12    1    1    2    0    0 -0.18674689351E+02 -0.40667764493E+01 -0.25523269836E+02  0.31886047045E+02  0.00000000000E+00 0. -1.
         11    1    3    3    0    0  0.53582188951E+01  0.50052723672E+01 -0.12670378259E+02  0.14639048695E+02  0.51100000000E-03 0. -1.
        -11    1    3    3    0    0  0.21471132893E+01  0.81448632035E+01  0.10597521717E+02  0.13537221240E+02  0.51100000000E-03 0.  1.
         12    1    3    3    0    0  0.11169357167E+02 -0.90833591214E+01  0.27596126377E+02  0.31125683020E+02  0.00000000000E+00 0. -1.
</event>
<event>
 7    1  0.7821043E-012  0.5930184E+02  0.7816164E-02  0.1266605E+00
        -11   -1    0    0    0    0  0.00000000000E+00  0.00000000000E+00  0.45593999997E+02  0.45594000000E+02  0.51100000000E-03 0. -1.
         11   -1    0    0    0    0 -0.00000000000E+00 -0.00000000000E+00 -0.45593999997E+02  0.45594000000E+02  0.51100000000E-03 0.  1.
    9900012    2    1    2    0    0 -0.28416615876E+01  0.21142531460E+02 -0.23699058326E+02  0.59301842460E+02  0.49999814765E+02 0.  0.
         12    1    1    2    0    0  0.28416615876E+01 -0.21142531460E+02  0.23699058326E+02  0.31886157540E+02  0.00000000000E+00 0. -1.
         11    1    3    3    0    0  0.12843044893E+02  0.94775682852E+01  0.88528352746E+01  0.18252144953E+02  0.51100000000E-03 0. -1.
        -11    1    3    3    0    0 -0.14651310739E+02  0.15323457006E+02 -0.27254898332E+02  0.34529678891E+02  0.51100000000E-03 0.  1.
        -12    1    3    3    0    0 -0.10333957419E+01 -0.36584938314E+01 -0.52969952690E+01  0.65200186161E+01  0.00000000000E+00 0.  1.
</event>
<event>
 7    1  0.7821043E-012  0.5930189E+02  0.7816164E-02  0.1266605E+00
        -11   -1    0    0    0    0  0.00000000000E+00  0.00000000000E+00  0.45593999997E+02  0.45594000000E+02  0.51100000000E-03 0.  1.
         11   -1    0    0    0    0 -0.00000000000E+00 -0.00000000000E+00 -0.45593999997E+02  0.45594000000E+02  0.51100000000E-03 0. -1.
    9900012    2    1    2    0    0  0.81075698941E+01  0.10763898481E+02  0.28898612327E+02  0.59301890257E+02  0.49999901935E+02 0.  0.
         12    1    1    2    0    0 -0.81075698941E+01 -0.10763898481E+02 -0.28898612327E+02  0.31886109743E+02  0.00000000000E+00 0. -1.
         11    1    3    3    0    0  0.10785276182E+02  0.78577907558E+01 -0.49808846291E+01  0.14243464109E+02  0.51100000000E-03 0. -1.
        -11    1    3    3    0    0 -0.13521732830E+02  0.90129748406E+01  0.24813324917E+02  0.29660951904E+02  0.51100000000E-03 0.  1.
        -12    1    3    3    0    0  0.10844026542E+02 -0.61068671150E+01  0.90661720400E+01  0.15397474243E+02  0.00000000000E+00 0.  1.
</event>
<event>
 7    1  0.7821043E-012  0.5930198E+02  0.7816164E-02  0.1266605E+00
        -11   -1    0    0    0    0  0.00000000000E+00  0.00000000000E+00  0.45593999997E+02  0.45594000000E+02  0.51100000000E-03 0. -1.
         11   -1    0    0    0    0 -0.00000000000E+00 -0.00000000000E+00 -0.45593999997E+02  0.45594000000E+02  0.51100000000E-03 0.  1.
    9900012    2    1    2    0    0 -0.16339079794E+02  0.22687185221E+02  0.15331148804E+02  0.59301983858E+02  0.50000072640E+02 0.  0.
         12    1    1    2    0    0  0.16339079794E+02 -0.22687185221E+02 -0.15331148804E+02  0.31886016142E+02  0.00000000000E+00 0. -1.
         11    1    3    3    0    0  0.97980726299E+01  0.36283744426E-01  0.12577391371E+02  0.15943472574E+02  0.51100000000E-03 0. -1.
        -11    1    3    3    0    0 -0.18612794130E+02  0.14374180259E+02 -0.10721344042E+02  0.25845703353E+02  0.51100000000E-03 0.  1.
         12    1    3    3    0    0 -0.75243582936E+01  0.82767212174E+01  0.13475101475E+02  0.17512807930E+02  0.00000000000E+00 0. -1.
</event>
<event>
 7    1  0.7821043E-012  0.5930192E+02  0.7816164E-02  0.1266605E+00
        -11   -1    0    0    0    0  0.00000000000E+00  0.00000000000E+00  0.45593999997E+02  0.45594000000E+02  0.51100000000E-03 0.  1.
         11   -1    0    0    0    0 -0.00000000000E+00 -0.00000000000E+00 -0.45593999997E+02  0.45594000000E+02  0.51100000000E-03 0. -1.
    9900012    2    1    2    0    0 -0.22783837382E+02  0.12545046676E+02  0.18445618521E+02  0.59301917071E+02  0.49999950837E+02 0.  0.
         12    1    1    2    0    0  0.22783837382E+02 -0.12545046676E+02 -0.18445618521E+02  0.31886082929E+02  0.00000000000E+00 0. -1.
         11    1    3    3    0    0  0.11988443510E+02 -0.38074208226E+01  0.78456585882E+01  0.14824762732E+02  0.51100000000E-03 0. -1.
        -11    1    3    3    0    0 -0.59280438248E+01  0.11639166511E+02  0.75619897909E+01  0.15092898678E+02  0.51100000000E-03 0.  1.
         12    1    3    3    0    0 -0.28844237067E+02  0.47133009882E+01  0.30379701415E+01  0.29384255661E+02  0.00000000000E+00 0. -1.
</event>
<event>
 7    1  0.7821043E-012  0.5930194E+02  0.7816164E-02  0.1266605E+00
        -11   -1    0    0    0    0  0.00000000000E+00  0.00000000000E+00  0.45593999997E+02  0.45594000000E+02  0.51100000000E-03 0. -1.
         11   -1    0    0    0    0 -0.00000000000E+00 -0.00000000000E+00 -0.45593999997E+02  0.45594000000E+02  0.51100000000E-03 0.  1.
    9900012    2    1    2    0    0  0.16101244216E+02  0.12253553737E+02  0.24643885790E+02  0.59301941113E+02  0.49999994685E+02 0.  0.
         12    1    1    2    0    0 -0.16101244216E+02 -0.12253553737E+02 -0.24643885790E+02  0.31886058887E+02  0.00000000000E+00 0. -1.
         11    1    3    3    0    0  0.11884402252E+02  0.25748669747E+01 -0.78150193317E+01  0.14454877525E+02  0.51100000000E-03 0. -1.
        -11    1    3    3    0    0  0.15429940590E+02  0.11782781695E+02  0.18480085305E+02  0.26803555067E+02  0.51100000000E-03 0.  1.
         12    1    3    3    0    0 -0.11213098627E+02 -0.21040949326E+01  0.13978819817E+02  0.18043508522E+02  0.00000000000E+00 0. -1.
</event>
<event>
 7    1  0.7821043E-012  0.5930193E+02  0.7816164E-02  0.1266605E+00
        -11   -1    0    0    0    0  0.00000000000E+00  0.00000000000E+00  0.45593999997E+02  0.45594000000E+02  0.51100000000E-03 0.  1.
         11   -1    0    0    0    0 -0.00000000000E+00 -0.00000000000E+00 -0.45593999997E+02  0.45594000000E+02  0.51100000000E-03 0. -1.
    9900012    2    1    2    0    0 -0.14061813132E+02  0.65863097081E+01  0.27849734171E+02  0.59301925335E+02  0.49999965910E+02 0.  0.
         12    1    1    2    0    0  0.14061813132E+02 -0.65863097081E+01 -0.27849734171E+02  0.31886074665E+02  0.00000000000E+00 0. -1.
         11    1    3    3    0    0  0.37918741857E+01  0.12680765070E+02  0.24110652757E+02  0.27504612145E+02  0.51100000000E-03 0. -1.
        -11    1    3    3    0    0 -0.60404312688E+01 -0.15013122023E+02  0.50112225074E+01  0.16940867571E+02  0.51100000000E-03 0.  1.
        -12    1    3    3    0    0 -0.11813256049E+02  0.89186666605E+01 -0.12721410935E+01  0.14856445619E+02  0.00000000000E+00 0.  1.
</event>
<event>
 7    1  0.7821043E-012  0.5930195E+02  0.7816164E-02  0.1266605E+00
        -11   -1    0    0    0    0  0.00000000000E+00  0.00000000000E+00  0.45593999997E+02  0.45594000000E+02  0.51100000000E-03 0.  1.
         11   -1    0    0    0    0 -0.00000000000E+00 -0.00000000000E+00 -0.45593999997E+02  0.45594000000E+02  0.51100000000E-03 0. -1.
    9900012    2    1    2    0    0 -0.22799192910E+02 -0.17545142477E+02 -0.13750811289E+02  0.59301952378E+02  0.50000015229E+02 0.  0.
         12    1    1    2    0    0  0.22799192910E+02  0.17545142477E+02  0.13750811289E+02  0.31886047622E+02  0.00000000000E+00 0. -1.
         11    1    3    3    0    0 -0.76556414031E+01 -0.24715838453E+02 -0.26027404264E+02  0.36700235540E+02  0.51100000000E-03 0. -1.
        -11    1    3    3    0    0 -0.79084903419E+01  0.19614877186E+01  0.97385552121E+00  0.82060982443E+01  0.51100000000E-03 0.  1.
         12    1    3    3    0    0 -0.72350611646E+01  0.52092082580E+01  0.11302737454E+02  0.14395618593E+02  0.00000000000E+00 0. -1.
</event>
<event>
 7    1  0.7821043E-012  0.5930193E+02  0.7816164E-02  0.1266605E+00
        -11   -1    0    0    0    0  0.00000000000E+00  0.00000000000E+00  0.45593999997E+02  0.45594000000E+02  0.51100000000E-03 0.  1.
         11   -1    0    0    0    0 -0.00000000000E+00 -0.00000000000E+00 -0.45593999997E+02  0.45594000000E+02  0.51100000000E-03 0. -1.
    9900012    2    1    2    0    0 -0.44744803852E+00 -0.30779198313E+02 -0.83163711440E+01  0.59301932705E+02  0.49999979350E+02 0.  0.
         12    1    1    2    0    0  0.44744803852E+00  0.30779198313E+02  0.83163711440E+01  0.31886067295E+02  0.00000000000E+00 0. -1.
         11    1    3    3    0    0 -0.14017781730E+02 -0.26962865232E+02 -0.74909770051E+01  0.31298706729E+02  0.51100000000E-03 0. -1.
        -11    1    3    3    0    0 -0.15861980457E+01  0.67291346550E+01  0.51226739758E+01  0.86045956540E+01  0.51100000000E-03 0.  1.
         12    1    3    3    0    0  0.15156531738E+02 -0.10545467736E+02 -0.59480681146E+01  0.19398630322E+02  0.00000000000E+00 0. -1.
</event>
<event>
 7    1  0.7821043E-012  0.5930193E+02  0.7816164E-02  0.1266605E+00
        -11   -1    0    0    0    0  0.00000000000E+00  0.00000000000E+00  0.45593999997E+02  0.45594000000E+02  0.51100000000E-03 0.  1.
         11   -1    0    0    0    0 -0.00000000000E+00 -0.00000000000E+00 -0.45593999997E+02  0.45594000000E+02  0.51100000000E-03 0. -1.
    9900012    2    1    2    0    0 -0.27241802934E+02 -0.11636417908E+02  0.11798287027E+02  0.59301927404E+02  0.49999969682E+02 0.  0.
         12    1    1    2    0    0  0.27241802934E+02  0.11636417908E+02 -0.11798287027E+02  0.31886072596E+02  0.00000000000E+00 0. -1.
         11    1    3    3    0    0 -0.10126044274E+01 -0.22960026529E+02  0.98946748803E+01  0.25021845998E+02  0.51100000000E-03 0. -1.
        -11    1    3    3    0    0 -0.32307396988E+01  0.10269519303E+02 -0.19391856051E+01  0.10938973754E+02  0.51100000000E-03 0.  1.
         12    1    3    3    0    0 -0.22998458808E+02  0.10540893172E+01  0.38427977517E+01  0.23341107651E+02  0.00000000000E+00 0. -1.
</event>
<event>
 7    1  0.7821043E-012  0.5930193E+02  0.7816164E-02  0.1266605E+00
        -11   -1    0    0    0    0  0.00000000000E+00  0.00000000000E+00  0.45593999997E+02  0.45594000000E+02  0.51100000000E-03 0.  1.
         11   -1    0    0    0    0 -0.00000000000E+00 -0.00000000000E+00 -0.45593999997E+02  0.45594000000E+02  0.51100000000E-03 0. -1.
    9900012    2    1    2    0    0 -0.79884499614E+01  0.26084710550E+02  0.16507397903E+02  0.59301927135E+02  0.49999969191E+02 0.  0.
         12    1    1    2    0    0  0.79884499614E+01 -0.26084710550E+02 -0.16507397903E+02  0.31886072865E+02  0.00000000000E+00 0. -1.
         11    1    3    3    0    0  0.58447132734E+01 -0.10913849760E+02  0.52890039123E+01  0.13462776551E+02  0.51100000000E-03 0. -1.
        -11    1    3    3    0    0 -0.14429361078E+02  0.26084527128E+02  0.16087314484E+02  0.33873451317E+02  0.51100000000E-03 0.  1.
        -12    1    3    3    0    0  0.59619784327E+00  0.10914033182E+02 -0.48689204925E+01  0.11965699266E+02  0.00000000000E+00 0.  1.
</event>
<event>
 7    1  0.7821043E-012  0.5930196E+02  0.7816164E-02  0.1266605E+00
        -11   -1    0    0    0    0  0.00000000000E+00  0.00000000000E+00  0.45593999997E+02  0.45594000000E+02  0.51100000000E-03 0.  1.
         11   -1    0    0    0    0 -0.00000000000E+00 -0.00000000000E+00 -0.45593999997E+02  0.45594000000E+02  0.51100000000E-03 0. -1.
    9900012    2    1    2    0    0  0.11908199237E+02 -0.29063132903E+02  0.54998770564E+01  0.59301959938E+02  0.50000029016E+02 0.  0.
         12    1    1    2    0    0 -0.11908199237E+02  0.29063132903E+02 -0.54998770564E+01  0.31886040062E+02  0.00000000000E+00 0. -1.
         11    1    3    3    0    0  0.68776568259E+01  0.81362972526E+01  0.11095176405E+02  0.15381951635E+02  0.51100000000E-03 0. -1.
        -11    1    3    3    0    0 -0.42149373371E+01 -0.21981198869E+02  0.53583300123E+01  0.23014136987E+02  0.51100000000E-03 0.  1.
         12    1    3    3    0    0  0.92454797483E+01 -0.15218231287E+02 -0.10953629361E+02  0.20905871315E+02  0.00000000000E+00 0. -1.
</event>
<event>
 7    1  0.7821043E-012  0.5930193E+02  0.7816164E-02  0.1266605E+00
        -11   -1    0    0    0    0  0.00000000000E+00  0.00000000000E+00  0.45593999997E+02  0.45594000000E+02  0.51100000000E-03 0.  1.
         11   -1    0    0    0    0 -0.00000000000E+00 -0.00000000000E+00 -0.45593999997E+02  0.45594000000E+02  0.51100000000E-03 0. -1.
    9900012    2    1    2    0    0 -0.38189614456E+01 -0.22122014285E+02  0.22644059627E+02  0.59301930645E+02  0.49999975593E+02 0.  0.
         12    1    1    2    0    0  0.38189614456E+01  0.22122014285E+02 -0.22644059627E+02  0.31886069355E+02  0.00000000000E+00 0. -1.
         11    1    3    3    0    0  0.46209509081E+01 -0.27132328489E+02  0.20234619538E+02  0.34160741571E+02  0.51100000000E-03 0. -1.
        -11    1    3    3    0    0  0.51850051169E+01  0.13736777800E+01  0.82804616592E+01  0.98659674770E+01  0.51100000000E-03 0.  1.
         12    1    3    3    0    0 -0.13624917471E+02  0.36366364242E+01 -0.58710215707E+01  0.15275221597E+02  0.00000000000E+00 0. -1.
</event>
<event>
 7    1  0.7821043E-012  0.5930192E+02  0.7816164E-02  0.1266605E+00
        -11   -1    0    0    0    0  0.00000000000E+00  0.00000000000E+00  0.45593999997E+02  0.45594000000E+02  0.51100000000E-03 0.  1.
         11   -1    0    0    0    0 -0.00000000000E+00 -0.00000000000E+00 -0.45593999997E+02  0.45594000000E+02  0.51100000000E-03 0. -1.
    9900012    2    1    2    0    0  0.54243390454E+01 -0.30721792172E+01  0.31270754721E+02  0.59301924041E+02  0.49999963549E+02 0.  0.
         12    1    1    2    0    0 -0.54243390454E+01  0.30721792172E+01 -0.31270754721E+02  0.31886075959E+02  0.00000000000E+00 0. -1.
         11    1    3    3    0    0  0.11515658490E+01  0.28189054424E+01 -0.70384563633E+01  0.76689112680E+01  0.51100000000E-03 0. -1.
        -11    1    3    3    0    0  0.14145789389E+02 -0.52577419388E+01  0.38897277536E+02  0.41722241164E+02  0.51100000000E-03 0.  1.
        -12    1    3    3    0    0 -0.98730161927E+01 -0.63334272074E+00 -0.58806645141E+00  0.99107716094E+01  0.00000000000E+00 0.  1.
</event>
<event>
 7    1  0.7821043E-012  0.5930190E+02  0.7816164E-02  0.1266605E+00
        -11   -1    0    0    0    0  0.00000000000E+00  0.00000000000E+00  0.45593999997E+02  0.45594000000E+02  0.51100000000E-03 0.  1.
         11   -1    0    0    0    0 -0.00000000000E+00 -0.00000000000E+00 -0.45593999997E+02  0.45594000000E+02  0.51100000000E-03 0. -1.
    9900012    2    1    2    0    0  0.94272322223E+00  0.12052811901E+02  0.29505324446E+02  0.59301903148E+02  0.49999925444E+02 0.  0.
         12    1    1    2    0    0 -0.94272322223E+00 -0.12052811901E+02 -0.29505324446E+02  0.31886096852E+02  0.00000000000E+00 0. -1.
         11    1    3    3    0    0 -0.46599965432E+01 -0.20887424759E+01 -0.11848193300E+02  0.12901864115E+02  0.51100000000E-03 0. -1.
        -11    1    3    3    0    0 -0.34058195787E+01  0.55617307949E+01  0.25091329728E+02  0.25925032000E+02  0.51100000000E-03 0.  1.
         12    1    3    3    0    0  0.90085393442E+01  0.85798235823E+01  0.16262188018E+02  0.20475007032E+02  0.00000000000E+00 0. -1.
</event>
<event>
 7    1  0.7821043E-012  0.5930194E+02  0.7816164E-02  0.1266605E+00
        -11   -1    0    0    0    0  0.00000000000E+00  0.00000000000E+00  0.45593999997E+02  0.45594000000E+02  0.51100000000E-03 0.  1.
         11   -1    0    0    0    0 -0.00000000000E+00 -0.00000000000E+00 -0.45593999997E+02  0.45594000000E+02  0.51100000000E-03 0. -1.
    9900012    2    1    2    0    0 -0.27290946149E+02 -0.92684617176E+01  0.13638942464E+02  0.59301939160E+02  0.49999991123E+02 0.  0.
         12    1    1    2    0    0  0.27290946149E+02  0.92684617176E+01 -0.13638942464E+02  0.31886060840E+02  0.00000000000E+00 0. -1.
         11    1    3    3    0    0 -0.10514217970E+02 -0.19382794830E+02  0.18723950754E+02  0.28927976892E+02  0.51100000000E-03 0.  1.
        -11    1    3    3    0    0 -0.86978534243E+01  0.16246434155E+02  0.11571170867E+01  0.18464511831E+02  0.51100000000E-03 0. -1.
         12    1    3    3    0    0 -0.80788747547E+01 -0.61321010423E+01 -0.62421253762E+01  0.11909450437E+02  0.00000000000E+00 0. -1.
</event>
<event>
 7    1  0.7821043E-012  0.5930194E+02  0.7816164E-02  0.1266605E+00
        -11   -1    0    0    0    0  0.00000000000E+00  0.00000000000E+00  0.45593999997E+02  0.45594000000E+02  0.51100000000E-03 0.  1.
         11   -1    0    0    0    0 -0.00000000000E+00 -0.00000000000E+00 -0.45593999997E+02  0.45594000000E+02  0.51100000000E-03 0. -1.
    9900012    2    1    2    0    0  0.89436053707E+01 -0.20499888209E+02  0.22726355255E+02  0.59301941655E+02  0.49999995673E+02 0.  0.
         12    1    1    2    0    0 -0.89436053707E+01  0.20499888209E+02 -0.22726355255E+02  0.31886058345E+02  0.00000000000E+00 0. -1.
         11    1    3    3    0    0  0.32662394694E+00 -0.21151268658E+02 -0.35076939238E+01  0.21442638970E+02  0.51100000000E-03 0. -1.
        -11    1    3    3    0    0 -0.60842602882E+01  0.86359688063E+01  0.10424411554E+02  0.14841379214E+02  0.51100000000E-03 0.  1.
         12    1    3    3    0    0  0.14701241712E+02 -0.79845883567E+01  0.15809637625E+02  0.23017923471E+02  0.00000000000E+00 0. -1.
</event>
<event>
 7    1  0.7821043E-012  0.5930195E+02  0.7816164E-02  0.1266605E+00
        -11   -1    0    0    0    0  0.00000000000E+00  0.00000000000E+00  0.45593999997E+02  0.45594000000E+02  0.51100000000E-03 0.  1.
         11   -1    0    0    0    0 -0.00000000000E+00 -0.00000000000E+00 -0.45593999997E+02  0.45594000000E+02  0.51100000000E-03 0. -1.
    9900012    2    1    2    0    0  0.12548414817E+02 -0.29192130022E+02 -0.26602614701E+01  0.59301950374E+02  0.50000011575E+02 0.  0.
         12    1    1    2    0    0 -0.12548414817E+02  0.29192130022E+02  0.26602614701E+01  0.31886049626E+02  0.00000000000E+00 0. -1.
         11    1    3    3    0    0 -0.41453487464E+01 -0.26194644038E+01 -0.41303687451E+01  0.64113536966E+01  0.51100000000E-03 0. -1.
        -11    1    3    3    0    0  0.10818611946E+02 -0.10995471943E+02  0.21742298681E+02  0.26658400550E+02  0.51100000000E-03 0.  1.
        -12    1    3    3    0    0  0.58751516170E+01 -0.15577193675E+02 -0.20272191406E+02  0.26232196128E+02  0.00000000000E+00 0.  1.
</event>
<event>
 7    1  0.7821043E-012  0.5930197E+02  0.7816164E-02  0.1266605E+00
        -11   -1    0    0    0    0  0.00000000000E+00  0.00000000000E+00  0.45593999997E+02  0.45594000000E+02  0.51100000000E-03 0.  1.
         11   -1    0    0    0    0 -0.00000000000E+00 -0.00000000000E+00 -0.45593999997E+02  0.45594000000E+02  0.51100000000E-03 0. -1.
    9900012    2    1    2    0    0  0.31236087495E+02 -0.27972861114E+01  0.57620480150E+01  0.59301965927E+02  0.50000039938E+02 0.  0.
         12    1    1    2    0    0 -0.31236087495E+02  0.27972861114E+01 -0.57620480150E+01  0.31886034073E+02  0.00000000000E+00 0. -1.
         11    1    3    3    0    0  0.30459652934E+02  0.10177105894E+02 -0.67829617403E+01  0.32823353142E+02  0.51100000000E-03 0. -1.
        -11    1    3    3    0    0  0.56237555156E+01 -0.73093171393E+00  0.12030872233E+02  0.13300480225E+02  0.51100000000E-03 0.  1.
         12    1    3    3    0    0 -0.48473209547E+01 -0.12243460292E+02  0.51413752207E+00  0.13178132559E+02  0.00000000000E+00 0. -1.
</event>
<event>
 7    1  0.7821043E-012  0.5930193E+02  0.7816164E-02  0.1266605E+00
        -11   -1    0    0    0    0  0.00000000000E+00  0.00000000000E+00  0.45593999997E+02  0.45594000000E+02  0.51100000000E-03 0. -1.
         11   -1    0    0    0    0 -0.00000000000E+00 -0.00000000000E+00 -0.45593999997E+02  0.45594000000E+02  0.51100000000E-03 0.  1.
    9900012    2    1    2    0    0 -0.19918760646E+02 -0.21575449729E+02 -0.12428362626E+02  0.59301933227E+02  0.49999980302E+02 0.  0.
         12    1    1    2    0    0  0.19918760646E+02  0.21575449729E+02  0.12428362626E+02  0.31886066773E+02  0.00000000000E+00 0. -1.
         11    1    3    3    0    0 -0.12032548246E+02 -0.18012251426E+02 -0.27805481146E+01  0.21839296390E+02  0.51100000000E-03 0. -1.
        -11    1    3    3    0    0 -0.15290586548E+02  0.45621909749E+01 -0.17703943694E+02  0.23833699797E+02  0.51100000000E-03 0.  1.
        -12    1    3    3    0    0  0.74043741478E+01 -0.81253892780E+01  0.80561291822E+01  0.13628937040E+02  0.00000000000E+00 0.  1.
</event>
<event>
 7    1  0.7821043E-012  0.5930197E+02  0.7816164E-02  0.1266605E+00
        -11   -1    0    0    0    0  0.00000000000E+00  0.00000000000E+00  0.45593999997E+02  0.45594000000E+02  0.51100000000E-03 0.  1.
         11   -1    0    0    0    0 -0.00000000000E+00 -0.00000000000E+00 -0.45593999997E+02  0.45594000000E+02  0.51100000000E-03 0. -1.
    9900012    2    1    2    0    0  0.29641150449E+02  0.11017157988E+02 -0.40918973843E+01  0.59301965529E+02  0.50000039213E+02 0.  0.
         12    1    1    2    0    0 -0.29641150449E+02 -0.11017157988E+02  0.40918973843E+01  0.31886034471E+02  0.00000000000E+00 0. -1.
         11    1    3    3    0    0  0.31864287283E+02  0.20658372454E+01 -0.19563056523E+02  0.37447478798E+02  0.51100000000E-03 0. -1.
        -11    1    3    3    0    0  0.48088405710E+01  0.61868265829E+01  0.70517861004E+01  0.10541795780E+02  0.51100000000E-03 0.  1.
         12    1    3    3    0    0 -0.70319774047E+01  0.27644941601E+01  0.84193730382E+01  0.11312690950E+02  0.00000000000E+00 0. -1.
</event>
<event>
 7    1  0.7821043E-012  0.5930193E+02  0.7816164E-02  0.1266605E+00
        -11   -1    0    0    0    0  0.00000000000E+00  0.00000000000E+00  0.45593999997E+02  0.45594000000E+02  0.51100000000E-03 0.  1.
         11   -1    0    0    0    0 -0.00000000000E+00 -0.00000000000E+00 -0.45593999997E+02  0.45594000000E+02  0.51100000000E-03 0. -1.
    9900012    2    1    2    0    0 -0.19396976128E+02  0.99488279989E+01  0.23270148743E+02  0.59301926489E+02  0.49999968013E+02 0.  0.
         12    1    1    2    0    0  0.19396976128E+02 -0.99488279989E+01 -0.23270148743E+02  0.31886073511E+02  0.00000000000E+00 0. -1.
         11    1    3    3    0    0  0.15094070212E+01  0.10481073899E+01 -0.12808864084E+02  0.12940009197E+02  0.51100000000E-03 0. -1.
        -11    1    3    3    0    0 -0.91322708012E+01  0.92528370634E+01  0.65232685871E+01  0.14545322170E+02  0.51100000000E-03 0.  1.
         12    1    3    3    0    0 -0.11774112348E+02 -0.35211645438E+00  0.29555744239E+02  0.31816595121E+02  0.00000000000E+00 0. -1.
</event>
<event>
 7    1  0.7821043E-012  0.5930194E+02  0.7816164E-02  0.1266605E+00
        -11   -1    0    0    0    0  0.00000000000E+00  0.00000000000E+00  0.45593999997E+02  0.45594000000E+02  0.51100000000E-03 0.  1.
         11   -1    0    0    0    0 -0.00000000000E+00 -0.00000000000E+00 -0.45593999997E+02  0.45594000000E+02  0.51100000000E-03 0. -1.
    9900012    2    1    2    0    0  0.21412085393E+02  0.19055763972E+02  0.13968577784E+02  0.59301941812E+02  0.49999995959E+02 0.  0.
         12    1    1    2    0    0 -0.21412085393E+02 -0.19055763972E+02 -0.13968577784E+02  0.31886058188E+02  0.00000000000E+00 0. -1.
         11    1    3    3    0    0  0.73225985018E+01  0.55231086950E-01  0.50760051003E+01  0.89100688735E+01  0.51100000000E-03 0. -1.
        -11    1    3    3    0    0  0.56319665433E+01  0.31846602025E+02 -0.54796640556E+00  0.32345407327E+02  0.51100000000E-03 0.  1.
        -12    1    3    3    0    0  0.84575203480E+01 -0.12846069140E+02  0.94405390897E+01  0.18046465612E+02  0.00000000000E+00 0.  1.
</event>
<event>
 7    1  0.7821043E-012  0.5930196E+02  0.7816164E-02  0.1266605E+00
        -11   -1    0    0    0    0  0.00000000000E+00  0.00000000000E+00  0.45593999997E+02  0.45594000000E+02  0.51100000000E-03 0.  1.
         11   -1    0    0    0    0 -0.00000000000E+00 -0.00000000000E+00 -0.45593999997E+02  0.45594000000E+02  0.51100000000E-03 0. -1.
    9900012    2    1    2    0    0 -0.51832117341E+01  0.50962232258E+01  0.31046458935E+02  0.59301956227E+02  0.50000022249E+02 0.  0.
         12    1    1    2    0    0  0.51832117341E+01 -0.50962232258E+01 -0.31046458935E+02  0.31886043773E+02  0.00000000000E+00 0. -1.
         11    1    3    3    0    0  0.15779624598E+02  0.66592371247E+00  0.25772008827E+02  0.30226419670E+02  0.51100000000E-03 0. -1.
        -11    1    3    3    0    0 -0.16079129775E+02  0.16504676620E+01  0.12131672968E+02  0.20209897256E+02  0.51100000000E-03 0.  1.
         12    1    3    3    0    0 -0.48837065575E+01  0.27798318513E+01 -0.68572228601E+01  0.88656393010E+01  0.00000000000E+00 0. -1.
</event>
<event>
 7    1  0.7821043E-012  0.5930187E+02  0.7816164E-02  0.1266605E+00
        -11   -1    0    0    0    0  0.00000000000E+00  0.00000000000E+00  0.45593999997E+02  0.45594000000E+02  0.51100000000E-03 0.  1.
         11   -1    0    0    0    0 -0.00000000000E+00 -0.00000000000E+00 -0.45593999997E+02  0.45594000000E+02  0.51100000000E-03 0. -1.
    9900012    2    1    2    0    0  0.11213349131E+02 -0.22333930140E+02  0.19803581156E+02  0.59301867264E+02  0.49999860002E+02 0.  0.
         12    1    1    2    0    0 -0.11213349131E+02  0.22333930140E+02 -0.19803581156E+02  0.31886132736E+02  0.00000000000E+00 0. -1.
         11    1    3    3    0    0  0.27020996888E+02 -0.74172040661E+01  0.12333196005E+02  0.30614651932E+02  0.51100000000E-03 0. -1.
        -11    1    3    3    0    0 -0.11978829474E+02 -0.15929350883E+02 -0.33602560082E+00  0.19933627081E+02  0.51100000000E-03 0.  1.
         12    1    3    3    0    0 -0.38288182822E+01  0.10126248096E+01  0.78064107523E+01  0.87535882515E+01  0.00000000000E+00 0. -1.
</event>
<event>
 7    1  0.7821043E-012  0.5930194E+02  0.7816164E-02  0.1266605E+00
        -11   -1    0    0    0    0  0.00000000000E+00  0.00000000000E+00  0.45593999997E+02  0.45594000000E+02  0.51100000000E-03 0.  1.
         11   -1    0    0    0    0 -0.00000000000E+00 -0.00000000000E+00 -0.45593999997E+02  0.45594000000E+02  0.51100000000E-03 0. -1.
    9900012    2    1    2    0    0 -0.12778528364E+02  0.28856887267E+02 -0.45508446167E+01  0.59301938521E+02  0.49999989957E+02 0.  0.
         12    1    1    2    0    0  0.12778528364E+02 -0.28856887267E+02  0.45508446167E+01  0.31886061479E+02  0.00000000000E+00 0. -1.
         11    1    3    3    0    0 -0.24601926135E+00  0.17508547705E+02 -0.22206251342E+02  0.28279451323E+02  0.51100000000E-03 0. -1.
        -11    1    3    3    0    0  0.53929327913E+00  0.11466991935E+02  0.12496644668E+02  0.16969056234E+02  0.51100000000E-03 0.  1.
         12    1    3    3    0    0 -0.13071802382E+02 -0.11865237227E+00  0.51587620575E+01  0.14053430964E+02  0.00000000000E+00 0. -1.
</event>
<event>
 7    1  0.7821043E-012  0.5930192E+02  0.7816164E-02  0.1266605E+00
        -11   -1    0    0    0    0  0.00000000000E+00  0.00000000000E+00  0.45593999997E+02  0.45594000000E+02  0.51100000000E-03 0. -1.
         11   -1    0    0    0    0 -0.00000000000E+00 -0.00000000000E+00 -0.45593999997E+02  0.45594000000E+02  0.51100000000E-03 0.  1.
    9900012    2    1    2    0    0  0.17267017115E+02 -0.25127437474E+02 -0.93372306510E+01  0.59301923567E+02  0.49999962685E+02 0.  0.
         12    1    1    2    0    0 -0.17267017115E+02  0.25127437474E+02  0.93372306510E+01  0.31886076433E+02  0.00000000000E+00 0. -1.
         11    1    3    3    0    0 -0.28403666177E+01  0.40854055832E+01  0.11865503081E+01  0.51152832959E+01  0.51100000000E-03 0. -1.
        -11    1    3    3    0    0  0.15795529660E+02 -0.21129592937E+02 -0.25461087345E+02  0.36663679902E+02  0.51100000000E-03 0.  1.
        -12    1    3    3    0    0  0.43118540736E+01 -0.80832501197E+01  0.14937306386E+02  0.17522960369E+02  0.00000000000E+00 0.  1.
</event>
<event>
 7    1  0.7821043E-012  0.5930199E+02  0.7816164E-02  0.1266605E+00
        -11   -1    0    0    0    0  0.00000000000E+00  0.00000000000E+00  0.45593999997E+02  0.45594000000E+02  0.51100000000E-03 0. -1.
         11   -1    0    0    0    0 -0.00000000000E+00 -0.00000000000E+00 -0.45593999997E+02  0.45594000000E+02  0.51100000000E-03 0.  1.
    9900012    2    1    2    0    0  0.13914389900E+02 -0.25695616298E+02 -0.12760989005E+02  0.59301987650E+02  0.50000079556E+02 0.  0.
         12    1    1    2    0    0 -0.13914389900E+02  0.25695616298E+02  0.12760989005E+02  0.31886012350E+02  0.00000000000E+00 0. -1.
         11    1    3    3    0    0  0.22053170787E+01  0.13830412584E+02  0.19298707181E+01  0.14137472791E+02  0.51100000000E-03 0. -1.
        -11    1    3    3    0    0  0.75540307040E+01 -0.26524595400E+02 -0.40873465750E+01  0.27880529825E+02  0.51100000000E-03 0.  1.
        -12    1    3    3    0    0  0.41550421175E+01 -0.13001433482E+02 -0.10603513148E+02  0.17283985034E+02  0.00000000000E+00 0.  1.
</event>
<event>
 7    1  0.7821043E-012  0.5930195E+02  0.7816164E-02  0.1266605E+00
        -11   -1    0    0    0    0  0.00000000000E+00  0.00000000000E+00  0.45593999997E+02  0.45594000000E+02  0.51100000000E-03 0. -1.
         11   -1    0    0    0    0 -0.00000000000E+00 -0.00000000000E+00 -0.45593999997E+02  0.45594000000E+02  0.51100000000E-03 0.  1.
    9900012    2    1    2    0    0 -0.20767867307E+02  0.22276757990E+02 -0.94425674722E+01  0.59301947572E+02  0.50000006463E+02 0.  0.
         12    1    1    2    0    0  0.20767867307E+02 -0.22276757990E+02  0.94425674722E+01  0.31886052428E+02  0.00000000000E+00 0. -1.
         11    1    3    3    0    0 -0.13718793233E+02  0.25576920633E+02  0.11991194428E+02  0.31403389959E+02  0.51100000000E-03 0. -1.
        -11    1    3    3    0    0 -0.11661593596E+02 -0.52616294102E+01 -0.14410567836E+02  0.19270235465E+02  0.51100000000E-03 0.  1.
         12    1    3    3    0    0  0.46125195227E+01  0.19614667668E+01 -0.70231940641E+01  0.86283221478E+01  0.00000000000E+00 0. -1.
</event>
<event>
 7    1  0.7821043E-012  0.5930193E+02  0.7816164E-02  0.1266605E+00
        -11   -1    0    0    0    0  0.00000000000E+00  0.00000000000E+00  0.45593999997E+02  0.45594000000E+02  0.51100000000E-03 0. -1.
         11   -1    0    0    0    0 -0.00000000000E+00 -0.00000000000E+00 -0.45593999997E+02  0.45594000000E+02  0.51100000000E-03 0.  1.
    9900012    2    1    2    0    0  0.19372712944E+02  0.16179022505E+02 -0.19484838198E+02  0.59301926306E+02  0.49999967680E+02 0.  0.
         12    1    1    2    0    0 -0.19372712944E+02 -0.16179022505E+02  0.19484838198E+02  0.31886073694E+02  0.00000000000E+00 0. -1.
         11    1    3    3    0    0 -0.21942370839E+01  0.86473801794E+01 -0.29680809334E+02  0.30992616916E+02  0.51100000000E-03 0. -1.
        -11    1    3    3    0    0  0.10000213729E+02  0.70095578529E+01 -0.93526810926E+00  0.12247975450E+02  0.51100000000E-03 0.  1.
         12    1    3    3    0    0  0.11566736298E+02  0.52208447247E+00  0.11131239245E+02  0.16061333940E+02  0.00000000000E+00 0. -1.
</event>
<event>
 7    1  0.7821043E-012  0.5930196E+02  0.7816164E-02  0.1266605E+00
        -11   -1    0    0    0    0  0.00000000000E+00  0.00000000000E+00  0.45593999997E+02  0.45594000000E+02  0.51100000000E-03 0.  1.
         11   -1    0    0    0    0 -0.00000000000E+00 -0.00000000000E+00 -0.45593999997E+02  0.45594000000E+02  0.51100000000E-03 0. -1.
    9900012    2    1    2    0    0 -0.15994454240E+02  0.28359980601E+01  0.27438185297E+02  0.59301961302E+02  0.50000031505E+02 0.  0.
         12    1    1    2    0    0  0.15994454240E+02 -0.28359980601E+01 -0.27438185297E+02  0.31886038698E+02  0.00000000000E+00 0. -1.
         11    1    3    3    0    0 -0.19614046809E+01  0.11039743046E+02 -0.46156777584E+01  0.12125490352E+02  0.51100000000E-03 0. -1.
        -11    1    3    3    0    0 -0.15977626448E+02  0.29325963690E+00  0.34586073766E+02  0.38099436308E+02  0.51100000000E-03 0.  1.
        -12    1    3    3    0    0  0.19445768882E+01 -0.84970046225E+01 -0.25322107113E+01  0.90770346432E+01  0.00000000000E+00 0.  1.
</event>
<event>
 7    1  0.7821043E-012  0.5930192E+02  0.7816164E-02  0.1266605E+00
        -11   -1    0    0    0    0  0.00000000000E+00  0.00000000000E+00  0.45593999997E+02  0.45594000000E+02  0.51100000000E-03 0. -1.
         11   -1    0    0    0    0 -0.00000000000E+00 -0.00000000000E+00 -0.45593999997E+02  0.45594000000E+02  0.51100000000E-03 0.  1.
    9900012    2    1    2    0    0  0.30779708012E+02 -0.75850304553E+01 -0.34349377471E+01  0.59301922950E+02  0.49999961559E+02 0.  0.
         12    1    1    2    0    0 -0.30779708012E+02  0.75850304553E+01  0.34349377471E+01  0.31886077050E+02  0.00000000000E+00 0. -1.
         11    1    3    3    0    0 -0.10693961257E+02 -0.70904798235E+01  0.34579243067E+01  0.13288828100E+02  0.51100000000E-03 0. -1.
        -11    1    3    3    0    0  0.17186766782E+02 -0.77362579128E+01  0.24416190225E+01  0.19005160947E+02  0.51100000000E-03 0.  1.
         12    1    3    3    0    0  0.24286902487E+02  0.72417072810E+01 -0.93344810763E+01  0.27007933903E+02  0.00000000000E+00 0. -1.
</event>
<event>
 7    1  0.7821043E-012  0.5930195E+02  0.7816164E-02  0.1266605E+00
        -11   -1    0    0    0    0  0.00000000000E+00  0.00000000000E+00  0.45593999997E+02  0.45594000000E+02  0.51100000000E-03 0.  1.
         11   -1    0    0    0    0 -0.00000000000E+00 -0.00000000000E+00 -0.45593999997E+02  0.45594000000E+02  0.51100000000E-03 0. -1.
    9900012    2    1    2    0    0  0.40545889328E+01 -0.11895088613E+02  0.29305071609E+02  0.59301952165E+02  0.50000014840E+02 0.  0.
         12    1    1    2    0    0 -0.40545889328E+01  0.11895088613E+02 -0.29305071609E+02  0.31886047835E+02  0.00000000000E+00 0. -1.
         11    1    3    3    0    0  0.50731708806E+01 -0.11166490032E+02 -0.56563150688E+01  0.13506348982E+02  0.51100000000E-03 0.  1.
        -11    1    3    3    0    0  0.33893630092E+01  0.13875564375E+02  0.18111277153E+02  0.23065936546E+02  0.51100000000E-03 0. -1.
        -12    1    3    3    0    0 -0.44079449570E+01 -0.14604162957E+02  0.16850109525E+02  0.22729666637E+02  0.00000000000E+00 0.  1.
</event>
<event>
 7    1  0.7821043E-012  0.5930195E+02  0.7816164E-02  0.1266605E+00
        -11   -1    0    0    0    0  0.00000000000E+00  0.00000000000E+00  0.45593999997E+02  0.45594000000E+02  0.51100000000E-03 0. -1.
         11   -1    0    0    0    0 -0.00000000000E+00 -0.00000000000E+00 -0.45593999997E+02  0.45594000000E+02  0.51100000000E-03 0.  1.
    9900012    2    1    2    0    0  0.24450198228E+02 -0.17326722041E+02  0.10894627727E+02  0.59301946569E+02  0.50000004635E+02 0.  0.
         12    1    1    2    0    0 -0.24450198228E+02  0.17326722041E+02 -0.10894627727E+02  0.31886053431E+02  0.00000000000E+00 0. -1.
         11    1    3    3    0    0 -0.76640453357E+01  0.21033637487E+01 -0.11211519966E+02  0.13742631123E+02  0.51100000000E-03 0. -1.
        -11    1    3    3    0    0  0.31069659261E+02 -0.20996269195E+02  0.19283802533E+02  0.42166717765E+02  0.51100000000E-03 0.  1.
        -12    1    3    3    0    0  0.10445843031E+01  0.15661834047E+01  0.28223451601E+01  0.33925976812E+01  0.00000000000E+00 0.  1.
</event>
<event>
 7    1  0.7821043E-012  0.5930196E+02  0.7816164E-02  0.1266605E+00
        -11   -1    0    0    0    0  0.00000000000E+00  0.00000000000E+00  0.45593999997E+02  0.45594000000E+02  0.51100000000E-03 0.  1.
         11   -1    0    0    0    0 -0.00000000000E+00 -0.00000000000E+00 -0.45593999997E+02  0.45594000000E+02  0.51100000000E-03 0. -1.
    9900012    2    1    2    0    0 -0.22077242536E+01  0.94972916367E+01  0.30358636379E+02  0.59301962341E+02  0.50000033398E+02 0.  0.
         12    1    1    2    0    0  0.22077242536E+01 -0.94972916367E+01 -0.30358636379E+02  0.31886037659E+02  0.00000000000E+00 0. -1.
         11    1    3    3    0    0  0.82298319402E+01 -0.23036336158E+01  0.15225925725E+01  0.86807344161E+01  0.51100000000E-03 0. -1.
        -11    1    3    3    0    0 -0.14334614896E+02  0.10157142666E+02 -0.35808145304E+01  0.17929611382E+02  0.51100000000E-03 0.  1.
        -12    1    3    3    0    0  0.38970587018E+01  0.16437825865E+01  0.32416858337E+02  0.32691616543E+02  0.00000000000E+00 0.  1.
</event>
<event>
 7    1  0.7821043E-012  0.5930193E+02  0.7816164E-02  0.1266605E+00
        -11   -1    0    0    0    0  0.00000000000E+00  0.00000000000E+00  0.45593999997E+02  0.45594000000E+02  0.51100000000E-03 0.  1.
         11   -1    0    0    0    0 -0.00000000000E+00 -0.00000000000E+00 -0.45593999997E+02  0.45594000000E+02  0.51100000000E-03 0. -1.
    9900012    2    1    2    0    0  0.31646880048E+02 -0.38857588269E+01  0.31223598539E+00  0.59301927339E+02  0.49999969564E+02 0.  0.
         12    1    1    2    0    0 -0.31646880048E+02  0.38857588269E+01 -0.31223598539E+00  0.31886072661E+02  0.00000000000E+00 0. -1.
         11    1    3    3    0    0 -0.10593960435E+00  0.13710466679E+02  0.82228030582E+01  0.15987576744E+02  0.51100000000E-03 0. -1.
        -11    1    3    3    0    0  0.32851947306E+02 -0.10939283052E+02 -0.25905534254E+01  0.34722173359E+02  0.51100000000E-03 0.  1.
        -12    1    3    3    0    0 -0.10991276534E+01 -0.66569424539E+01 -0.53200136475E+01  0.85921772352E+01  0.00000000000E+00 0.  1.
</event>
<event>
 7    1  0.7821043E-012  0.5930193E+02  0.7816164E-02  0.1266605E+00
        -11   -1    0    0    0    0  0.00000000000E+00  0.00000000000E+00  0.45593999997E+02  0.45594000000E+02  0.51100000000E-03 0. -1.
         11   -1    0    0    0    0 -0.00000000000E+00 -0.00000000000E+00 -0.45593999997E+02  0.45594000000E+02  0.51100000000E-03 0.  1.
    9900012    2    1    2    0    0  0.94109653779E+01 -0.28370142502E+02 -0.11103623392E+02  0.59301926122E+02  0.49999967345E+02 0.  0.
         12    1    1    2    0    0 -0.94109653779E+01  0.28370142502E+02  0.11103623392E+02  0.31886073878E+02  0.00000000000E+00 0. -1.
         11    1    3    3    0    0  0.35354537286E+01 -0.41881713908E+01  0.18789750624E+02  0.19572811281E+02  0.51100000000E-03 0. -1.
        -11    1    3    3    0    0  0.18497791219E+00 -0.10621475817E+02 -0.17618830025E+02  0.20573602919E+02  0.51100000000E-03 0.  1.
         12    1    3    3    0    0  0.56905337371E+01 -0.13560495294E+02 -0.12274543991E+02  0.19155511922E+02  0.00000000000E+00 0. -1.
</event>
<event>
 7    1  0.7821043E-012  0.5930193E+02  0.7816164E-02  0.1266605E+00
        -11   -1    0    0    0    0  0.00000000000E+00  0.00000000000E+00  0.45593999997E+02  0.45594000000E+02  0.51100000000E-03 0. -1.
         11   -1    0    0    0    0 -0.00000000000E+00 -0.00000000000E+00 -0.45593999997E+02  0.45594000000E+02  0.51100000000E-03 0.  1.
    9900012    2    1    2    0    0  0.64721053338E+01 -0.31208278515E+02 -0.93641249816E+00  0.59301926807E+02  0.49999968593E+02 0.  0.
         12    1    1    2    0    0 -0.64721053338E+01  0.31208278515E+02  0.93641249816E+00  0.31886073193E+02  0.00000000000E+00 0. -1.
         11    1    3    3    0    0 -0.19607227543E+02 -0.17454859721E+02  0.35463953074E+01  0.26489477528E+02  0.51100000000E-03 0. -1.
        -11    1    3    3    0    0  0.12223263396E+02 -0.13007404090E+02 -0.60528964548E+01  0.18847766047E+02  0.51100000000E-03 0.  1.
        -12    1    3    3    0    0  0.13856069481E+02 -0.74601470413E+00  0.15700886492E+01  0.13964683232E+02  0.00000000000E+00 0.  1.
</event>
<event>
 7    1  0.7821043E-012  0.5930193E+02  0.7816164E-02  0.1266605E+00
        -11   -1    0    0    0    0  0.00000000000E+00  0.00000000000E+00  0.45593999997E+02  0.45594000000E+02  0.51100000000E-03 0. -1.
         11   -1    0    0    0    0 -0.00000000000E+00 -0.00000000000E+00 -0.45593999997E+02  0.45594000000E+02  0.51100000000E-03 0.  1.
    9900012    2    1    2    0    0  0.16891197479E+02  0.10070264296E+02 -0.25099775472E+02  0.59301929311E+02  0.49999973160E+02 0.  0.
         12    1    1    2    0    0 -0.16891197479E+02 -0.10070264296E+02  0.25099775472E+02  0.31886070689E+02  0.00000000000E+00 0. -1.
         11    1    3    3    0    0 -0.15547470387E+02 -0.33495656503E+01 -0.69904032079E+01  0.17372655605E+02  0.51100000000E-03 0. -1.
        -11    1    3    3    0    0  0.94414030663E+01  0.10827574850E+02 -0.43723442527E+01  0.15016453094E+02  0.51100000000E-03 0.  1.
         12    1    3    3    0    0  0.22997264800E+02  0.25922550954E+01 -0.13737028011E+02  0.26912820612E+02  0.00000000000E+00 0. -1.
</event>
<event>
 7    1  0.7821043E-012  0.5930198E+02  0.7816164E-02  0.1266605E+00
        -11   -1    0    0    0    0  0.00000000000E+00  0.00000000000E+00  0.45593999997E+02  0.45594000000E+02  0.51100000000E-03 0.  1.
         11   -1    0    0    0    0 -0.00000000000E+00 -0.00000000000E+00 -0.45593999997E+02  0.45594000000E+02  0.51100000000E-03 0. -1.
    9900012    2    1    2    0    0 -0.23314980376E+02 -0.10105124446E+02  0.19261784261E+02  0.59301981388E+02  0.50000068136E+02 0.  0.
         12    1    1    2    0    0  0.23314980376E+02  0.10105124446E+02 -0.19261784261E+02  0.31886018612E+02  0.00000000000E+00 0. -1.
         11    1    3    3    0    0 -0.26023943424E+01 -0.20674589014E+02 -0.85739649260E+01  0.22532730905E+02  0.51100000000E-03 0. -1.
        -11    1    3    3    0    0 -0.17311014024E+02  0.61120920257E+01  0.22374199952E+02  0.28941902136E+02  0.51100000000E-03 0.  1.
         12    1    3    3    0    0 -0.34015720103E+01  0.44573725423E+01  0.54615492343E+01  0.78273483480E+01  0.00000000000E+00 0. -1.
</event>
<event>
 7    1  0.7821043E-012  0.5930194E+02  0.7816164E-02  0.1266605E+00
        -11   -1    0    0    0    0  0.00000000000E+00  0.00000000000E+00  0.45593999997E+02  0.45594000000E+02  0.51100000000E-03 0.  1.
         11   -1    0    0    0    0 -0.00000000000E+00 -0.00000000000E+00 -0.45593999997E+02  0.45594000000E+02  0.51100000000E-03 0. -1.
    9900012    2    1    2    0    0  0.14340954295E+02  0.14168696044E+02  0.24704375351E+02  0.59301935972E+02  0.49999985309E+02 0.  0.
         12    1    1    2    0    0 -0.14340954295E+02 -0.14168696044E+02 -0.24704375351E+02  0.31886064028E+02  0.00000000000E+00 0. -1.
         11    1    3    3    0    0 -0.16906040299E+02  0.92130923827E+01  0.14701423040E+02  0.24224514640E+02  0.51100000000E-03 0. -1.
        -11    1    3    3    0    0  0.23826851720E+02  0.75666449083E+01  0.10673723943E+02  0.27182740133E+02  0.51100000000E-03 0.  1.
         12    1    3    3    0    0  0.74201428746E+01 -0.26110412466E+01 -0.67077163183E+00  0.78946812002E+01  0.00000000000E+00 0. -1.
</event>
<event>
 7    1  0.7821043E-012  0.5930197E+02  0.7816164E-02  0.1266605E+00
        -11   -1    0    0    0    0  0.00000000000E+00  0.00000000000E+00  0.45593999997E+02  0.45594000000E+02  0.51100000000E-03 0.  1.
         11   -1    0    0    0    0 -0.00000000000E+00 -0.00000000000E+00 -0.45593999997E+02  0.45594000000E+02  0.51100000000E-03 0. -1.
    9900012    2    1    2    0    0 -0.23887611900E+02 -0.20148753825E+02  0.63347000162E+01  0.59301973165E+02  0.50000053140E+02 0.  0.
         12    1    1    2    0    0  0.23887611900E+02  0.20148753825E+02 -0.63347000162E+01  0.31886026835E+02  0.00000000000E+00 0. -1.
         11    1    3    3    0    0 -0.47844270210E+01 -0.90162991020E+01  0.19142166545E+02  0.21693476709E+02  0.51100000000E-03 0. -1.
        -11    1    3    3    0    0 -0.18106890990E+01 -0.14678513069E+02 -0.13384142133E+02  0.19946744141E+02  0.51100000000E-03 0.  1.
        -12    1    3    3    0    0 -0.17292495780E+02  0.35460583456E+01  0.57667560432E+00  0.17661752316E+02  0.00000000000E+00 0.  1.
</event>
<event>
 7    1  0.7821043E-012  0.5930199E+02  0.7816164E-02  0.1266605E+00
        -11   -1    0    0    0    0  0.00000000000E+00  0.00000000000E+00  0.45593999997E+02  0.45594000000E+02  0.51100000000E-03 0.  1.
         11   -1    0    0    0    0 -0.00000000000E+00 -0.00000000000E+00 -0.45593999997E+02  0.45594000000E+02  0.51100000000E-03 0. -1.
    9900012    2    1    2    0    0 -0.26551472300E+02 -0.10547344932E+02  0.14159464341E+02  0.59301990578E+02  0.50000084897E+02 0.  0.
         12    1    1    2    0    0  0.26551472300E+02  0.10547344932E+02 -0.14159464341E+02  0.31886009422E+02  0.00000000000E+00 0. -1.
         11    1    3    3    0    0 -0.40539019165E+02 -0.66024955805E+01  0.85075545382E+01  0.41945005748E+02  0.51100000000E-03 0. -1.
        -11    1    3    3    0    0  0.92280846936E+01 -0.43267029205E+01  0.70370277001E+01  0.12385381076E+02  0.51100000000E-03 0.  1.
         12    1    3    3    0    0  0.47594621707E+01  0.38185356927E+00 -0.13851178970E+01  0.49716037545E+01  0.00000000000E+00 0. -1.
</event>
<event>
 7    1  0.7821043E-012  0.5930197E+02  0.7816164E-02  0.1266605E+00
        -11   -1    0    0    0    0  0.00000000000E+00  0.00000000000E+00  0.45593999997E+02  0.45594000000E+02  0.51100000000E-03 0.  1.
         11   -1    0    0    0    0 -0.00000000000E+00 -0.00000000000E+00 -0.45593999997E+02  0.45594000000E+02  0.51100000000E-03 0. -1.
    9900012    2    1    2    0    0  0.14073605261E+02 -0.10801208868E+02  0.26495023441E+02  0.59301972572E+02  0.50000052057E+02 0.  0.
         12    1    1    2    0    0 -0.14073605261E+02  0.10801208868E+02 -0.26495023441E+02  0.31886027428E+02  0.00000000000E+00 0. -1.
         11    1    3    3    0    0  0.15753571665E+02  0.66959639779E+00 -0.76390930594E+00  0.15786289533E+02  0.51100000000E-03 0. -1.
        -11    1    3    3    0    0 -0.11056094548E+01 -0.22667301476E+02  0.17642619587E+02  0.28745277084E+02  0.51100000000E-03 0.  1.
        -12    1    3    3    0    0 -0.57435694947E+00  0.11196496210E+02  0.96163131593E+01  0.14770405955E+02  0.00000000000E+00 0.  1.
</event>
<event>
 7    1  0.7821043E-012  0.5930196E+02  0.7816164E-02  0.1266605E+00
        -11   -1    0    0    0    0  0.00000000000E+00  0.00000000000E+00  0.45593999997E+02  0.45594000000E+02  0.51100000000E-03 0. -1.
         11   -1    0    0    0    0 -0.00000000000E+00 -0.00000000000E+00 -0.45593999997E+02  0.45594000000E+02  0.51100000000E-03 0.  1.
    9900012    2    1    2    0    0  0.30625246317E+02 -0.59664177416E+01 -0.65738679751E+01  0.59301959280E+02  0.50000027817E+02 0.  0.
         12    1    1    2    0    0 -0.30625246317E+02  0.59664177416E+01  0.65738679751E+01  0.31886040720E+02  0.00000000000E+00 0. -1.
         11    1    3    3    0    0  0.45908088215E+00 -0.12731344322E+02  0.19717687866E+01  0.12891305438E+02  0.51100000000E-03 0. -1.
        -11    1    3    3    0    0  0.23477324548E+01  0.12285641239E+02 -0.12608514959E+02  0.17760165486E+02  0.51100000000E-03 0.  1.
        -12    1    3    3    0    0  0.27818432980E+02 -0.55207146595E+01  0.40628781972E+01  0.28650488356E+02  0.00000000000E+00 0.  1.
</event>
<event>
 7    1  0.7821043E-012  0.5930195E+02  0.7816164E-02  0.1266605E+00
        -11   -1    0    0    0    0  0.00000000000E+00  0.00000000000E+00  0.45593999997E+02  0.45594000000E+02  0.51100000000E-03 0.  1.
         11   -1    0    0    0    0 -0.00000000000E+00 -0.00000000000E+00 -0.45593999997E+02  0.45594000000E+02  0.51100000000E-03 0. -1.
    9900012    2    1    2    0    0  0.99640662261E+01 -0.18984037164E+02  0.23601772416E+02  0.59301953773E+02  0.50000017774E+02 0.  0.
         12    1    1    2    0    0 -0.99640662261E+01  0.18984037164E+02 -0.23601772416E+02  0.31886046227E+02  0.00000000000E+00 0. -1.
         11    1    3    3    0    0  0.10766144767E+02 -0.31085040863E+01  0.19394833553E+01  0.11372522444E+02  0.51100000000E-03 0. -1.
        -11    1    3    3    0    0 -0.15182600174E+02 -0.88238265513E+01 -0.36877976697E+01  0.17943553577E+02  0.51100000000E-03 0.  1.
        -12    1    3    3    0    0  0.14380521633E+02 -0.70517065263E+01  0.25350086730E+02  0.29985877753E+02  0.00000000000E+00 0.  1.
</event>
<event>
 7    1  0.7821043E-012  0.5930197E+02  0.7816164E-02  0.1266605E+00
        -11   -1    0    0    0    0  0.00000000000E+00  0.00000000000E+00  0.45593999997E+02  0.45594000000E+02  0.51100000000E-03 0.  1.
         11   -1    0    0    0    0 -0.00000000000E+00 -0.00000000000E+00 -0.45593999997E+02  0.45594000000E+02  0.51100000000E-03 0. -1.
    9900012    2    1    2    0    0  0.17125383995E+02  0.20652048035E+02 -0.17231739271E+02  0.59301973227E+02  0.50000053253E+02 0.  0.
         12    1    1    2    0    0 -0.17125383995E+02 -0.20652048035E+02  0.17231739271E+02  0.31886026773E+02  0.00000000000E+00 0. -1.
         11    1    3    3    0    0  0.19551982862E+01 -0.59529223156E+01 -0.29392358031E+01  0.69209242014E+01  0.51100000000E-03 0. -1.
        -11    1    3    3    0    0  0.13290241910E+02  0.33157214404E+02  0.89622106611E+00  0.35732822580E+02  0.51100000000E-03 0.  1.
        -12    1    3    3    0    0  0.18799437991E+01 -0.65522440534E+01 -0.15188724534E+02  0.16648226446E+02  0.00000000000E+00 0.  1.
</event>
<event>
 7    1  0.7821043E-012  0.5930201E+02  0.7816164E-02  0.1266605E+00
        -11   -1    0    0    0    0  0.00000000000E+00  0.00000000000E+00  0.45593999997E+02  0.45594000000E+02  0.51100000000E-03 0.  1.
         11   -1    0    0    0    0 -0.00000000000E+00 -0.00000000000E+00 -0.45593999997E+02  0.45594000000E+02  0.51100000000E-03 0. -1.
    9900012    2    1    2    0    0  0.17934445416E+02 -0.91727646098E+01  0.24717042220E+02  0.59302013751E+02  0.50000127159E+02 0.  0.
         12    1    1    2    0    0 -0.17934445416E+02  0.91727646098E+01 -0.24717042220E+02  0.31885986249E+02  0.00000000000E+00 0. -1.
         11    1    3    3    0    0 -0.90981121001E+01 -0.21191569855E+02  0.10426672036E+02  0.25309558802E+02  0.51100000000E-03 0. -1.
        -11    1    3    3    0    0  0.11599205850E+02  0.81415721302E+01  0.10491639612E+02  0.17632392779E+02  0.51100000000E-03 0.  1.
         12    1    3    3    0    0  0.15433351666E+02  0.38772331154E+01  0.37987305722E+01  0.16360062171E+02  0.00000000000E+00 0. -1.
</event>
<event>
 7    1  0.7821043E-012  0.5930186E+02  0.7816164E-02  0.1266605E+00
        -11   -1    0    0    0    0  0.00000000000E+00  0.00000000000E+00  0.45593999997E+02  0.45594000000E+02  0.51100000000E-03 0.  1.
         11   -1    0    0    0    0 -0.00000000000E+00 -0.00000000000E+00 -0.45593999997E+02  0.45594000000E+02  0.51100000000E-03 0. -1.
    9900012    2    1    2    0    0 -0.16382419907E+02 -0.91587989333E+01  0.25777099541E+02  0.59301856604E+02  0.49999840561E+02 0.  0.
         12    1    1    2    0    0  0.16382419907E+02  0.91587989333E+01 -0.25777099541E+02  0.31886143396E+02  0.00000000000E+00 0. -1.
         11    1    3    3    0    0 -0.21164095595E+01  0.10823755932E+02 -0.80066646944E+01  0.13628630220E+02  0.51100000000E-03 0. -1.
        -11    1    3    3    0    0 -0.78250706684E+01 -0.88455503082E+01  0.30033952326E+02  0.32272492681E+02  0.51100000000E-03 0.  1.
         12    1    3    3    0    0 -0.64409396789E+01 -0.11137004557E+02  0.37498119090E+01  0.13400733704E+02  0.00000000000E+00 0. -1.
</event>
<event>
 7    1  0.7821043E-012  0.5930197E+02  0.7816164E-02  0.1266605E+00
        -11   -1    0    0    0    0  0.00000000000E+00  0.00000000000E+00  0.45593999997E+02  0.45594000000E+02  0.51100000000E-03 0.  1.
         11   -1    0    0    0    0 -0.00000000000E+00 -0.00000000000E+00 -0.45593999997E+02  0.45594000000E+02  0.51100000000E-03 0. -1.
    9900012    2    1    2    0    0 -0.23922029349E+02  0.20747490784E+02  0.37412995131E+01  0.59301965689E+02  0.50000039505E+02 0.  0.
         12    1    1    2    0    0  0.23922029349E+02 -0.20747490784E+02 -0.37412995131E+01  0.31886034311E+02  0.00000000000E+00 0. -1.
         11    1    3    3    0    0  0.28749536580E+01  0.90074457848E+01 -0.75958081479E+01  0.12128303252E+02  0.51100000000E-03 0. -1.
        -11    1    3    3    0    0 -0.35396849205E+02  0.11175149075E+02  0.82988552971E+01  0.38035403113E+02  0.51100000000E-03 0.  1.
        -12    1    3    3    0    0  0.85998661980E+01  0.56489592499E+00  0.30382523640E+01  0.91382593231E+01  0.00000000000E+00 0.  1.
</event>
<event>
 7    1  0.7821043E-012  0.5930195E+02  0.7816164E-02  0.1266605E+00
        -11   -1    0    0    0    0  0.00000000000E+00  0.00000000000E+00  0.45593999997E+02  0.45594000000E+02  0.51100000000E-03 0.  1.
         11   -1    0    0    0    0 -0.00000000000E+00 -0.00000000000E+00 -0.45593999997E+02  0.45594000000E+02  0.51100000000E-03 0. -1.
    9900012    2    1    2    0    0  0.27216683260E+02 -0.12716247332E+02  0.10689697747E+02  0.59301946124E+02  0.50000003823E+02 0.  0.
         12    1    1    2    0    0 -0.27216683260E+02  0.12716247332E+02 -0.10689697747E+02  0.31886053876E+02  0.00000000000E+00 0. -1.
         11    1    3    3    0    0 -0.77005098709E+01  0.28152318645E+01 -0.17163889016E+01  0.83767161731E+01  0.51100000000E-03 0. -1.
        -11    1    3    3    0    0  0.36393150339E+02 -0.61665291808E+01  0.16704483443E+02  0.40515765341E+02  0.51100000000E-03 0.  1.
         12    1    3    3    0    0 -0.14759572088E+01 -0.93649500154E+01 -0.42983967943E+01  0.10409464610E+02  0.00000000000E+00 0. -1.
</event>
<event>
 7    1  0.7821043E-012  0.5930194E+02  0.7816164E-02  0.1266605E+00
        -11   -1    0    0    0    0  0.00000000000E+00  0.00000000000E+00  0.45593999997E+02  0.45594000000E+02  0.51100000000E-03 0.  1.
         11   -1    0    0    0    0 -0.00000000000E+00 -0.00000000000E+00 -0.45593999997E+02  0.45594000000E+02  0.51100000000E-03 0. -1.
    9900012    2    1    2    0    0  0.82323235486E+01 -0.10757601525E+02  0.28865613647E+02  0.59301940463E+02  0.49999993499E+02 0.  0.
         12    1    1    2    0    0 -0.82323235486E+01  0.10757601525E+02 -0.28865613647E+02  0.31886059537E+02  0.00000000000E+00 0. -1.
         11    1    3    3    0    0  0.54999704129E+01 -0.13237472013E+02  0.85595544904E+01  0.16695697445E+02  0.51100000000E-03 0. -1.
        -11    1    3    3    0    0  0.17657500415E+02  0.97798538424E+01  0.15056309131E+02  0.25181844789E+02  0.51100000000E-03 0.  1.
        -12    1    3    3    0    0 -0.14925147280E+02 -0.72999833540E+01  0.52497500259E+01  0.17424398228E+02  0.00000000000E+00 0.  1.
</event>
<event>
 7    1  0.7821043E-012  0.5930195E+02  0.7816164E-02  0.1266605E+00
        -11   -1    0    0    0    0  0.00000000000E+00  0.00000000000E+00  0.45593999997E+02  0.45594000000E+02  0.51100000000E-03 0.  1.
         11   -1    0    0    0    0 -0.00000000000E+00 -0.00000000000E+00 -0.45593999997E+02  0.45594000000E+02  0.51100000000E-03 0. -1.
    9900012    2    1    2    0    0  0.13878518744E+02  0.21090183348E+02  0.19475912885E+02  0.59301948208E+02  0.50000007624E+02 0.  0.
         12    1    1    2    0    0 -0.13878518744E+02 -0.21090183348E+02 -0.19475912885E+02  0.31886051792E+02  0.00000000000E+00 0. -1.
         11    1    3    3    0    0 -0.12081592559E+02 -0.15115294748E+01 -0.65830205369E+01  0.13841450783E+02  0.51100000000E-03 0. -1.
        -11    1    3    3    0    0  0.18258440586E+02  0.64743704064E+01  0.13963169550E+02  0.23880080170E+02  0.51100000000E-03 0.  1.
         12    1    3    3    0    0  0.77016707174E+01  0.16127342417E+02  0.12095763872E+02  0.21580417255E+02  0.00000000000E+00 0. -1.
</event>
<event>
 7    1  0.7821043E-012  0.5930195E+02  0.7816164E-02  0.1266605E+00
        -11   -1    0    0    0    0  0.00000000000E+00  0.00000000000E+00  0.45593999997E+02  0.45594000000E+02  0.51100000000E-03 0.  1.
         11   -1    0    0    0    0 -0.00000000000E+00 -0.00000000000E+00 -0.45593999997E+02  0.45594000000E+02  0.51100000000E-03 0. -1.
    9900012    2    1    2    0    0 -0.12082750231E+02 -0.29031024874E+02 -0.52845794837E+01  0.59301952287E+02  0.50000015064E+02 0.  0.
         12    1    1    2    0    0  0.12082750231E+02  0.29031024874E+02  0.52845794837E+01  0.31886047713E+02  0.00000000000E+00 0. -1.
         11    1    3    3    0    0 -0.13076357080E+02  0.19035193301E+01  0.70164185391E+01  0.14961438090E+02  0.51100000000E-03 0. -1.
        -11    1    3    3    0    0  0.82673369632E+01 -0.33705841689E+02 -0.87855871918E+01  0.35799709035E+02  0.51100000000E-03 0.  1.
        -12    1    3    3    0    0 -0.72737301140E+01  0.27712974844E+01 -0.35154108310E+01  0.85408051627E+01  0.00000000000E+00 0.  1.
</event>
<event>
 7    1  0.7821043E-012  0.5930192E+02  0.7816164E-02  0.1266605E+00
        -11   -1    0    0    0    0  0.00000000000E+00  0.00000000000E+00  0.45593999997E+02  0.45594000000E+02  0.51100000000E-03 0.  1.
         11   -1    0    0    0    0 -0.00000000000E+00 -0.00000000000E+00 -0.45593999997E+02  0.45594000000E+02  0.51100000000E-03 0. -1.
    9900012    2    1    2    0    0 -0.16983907795E+02 -0.60340721627E+01  0.26303205893E+02  0.59301924809E+02  0.49999964950E+02 0.  0.
         12    1    1    2    0    0  0.16983907795E+02  0.60340721627E+01 -0.26303205893E+02  0.31886075191E+02  0.00000000000E+00 0. -1.
         11    1    3    3    0    0 -0.99730052472E+01  0.86851021765E+01  0.16902305348E+02  0.21461122054E+02  0.51100000000E-03 0. -1.
        -11    1    3    3    0    0  0.20823327101E+01 -0.14089616835E+02 -0.93184581871E+01  0.17020196101E+02  0.51100000000E-03 0.  1.
        -12    1    3    3    0    0 -0.90932352580E+01 -0.62955750415E+00  0.18719358732E+02  0.20820606654E+02  0.00000000000E+00 0.  1.
</event>
<event>
 7    1  0.7821043E-012  0.5930194E+02  0.7816164E-02  0.1266605E+00
        -11   -1    0    0    0    0  0.00000000000E+00  0.00000000000E+00  0.45593999997E+02  0.45594000000E+02  0.51100000000E-03 0. -1.
         11   -1    0    0    0    0 -0.00000000000E+00 -0.00000000000E+00 -0.45593999997E+02  0.45594000000E+02  0.51100000000E-03 0.  1.
    9900012    2    1    2    0    0 -0.87564604997E+01 -0.29754535350E+02 -0.73968049125E+01  0.59301941961E+02  0.49999996230E+02 0.  0.
         12    1    1    2    0    0  0.87564604997E+01  0.29754535350E+02  0.73968049125E+01  0.31886058039E+02  0.00000000000E+00 0. -1.
         11    1    3    3    0    0 -0.40970822135E+01 -0.26281689104E+01  0.16927490122E+02  0.17613440226E+02  0.51100000000E-03 0. -1.
        -11    1    3    3    0    0 -0.10957060914E+02 -0.22592303563E+02 -0.22503695759E+02  0.33717735500E+02  0.51100000000E-03 0.  1.
         12    1    3    3    0    0  0.62976826275E+01 -0.45340628769E+01 -0.18205992757E+01  0.79707662349E+01  0.00000000000E+00 0. -1.
</event>
<event>
 7    1  0.7821043E-012  0.5930169E+02  0.7816164E-02  0.1266606E+00
        -11   -1    0    0    0    0  0.00000000000E+00  0.00000000000E+00  0.45593999997E+02  0.45594000000E+02  0.51100000000E-03 0.  1.
         11   -1    0    0    0    0 -0.00000000000E+00 -0.00000000000E+00 -0.45593999997E+02  0.45594000000E+02  0.51100000000E-03 0. -1.
    9900012    2    1    2    0    0 -0.14441315829E+02 -0.18151044867E+02  0.21879777369E+02  0.59301691177E+02  0.49999538858E+02 0.  0.
         12    1    1    2    0    0  0.14441315829E+02  0.18151044867E+02 -0.21879777369E+02  0.31886308823E+02  0.00000000000E+00 0. -1.
         11    1    3    3    0    0 -0.42936411218E+01 -0.58566250376E+01 -0.25483294470E+01  0.76960635487E+01  0.51100000000E-03 0. -1.
        -11    1    3    3    0    0 -0.45210035959E+01  0.15585625901E+02  0.13595329576E+02  0.21170361234E+02  0.51100000000E-03 0.  1.
        -12    1    3    3    0    0 -0.56266711116E+01 -0.27880045731E+02  0.10832777240E+02  0.30435266394E+02  0.00000000000E+00 0.  1.
</event>
<event>
 7    1  0.7821043E-012  0.5930196E+02  0.7816164E-02  0.1266605E+00
        -11   -1    0    0    0    0  0.00000000000E+00  0.00000000000E+00  0.45593999997E+02  0.45594000000E+02  0.51100000000E-03 0. -1.
         11   -1    0    0    0    0 -0.00000000000E+00 -0.00000000000E+00 -0.45593999997E+02  0.45594000000E+02  0.51100000000E-03 0.  1.
    9900012    2    1    2    0    0 -0.14032800288E+02  0.28619138512E+02  0.86302860316E+00  0.59301962437E+02  0.50000033575E+02 0.  0.
         12    1    1    2    0    0  0.14032800288E+02 -0.28619138512E+02 -0.86302860316E+00  0.31886037563E+02  0.00000000000E+00 0. -1.
         11    1    3    3    0    0  0.92446292449E+00  0.63801474866E+01  0.15508628262E+02  0.16795191707E+02  0.51100000000E-03 0. -1.
        -11    1    3    3    0    0 -0.14922752755E+02 -0.88136328839E+00 -0.12127904876E+02  0.19249712413E+02  0.51100000000E-03 0.  1.
        -12    1    3    3    0    0 -0.34510457475E-01  0.23120354313E+02 -0.25176947825E+01  0.23257058317E+02  0.00000000000E+00 0.  1.
</event>
<event>
 7    1  0.7821043E-012  0.5930195E+02  0.7816164E-02  0.1266605E+00
        -11   -1    0    0    0    0  0.00000000000E+00  0.00000000000E+00  0.45593999997E+02  0.45594000000E+02  0.51100000000E-03 0.  1.
         11   -1    0    0    0    0 -0.00000000000E+00 -0.00000000000E+00 -0.45593999997E+02  0.45594000000E+02  0.51100000000E-03 0. -1.
    9900012    2    1    2    0    0  0.20797224751E+00  0.29812924507E+02  0.11307815048E+02  0.59301946603E+02  0.50000004696E+02 0.  0.
         12    1    1    2    0    0 -0.20797224751E+00 -0.29812924507E+02 -0.11307815048E+02  0.31886053397E+02  0.00000000000E+00 0. -1.
         11    1    3    3    0    0 -0.46191634869E+01  0.32008168063E+02 -0.76311313093E+01  0.33227904829E+02  0.51100000000E-03 0. -1.
        -11    1    3    3    0    0  0.86311882814E+01 -0.66834990651E+01  0.76056889538E+01  0.13304626099E+02  0.51100000000E-03 0.  1.
        -12    1    3    3    0    0 -0.38040525470E+01  0.44882555092E+01  0.11333257403E+02  0.12769415675E+02  0.00000000000E+00 0.  1.
</event>
<event>
 7    1  0.7821043E-012  0.5930190E+02  0.7816164E-02  0.1266605E+00
        -11   -1    0    0    0    0  0.00000000000E+00  0.00000000000E+00  0.45593999997E+02  0.45594000000E+02  0.51100000000E-03 0.  1.
         11   -1    0    0    0    0 -0.00000000000E+00 -0.00000000000E+00 -0.45593999997E+02  0.45594000000E+02  0.51100000000E-03 0. -1.
    9900012    2    1    2    0    0  0.77395737028E+01  0.15738966601E+01  0.30892481883E+02  0.59301896621E+02  0.49999913541E+02 0.  0.
         12    1    1    2    0    0 -0.77395737028E+01 -0.15738966601E+01 -0.30892481883E+02  0.31886103379E+02  0.00000000000E+00 0. -1.
         11    1    3    3    0    0 -0.17102034847E+01  0.18157543647E+02 -0.54423136982E-01  0.18237986440E+02  0.51100000000E-03 0. -1.
        -11    1    3    3    0    0 -0.56588655437E+01 -0.60240434426E+01  0.12503732347E+02  0.14988501643E+02  0.51100000000E-03 0.  1.
         12    1    3    3    0    0  0.15108642731E+02 -0.10559603544E+02  0.18443172673E+02  0.26075408538E+02  0.00000000000E+00 0. -1.
</event>
<event>
 7    1  0.7821043E-012  0.5930193E+02  0.7816164E-02  0.1266605E+00
        -11   -1    0    0    0    0  0.00000000000E+00  0.00000000000E+00  0.45593999997E+02  0.45594000000E+02  0.51100000000E-03 0.  1.
         11   -1    0    0    0    0 -0.00000000000E+00 -0.00000000000E+00 -0.45593999997E+02  0.45594000000E+02  0.51100000000E-03 0. -1.
    9900012    2    1    2    0    0  0.18398367047E+02  0.25388914720E+02  0.57986613646E+01  0.59301931345E+02  0.49999976870E+02 0.  0.
         12    1    1    2    0    0 -0.18398367047E+02 -0.25388914720E+02 -0.57986613646E+01  0.31886068655E+02  0.00000000000E+00 0. -1.
         11    1    3    3    0    0 -0.23369327449E+01 -0.86933717551E+01 -0.27610879827E+01  0.94159213164E+01  0.51100000000E-03 0. -1.
        -11    1    3    3    0    0  0.23458742433E+02  0.14891483110E+02  0.11882405799E+02  0.30220199098E+02  0.51100000000E-03 0.  1.
        -12    1    3    3    0    0 -0.27234426410E+01  0.19190803366E+02 -0.33226564516E+01  0.19665810930E+02  0.00000000000E+00 0.  1.
</event>
<event>
 7    1  0.7821043E-012  0.5930198E+02  0.7816164E-02  0.1266605E+00
        -11   -1    0    0    0    0  0.00000000000E+00  0.00000000000E+00  0.45593999997E+02  0.45594000000E+02  0.51100000000E-03 0. -1.
         11   -1    0    0    0    0 -0.00000000000E+00 -0.00000000000E+00 -0.45593999997E+02  0.45594000000E+02  0.51100000000E-03 0.  1.
    9900012    2    1    2    0    0  0.24612093457E+02 -0.24075671661E+01 -0.20128757714E+02  0.59301977810E+02  0.50000061611E+02 0.  0.
         12    1    1    2    0    0 -0.24612093457E+02  0.24075671661E+01  0.20128757714E+02  0.31886022190E+02  0.00000000000E+00 0. -1.
         11    1    3    3    0    0  0.18185823269E+02  0.32661913993E+01 -0.23338885711E+02  0.29767360661E+02  0.51100000000E-03 0. -1.
        -11    1    3    3    0    0  0.16742083725E+02 -0.52958028595E+00  0.57885904087E+01  0.17722460380E+02  0.51100000000E-03 0.  1.
         12    1    3    3    0    0 -0.10315813538E+02 -0.51441782794E+01 -0.25784624113E+01  0.11812156769E+02  0.00000000000E+00 0. -1.
</event>
<event>
 7    1  0.7821043E-012  0.5930194E+02  0.7816164E-02  0.1266605E+00
        -11   -1    0    0    0    0  0.00000000000E+00  0.00000000000E+00  0.45593999997E+02  0.45594000000E+02  0.51100000000E-03 0.  1.
         11   -1    0    0    0    0 -0.00000000000E+00 -0.00000000000E+00 -0.45593999997E+02  0.45594000000E+02  0.51100000000E-03 0. -1.
    9900012    2    1    2    0    0  0.32171253133E+01 -0.25570924675E+02  0.18774947527E+02  0.59301941312E+02  0.49999995047E+02 0.  0.
         12    1    1    2    0    0 -0.32171253133E+01  0.25570924675E+02 -0.18774947527E+02  0.31886058688E+02  0.00000000000E+00 0. -1.
         11    1    3    3    0    0  0.91169017171E+01 -0.19753360596E+02  0.62918403155E+01  0.22647304620E+02  0.51100000000E-03 0. -1.
        -11    1    3    3    0    0  0.88607919500E+01  0.95330948343E+01  0.64199997975E+01  0.14512406029E+02  0.51100000000E-03 0.  1.
        -12    1    3    3    0    0 -0.14760568354E+02 -0.15350658913E+02  0.60631074139E+01  0.22142230663E+02  0.00000000000E+00 0.  1.
</event>
<event>
 7    1  0.7821043E-012  0.5930195E+02  0.7816164E-02  0.1266605E+00
        -11   -1    0    0    0    0  0.00000000000E+00  0.00000000000E+00  0.45593999997E+02  0.45594000000E+02  0.51100000000E-03 0.  1.
         11   -1    0    0    0    0 -0.00000000000E+00 -0.00000000000E+00 -0.45593999997E+02  0.45594000000E+02  0.51100000000E-03 0. -1.
    9900012    2    1    2    0    0  0.15507946807E+02 -0.16309815523E+02  0.22587911649E+02  0.59301948986E+02  0.50000009043E+02 0.  0.
         12    1    1    2    0    0 -0.15507946807E+02  0.16309815523E+02 -0.22587911649E+02  0.31886051014E+02  0.00000000000E+00 0. -1.
         11    1    3    3    0    0  0.13467748545E+02 -0.18211567634E+02 -0.35370693991E+01  0.22924927628E+02  0.51100000000E-03 0. -1.
        -11    1    3    3    0    0  0.11434871452E+01  0.74157576629E+01  0.29097212438E+02  0.30049106418E+02  0.51100000000E-03 0.  1.
        -12    1    3    3    0    0  0.89671111652E+00 -0.55140055522E+01 -0.29722313898E+01  0.63279149402E+01  0.00000000000E+00 0.  1.
</event>
<event>
 7    1  0.7821043E-012  0.5930191E+02  0.7816164E-02  0.1266605E+00
        -11   -1    0    0    0    0  0.00000000000E+00  0.00000000000E+00  0.45593999997E+02  0.45594000000E+02  0.51100000000E-03 0.  1.
         11   -1    0    0    0    0 -0.00000000000E+00 -0.00000000000E+00 -0.45593999997E+02  0.45594000000E+02  0.51100000000E-03 0. -1.
    9900012    2    1    2    0    0  0.12465665005E+02  0.27495263304E+02 -0.10263557548E+02  0.59301907080E+02  0.49999932617E+02 0.  0.
         12    1    1    2    0    0 -0.12465665005E+02 -0.27495263304E+02  0.10263557548E+02  0.31886092920E+02  0.00000000000E+00 0. -1.
         11    1    3    3    0    0  0.27416082435E+02  0.15766662984E+02 -0.63698532255E+01  0.32261498231E+02  0.51100000000E-03 0. -1.
        -11    1    3    3    0    0 -0.44023454901E+01  0.69925924268E+01  0.72420624659E+01  0.10987468484E+02  0.51100000000E-03 0.  1.
         12    1    3    3    0    0 -0.10548071940E+02  0.47360078930E+01 -0.11135766789E+02  0.16052940366E+02  0.00000000000E+00 0. -1.
</event>
<event>
 7    1  0.7821043E-012  0.5930192E+02  0.7816164E-02  0.1266605E+00
        -11   -1    0    0    0    0  0.00000000000E+00  0.00000000000E+00  0.45593999997E+02  0.45594000000E+02  0.51100000000E-03 0.  1.
         11   -1    0    0    0    0 -0.00000000000E+00 -0.00000000000E+00 -0.45593999997E+02  0.45594000000E+02  0.51100000000E-03 0. -1.
    9900012    2    1    2    0    0  0.51612896272E+01 -0.23190123518E+02  0.21267377090E+02  0.59301920472E+02  0.49999957039E+02 0.  0.
         12    1    1    2    0    0 -0.51612896272E+01  0.23190123518E+02 -0.21267377090E+02  0.31886079528E+02  0.00000000000E+00 0. -1.
         11    1    3    3    0    0  0.14117586827E+02 -0.76586258494E+01  0.15962461706E+01  0.16140285308E+02  0.51100000000E-03 0. -1.
        -11    1    3    3    0    0 -0.15525731702E+02  0.53514928323E+01  0.10012138375E+02  0.19233557537E+02  0.51100000000E-03 0.  1.
        -12    1    3    3    0    0  0.65694345019E+01 -0.20882990501E+02  0.96589925443E+01  0.23928077627E+02  0.00000000000E+00 0.  1.
</event>
<event>
 7    1  0.7821043E-012  0.5930192E+02  0.7816164E-02  0.1266605E+00
        -11   -1    0    0    0    0  0.00000000000E+00  0.00000000000E+00  0.45593999997E+02  0.45594000000E+02  0.51100000000E-03 0.  1.
         11   -1    0    0    0    0 -0.00000000000E+00 -0.00000000000E+00 -0.45593999997E+02  0.45594000000E+02  0.51100000000E-03 0. -1.
    9900012    2    1    2    0    0 -0.20873206399E+02  0.20434012670E+02  0.12786018899E+02  0.59301923125E+02  0.49999961879E+02 0.  0.
         12    1    1    2    0    0  0.20873206399E+02 -0.20434012670E+02 -0.12786018899E+02  0.31886076875E+02  0.00000000000E+00 0. -1.
         11    1    3    3    0    0 -0.24660637841E+02  0.27372380302E+02  0.51489456162E+00  0.36846429661E+02  0.51100000000E-03 0. -1.
        -11    1    3    3    0    0  0.10397622316E+02 -0.63149390360E+01  0.78033504660E+01  0.14452725820E+02  0.51100000000E-03 0.  1.
         12    1    3    3    0    0 -0.66101908735E+01 -0.62342859545E+00  0.44677738718E+01  0.80027676442E+01  0.00000000000E+00 0. -1.
</event>
<event>
 7    1  0.7821043E-012  0.5930194E+02  0.7816164E-02  0.1266605E+00
        -11   -1    0    0    0    0  0.00000000000E+00  0.00000000000E+00  0.45593999997E+02  0.45594000000E+02  0.51100000000E-03 0. -1.
         11   -1    0    0    0    0 -0.00000000000E+00 -0.00000000000E+00 -0.45593999997E+02  0.45594000000E+02  0.51100000000E-03 0.  1.
    9900012    2    1    2    0    0  0.12564193426E+02 -0.23143900943E+02 -0.17978365181E+02  0.59301941575E+02  0.49999995526E+02 0.  0.
         12    1    1    2    0    0 -0.12564193426E+02  0.23143900943E+02  0.17978365181E+02  0.31886058425E+02  0.00000000000E+00 0. -1.
         11    1    3    3    0    0 -0.99640089443E+01  0.49534228310E+00  0.11231396032E+02  0.15022353188E+02  0.51100000000E-03 0. -1.
        -11    1    3    3    0    0  0.17922937148E+02 -0.14535980404E+02 -0.20343127663E+02  0.30763115020E+02  0.51100000000E-03 0.  1.
         12    1    3    3    0    0  0.46052652217E+01 -0.91032628219E+01 -0.88666335499E+01  0.13516473367E+02  0.00000000000E+00 0. -1.
</event>
<event>
 7    1  0.7821043E-012  0.5930207E+02  0.7816164E-02  0.1266604E+00
        -11   -1    0    0    0    0  0.00000000000E+00  0.00000000000E+00  0.45593999997E+02  0.45594000000E+02  0.51100000000E-03 0.  1.
         11   -1    0    0    0    0 -0.00000000000E+00 -0.00000000000E+00 -0.45593999997E+02  0.45594000000E+02  0.51100000000E-03 0. -1.
    9900012    2    1    2    0    0 -0.10578100655E+02  0.18574542758E+02  0.23660147798E+02  0.59302071348E+02  0.50000232202E+02 0.  0.
         12    1    1    2    0    0  0.10578100655E+02 -0.18574542758E+02 -0.23660147798E+02  0.31885928652E+02  0.00000000000E+00 0. -1.
         11    1    3    3    0    0 -0.64762793012E+01  0.24235659913E+02  0.21805623491E+02  0.33238450943E+02  0.51100000000E-03 0. -1.
        -11    1    3    3    0    0  0.54687534424E+00 -0.15257641081E+02  0.20107869526E+01  0.15399284023E+02  0.51100000000E-03 0.  1.
         12    1    3    3    0    0 -0.46486966981E+01  0.95965239262E+01 -0.15626264508E+00  0.10664336382E+02  0.00000000000E+00 0. -1.
</event>
<event>
 7    1  0.7821043E-012  0.5930196E+02  0.7816164E-02  0.1266605E+00
        -11   -1    0    0    0    0  0.00000000000E+00  0.00000000000E+00  0.45593999997E+02  0.45594000000E+02  0.51100000000E-03 0. -1.
         11   -1    0    0    0    0 -0.00000000000E+00 -0.00000000000E+00 -0.45593999997E+02  0.45594000000E+02  0.51100000000E-03 0.  1.
    9900012    2    1    2    0    0 -0.14485026579E+02  0.74201509937E+01 -0.27419792415E+02  0.59301958354E+02  0.50000026127E+02 0.  0.
         12    1    1    2    0    0  0.14485026579E+02 -0.74201509937E+01  0.27419792415E+02  0.31886041646E+02  0.00000000000E+00 0. -1.
         11    1    3    3    0    0  0.12294493845E+02  0.86242485609E+01 -0.12701517639E+01  0.15071347913E+02  0.51100000000E-03 0. -1.
        -11    1    3    3    0    0 -0.24315383621E+02  0.70976136718E+01 -0.24831145866E+02  0.35471112272E+02  0.51100000000E-03 0.  1.
         12    1    3    3    0    0 -0.24641368031E+01 -0.83017112391E+01 -0.13184947849E+01  0.87594981693E+01  0.00000000000E+00 0. -1.
</event>
<event>
 7    1  0.7821043E-012  0.5930196E+02  0.7816164E-02  0.1266605E+00
        -11   -1    0    0    0    0  0.00000000000E+00  0.00000000000E+00  0.45593999997E+02  0.45594000000E+02  0.51100000000E-03 0.  1.
         11   -1    0    0    0    0 -0.00000000000E+00 -0.00000000000E+00 -0.45593999997E+02  0.45594000000E+02  0.51100000000E-03 0. -1.
    9900012    2    1    2    0    0 -0.15110019946E+02 -0.26654181851E+02 -0.88295816873E+01  0.59301958764E+02  0.50000026876E+02 0.  0.
         12    1    1    2    0    0  0.15110019946E+02  0.26654181851E+02  0.88295816873E+01  0.31886041236E+02  0.00000000000E+00 0. -1.
         11    1    3    3    0    0  0.14215427725E+02 -0.16925971214E+02 -0.55739921090E+01  0.22795531914E+02  0.51100000000E-03 0. -1.
        -11    1    3    3    0    0 -0.89402796771E+01 -0.94821548558E+01  0.57188860054E+01  0.14231848749E+02  0.51100000000E-03 0.  1.
         12    1    3    3    0    0 -0.20385167994E+02 -0.24605578073E+00 -0.89744755837E+01  0.22274578101E+02  0.00000000000E+00 0. -1.
</event>
<event>
 7    1  0.7821043E-012  0.5930194E+02  0.7816164E-02  0.1266605E+00
        -11   -1    0    0    0    0  0.00000000000E+00  0.00000000000E+00  0.45593999997E+02  0.45594000000E+02  0.51100000000E-03 0.  1.
         11   -1    0    0    0    0 -0.00000000000E+00 -0.00000000000E+00 -0.45593999997E+02  0.45594000000E+02  0.51100000000E-03 0. -1.
    9900012    2    1    2    0    0  0.18092618995E+01  0.17250838443E+02  0.26755479928E+02  0.59301944085E+02  0.50000000105E+02 0.  0.
         12    1    1    2    0    0 -0.18092618995E+01 -0.17250838443E+02 -0.26755479928E+02  0.31886055915E+02  0.00000000000E+00 0. -1.
         11    1    3    3    0    0  0.16906568810E+01  0.12942404049E+02 -0.95172862587E+01  0.16153726544E+02  0.51100000000E-03 0. -1.
        -11    1    3    3    0    0 -0.10750355424E+02  0.54658220878E+01  0.22855873021E+02  0.25842528604E+02  0.51100000000E-03 0.  1.
         12    1    3    3    0    0  0.10868960443E+02 -0.11573876938E+01  0.13416893165E+02  0.17305688937E+02  0.00000000000E+00 0. -1.
</event>
<event>
 7    1  0.7821043E-012  0.5930194E+02  0.7816164E-02  0.1266605E+00
        -11   -1    0    0    0    0  0.00000000000E+00  0.00000000000E+00  0.45593999997E+02  0.45594000000E+02  0.51100000000E-03 0.  1.
         11   -1    0    0    0    0 -0.00000000000E+00 -0.00000000000E+00 -0.45593999997E+02  0.45594000000E+02  0.51100000000E-03 0. -1.
    9900012    2    1    2    0    0  0.94816700670E+01 -0.25926093289E+02  0.15957953401E+02  0.59301942589E+02  0.49999997375E+02 0.  0.
         12    1    1    2    0    0 -0.94816700670E+01  0.25926093289E+02 -0.15957953401E+02  0.31886057411E+02  0.00000000000E+00 0. -1.
         11    1    3    3    0    0  0.63270157834E+01 -0.16275280066E+02 -0.12394534550E+02  0.21413555448E+02  0.51100000000E-03 0. -1.
        -11    1    3    3    0    0 -0.78680132253E+01 -0.69593907146E+01  0.23118291460E+02  0.25392797237E+02  0.51100000000E-03 0.  1.
         12    1    3    3    0    0  0.11022667509E+02 -0.26914225083E+01  0.52341964903E+01  0.12495589903E+02  0.00000000000E+00 0. -1.
</event>
<event>
 7    1  0.7821043E-012  0.5930194E+02  0.7816164E-02  0.1266605E+00
        -11   -1    0    0    0    0  0.00000000000E+00  0.00000000000E+00  0.45593999997E+02  0.45594000000E+02  0.51100000000E-03 0. -1.
         11   -1    0    0    0    0 -0.00000000000E+00 -0.00000000000E+00 -0.45593999997E+02  0.45594000000E+02  0.51100000000E-03 0.  1.
    9900012    2    1    2    0    0  0.29133913005E+02 -0.10755347972E+02 -0.72289982168E+01  0.59301940159E+02  0.49999992944E+02 0.  0.
         12    1    1    2    0    0 -0.29133913005E+02  0.10755347972E+02  0.72289982168E+01  0.31886059841E+02  0.00000000000E+00 0. -1.
         11    1    3    3    0    0 -0.38883300551E+01 -0.17260905689E+02 -0.99220658003E+01  0.20285595033E+02  0.51100000000E-03 0.  1.
        -11    1    3    3    0    0  0.11475955440E+02  0.10548738023E+02  0.62750735477E+01  0.16803272759E+02  0.51100000000E-03 0. -1.
        -12    1    3    3    0    0  0.21546287621E+02 -0.40431803055E+01 -0.35820059641E+01  0.22213072366E+02  0.00000000000E+00 0.  1.
</event>
<event>
 7    1  0.7821043E-012  0.5930195E+02  0.7816164E-02  0.1266605E+00
        -11   -1    0    0    0    0  0.00000000000E+00  0.00000000000E+00  0.45593999997E+02  0.45594000000E+02  0.51100000000E-03 0. -1.
         11   -1    0    0    0    0 -0.00000000000E+00 -0.00000000000E+00 -0.45593999997E+02  0.45594000000E+02  0.51100000000E-03 0.  1.
    9900012    2    1    2    0    0 -0.12148508411E+02  0.26777876336E+02 -0.12332042195E+02  0.59301950035E+02  0.50000010956E+02 0.  0.
         12    1    1    2    0    0  0.12148508411E+02 -0.26777876336E+02  0.12332042195E+02  0.31886049965E+02  0.00000000000E+00 0. -1.
         11    1    3    3    0    0 -0.13050298648E+02  0.22128341148E+01  0.32549277176E+01  0.13630901817E+02  0.51100000000E-03 0. -1.
        -11    1    3    3    0    0 -0.61527301096E+00  0.10198859042E+02 -0.25952215089E+02  0.27891087375E+02  0.51100000000E-03 0.  1.
        -12    1    3    3    0    0  0.15170632485E+01  0.14366183179E+02  0.10365245177E+02  0.17779960844E+02  0.00000000000E+00 0.  1.
</event>
<event>
 7    1  0.7821043E-012  0.5930183E+02  0.7816164E-02  0.1266605E+00
        -11   -1    0    0    0    0  0.00000000000E+00  0.00000000000E+00  0.45593999997E+02  0.45594000000E+02  0.51100000000E-03 0. -1.
         11   -1    0    0    0    0 -0.00000000000E+00 -0.00000000000E+00 -0.45593999997E+02  0.45594000000E+02  0.51100000000E-03 0.  1.
    9900012    2    1    2    0    0  0.66837235780E+01  0.24055428983E+02 -0.19834118040E+02  0.59301826462E+02  0.49999785589E+02 0.  0.
         12    1    1    2    0    0 -0.66837235780E+01 -0.24055428983E+02  0.19834118040E+02  0.31886173538E+02  0.00000000000E+00 0. -1.
         11    1    3    3    0    0 -0.11360572197E+02  0.58024505741E+01 -0.25892631386E+02  0.28864500579E+02  0.51100000000E-03 0. -1.
        -11    1    3    3    0    0  0.19414277225E+02  0.19634759725E+02  0.66534906011E+01  0.28402585922E+02  0.51100000000E-03 0.  1.
        -12    1    3    3    0    0 -0.13699814502E+01 -0.13817813156E+01 -0.59497725486E+00  0.20347399617E+01  0.00000000000E+00 0.  1.
</event>
<event>
 7    1  0.7821043E-012  0.5930193E+02  0.7816164E-02  0.1266605E+00
        -11   -1    0    0    0    0  0.00000000000E+00  0.00000000000E+00  0.45593999997E+02  0.45594000000E+02  0.51100000000E-03 0.  1.
         11   -1    0    0    0    0 -0.00000000000E+00 -0.00000000000E+00 -0.45593999997E+02  0.45594000000E+02  0.51100000000E-03 0. -1.
    9900012    2    1    2    0    0  0.40513105776E+01 -0.14554483867E+02  0.28079798375E+02  0.59301934159E+02  0.49999982001E+02 0.  0.
         12    1    1    2    0    0 -0.40513105776E+01  0.14554483867E+02 -0.28079798375E+02  0.31886065841E+02  0.00000000000E+00 0. -1.
         11    1    3    3    0    0 -0.78654252237E+01 -0.17912833952E+02 -0.75465407157E+01  0.20968662599E+02  0.51100000000E-03 0. -1.
        -11    1    3    3    0    0  0.11829439296E+02  0.12125232208E+01  0.31716461139E+02  0.33872404020E+02  0.51100000000E-03 0.  1.
         12    1    3    3    0    0  0.87296505563E-01  0.21458268642E+01  0.39098779518E+01  0.44608675399E+01  0.00000000000E+00 0. -1.
</event>
<event>
 7    1  0.7821043E-012  0.5930196E+02  0.7816164E-02  0.1266605E+00
        -11   -1    0    0    0    0  0.00000000000E+00  0.00000000000E+00  0.45593999997E+02  0.45594000000E+02  0.51100000000E-03 0. -1.
         11   -1    0    0    0    0 -0.00000000000E+00 -0.00000000000E+00 -0.45593999997E+02  0.45594000000E+02  0.51100000000E-03 0.  1.
    9900012    2    1    2    0    0 -0.25571128426E+02 -0.91404858748E+01 -0.16711916982E+02  0.59301964495E+02  0.50000037327E+02 0.  0.
         12    1    1    2    0    0  0.25571128426E+02  0.91404858748E+01  0.16711916982E+02  0.31886035505E+02  0.00000000000E+00 0. -1.
         11    1    3    3    0    0 -0.77727793152E+01  0.96271629254E+00  0.27821632231E+01  0.83116396339E+01  0.51100000000E-03 0. -1.
        -11    1    3    3    0    0  0.37528423443E+01 -0.21647904382E+02 -0.48777002149E+01  0.22505722593E+02  0.51100000000E-03 0.  1.
        -12    1    3    3    0    0 -0.21551191455E+02  0.11544702214E+02 -0.14616379990E+02  0.28484602268E+02  0.00000000000E+00 0.  1.
</event>
<event>
 7    1  0.7821043E-012  0.5930193E+02  0.7816164E-02  0.1266605E+00
        -11   -1    0    0    0    0  0.00000000000E+00  0.00000000000E+00  0.45593999997E+02  0.45594000000E+02  0.51100000000E-03 0.  1.
         11   -1    0    0    0    0 -0.00000000000E+00 -0.00000000000E+00 -0.45593999997E+02  0.45594000000E+02  0.51100000000E-03 0. -1.
    9900012    2    1    2    0    0  0.64352452901E+01 -0.51146772239E+01  0.30808262857E+02  0.59301931486E+02  0.49999977126E+02 0.  0.
         12    1    1    2    0    0 -0.64352452901E+01  0.51146772239E+01 -0.30808262857E+02  0.31886068514E+02  0.00000000000E+00 0. -1.
         11    1    3    3    0    0  0.14482903403E+02 -0.91331511630E+01  0.37456305565E+01  0.17527084460E+02  0.51100000000E-03 0. -1.
        -11    1    3    3    0    0 -0.32957950268E+01  0.93368835271E+01  0.31738204916E+02  0.33246854143E+02  0.51100000000E-03 0.  1.
         12    1    3    3    0    0 -0.47518630856E+01 -0.53184095880E+01 -0.46755726153E+01  0.85279928829E+01  0.00000000000E+00 0. -1.
</event>
<event>
 7    1  0.7821043E-012  0.5930194E+02  0.7816164E-02  0.1266605E+00
        -11   -1    0    0    0    0  0.00000000000E+00  0.00000000000E+00  0.45593999997E+02  0.45594000000E+02  0.51100000000E-03 0. -1.
         11   -1    0    0    0    0 -0.00000000000E+00 -0.00000000000E+00 -0.45593999997E+02  0.45594000000E+02  0.51100000000E-03 0.  1.
    9900012    2    1    2    0    0  0.13277019940E+02 -0.14347646540E+01 -0.28954839454E+02  0.59301944491E+02  0.50000000845E+02 0.  0.
         12    1    1    2    0    0 -0.13277019940E+02  0.14347646540E+01  0.28954839454E+02  0.31886055509E+02  0.00000000000E+00 0. -1.
         11    1    3    3    0    0 -0.10783611850E+02 -0.24042788563E+01 -0.14572822648E+02  0.18287536782E+02  0.51100000000E-03 0. -1.
        -11    1    3    3    0    0  0.30942212849E+02  0.29596693323E+01 -0.10172977626E+02  0.32705804570E+02  0.51100000000E-03 0.  1.
        -12    1    3    3    0    0 -0.68815810587E+01 -0.19901551300E+01 -0.42090391802E+01  0.83086031395E+01  0.00000000000E+00 0.  1.
</event>
<event>
 7    1  0.7821043E-012  0.5930192E+02  0.7816164E-02  0.1266605E+00
        -11   -1    0    0    0    0  0.00000000000E+00  0.00000000000E+00  0.45593999997E+02  0.45594000000E+02  0.51100000000E-03 0.  1.
         11   -1    0    0    0    0 -0.00000000000E+00 -0.00000000000E+00 -0.45593999997E+02  0.45594000000E+02  0.51100000000E-03 0. -1.
    9900012    2    1    2    0    0 -0.24237384248E+02 -0.20590913734E+02  0.22989905092E+01  0.59301923400E+02  0.49999962380E+02 0.  0.
         12    1    1    2    0    0  0.24237384248E+02  0.20590913734E+02 -0.22989905092E+01  0.31886076600E+02  0.00000000000E+00 0. -1.
         11    1    3    3    0    0 -0.21451944249E+01 -0.20971568900E+02  0.17693257687E+02  0.27521989919E+02  0.51100000000E-03 0.  1.
        -11    1    3    3    0    0 -0.25208727135E+01  0.32744208490E+00 -0.11560371916E+02  0.11836562705E+02  0.51100000000E-03 0. -1.
         12    1    3    3    0    0 -0.19571317110E+02  0.53213081786E-01 -0.38338952613E+01  0.19943370776E+02  0.00000000000E+00 0. -1.
</event>
<event>
 7    1  0.7821043E-012  0.5930195E+02  0.7816164E-02  0.1266605E+00
        -11   -1    0    0    0    0  0.00000000000E+00  0.00000000000E+00  0.45593999997E+02  0.45594000000E+02  0.51100000000E-03 0.  1.
         11   -1    0    0    0    0 -0.00000000000E+00 -0.00000000000E+00 -0.45593999997E+02  0.45594000000E+02  0.51100000000E-03 0. -1.
    9900012    2    1    2    0    0  0.19148569637E+02  0.18909178542E+02  0.17102493499E+02  0.59301952328E+02  0.50000015137E+02 0.  0.
         12    1    1    2    0    0 -0.19148569637E+02 -0.18909178542E+02 -0.17102493499E+02  0.31886047672E+02  0.00000000000E+00 0. -1.
         11    1    3    3    0    0  0.43127386210E+01 -0.10444492755E+02  0.47089451695E+01  0.12241785335E+02  0.51100000000E-03 0. -1.
        -11    1    3    3    0    0  0.23305106912E+02  0.27205553417E+02  0.62125672046E+01  0.36357477036E+02  0.51100000000E-03 0.  1.
        -12    1    3    3    0    0 -0.84692758965E+01  0.21481178802E+01  0.61809811252E+01  0.10702689957E+02  0.00000000000E+00 0.  1.
</event>
<event>
 7    1  0.7821043E-012  0.5930194E+02  0.7816164E-02  0.1266605E+00
        -11   -1    0    0    0    0  0.00000000000E+00  0.00000000000E+00  0.45593999997E+02  0.45594000000E+02  0.51100000000E-03 0.  1.
         11   -1    0    0    0    0 -0.00000000000E+00 -0.00000000000E+00 -0.45593999997E+02  0.45594000000E+02  0.51100000000E-03 0. -1.
    9900012    2    1    2    0    0  0.27226736947E+02  0.64860227869E+01  0.15276021049E+02  0.59301944811E+02  0.50000001429E+02 0.  0.
         12    1    1    2    0    0 -0.27226736947E+02 -0.64860227869E+01 -0.15276021049E+02  0.31886055189E+02  0.00000000000E+00 0. -1.
         11    1    3    3    0    0 -0.74759548662E+01 -0.46787679721E+01 -0.52678284949E+01  0.10272817929E+02  0.51100000000E-03 0. -1.
        -11    1    3    3    0    0  0.14074371813E+02  0.17665849623E+02  0.76414186690E+01  0.23844526927E+02  0.51100000000E-03 0.  1.
        -12    1    3    3    0    0  0.20628320000E+02 -0.65010588640E+01  0.12902430875E+02  0.25184599955E+02  0.00000000000E+00 0.  1.
</event>
<event>
 7    1  0.7821043E-012  0.5930195E+02  0.7816164E-02  0.1266605E+00
        -11   -1    0    0    0    0  0.00000000000E+00  0.00000000000E+00  0.45593999997E+02  0.45594000000E+02  0.51100000000E-03 0.  1.
         11   -1    0    0    0    0 -0.00000000000E+00 -0.00000000000E+00 -0.45593999997E+02  0.45594000000E+02  0.51100000000E-03 0. -1.
    9900012    2    1    2    0    0 -0.26479449496E+01 -0.17928557958E+02 -0.26235006029E+02  0.59301947497E+02  0.50000006326E+02 0.  0.
         12    1    1    2    0    0  0.26479449496E+01  0.17928557958E+02  0.26235006029E+02  0.31886052503E+02  0.00000000000E+00 0. -1.
         11    1    3    3    0    0 -0.59971528682E+01  0.81093515570E+01 -0.12941498057E+02  0.16407614007E+02  0.51100000000E-03 0. -1.
        -11    1    3    3    0    0  0.63388457429E-01 -0.16385199092E+02  0.87727982342E+01  0.18586036600E+02  0.51100000000E-03 0.  1.
        -12    1    3    3    0    0  0.32858194612E+01 -0.96527104232E+01 -0.22066306206E+02  0.24308296889E+02  0.00000000000E+00 0.  1.
</event>
<event>
 7    1  0.7821043E-012  0.5930192E+02  0.7816164E-02  0.1266605E+00
        -11   -1    0    0    0    0  0.00000000000E+00  0.00000000000E+00  0.45593999997E+02  0.45594000000E+02  0.51100000000E-03 0. -1.
         11   -1    0    0    0    0 -0.00000000000E+00 -0.00000000000E+00 -0.45593999997E+02  0.45594000000E+02  0.51100000000E-03 0.  1.
    9900012    2    1    2    0    0 -0.26130801815E+02 -0.91032126357E+01 -0.15844072343E+02  0.59301922910E+02  0.49999961485E+02 0.  0.
         12    1    1    2    0    0  0.26130801815E+02  0.91032126357E+01  0.15844072343E+02  0.31886077090E+02  0.00000000000E+00 0. -1.
         11    1    3    3    0    0 -0.16684152462E+01 -0.14719749222E+02  0.85629512699E+01  0.17110779097E+02  0.51100000000E-03 0. -1.
        -11    1    3    3    0    0 -0.19160947985E+02 -0.32264698157E+01 -0.25233386210E+02  0.31847697170E+02  0.51100000000E-03 0.  1.
         12    1    3    3    0    0 -0.53014385841E+01  0.88430064025E+01  0.82636259697E+00  0.10343446642E+02  0.00000000000E+00 0. -1.
</event>
<event>
 7    1  0.7821043E-012  0.5930191E+02  0.7816164E-02  0.1266605E+00
        -11   -1    0    0    0    0  0.00000000000E+00  0.00000000000E+00  0.45593999997E+02  0.45594000000E+02  0.51100000000E-03 0. -1.
         11   -1    0    0    0    0 -0.00000000000E+00 -0.00000000000E+00 -0.45593999997E+02  0.45594000000E+02  0.51100000000E-03 0.  1.
    9900012    2    1    2    0    0  0.10618631745E+02 -0.20564566858E+02 -0.21933211630E+02  0.59301913339E+02  0.49999944030E+02 0.  0.
         12    1    1    2    0    0 -0.10618631745E+02  0.20564566858E+02  0.21933211630E+02  0.31886086661E+02  0.00000000000E+00 0. -1.
         11    1    3    3    0    0  0.18978449106E+01 -0.15828743025E+02  0.46933498539E+01  0.16618617697E+02  0.51100000000E-03 0. -1.
        -11    1    3    3    0    0 -0.20546882874E+01  0.12487818119E+02 -0.13448919409E+02  0.18467289429E+02  0.51100000000E-03 0.  1.
        -12    1    3    3    0    0  0.10775475122E+02 -0.17223641952E+02 -0.13177642075E+02  0.24216006212E+02  0.00000000000E+00 0.  1.
</event>
<event>
 7    1  0.7821043E-012  0.5930192E+02  0.7816164E-02  0.1266605E+00
        -11   -1    0    0    0    0  0.00000000000E+00  0.00000000000E+00  0.45593999997E+02  0.45594000000E+02  0.51100000000E-03 0. -1.
         11   -1    0    0    0    0 -0.00000000000E+00 -0.00000000000E+00 -0.45593999997E+02  0.45594000000E+02  0.51100000000E-03 0.  1.
    9900012    2    1    2    0    0 -0.77822627339E+01  0.12970233606E+02 -0.28070112642E+02  0.59301924719E+02  0.49999964786E+02 0.  0.
         12    1    1    2    0    0  0.77822627339E+01 -0.12970233606E+02  0.28070112642E+02  0.31886075281E+02  0.00000000000E+00 0. -1.
         11    1    3    3    0    0  0.68551057294E+01 -0.12906648101E+02 -0.60501256562E+01  0.15817018066E+02  0.51100000000E-03 0. -1.
        -11    1    3    3    0    0 -0.20313346008E+02  0.15204188908E+02 -0.15798832384E+02  0.29889839266E+02  0.51100000000E-03 0.  1.
        -12    1    3    3    0    0  0.56759775448E+01  0.10672692800E+02 -0.62211546026E+01  0.13595067388E+02  0.00000000000E+00 0.  1.
</event>
<event>
 7    1  0.7821043E-012  0.5930198E+02  0.7816164E-02  0.1266605E+00
        -11   -1    0    0    0    0  0.00000000000E+00  0.00000000000E+00  0.45593999997E+02  0.45594000000E+02  0.51100000000E-03 0.  1.
         11   -1    0    0    0    0 -0.00000000000E+00 -0.00000000000E+00 -0.45593999997E+02  0.45594000000E+02  0.51100000000E-03 0. -1.
    9900012    2    1    2    0    0 -0.30807603208E+02  0.70203149210E+01  0.42807554046E+01  0.59301982628E+02  0.50000070397E+02 0.  0.
         12    1    1    2    0    0  0.30807603208E+02 -0.70203149210E+01 -0.42807554046E+01  0.31886017372E+02  0.00000000000E+00 0. -1.
         11    1    3    3    0    0  0.97919903113E+01 -0.24579372437E+01 -0.43793185553E+01  0.11004679051E+02  0.51100000000E-03 0. -1.
        -11    1    3    3    0    0 -0.37819033447E+02  0.18649078933E+01  0.21933579970E+01  0.37928458865E+02  0.51100000000E-03 0.  1.
         12    1    3    3    0    0 -0.27805600730E+01  0.76133442715E+01  0.64667159629E+01  0.10368844712E+02  0.00000000000E+00 0. -1.
</event>
<event>
 7    1  0.7821043E-012  0.5930199E+02  0.7816164E-02  0.1266605E+00
        -11   -1    0    0    0    0  0.00000000000E+00  0.00000000000E+00  0.45593999997E+02  0.45594000000E+02  0.51100000000E-03 0. -1.
         11   -1    0    0    0    0 -0.00000000000E+00 -0.00000000000E+00 -0.45593999997E+02  0.45594000000E+02  0.51100000000E-03 0.  1.
    9900012    2    1    2    0    0  0.19106462129E+02  0.19306157904E+02 -0.16701291042E+02  0.59301988168E+02  0.50000080501E+02 0.  0.
         12    1    1    2    0    0 -0.19106462129E+02 -0.19306157904E+02  0.16701291042E+02  0.31886011832E+02  0.00000000000E+00 0. -1.
         11    1    3    3    0    0  0.58368210070E+01 -0.81630052152E+01  0.58589967471E+01  0.11620282989E+02  0.51100000000E-03 0. -1.
        -11    1    3    3    0    0  0.16848405669E+02  0.44331351678E+01 -0.39798789285E+01  0.17870671435E+02  0.51100000000E-03 0.  1.
        -12    1    3    3    0    0 -0.35787645469E+01  0.23036027951E+02 -0.18580408860E+02  0.29811033744E+02  0.00000000000E+00 0.  1.
</event>
<event>
 7    1  0.7821043E-012  0.5930191E+02  0.7816164E-02  0.1266605E+00
        -11   -1    0    0    0    0  0.00000000000E+00  0.00000000000E+00  0.45593999997E+02  0.45594000000E+02  0.51100000000E-03 0. -1.
         11   -1    0    0    0    0 -0.00000000000E+00 -0.00000000000E+00 -0.45593999997E+02  0.45594000000E+02  0.51100000000E-03 0.  1.
    9900012    2    1    2    0    0 -0.16350087733E+02 -0.27308867324E+02 -0.19034997180E+01  0.59301907192E+02  0.49999932820E+02 0.  0.
         12    1    1    2    0    0  0.16350087733E+02  0.27308867324E+02  0.19034997180E+01  0.31886092808E+02  0.00000000000E+00 0. -1.
         11    1    3    3    0    0  0.77223827523E+01  0.30420182254E+01  0.33952252098E+01  0.89675316974E+01  0.51100000000E-03 0. -1.
        -11    1    3    3    0    0 -0.22076836665E+02 -0.33547681193E+02  0.39436017117E+01  0.40353260404E+02  0.51100000000E-03 0.  1.
        -12    1    3    3    0    0 -0.19956338198E+01  0.31967956428E+01 -0.92423266396E+01  0.99811150898E+01  0.00000000000E+00 0.  1.
</event>
<event>
 7    1  0.7821043E-012  0.5930194E+02  0.7816164E-02  0.1266605E+00
        -11   -1    0    0    0    0  0.00000000000E+00  0.00000000000E+00  0.45593999997E+02  0.45594000000E+02  0.51100000000E-03 0. -1.
         11   -1    0    0    0    0 -0.00000000000E+00 -0.00000000000E+00 -0.45593999997E+02  0.45594000000E+02  0.51100000000E-03 0.  1.
    9900012    2    1    2    0    0 -0.10891371129E+02  0.15410542803E+01 -0.29928650742E+02  0.59301938020E+02  0.49999989044E+02 0.  0.
         12    1    1    2    0    0  0.10891371129E+02 -0.15410542803E+01  0.29928650742E+02  0.31886061980E+02  0.00000000000E+00 0. -1.
         11    1    3    3    0    0 -0.12575308670E+02  0.81871780191E+01  0.48309143832E+01  0.15764073272E+02  0.51100000000E-03 0. -1.
        -11    1    3    3    0    0 -0.79421586713E+01 -0.12527550645E+02 -0.17814278950E+02  0.23181154938E+02  0.51100000000E-03 0.  1.
        -12    1    3    3    0    0  0.96260962130E+01  0.58814269058E+01 -0.16945286175E+02  0.20356709810E+02  0.00000000000E+00 0.  1.
</event>
<event>
 7    1  0.7821043E-012  0.5930196E+02  0.7816164E-02  0.1266605E+00
        -11   -1    0    0    0    0  0.00000000000E+00  0.00000000000E+00  0.45593999997E+02  0.45594000000E+02  0.51100000000E-03 0.  1.
         11   -1    0    0    0    0 -0.00000000000E+00 -0.00000000000E+00 -0.45593999997E+02  0.45594000000E+02  0.51100000000E-03 0. -1.
    9900012    2    1    2    0    0  0.62335690596E+01 -0.27972116444E+02  0.13979363948E+02  0.59301963903E+02  0.50000036248E+02 0.  0.
         12    1    1    2    0    0 -0.62335690596E+01  0.27972116444E+02 -0.13979363948E+02  0.31886036097E+02  0.00000000000E+00 0. -1.
         11    1    3    3    0    0  0.97391660731E+01 -0.20960203457E+02  0.19406318595E+02  0.30179242642E+02  0.51100000000E-03 0.  1.
        -11    1    3    3    0    0  0.62189368857E+00  0.99848056831E+01  0.18585732433E+01  0.10175332479E+02  0.51100000000E-03 0. -1.
         12    1    3    3    0    0 -0.41274907020E+01 -0.16996718670E+02 -0.72855278908E+01  0.18947388783E+02  0.00000000000E+00 0. -1.
</event>
<event>
 7    1  0.7821043E-012  0.5930192E+02  0.7816164E-02  0.1266605E+00
        -11   -1    0    0    0    0  0.00000000000E+00  0.00000000000E+00  0.45593999997E+02  0.45594000000E+02  0.51100000000E-03 0.  1.
         11   -1    0    0    0    0 -0.00000000000E+00 -0.00000000000E+00 -0.45593999997E+02  0.45594000000E+02  0.51100000000E-03 0. -1.
    9900012    2    1    2    0    0  0.30531958057E+02  0.23450461989E+01 -0.88894533105E+01  0.59301920206E+02  0.49999956555E+02 0.  0.
         12    1    1    2    0    0 -0.30531958057E+02 -0.23450461989E+01  0.88894533105E+01  0.31886079794E+02  0.00000000000E+00 0. -1.
         11    1    3    3    0    0  0.23554059043E+02 -0.83289791606E+01 -0.56672497294E+01  0.25618027071E+02  0.51100000000E-03 0.  1.
        -11    1    3    3    0    0 -0.11227089227E+02  0.86735229860E+01  0.26873467905E+01  0.14439507143E+02  0.51100000000E-03 0. -1.
        -12    1    3    3    0    0  0.18204988241E+02  0.20005023735E+01 -0.59095503717E+01  0.19244385991E+02  0.00000000000E+00 0.  1.
</event>
<event>
 7    1  0.7821043E-012  0.5930194E+02  0.7816164E-02  0.1266605E+00
        -11   -1    0    0    0    0  0.00000000000E+00  0.00000000000E+00  0.45593999997E+02  0.45594000000E+02  0.51100000000E-03 0.  1.
         11   -1    0    0    0    0 -0.00000000000E+00 -0.00000000000E+00 -0.45593999997E+02  0.45594000000E+02  0.51100000000E-03 0. -1.
    9900012    2    1    2    0    0  0.70752901611E+01 -0.28455795084E+02  0.12527114130E+02  0.59301943593E+02  0.49999999208E+02 0.  0.
         12    1    1    2    0    0 -0.70752901611E+01  0.28455795084E+02 -0.12527114130E+02  0.31886056407E+02  0.00000000000E+00 0. -1.
         11    1    3    3    0    0  0.14378448177E+02 -0.23226893794E+02  0.25391436275E+02  0.37295487712E+02  0.51100000000E-03 0.  1.
        -11    1    3    3    0    0 -0.43366553139E+01 -0.97776289522E+01 -0.36331544160E+01  0.11296389623E+02  0.51100000000E-03 0. -1.
         12    1    3    3    0    0 -0.29665027017E+01  0.45487276614E+01 -0.92311677296E+01  0.10710066259E+02  0.00000000000E+00 0. -1.
</event>
<event>
 7    1  0.7821043E-012  0.5930187E+02  0.7816164E-02  0.1266605E+00
        -11   -1    0    0    0    0  0.00000000000E+00  0.00000000000E+00  0.45593999997E+02  0.45594000000E+02  0.51100000000E-03 0. -1.
         11   -1    0    0    0    0 -0.00000000000E+00 -0.00000000000E+00 -0.45593999997E+02  0.45594000000E+02  0.51100000000E-03 0.  1.
    9900012    2    1    2    0    0 -0.25627318311E+02 -0.18671902036E+02 -0.33653799575E+01  0.59301872112E+02  0.49999868843E+02 0.  0.
         12    1    1    2    0    0  0.25627318311E+02  0.18671902036E+02  0.33653799575E+01  0.31886127888E+02  0.00000000000E+00 0. -1.
         11    1    3    3    0    0 -0.15360478441E+02 -0.30874624424E+02  0.94392194834E+01  0.35753120088E+02  0.51100000000E-03 0. -1.
        -11    1    3    3    0    0 -0.10571064290E+02  0.61788431682E+01 -0.40094942183E+01  0.12884158772E+02  0.51100000000E-03 0.  1.
         12    1    3    3    0    0  0.30422442057E+00  0.60238792202E+01 -0.87951052225E+01  0.10664593252E+02  0.00000000000E+00 0. -1.
</event>
<event>
 7    1  0.7821043E-012  0.5930183E+02  0.7816164E-02  0.1266605E+00
        -11   -1    0    0    0    0  0.00000000000E+00  0.00000000000E+00  0.45593999997E+02  0.45594000000E+02  0.51100000000E-03 0.  1.
         11   -1    0    0    0    0 -0.00000000000E+00 -0.00000000000E+00 -0.45593999997E+02  0.45594000000E+02  0.51100000000E-03 0. -1.
    9900012    2    1    2    0    0 -0.23322949481E+02 -0.10172941168E+02  0.19216632238E+02  0.59301832794E+02  0.49999797136E+02 0.  0.
         12    1    1    2    0    0  0.23322949481E+02  0.10172941168E+02 -0.19216632238E+02  0.31886167206E+02  0.00000000000E+00 0. -1.
         11    1    3    3    0    0  0.39218782843E+01  0.75018681248E+01 -0.81848240056E+01  0.11774994646E+02  0.51100000000E-03 0. -1.
        -11    1    3    3    0    0 -0.11186982558E+02 -0.17737811136E+02  0.22454110400E+02  0.30724023122E+02  0.51100000000E-03 0.  1.
        -12    1    3    3    0    0 -0.16057845208E+02  0.63001842857E-01  0.49473458426E+01  0.16802815027E+02  0.00000000000E+00 0.  1.
</event>
<event>
 7    1  0.7821043E-012  0.5930195E+02  0.7816164E-02  0.1266605E+00
        -11   -1    0    0    0    0  0.00000000000E+00  0.00000000000E+00  0.45593999997E+02  0.45594000000E+02  0.51100000000E-03 0.  1.
         11   -1    0    0    0    0 -0.00000000000E+00 -0.00000000000E+00 -0.45593999997E+02  0.45594000000E+02  0.51100000000E-03 0. -1.
    9900012    2    1    2    0    0  0.31081644062E+02 -0.55531015512E+01  0.44513765803E+01  0.59301948381E+02  0.50000007939E+02 0.  0.
         12    1    1    2    0    0 -0.31081644062E+02  0.55531015512E+01 -0.44513765803E+01  0.31886051619E+02  0.00000000000E+00 0. -1.
         11    1    3    3    0    0  0.12068043736E+01  0.65771442271E+01 -0.10431008808E+02  0.12390365127E+02  0.51100000000E-03 0. -1.
        -11    1    3    3    0    0  0.53287729428E+00 -0.14473733840E+02  0.84954326195E+01  0.16791227029E+02  0.51100000000E-03 0.  1.
         12    1    3    3    0    0  0.29341962394E+02  0.23434880617E+01  0.63869527686E+01  0.30120356224E+02  0.00000000000E+00 0. -1.
</event>
<event>
 7    1  0.7821043E-012  0.5930194E+02  0.7816164E-02  0.1266605E+00
        -11   -1    0    0    0    0  0.00000000000E+00  0.00000000000E+00  0.45593999997E+02  0.45594000000E+02  0.51100000000E-03 0.  1.
         11   -1    0    0    0    0 -0.00000000000E+00 -0.00000000000E+00 -0.45593999997E+02  0.45594000000E+02  0.51100000000E-03 0. -1.
    9900012    2    1    2    0    0  0.79259334865E+01 -0.15536103994E+02  0.26693255866E+02  0.59301939446E+02  0.49999991643E+02 0.  0.
         12    1    1    2    0    0 -0.79259334865E+01  0.15536103994E+02 -0.26693255866E+02  0.31886060554E+02  0.00000000000E+00 0. -1.
         11    1    3    3    0    0  0.21864817977E+01  0.48953045982E+01  0.17502048389E+02  0.18304819252E+02  0.51100000000E-03 0.  1.
        -11    1    3    3    0    0  0.17349520277E+02 -0.14720281833E+02 -0.33259036110E+01  0.22994655600E+02  0.51100000000E-03 0. -1.
         12    1    3    3    0    0 -0.11610068588E+02 -0.57111267596E+01  0.12517111087E+02  0.18002464594E+02  0.00000000000E+00 0. -1.
</event>
<event>
 7    1  0.7821043E-012  0.5930213E+02  0.7816164E-02  0.1266604E+00
        -11   -1    0    0    0    0  0.00000000000E+00  0.00000000000E+00  0.45593999997E+02  0.45594000000E+02  0.51100000000E-03 0. -1.
         11   -1    0    0    0    0 -0.00000000000E+00 -0.00000000000E+00 -0.45593999997E+02  0.45594000000E+02  0.51100000000E-03 0.  1.
    9900012    2    1    2    0    0  0.30639282738E+02 -0.81992542213E+01 -0.32734004583E+01  0.59302132174E+02  0.50000343132E+02 0.  0.
         12    1    1    2    0    0 -0.30639282738E+02  0.81992542213E+01  0.32734004583E+01  0.31885867826E+02  0.00000000000E+00 0. -1.
         11    1    3    3    0    0  0.22740709437E+02 -0.19960869476E+02 -0.11824521357E+02  0.32486850902E+02  0.51100000000E-03 0. -1.
        -11    1    3    3    0    0  0.10069398835E+02  0.11843870070E+02 -0.23300380303E+01  0.15719387031E+02  0.51100000000E-03 0.  1.
         12    1    3    3    0    0 -0.21708255347E+01 -0.82254815168E-01  0.10881158929E+02  0.11095894241E+02  0.00000000000E+00 0. -1.
</event>
<event>
 7    1  0.7821043E-012  0.5930195E+02  0.7816164E-02  0.1266605E+00
        -11   -1    0    0    0    0  0.00000000000E+00  0.00000000000E+00  0.45593999997E+02  0.45594000000E+02  0.51100000000E-03 0.  1.
         11   -1    0    0    0    0 -0.00000000000E+00 -0.00000000000E+00 -0.45593999997E+02  0.45594000000E+02  0.51100000000E-03 0. -1.
    9900012    2    1    2    0    0  0.66656070436E+01 -0.31157666918E+02  0.12204604397E+01  0.59301952130E+02  0.50000014777E+02 0.  0.
         12    1    1    2    0    0 -0.66656070436E+01  0.31157666918E+02 -0.12204604397E+01  0.31886047870E+02  0.00000000000E+00 0. -1.
         11    1    3    3    0    0  0.23094192801E+02 -0.32259048988E+02 -0.12138588763E+01  0.39692082792E+02  0.51100000000E-03 0. -1.
        -11    1    3    3    0    0 -0.25373601204E+01 -0.37850903424E+01 -0.53401929409E+00  0.45880586470E+01  0.51100000000E-03 0.  1.
         12    1    3    3    0    0 -0.13891225637E+02  0.48864724125E+01  0.29683386101E+01  0.15021810691E+02  0.00000000000E+00 0. -1.
</event>
<event>
 7    1  0.7821043E-012  0.5930212E+02  0.7816164E-02  0.1266604E+00
        -11   -1    0    0    0    0  0.00000000000E+00  0.00000000000E+00  0.45593999997E+02  0.45594000000E+02  0.51100000000E-03 0.  1.
         11   -1    0    0    0    0 -0.00000000000E+00 -0.00000000000E+00 -0.45593999997E+02  0.45594000000E+02  0.51100000000E-03 0. -1.
    9900012    2    1    2    0    0  0.23967718513E+02 -0.84787791273E+01  0.19244944927E+02  0.59302123323E+02  0.50000326990E+02 0.  0.
         12    1    1    2    0    0 -0.23967718513E+02  0.84787791273E+01 -0.19244944927E+02  0.31885876677E+02  0.00000000000E+00 0. -1.
         11    1    3    3    0    0  0.13947164820E+02 -0.51837424808E+01  0.23797965186E+02  0.28066665992E+02  0.51100000000E-03 0.  1.
        -11    1    3    3    0    0  0.85627045046E+01 -0.87930505742E+01 -0.14975180890E+02  0.19362171618E+02  0.51100000000E-03 0. -1.
        -12    1    3    3    0    0  0.14578491887E+01  0.54980139278E+01  0.10422160631E+02  0.11873285713E+02  0.00000000000E+00 0.  1.
</event>
<event>
 7    1  0.7821043E-012  0.5930194E+02  0.7816164E-02  0.1266605E+00
        -11   -1    0    0    0    0  0.00000000000E+00  0.00000000000E+00  0.45593999997E+02  0.45594000000E+02  0.51100000000E-03 0.  1.
         11   -1    0    0    0    0 -0.00000000000E+00 -0.00000000000E+00 -0.45593999997E+02  0.45594000000E+02  0.51100000000E-03 0. -1.
    9900012    2    1    2    0    0  0.41263010515E+01 -0.19835329752E+02  0.24622232752E+02  0.59301937019E+02  0.49999987218E+02 0.  0.
         12    1    1    2    0    0 -0.41263010515E+01  0.19835329752E+02 -0.24622232752E+02  0.31886062981E+02  0.00000000000E+00 0. -1.
         11    1    3    3    0    0 -0.43460742527E+01 -0.40667559615E+00 -0.10246342508E+02  0.11137382166E+02  0.51100000000E-03 0. -1.
        -11    1    3    3    0    0  0.17470766801E+02 -0.14001720409E+02  0.20448614065E+02  0.30321967029E+02  0.51100000000E-03 0.  1.
        -12    1    3    3    0    0 -0.89983914970E+01 -0.54269337463E+01  0.14419961195E+02  0.17842587825E+02  0.00000000000E+00 0.  1.
</event>
<event>
 7    1  0.7821043E-012  0.5930198E+02  0.7816164E-02  0.1266605E+00
        -11   -1    0    0    0    0  0.00000000000E+00  0.00000000000E+00  0.45593999997E+02  0.45594000000E+02  0.51100000000E-03 0.  1.
         11   -1    0    0    0    0 -0.00000000000E+00 -0.00000000000E+00 -0.45593999997E+02  0.45594000000E+02  0.51100000000E-03 0. -1.
    9900012    2    1    2    0    0  0.19387951150E+02 -0.81592336010E+01  0.23963567684E+02  0.59301979256E+02  0.50000064248E+02 0.  0.
         12    1    1    2    0    0 -0.19387951150E+02  0.81592336010E+01 -0.23963567684E+02  0.31886020744E+02  0.00000000000E+00 0. -1.
         11    1    3    3    0    0 -0.65406871944E+01 -0.91319747165E+01  0.54746961962E+01  0.12495833302E+02  0.51100000000E-03 0. -1.
        -11    1    3    3    0    0  0.29458209397E+02  0.18900106222E+01  0.16369322641E+01  0.29564130100E+02  0.51100000000E-03 0.  1.
         12    1    3    3    0    0 -0.35295710528E+01 -0.91726950667E+00  0.16851939223E+02  0.17242015855E+02  0.00000000000E+00 0. -1.
</event>
<event>
 7    1  0.7821043E-012  0.5930198E+02  0.7816164E-02  0.1266605E+00
        -11   -1    0    0    0    0  0.00000000000E+00  0.00000000000E+00  0.45593999997E+02  0.45594000000E+02  0.51100000000E-03 0.  1.
         11   -1    0    0    0    0 -0.00000000000E+00 -0.00000000000E+00 -0.45593999997E+02  0.45594000000E+02  0.51100000000E-03 0. -1.
    9900012    2    1    2    0    0 -0.95529395018E+01 -0.62664418785E+01  0.29768961838E+02  0.59301983694E+02  0.50000072341E+02 0.  0.
         12    1    1    2    0    0  0.95529395018E+01  0.62664418785E+01 -0.29768961838E+02  0.31886016306E+02  0.00000000000E+00 0. -1.
         11    1    3    3    0    0  0.11858916507E+02  0.12983235567E+02  0.82171148279E+01  0.19409257658E+02  0.51100000000E-03 0.  1.
        -11    1    3    3    0    0 -0.17968319927E+02 -0.15763846480E+02  0.75637980461E+01  0.25071306667E+02  0.51100000000E-03 0. -1.
        -12    1    3    3    0    0 -0.34435360820E+01 -0.34858309651E+01  0.13988048964E+02  0.14821419369E+02  0.00000000000E+00 0.  1.
</event>
<event>
 7    1  0.7821043E-012  0.5930194E+02  0.7816164E-02  0.1266605E+00
        -11   -1    0    0    0    0  0.00000000000E+00  0.00000000000E+00  0.45593999997E+02  0.45594000000E+02  0.51100000000E-03 0. -1.
         11   -1    0    0    0    0 -0.00000000000E+00 -0.00000000000E+00 -0.45593999997E+02  0.45594000000E+02  0.51100000000E-03 0.  1.
    9900012    2    1    2    0    0  0.16443137856E+02 -0.12287358323E+02 -0.24400103210E+02  0.59301937312E+02  0.49999987752E+02 0.  0.
         12    1    1    2    0    0 -0.16443137856E+02  0.12287358323E+02  0.24400103210E+02  0.31886062688E+02  0.00000000000E+00 0. -1.
         11    1    3    3    0    0  0.13617621676E+02 -0.14034437050E+02  0.91491143874E+01  0.21589611802E+02  0.51100000000E-03 0. -1.
        -11    1    3    3    0    0  0.63720588258E+01 -0.28430080288E+01 -0.50107183373E+01  0.85902925939E+01  0.51100000000E-03 0.  1.
         12    1    3    3    0    0 -0.35465426451E+01  0.45900867563E+01 -0.28538499260E+02  0.29122032916E+02  0.00000000000E+00 0. -1.
</event>
<event>
 7    1  0.7821043E-012  0.5930194E+02  0.7816164E-02  0.1266605E+00
        -11   -1    0    0    0    0  0.00000000000E+00  0.00000000000E+00  0.45593999997E+02  0.45594000000E+02  0.51100000000E-03 0. -1.
         11   -1    0    0    0    0 -0.00000000000E+00 -0.00000000000E+00 -0.45593999997E+02  0.45594000000E+02  0.51100000000E-03 0.  1.
    9900012    2    1    2    0    0 -0.29320799982E+02  0.11171926088E+02  0.56744470411E+01  0.59301943591E+02  0.49999999203E+02 0.  0.
         12    1    1    2    0    0  0.29320799982E+02 -0.11171926088E+02 -0.56744470411E+01  0.31886056409E+02  0.00000000000E+00 0. -1.
         11    1    3    3    0    0  0.27343211166E+01 -0.91313406424E+01  0.45519745611E+00  0.95428035127E+01  0.51100000000E-03 0. -1.
        -11    1    3    3    0    0 -0.29581759456E+02  0.19789780590E+02 -0.78513548479E+01  0.36446669005E+02  0.51100000000E-03 0.  1.
        -12    1    3    3    0    0 -0.24733616422E+01  0.51348614084E+00  0.13070604433E+02  0.13312471073E+02  0.00000000000E+00 0.  1.
</event>
<event>
 7    1  0.7821043E-012  0.5930196E+02  0.7816164E-02  0.1266605E+00
        -11   -1    0    0    0    0  0.00000000000E+00  0.00000000000E+00  0.45593999997E+02  0.45594000000E+02  0.51100000000E-03 0. -1.
         11   -1    0    0    0    0 -0.00000000000E+00 -0.00000000000E+00 -0.45593999997E+02  0.45594000000E+02  0.51100000000E-03 0.  1.
    9900012    2    1    2    0    0 -0.26872682256E+02 -0.11520861424E+02  0.12721957368E+02  0.59301960753E+02  0.50000030504E+02 0.  0.
         12    1    1    2    0    0  0.26872682256E+02  0.11520861424E+02 -0.12721957368E+02  0.31886039247E+02  0.00000000000E+00 0. -1.
         11    1    3    3    0    0 -0.81411182529E+00 -0.15896308191E+02  0.19722182525E+02  0.25344030382E+02  0.51100000000E-03 0. -1.
        -11    1    3    3    0    0 -0.93904241606E+01  0.51242426857E+01 -0.12441445508E+02  0.16408153327E+02  0.51100000000E-03 0.  1.
         12    1    3    3    0    0 -0.16668146270E+02 -0.74879591832E+00  0.54412203513E+01  0.17549777044E+02  0.00000000000E+00 0. -1.
</event>
<event>
 7    1  0.7821043E-012  0.5930196E+02  0.7816164E-02  0.1266605E+00
        -11   -1    0    0    0    0  0.00000000000E+00  0.00000000000E+00  0.45593999997E+02  0.45594000000E+02  0.51100000000E-03 0. -1.
         11   -1    0    0    0    0 -0.00000000000E+00 -0.00000000000E+00 -0.45593999997E+02  0.45594000000E+02  0.51100000000E-03 0.  1.
    9900012    2    1    2    0    0 -0.19945417038E+02 -0.14048979747E+02 -0.20531092303E+02  0.59301964752E+02  0.50000037795E+02 0.  0.
         12    1    1    2    0    0  0.19945417038E+02  0.14048979747E+02  0.20531092303E+02  0.31886035248E+02  0.00000000000E+00 0. -1.
         11    1    3    3    0    0 -0.13646734005E+02 -0.19642401530E+02 -0.24616388598E+02  0.34322352407E+02  0.51100000000E-03 0.  1.
        -11    1    3    3    0    0 -0.12291017937E+02  0.10622911547E+02  0.20472606499E+00  0.16246762283E+02  0.51100000000E-03 0. -1.
        -12    1    3    3    0    0  0.59923349039E+01 -0.50294897640E+01  0.38805702302E+01  0.87328500616E+01  0.00000000000E+00 0.  1.
</event>
<event>
 7    1  0.8494912E-012  0.5930196E+02  0.7816164E-02  0.1266605E+00
        -11   -1    0    0    0    0  0.00000000000E+00  0.00000000000E+00  0.45593999997E+02  0.45594000000E+02  0.51100000000E-03 0. -1.
         11   -1    0    0    0    0 -0.00000000000E+00 -0.00000000000E+00 -0.45593999997E+02  0.45594000000E+02  0.51100000000E-03 0.  1.
    9900012    2    1    2    0    0 -0.24647038242E+02  0.49453232400E+01 -0.19615980673E+02  0.59301962087E+02  0.50000032936E+02 0.  0.
         12    1    1    2    0    0  0.24647038242E+02 -0.49453232400E+01  0.19615980673E+02  0.31886037913E+02  0.00000000000E+00 0. -1.
         11    1    3    3    0    0 -0.18259155646E+02 -0.13090346065E+02  0.14167888325E+01  0.22511357486E+02  0.51100000000E-03 0. -1.
        -11    1    3    3    0    0 -0.14079012039E+02  0.10765420848E+02 -0.19056344022E+02  0.26024164036E+02  0.51100000000E-03 0.  1.
         12    1    3    3    0    0  0.76911294433E+01  0.72702484570E+01 -0.19764254832E+01  0.10766440565E+02  0.00000000000E+00 0. -1.
</event>
<event>
 7    1  0.7821043E-012  0.5930195E+02  0.7816164E-02  0.1266605E+00
        -11   -1    0    0    0    0  0.00000000000E+00  0.00000000000E+00  0.45593999997E+02  0.45594000000E+02  0.51100000000E-03 0. -1.
         11   -1    0    0    0    0 -0.00000000000E+00 -0.00000000000E+00 -0.45593999997E+02  0.45594000000E+02  0.51100000000E-03 0.  1.
    9900012    2    1    2    0    0 -0.29809240109E+02 -0.10624907990E+02 -0.39039614419E+01  0.59301946927E+02  0.50000005287E+02 0.  0.
         12    1    1    2    0    0  0.29809240109E+02  0.10624907990E+02  0.39039614419E+01  0.31886053073E+02  0.00000000000E+00 0. -1.
         11    1    3    3    0    0  0.11457443894E+02 -0.57766879002E+01 -0.89142207128E+01  0.15623907157E+02  0.51100000000E-03 0. -1.
        -11    1    3    3    0    0 -0.29136960445E+02 -0.83404375146E+01  0.61877140682E+00  0.30313499307E+02  0.51100000000E-03 0.  1.
         12    1    3    3    0    0 -0.12129723558E+02  0.34922174248E+01  0.43914878641E+01  0.13364540463E+02  0.00000000000E+00 0. -1.
</event>
<event>
 7    1  0.7821043E-012  0.5930180E+02  0.7816164E-02  0.1266605E+00
        -11   -1    0    0    0    0  0.00000000000E+00  0.00000000000E+00  0.45593999997E+02  0.45594000000E+02  0.51100000000E-03 0.  1.
         11   -1    0    0    0    0 -0.00000000000E+00 -0.00000000000E+00 -0.45593999997E+02  0.45594000000E+02  0.51100000000E-03 0. -1.
    9900012    2    1    2    0    0 -0.11048389286E+02  0.20239995363E+02  0.22022842893E+02  0.59301797228E+02  0.49999732272E+02 0.  0.
         12    1    1    2    0    0  0.11048389286E+02 -0.20239995363E+02 -0.22022842893E+02  0.31886202772E+02  0.00000000000E+00 0. -1.
         11    1    3    3    0    0  0.88382330315E+01  0.45133885658E+01  0.94932909454E+01  0.13733448682E+02  0.51100000000E-03 0. -1.
        -11    1    3    3    0    0 -0.27878474819E+02  0.44147108767E+01  0.14237219924E+02  0.31613248201E+02  0.51100000000E-03 0.  1.
        -12    1    3    3    0    0  0.79918525017E+01  0.11311895921E+02 -0.17076679766E+01  0.13955100346E+02  0.00000000000E+00 0.  1.
</event>
<event>
 7    1  0.7821043E-012  0.5930191E+02  0.7816164E-02  0.1266605E+00
        -11   -1    0    0    0    0  0.00000000000E+00  0.00000000000E+00  0.45593999997E+02  0.45594000000E+02  0.51100000000E-03 0.  1.
         11   -1    0    0    0    0 -0.00000000000E+00 -0.00000000000E+00 -0.45593999997E+02  0.45594000000E+02  0.51100000000E-03 0. -1.
    9900012    2    1    2    0    0 -0.22579354215E+02  0.20369677027E+02 -0.95901755315E+01  0.59301914544E+02  0.49999946229E+02 0.  0.
         12    1    1    2    0    0  0.22579354215E+02 -0.20369677027E+02  0.95901755315E+01  0.31886085456E+02  0.00000000000E+00 0. -1.
         11    1    3    3    0    0  0.35477539112E+01 -0.82605357589E+01 -0.64788329834E+01  0.11081438802E+02  0.51100000000E-03 0. -1.
        -11    1    3    3    0    0 -0.31616174470E+02  0.21625619734E+02 -0.61946318435E+01  0.38802363085E+02  0.51100000000E-03 0.  1.
        -12    1    3    3    0    0  0.54890663438E+01  0.70045930519E+01  0.30832892953E+01  0.94181126574E+01  0.00000000000E+00 0.  1.
</event>
<event>
 7    1  0.7821043E-012  0.5930197E+02  0.7816164E-02  0.1266605E+00
        -11   -1    0    0    0    0  0.00000000000E+00  0.00000000000E+00  0.45593999997E+02  0.45594000000E+02  0.51100000000E-03 0. -1.
         11   -1    0    0    0    0 -0.00000000000E+00 -0.00000000000E+00 -0.45593999997E+02  0.45594000000E+02  0.51100000000E-03 0.  1.
    9900012    2    1    2    0    0  0.64424928123E+01 -0.29242718090E+02  0.10957959819E+02  0.59301966093E+02  0.50000040242E+02 0.  0.
         12    1    1    2    0    0 -0.64424928123E+01  0.29242718090E+02 -0.10957959819E+02  0.31886033907E+02  0.00000000000E+00 0. -1.
         11    1    3    3    0    0 -0.78563368782E+01 -0.18652912138E+02  0.17660265618E+02  0.26861462029E+02  0.51100000000E-03 0. -1.
        -11    1    3    3    0    0  0.19848519968E+02 -0.81659539833E+00 -0.11337509054E+01  0.19897637155E+02  0.51100000000E-03 0.  1.
         12    1    3    3    0    0 -0.55496902776E+01 -0.97732105532E+01 -0.55685548940E+01  0.12542866909E+02  0.00000000000E+00 0. -1.
</event>
<event>
 7    1  0.7821043E-012  0.5930194E+02  0.7816164E-02  0.1266605E+00
        -11   -1    0    0    0    0  0.00000000000E+00  0.00000000000E+00  0.45593999997E+02  0.45594000000E+02  0.51100000000E-03 0. -1.
         11   -1    0    0    0    0 -0.00000000000E+00 -0.00000000000E+00 -0.45593999997E+02  0.45594000000E+02  0.51100000000E-03 0.  1.
    9900012    2    1    2    0    0  0.23574044579E+02 -0.21207473968E+02 -0.33508765674E+01  0.59301938724E+02  0.49999990328E+02 0.  0.
         12    1    1    2    0    0 -0.23574044579E+02  0.21207473968E+02  0.33508765674E+01  0.31886061276E+02  0.00000000000E+00 0. -1.
         11    1    3    3    0    0  0.25765266940E+01 -0.96606174429E+01  0.54086448675E+01  0.11367473719E+02  0.51100000000E-03 0. -1.
        -11    1    3    3    0    0  0.23422225651E+02  0.48343721049E+01 -0.17092812567E+02  0.29396191077E+02  0.51100000000E-03 0.  1.
        -12    1    3    3    0    0 -0.24247077659E+01 -0.16381228630E+02  0.83332911321E+01  0.18538273929E+02  0.00000000000E+00 0.  1.
</event>
<event>
 7    1  0.7821043E-012  0.5930194E+02  0.7816164E-02  0.1266605E+00
        -11   -1    0    0    0    0  0.00000000000E+00  0.00000000000E+00  0.45593999997E+02  0.45594000000E+02  0.51100000000E-03 0.  1.
         11   -1    0    0    0    0 -0.00000000000E+00 -0.00000000000E+00 -0.45593999997E+02  0.45594000000E+02  0.51100000000E-03 0. -1.
    9900012    2    1    2    0    0  0.18872867565E+01  0.29361541821E+02  0.12290609017E+02  0.59301936282E+02  0.49999985873E+02 0.  0.
         12    1    1    2    0    0 -0.18872867565E+01 -0.29361541821E+02 -0.12290609017E+02  0.31886063718E+02  0.00000000000E+00 0. -1.
         11    1    3    3    0    0 -0.10367256695E+02  0.83766942841E+01  0.35886209290E+01  0.13803159745E+02  0.51100000000E-03 0. -1.
        -11    1    3    3    0    0  0.19076931286E+02  0.11744308687E+02  0.19525071806E+02  0.29716771748E+02  0.51100000000E-03 0.  1.
         12    1    3    3    0    0 -0.68223878345E+01  0.92405388497E+01 -0.10823083718E+02  0.15782004789E+02  0.00000000000E+00 0. -1.
</event>
<event>
 7    1  0.7821043E-012  0.5930196E+02  0.7816164E-02  0.1266605E+00
        -11   -1    0    0    0    0  0.00000000000E+00  0.00000000000E+00  0.45593999997E+02  0.45594000000E+02  0.51100000000E-03 0.  1.
         11   -1    0    0    0    0 -0.00000000000E+00 -0.00000000000E+00 -0.45593999997E+02  0.45594000000E+02  0.51100000000E-03 0. -1.
    9900012    2    1    2    0    0  0.18185550704E+02 -0.23298635423E+02  0.11965741794E+02  0.59301958482E+02  0.50000026361E+02 0.  0.
         12    1    1    2    0    0 -0.18185550704E+02  0.23298635423E+02 -0.11965741794E+02  0.31886041518E+02  0.00000000000E+00 0. -1.
         11    1    3    3    0    0  0.22770201907E+02 -0.15169156634E+01 -0.12121809373E+02  0.25840305546E+02  0.51100000000E-03 0. -1.
        -11    1    3    3    0    0 -0.98187171244E+00 -0.12746164113E+02  0.17664143757E+02  0.21804833101E+02  0.51100000000E-03 0.  1.
         12    1    3    3    0    0 -0.36027794901E+01 -0.90355556469E+01  0.64234074101E+01  0.11656819835E+02  0.00000000000E+00 0. -1.
</event>
<event>
 7    1  0.7821043E-012  0.5930194E+02  0.7816164E-02  0.1266605E+00
        -11   -1    0    0    0    0  0.00000000000E+00  0.00000000000E+00  0.45593999997E+02  0.45594000000E+02  0.51100000000E-03 0.  1.
         11   -1    0    0    0    0 -0.00000000000E+00 -0.00000000000E+00 -0.45593999997E+02  0.45594000000E+02  0.51100000000E-03 0. -1.
    9900012    2    1    2    0    0 -0.49315357266E+01 -0.13369196583E+02  0.28524821710E+02  0.59301938539E+02  0.49999989991E+02 0.  0.
         12    1    1    2    0    0  0.49315357266E+01  0.13369196583E+02 -0.28524821710E+02  0.31886061461E+02  0.00000000000E+00 0. -1.
         11    1    3    3    0    0  0.70907567844E+01  0.81984246575E+01  0.30109986989E+02  0.32001629886E+02  0.51100000000E-03 0. -1.
        -11    1    3    3    0    0  0.21254645831E+00 -0.10847038488E+02  0.70830345307E+00  0.10872217529E+02  0.51100000000E-03 0.  1.
         12    1    3    3    0    0 -0.12234838969E+02 -0.10720582753E+02 -0.22934687324E+01  0.16428091124E+02  0.00000000000E+00 0. -1.
</event>
<event>
 7    1  0.7821043E-012  0.5930193E+02  0.7816164E-02  0.1266605E+00
        -11   -1    0    0    0    0  0.00000000000E+00  0.00000000000E+00  0.45593999997E+02  0.45594000000E+02  0.51100000000E-03 0. -1.
         11   -1    0    0    0    0 -0.00000000000E+00 -0.00000000000E+00 -0.45593999997E+02  0.45594000000E+02  0.51100000000E-03 0.  1.
    9900012    2    1    2    0    0  0.26758903045E+02 -0.48131064447E+01 -0.16658829238E+02  0.59301929728E+02  0.49999973920E+02 0.  0.
         12    1    1    2    0    0 -0.26758903045E+02  0.48131064447E+01  0.16658829238E+02  0.31886070272E+02  0.00000000000E+00 0. -1.
         11    1    3    3    0    0  0.12812635426E+02  0.74496200109E+01  0.63148578169E+01  0.16110179837E+02  0.51100000000E-03 0. -1.
        -11    1    3    3    0    0  0.11754586788E+02 -0.22308106297E+02 -0.11288110693E+02  0.27626859402E+02  0.51100000000E-03 0.  1.
         12    1    3    3    0    0  0.21916808309E+01  0.10045379841E+02 -0.11685576362E+02  0.15564890489E+02  0.00000000000E+00 0. -1.
</event>
<event>
 7    1  0.7821043E-012  0.5930192E+02  0.7816164E-02  0.1266605E+00
        -11   -1    0    0    0    0  0.00000000000E+00  0.00000000000E+00  0.45593999997E+02  0.45594000000E+02  0.51100000000E-03 0.  1.
         11   -1    0    0    0    0 -0.00000000000E+00 -0.00000000000E+00 -0.45593999997E+02  0.45594000000E+02  0.51100000000E-03 0. -1.
    9900012    2    1    2    0    0  0.12303898857E+02 -0.12886759494E+02  0.26443670460E+02  0.59301918323E+02  0.49999953120E+02 0.  0.
         12    1    1    2    0    0 -0.12303898857E+02  0.12886759494E+02 -0.26443670460E+02  0.31886081677E+02  0.00000000000E+00 0. -1.
         11    1    3    3    0    0 -0.15574765804E+02  0.23269435019E+01  0.37570071683E+01  0.16189598482E+02  0.51100000000E-03 0.  1.
        -11    1    3    3    0    0  0.18568704353E+02 -0.69856208116E-01  0.87677503077E+01  0.20534729288E+02  0.51100000000E-03 0. -1.
         12    1    3    3    0    0  0.93099603077E+01 -0.15143846788E+02  0.13918912984E+02  0.22577590552E+02  0.00000000000E+00 0. -1.
</event>
<event>
 7    1  0.7821043E-012  0.5930195E+02  0.7816164E-02  0.1266605E+00
        -11   -1    0    0    0    0  0.00000000000E+00  0.00000000000E+00  0.45593999997E+02  0.45594000000E+02  0.51100000000E-03 0. -1.
         11   -1    0    0    0    0 -0.00000000000E+00 -0.00000000000E+00 -0.45593999997E+02  0.45594000000E+02  0.51100000000E-03 0.  1.
    9900012    2    1    2    0    0 -0.27522650644E+02  0.16821718124E+01 -0.16012317104E+02  0.59301948199E+02  0.50000007607E+02 0.  0.
         12    1    1    2    0    0  0.27522650644E+02 -0.16821718124E+01  0.16012317104E+02  0.31886051801E+02  0.00000000000E+00 0. -1.
         11    1    3    3    0    0 -0.68623039488E+01 -0.64043758287E+01  0.97802379311E+01  0.13555821609E+02  0.51100000000E-03 0. -1.
        -11    1    3    3    0    0 -0.24962743352E+02  0.13626911681E+02 -0.13249544485E+02  0.31374857879E+02  0.51100000000E-03 0.  1.
        -12    1    3    3    0    0  0.43023966575E+01 -0.55403640399E+01 -0.12543010550E+02  0.14371268711E+02  0.00000000000E+00 0.  1.
</event>
<event>
 7    1  0.7821043E-012  0.5930198E+02  0.7816164E-02  0.1266605E+00
        -11   -1    0    0    0    0  0.00000000000E+00  0.00000000000E+00  0.45593999997E+02  0.45594000000E+02  0.51100000000E-03 0.  1.
         11   -1    0    0    0    0 -0.00000000000E+00 -0.00000000000E+00 -0.45593999997E+02  0.45594000000E+02  0.51100000000E-03 0. -1.
    9900012    2    1    2    0    0 -0.18646557566E+02 -0.10078512119E+02  0.23821167911E+02  0.59301975534E+02  0.50000057460E+02 0.  0.
         12    1    1    2    0    0  0.18646557566E+02  0.10078512119E+02 -0.23821167911E+02  0.31886024466E+02  0.00000000000E+00 0. -1.
         11    1    3    3    0    0 -0.20828949813E+02  0.13457500637E+00  0.21755639958E+02  0.30119281715E+02  0.51100000000E-03 0. -1.
        -11    1    3    3    0    0  0.71929289162E+01 -0.12360784333E+02  0.11456409966E+02  0.18324206539E+02  0.51100000000E-03 0.  1.
         12    1    3    3    0    0 -0.50105366690E+01  0.21476972074E+01 -0.93908820140E+01  0.10858487280E+02  0.00000000000E+00 0. -1.
</event>
<event>
 7    1  0.7821043E-012  0.5930195E+02  0.7816164E-02  0.1266605E+00
        -11   -1    0    0    0    0  0.00000000000E+00  0.00000000000E+00  0.45593999997E+02  0.45594000000E+02  0.51100000000E-03 0.  1.
         11   -1    0    0    0    0 -0.00000000000E+00 -0.00000000000E+00 -0.45593999997E+02  0.45594000000E+02  0.51100000000E-03 0. -1.
    9900012    2    1    2    0    0  0.19740588799E+02  0.85791867109E+01  0.23525032563E+02  0.59301945872E+02  0.50000003364E+02 0.  0.
         12    1    1    2    0    0 -0.19740588799E+02 -0.85791867109E+01 -0.23525032563E+02  0.31886054128E+02  0.00000000000E+00 0. -1.
         11    1    3    3    0    0 -0.10525156095E+02 -0.48218766110E+01  0.24439129125E+01  0.11832248961E+02  0.51100000000E-03 0. -1.
        -11    1    3    3    0    0  0.29014139754E+02 -0.51942470874E-01  0.13993748417E+02  0.32212544121E+02  0.51100000000E-03 0.  1.
         12    1    3    3    0    0  0.12516051401E+01  0.13453005793E+02  0.70873712335E+01  0.15257152791E+02  0.00000000000E+00 0. -1.
</event>
<event>
 7    1  0.7821043E-012  0.5930195E+02  0.7816164E-02  0.1266605E+00
        -11   -1    0    0    0    0  0.00000000000E+00  0.00000000000E+00  0.45593999997E+02  0.45594000000E+02  0.51100000000E-03 0.  1.
         11   -1    0    0    0    0 -0.00000000000E+00 -0.00000000000E+00 -0.45593999997E+02  0.45594000000E+02  0.51100000000E-03 0. -1.
    9900012    2    1    2    0    0 -0.16577094064E+02  0.26903079400E+02 -0.42595972607E+01  0.59301954500E+02  0.50000019099E+02 0.  0.
         12    1    1    2    0    0  0.16577094064E+02 -0.26903079400E+02  0.42595972607E+01  0.31886045500E+02  0.00000000000E+00 0. -1.
         11    1    3    3    0    0  0.56310291046E+01 -0.30890895633E+01 -0.41873789952E+01  0.76671445935E+01  0.51100000000E-03 0. -1.
        -11    1    3    3    0    0 -0.28754800338E+02  0.98025141043E+01  0.83054922993E+00  0.30391078256E+02  0.51100000000E-03 0.  1.
        -12    1    3    3    0    0  0.65466771698E+01  0.20189654859E+02 -0.90276749540E+00  0.21243731651E+02  0.00000000000E+00 0.  1.
</event>
<event>
 7    1  0.7821043E-012  0.5930194E+02  0.7816164E-02  0.1266605E+00
        -11   -1    0    0    0    0  0.00000000000E+00  0.00000000000E+00  0.45593999997E+02  0.45594000000E+02  0.51100000000E-03 0. -1.
         11   -1    0    0    0    0 -0.00000000000E+00 -0.00000000000E+00 -0.45593999997E+02  0.45594000000E+02  0.51100000000E-03 0.  1.
    9900012    2    1    2    0    0 -0.66765366564E+01  0.16296343866E+02 -0.26581457490E+02  0.59301939606E+02  0.49999991936E+02 0.  0.
         12    1    1    2    0    0  0.66765366564E+01 -0.16296343866E+02  0.26581457490E+02  0.31886060394E+02  0.00000000000E+00 0. -1.
         11    1    3    3    0    0 -0.91101562252E+01 -0.82873861982E+01  0.33761119364E+00  0.12320296183E+02  0.51100000000E-03 0. -1.
        -11    1    3    3    0    0  0.14866815701E+02  0.20652899818E+02 -0.18474096980E+02  0.31446092595E+02  0.51100000000E-03 0.  1.
        -12    1    3    3    0    0 -0.12433196132E+02  0.39308302458E+01 -0.84449717040E+01  0.15535550829E+02  0.00000000000E+00 0.  1.
</event>
<event>
 7    1  0.7821043E-012  0.5930193E+02  0.7816164E-02  0.1266605E+00
        -11   -1    0    0    0    0  0.00000000000E+00  0.00000000000E+00  0.45593999997E+02  0.45594000000E+02  0.51100000000E-03 0.  1.
         11   -1    0    0    0    0 -0.00000000000E+00 -0.00000000000E+00 -0.45593999997E+02  0.45594000000E+02  0.51100000000E-03 0. -1.
    9900012    2    1    2    0    0  0.22516707874E+02 -0.22564539162E+02  0.74894777025E+00  0.59301929627E+02  0.49999973736E+02 0.  0.
         12    1    1    2    0    0 -0.22516707874E+02  0.22564539162E+02 -0.74894777025E+00  0.31886070373E+02  0.00000000000E+00 0. -1.
         11    1    3    3    0    0 -0.42558901677E+01 -0.20558965188E+02  0.39838779204E+01  0.21369486055E+02  0.51100000000E-03 0. -1.
        -11    1    3    3    0    0  0.78407483272E+01 -0.17724830320E+01  0.11437187545E+02  0.13979566861E+02  0.51100000000E-03 0.  1.
         12    1    3    3    0    0  0.18931849715E+02 -0.23309094207E+00 -0.14672117695E+02  0.23952876710E+02  0.00000000000E+00 0. -1.
</event>
<event>
 7    1  0.7821043E-012  0.5930187E+02  0.7816164E-02  0.1266605E+00
        -11   -1    0    0    0    0  0.00000000000E+00  0.00000000000E+00  0.45593999997E+02  0.45594000000E+02  0.51100000000E-03 0.  1.
         11   -1    0    0    0    0 -0.00000000000E+00 -0.00000000000E+00 -0.45593999997E+02  0.45594000000E+02  0.51100000000E-03 0. -1.
    9900012    2    1    2    0    0  0.12493643920E+02  0.24681496180E+02  0.15857420384E+02  0.59301871773E+02  0.49999868224E+02 0.  0.
         12    1    1    2    0    0 -0.12493643920E+02 -0.24681496180E+02 -0.15857420384E+02  0.31886128227E+02  0.00000000000E+00 0. -1.
         11    1    3    3    0    0  0.11974692434E+02 -0.74552764204E+01  0.22142958259E+02  0.26254237869E+02  0.51100000000E-03 0. -1.
        -11    1    3    3    0    0  0.18320417839E+01  0.27888809332E+02 -0.60429453170E+01  0.28594741675E+02  0.51100000000E-03 0.  1.
         12    1    3    3    0    0 -0.13130902971E+01  0.42479632679E+01 -0.24259255775E+00  0.44528922289E+01  0.00000000000E+00 0. -1.
</event>
<event>
 7    1  0.7821043E-012  0.5930193E+02  0.7816164E-02  0.1266605E+00
        -11   -1    0    0    0    0  0.00000000000E+00  0.00000000000E+00  0.45593999997E+02  0.45594000000E+02  0.51100000000E-03 0. -1.
         11   -1    0    0    0    0 -0.00000000000E+00 -0.00000000000E+00 -0.45593999997E+02  0.45594000000E+02  0.51100000000E-03 0.  1.
    9900012    2    1    2    0    0 -0.54641581778E+01  0.23242998017E+02 -0.21133565132E+02  0.59301928486E+02  0.49999971657E+02 0.  0.
         12    1    1    2    0    0  0.54641581778E+01 -0.23242998017E+02  0.21133565132E+02  0.31886071514E+02  0.00000000000E+00 0. -1.
         11    1    3    3    0    0  0.15424507443E+02  0.20957695385E+02 -0.18404338602E+02  0.31872560382E+02  0.51100000000E-03 0. -1.
        -11    1    3    3    0    0 -0.39357056731E+01  0.79078535381E+01  0.17737995370E+01  0.90094556875E+01  0.51100000000E-03 0.  1.
         12    1    3    3    0    0 -0.16952959947E+02 -0.56225509065E+01 -0.45030260668E+01  0.18419912417E+02  0.00000000000E+00 0. -1.
</event>
<event>
 7    1  0.7821043E-012  0.5930184E+02  0.7816164E-02  0.1266605E+00
        -11   -1    0    0    0    0  0.00000000000E+00  0.00000000000E+00  0.45593999997E+02  0.45594000000E+02  0.51100000000E-03 0.  1.
         11   -1    0    0    0    0 -0.00000000000E+00 -0.00000000000E+00 -0.45593999997E+02  0.45594000000E+02  0.51100000000E-03 0. -1.
    9900012    2    1    2    0    0 -0.14917613829E+01 -0.31826031493E+02  0.12671306135E+01  0.59301839168E+02  0.49999808761E+02 0.  0.
         12    1    1    2    0    0  0.14917613829E+01  0.31826031493E+02 -0.12671306135E+01  0.31886160832E+02  0.00000000000E+00 0. -1.
         11    1    3    3    0    0 -0.19797776136E+02 -0.13661542380E+02 -0.13044976064E+02  0.27363499062E+02  0.51100000000E-03 0. -1.
        -11    1    3    3    0    0  0.15649194115E+02 -0.13692377481E+02  0.51809068981E+01  0.21429425426E+02  0.51100000000E-03 0.  1.
         12    1    3    3    0    0  0.26568206374E+01 -0.44721116313E+01  0.91311997797E+01  0.10508914680E+02  0.00000000000E+00 0. -1.
</event>
<event>
 7    1  0.7821043E-012  0.5930201E+02  0.7816164E-02  0.1266605E+00
        -11   -1    0    0    0    0  0.00000000000E+00  0.00000000000E+00  0.45593999997E+02  0.45594000000E+02  0.51100000000E-03 0. -1.
         11   -1    0    0    0    0 -0.00000000000E+00 -0.00000000000E+00 -0.45593999997E+02  0.45594000000E+02  0.51100000000E-03 0.  1.
    9900012    2    1    2    0    0 -0.20866434125E+02 -0.18030306301E+02 -0.16006758959E+02  0.59302010117E+02  0.50000120532E+02 0.  0.
         12    1    1    2    0    0  0.20866434125E+02  0.18030306301E+02  0.16006758959E+02  0.31885989883E+02  0.00000000000E+00 0. -1.
         11    1    3    3    0    0  0.11603022702E+02 -0.12780555947E+02  0.54912022964E+01  0.18114249889E+02  0.51100000000E-03 0. -1.
        -11    1    3    3    0    0 -0.18968044150E+02  0.16767682049E-01 -0.18279430665E+02  0.26342447983E+02  0.51100000000E-03 0.  1.
        -12    1    3    3    0    0 -0.13501412676E+02 -0.52665180362E+01 -0.32185305898E+01  0.14845312245E+02  0.00000000000E+00 0.  1.
</event>
<event>
 7    1  0.7821043E-012  0.5930194E+02  0.7816164E-02  0.1266605E+00
        -11   -1    0    0    0    0  0.00000000000E+00  0.00000000000E+00  0.45593999997E+02  0.45594000000E+02  0.51100000000E-03 0. -1.
         11   -1    0    0    0    0 -0.00000000000E+00 -0.00000000000E+00 -0.45593999997E+02  0.45594000000E+02  0.51100000000E-03 0.  1.
    9900012    2    1    2    0    0  0.68003556651E+01  0.64271049883E+01 -0.30482259872E+02  0.59301942191E+02  0.49999996651E+02 0.  0.
         12    1    1    2    0    0 -0.68003556651E+01 -0.64271049883E+01  0.30482259872E+02  0.31886057809E+02  0.00000000000E+00 0. -1.
         11    1    3    3    0    0 -0.80809471031E+00  0.10064416245E+02  0.24857259242E+01  0.10398284716E+02  0.51100000000E-03 0. -1.
        -11    1    3    3    0    0  0.20435337090E+02 -0.42385436235E+00 -0.28239300750E+02  0.34860303522E+02  0.51100000000E-03 0.  1.
        -12    1    3    3    0    0 -0.12826886715E+02 -0.32134568939E+01 -0.47286850454E+01  0.14043353953E+02  0.00000000000E+00 0.  1.
</event>
<event>
 7    1  0.7821043E-012  0.5930197E+02  0.7816164E-02  0.1266605E+00
        -11   -1    0    0    0    0  0.00000000000E+00  0.00000000000E+00  0.45593999997E+02  0.45594000000E+02  0.51100000000E-03 0. -1.
         11   -1    0    0    0    0 -0.00000000000E+00 -0.00000000000E+00 -0.45593999997E+02  0.45594000000E+02  0.51100000000E-03 0.  1.
    9900012    2    1    2    0    0 -0.18059435196E+02  0.20698181760E+02  0.16191387932E+02  0.59301969031E+02  0.50000045600E+02 0.  0.
         12    1    1    2    0    0  0.18059435196E+02 -0.20698181760E+02 -0.16191387932E+02  0.31886030969E+02  0.00000000000E+00 0. -1.
         11    1    3    3    0    0 -0.10609327759E+02  0.22713039531E+02  0.18651531755E+02  0.31246113955E+02  0.51100000000E-03 0.  1.
        -11    1    3    3    0    0  0.13938595088E+01 -0.10989388169E+02  0.62683168616E+01  0.12727972863E+02  0.51100000000E-03 0. -1.
        -12    1    3    3    0    0 -0.88439669466E+01  0.89745303986E+01 -0.87284606839E+01  0.15327882213E+02  0.00000000000E+00 0.  1.
</event>
<event>
 7    1  0.7821043E-012  0.5930200E+02  0.7816164E-02  0.1266605E+00
        -11   -1    0    0    0    0  0.00000000000E+00  0.00000000000E+00  0.45593999997E+02  0.45594000000E+02  0.51100000000E-03 0.  1.
         11   -1    0    0    0    0 -0.00000000000E+00 -0.00000000000E+00 -0.45593999997E+02  0.45594000000E+02  0.51100000000E-03 0. -1.
    9900012    2    1    2    0    0 -0.12325675262E+02  0.96957576718E+01  0.27763054162E+02  0.59301997367E+02  0.50000097279E+02 0.  0.
         12    1    1    2    0    0  0.12325675262E+02 -0.96957576718E+01 -0.27763054162E+02  0.31886002633E+02  0.00000000000E+00 0. -1.
         11    1    3    3    0    0 -0.13391717601E+02  0.12536143068E+02  0.38908201117E+02  0.43015591334E+02  0.51100000000E-03 0. -1.
        -11    1    3    3    0    0  0.42723167636E+01 -0.12045660055E+01  0.14003846683E+00  0.44410900490E+01  0.51100000000E-03 0.  1.
         12    1    3    3    0    0 -0.32062744242E+01 -0.16358193905E+01 -0.11285185422E+02  0.11845315985E+02  0.00000000000E+00 0. -1.
</event>
<event>
 7    1  0.7821043E-012  0.5930192E+02  0.7816164E-02  0.1266605E+00
        -11   -1    0    0    0    0  0.00000000000E+00  0.00000000000E+00  0.45593999997E+02  0.45594000000E+02  0.51100000000E-03 0. -1.
         11   -1    0    0    0    0 -0.00000000000E+00 -0.00000000000E+00 -0.45593999997E+02  0.45594000000E+02  0.51100000000E-03 0.  1.
    9900012    2    1    2    0    0 -0.67065174490E+01 -0.19357862651E+02 -0.24433949782E+02  0.59301919578E+02  0.49999955410E+02 0.  0.
         12    1    1    2    0    0  0.67065174490E+01  0.19357862651E+02  0.24433949782E+02  0.31886080422E+02  0.00000000000E+00 0. -1.
         11    1    3    3    0    0  0.15450032119E+02 -0.11373797620E+02  0.22268496291E+01  0.19313871293E+02  0.51100000000E-03 0. -1.
        -11    1    3    3    0    0 -0.23590010346E+02 -0.71364137359E+01 -0.16424676505E+02  0.29617342684E+02  0.51100000000E-03 0.  1.
         12    1    3    3    0    0  0.14334607773E+01 -0.84765129573E+00 -0.10236122907E+02  0.10370705602E+02  0.00000000000E+00 0. -1.
</event>
<event>
 7    1  0.7821043E-012  0.5930195E+02  0.7816164E-02  0.1266605E+00
        -11   -1    0    0    0    0  0.00000000000E+00  0.00000000000E+00  0.45593999997E+02  0.45594000000E+02  0.51100000000E-03 0.  1.
         11   -1    0    0    0    0 -0.00000000000E+00 -0.00000000000E+00 -0.45593999997E+02  0.45594000000E+02  0.51100000000E-03 0. -1.
    9900012    2    1    2    0    0  0.26485599474E+02  0.10919414632E+02 -0.13999994756E+02  0.59301945861E+02  0.50000003343E+02 0.  0.
         12    1    1    2    0    0 -0.26485599474E+02 -0.10919414632E+02  0.13999994756E+02  0.31886054139E+02  0.00000000000E+00 0. -1.
         11    1    3    3    0    0  0.25752167461E+02  0.50036507301E+01  0.13609388437E+02  0.29553783235E+02  0.51100000000E-03 0. -1.
        -11    1    3    3    0    0  0.12391558684E+01  0.41150232438E+01 -0.34353228780E+01  0.55018512431E+01  0.51100000000E-03 0.  1.
         12    1    3    3    0    0 -0.50572385585E+00  0.18007406577E+01 -0.24174060316E+02  0.24246311383E+02  0.00000000000E+00 0. -1.
</event>
<event>
 7    1  0.7821043E-012  0.5930195E+02  0.7816164E-02  0.1266605E+00
        -11   -1    0    0    0    0  0.00000000000E+00  0.00000000000E+00  0.45593999997E+02  0.45594000000E+02  0.51100000000E-03 0.  1.
         11   -1    0    0    0    0 -0.00000000000E+00 -0.00000000000E+00 -0.45593999997E+02  0.45594000000E+02  0.51100000000E-03 0. -1.
    9900012    2    1    2    0    0 -0.28450891315E+02 -0.14328279605E+02 -0.14026000896E+01  0.59301951326E+02  0.50000013310E+02 0.  0.
         12    1    1    2    0    0  0.28450891315E+02  0.14328279605E+02  0.14026000896E+01  0.31886048674E+02  0.00000000000E+00 0. -1.
         11    1    3    3    0    0 -0.35861377939E+01  0.13106817595E+02  0.97649750974E+01  0.16733313798E+02  0.51100000000E-03 0. -1.
        -11    1    3    3    0    0 -0.11213693370E+02 -0.17919439074E+02  0.21601510207E+01  0.21248987468E+02  0.51100000000E-03 0.  1.
         12    1    3    3    0    0 -0.13651060150E+02 -0.95156581260E+01 -0.13327726208E+02  0.21319650060E+02  0.00000000000E+00 0. -1.
</event>
<event>
 7    1  0.7821043E-012  0.5930197E+02  0.7816164E-02  0.1266605E+00
        -11   -1    0    0    0    0  0.00000000000E+00  0.00000000000E+00  0.45593999997E+02  0.45594000000E+02  0.51100000000E-03 0. -1.
         11   -1    0    0    0    0 -0.00000000000E+00 -0.00000000000E+00 -0.45593999997E+02  0.45594000000E+02  0.51100000000E-03 0.  1.
    9900012    2    1    2    0    0  0.15988473636E+01  0.23608573751E+02 -0.21372827836E+02  0.59301971129E+02  0.50000049426E+02 0.  0.
         12    1    1    2    0    0 -0.15988473636E+01 -0.23608573751E+02  0.21372827836E+02  0.31886028871E+02  0.00000000000E+00 0. -1.
         11    1    3    3    0    0  0.87172307104E+01 -0.13397738215E+02 -0.99877767447E+01  0.18847949095E+02  0.51100000000E-03 0. -1.
        -11    1    3    3    0    0  0.43849927555E-01  0.20534359614E+02 -0.34692658381E+01  0.20825408839E+02  0.51100000000E-03 0.  1.
         12    1    3    3    0    0 -0.71622332744E+01  0.16471952352E+02 -0.79157852532E+01  0.19628613195E+02  0.00000000000E+00 0. -1.
</event>
<event>
 7    1  0.7821043E-012  0.5930190E+02  0.7816164E-02  0.1266605E+00
        -11   -1    0    0    0    0  0.00000000000E+00  0.00000000000E+00  0.45593999997E+02  0.45594000000E+02  0.51100000000E-03 0.  1.
         11   -1    0    0    0    0 -0.00000000000E+00 -0.00000000000E+00 -0.45593999997E+02  0.45594000000E+02  0.51100000000E-03 0. -1.
    9900012    2    1    2    0    0  0.26071648846E+02  0.15635716656E+02  0.96185645335E+01  0.59301901264E+02  0.49999922009E+02 0.  0.
         12    1    1    2    0    0 -0.26071648846E+02 -0.15635716656E+02 -0.96185645335E+01  0.31886098736E+02  0.00000000000E+00 0. -1.
         11    1    3    3    0    0 -0.29618023663E+01  0.16748128461E+02 -0.37214829978E+01  0.17410385297E+02  0.51100000000E-03 0. -1.
        -11    1    3    3    0    0  0.14030337878E+02  0.84307238988E+01  0.17149246983E+02  0.23707048715E+02  0.51100000000E-03 0.  1.
        -12    1    3    3    0    0  0.15003113334E+02 -0.95431357041E+01 -0.38091994518E+01  0.18184467252E+02  0.00000000000E+00 0.  1.
</event>
<event>
 7    1  0.7821043E-012  0.5930201E+02  0.7816164E-02  0.1266605E+00
        -11   -1    0    0    0    0  0.00000000000E+00  0.00000000000E+00  0.45593999997E+02  0.45594000000E+02  0.51100000000E-03 0.  1.
         11   -1    0    0    0    0 -0.00000000000E+00 -0.00000000000E+00 -0.45593999997E+02  0.45594000000E+02  0.51100000000E-03 0. -1.
    9900012    2    1    2    0    0  0.20288643277E+02 -0.20423997647E+02 -0.13709403860E+02  0.59302008090E+02  0.50000116833E+02 0.  0.
         12    1    1    2    0    0 -0.20288643277E+02  0.20423997647E+02  0.13709403860E+02  0.31885991910E+02  0.00000000000E+00 0. -1.
         11    1    3    3    0    0  0.44563290886E+01  0.97223887876E+01 -0.34365329356E+01  0.11233586763E+02  0.51100000000E-03 0. -1.
        -11    1    3    3    0    0  0.18519472517E+02 -0.22580725280E+02 -0.20044923985E+02  0.35421165909E+02  0.51100000000E-03 0.  1.
        -12    1    3    3    0    0 -0.26871583285E+01 -0.75656611540E+01  0.97720530606E+01  0.12647255418E+02  0.00000000000E+00 0.  1.
</event>
<event>
 7    1  0.7821043E-012  0.5930192E+02  0.7816164E-02  0.1266605E+00
        -11   -1    0    0    0    0  0.00000000000E+00  0.00000000000E+00  0.45593999997E+02  0.45594000000E+02  0.51100000000E-03 0.  1.
         11   -1    0    0    0    0 -0.00000000000E+00 -0.00000000000E+00 -0.45593999997E+02  0.45594000000E+02  0.51100000000E-03 0. -1.
    9900012    2    1    2    0    0  0.13578830948E+02  0.26584553400E+02  0.11207086541E+02  0.59301922817E+02  0.49999961316E+02 0.  0.
         12    1    1    2    0    0 -0.13578830948E+02 -0.26584553400E+02 -0.11207086541E+02  0.31886077183E+02  0.00000000000E+00 0. -1.
         11    1    3    3    0    0 -0.88617070360E+01  0.28502762338E+02  0.16095016891E+01  0.29891935509E+02  0.51100000000E-03 0. -1.
        -11    1    3    3    0    0  0.13394321997E+02 -0.36638063165E+01  0.13534410584E+02  0.19391018761E+02  0.51100000000E-03 0.  1.
        -12    1    3    3    0    0  0.90462159874E+01  0.17455973785E+01 -0.39368257325E+01  0.10018968547E+02  0.00000000000E+00 0.  1.
</event>
<event>
 7    1  0.7821043E-012  0.5930192E+02  0.7816164E-02  0.1266605E+00
        -11   -1    0    0    0    0  0.00000000000E+00  0.00000000000E+00  0.45593999997E+02  0.45594000000E+02  0.51100000000E-03 0.  1.
         11   -1    0    0    0    0 -0.00000000000E+00 -0.00000000000E+00 -0.45593999997E+02  0.45594000000E+02  0.51100000000E-03 0. -1.
    9900012    2    1    2    0    0 -0.27368518984E+02  0.54406493470E+01 -0.15430026003E+02  0.59301918410E+02  0.49999953280E+02 0.  0.
         12    1    1    2    0    0  0.27368518984E+02 -0.54406493470E+01  0.15430026003E+02  0.31886081590E+02  0.00000000000E+00 0. -1.
         11    1    3    3    0    0 -0.16854876680E+02  0.24709598231E+02 -0.63686498119E+01  0.30581216675E+02  0.51100000000E-03 0. -1.
        -11    1    3    3    0    0  0.37204308146E+01 -0.27004499936E+01  0.94717152120E+00  0.46937372920E+01  0.51100000000E-03 0.  1.
         12    1    3    3    0    0 -0.14234073119E+02 -0.16568498891E+02 -0.10008547712E+02  0.24026964443E+02  0.00000000000E+00 0. -1.
</event>
<event>
 7    1  0.7821043E-012  0.5930195E+02  0.7816164E-02  0.1266605E+00
        -11   -1    0    0    0    0  0.00000000000E+00  0.00000000000E+00  0.45593999997E+02  0.45594000000E+02  0.51100000000E-03 0.  1.
         11   -1    0    0    0    0 -0.00000000000E+00 -0.00000000000E+00 -0.45593999997E+02  0.45594000000E+02  0.51100000000E-03 0. -1.
    9900012    2    1    2    0    0  0.11719773794E+02 -0.54160642770E+01  0.29155333587E+02  0.59301947773E+02  0.50000006830E+02 0.  0.
         12    1    1    2    0    0 -0.11719773794E+02  0.54160642770E+01 -0.29155333587E+02  0.31886052227E+02  0.00000000000E+00 0. -1.
         11    1    3    3    0    0  0.17581949430E+02  0.86007104743E+01  0.30524797759E+02  0.36261004466E+02  0.51100000000E-03 0.  1.
        -11    1    3    3    0    0 -0.93400764151E+00 -0.10047989851E+02 -0.87236507301E+01  0.13339286062E+02  0.51100000000E-03 0. -1.
        -12    1    3    3    0    0 -0.49281679939E+01 -0.39687849006E+01  0.73541865585E+01  0.97016572450E+01  0.00000000000E+00 0.  1.
</event>
<event>
 7    1  0.7821043E-012  0.5930189E+02  0.7816164E-02  0.1266605E+00
        -11   -1    0    0    0    0  0.00000000000E+00  0.00000000000E+00  0.45593999997E+02  0.45594000000E+02  0.51100000000E-03 0.  1.
         11   -1    0    0    0    0 -0.00000000000E+00 -0.00000000000E+00 -0.45593999997E+02  0.45594000000E+02  0.51100000000E-03 0. -1.
    9900012    2    1    2    0    0  0.80242490983E+01  0.13210303944E+02  0.27889480029E+02  0.59301893305E+02  0.49999907494E+02 0.  0.
         12    1    1    2    0    0 -0.80242490983E+01 -0.13210303944E+02 -0.27889480029E+02  0.31886106695E+02  0.00000000000E+00 0. -1.
         11    1    3    3    0    0 -0.13400341235E+02  0.17080037981E+02  0.22541434316E+01  0.21826085437E+02  0.51100000000E-03 0. -1.
        -11    1    3    3    0    0  0.22868042839E+02 -0.11160270744E+01  0.25629628440E+02  0.34366709967E+02  0.51100000000E-03 0.  1.
        -12    1    3    3    0    0 -0.14434525062E+01 -0.27537069632E+01  0.57081575388E-02  0.31090979013E+01  0.00000000000E+00 0.  1.
</event>
<event>
 7    1  0.7821043E-012  0.5930197E+02  0.7816164E-02  0.1266605E+00
        -11   -1    0    0    0    0  0.00000000000E+00  0.00000000000E+00  0.45593999997E+02  0.45594000000E+02  0.51100000000E-03 0.  1.
         11   -1    0    0    0    0 -0.00000000000E+00 -0.00000000000E+00 -0.45593999997E+02  0.45594000000E+02  0.51100000000E-03 0. -1.
    9900012    2    1    2    0    0 -0.16087335083E+02 -0.23610473034E+02  0.14158474216E+02  0.59301965768E+02  0.50000039648E+02 0.  0.
         12    1    1    2    0    0  0.16087335083E+02  0.23610473034E+02 -0.14158474216E+02  0.31886034232E+02  0.00000000000E+00 0. -1.
         11    1    3    3    0    0  0.91917013762E+01  0.43257747834E+01  0.25035963509E+01  0.10462681139E+02  0.51100000000E-03 0. -1.
        -11    1    3    3    0    0 -0.15199154906E+02 -0.26360596759E+02 -0.34374997040E+01  0.30622079874E+02  0.51100000000E-03 0.  1.
        -12    1    3    3    0    0 -0.10079881553E+02 -0.15756510584E+01  0.15092377569E+02  0.18217204755E+02  0.00000000000E+00 0.  1.
</event>
<event>
 7    1  0.7821043E-012  0.5930195E+02  0.7816164E-02  0.1266605E+00
        -11   -1    0    0    0    0  0.00000000000E+00  0.00000000000E+00  0.45593999997E+02  0.45594000000E+02  0.51100000000E-03 0. -1.
         11   -1    0    0    0    0 -0.00000000000E+00 -0.00000000000E+00 -0.45593999997E+02  0.45594000000E+02  0.51100000000E-03 0.  1.
    9900012    2    1    2    0    0 -0.78962999439E+01 -0.78601009736E+01 -0.29876203301E+02  0.59301948758E+02  0.50000008627E+02 0.  0.
         12    1    1    2    0    0  0.78962999439E+01  0.78601009736E+01  0.29876203301E+02  0.31886051242E+02  0.00000000000E+00 0. -1.
         11    1    3    3    0    0 -0.16131227980E+01  0.17827408565E+02 -0.16223913843E+02  0.24158519035E+02  0.51100000000E-03 0. -1.
        -11    1    3    3    0    0 -0.53698197352E+01 -0.24143435173E+02 -0.36735464483E+01  0.25004706951E+02  0.51100000000E-03 0.  1.
         12    1    3    3    0    0 -0.91335741065E+00 -0.15440743657E+01 -0.99787430090E+01  0.10138722772E+02  0.00000000000E+00 0. -1.
</event>
<event>
 7    1  0.7821043E-012  0.5930202E+02  0.7816164E-02  0.1266604E+00
        -11   -1    0    0    0    0  0.00000000000E+00  0.00000000000E+00  0.45593999997E+02  0.45594000000E+02  0.51100000000E-03 0.  1.
         11   -1    0    0    0    0 -0.00000000000E+00 -0.00000000000E+00 -0.45593999997E+02  0.45594000000E+02  0.51100000000E-03 0. -1.
    9900012    2    1    2    0    0 -0.10681394508E+02  0.14938016694E+02  0.26066819785E+02  0.59302021497E+02  0.50000141284E+02 0.  0.
         12    1    1    2    0    0  0.10681394508E+02 -0.14938016694E+02 -0.26066819785E+02  0.31885978503E+02  0.00000000000E+00 0. -1.
         11    1    3    3    0    0 -0.92173166698E+01 -0.12823200848E+01  0.20753125707E+01  0.95346837346E+01  0.51100000000E-03 0. -1.
        -11    1    3    3    0    0  0.12680056584E+02  0.40102988064E+01  0.27691259475E+02  0.30719247762E+02  0.51100000000E-03 0.  1.
        -12    1    3    3    0    0 -0.14144134422E+02  0.12210037973E+02 -0.36997522604E+01  0.19048090000E+02  0.00000000000E+00 0.  1.
</event>
<event>
 7    1  0.7821043E-012  0.5930188E+02  0.7816164E-02  0.1266605E+00
        -11   -1    0    0    0    0  0.00000000000E+00  0.00000000000E+00  0.45593999997E+02  0.45594000000E+02  0.51100000000E-03 0.  1.
         11   -1    0    0    0    0 -0.00000000000E+00 -0.00000000000E+00 -0.45593999997E+02  0.45594000000E+02  0.51100000000E-03 0. -1.
    9900012    2    1    2    0    0  0.26413493253E+02  0.52888601925E+01  0.17061066536E+02  0.59301879833E+02  0.49999882924E+02 0.  0.
         12    1    1    2    0    0 -0.26413493253E+02 -0.52888601925E+01 -0.17061066536E+02  0.31886120167E+02  0.00000000000E+00 0. -1.
         11    1    3    3    0    0  0.17412240590E+02 -0.87369505807E+01 -0.53657782822E+01  0.20206731667E+02  0.51100000000E-03 0. -1.
        -11    1    3    3    0    0  0.98347909395E+01  0.19105597295E+02  0.25304770843E+02  0.33197566003E+02  0.51100000000E-03 0.  1.
         12    1    3    3    0    0 -0.83353827697E+00 -0.50797865218E+01 -0.28779260248E+01  0.58975821631E+01  0.00000000000E+00 0. -1.
</event>
<event>
 7    1  0.7821043E-012  0.5930193E+02  0.7816164E-02  0.1266605E+00
        -11   -1    0    0    0    0  0.00000000000E+00  0.00000000000E+00  0.45593999997E+02  0.45594000000E+02  0.51100000000E-03 0.  1.
         11   -1    0    0    0    0 -0.00000000000E+00 -0.00000000000E+00 -0.45593999997E+02  0.45594000000E+02  0.51100000000E-03 0. -1.
    9900012    2    1    2    0    0 -0.17049058890E+02  0.16287648670E+01  0.26896061112E+02  0.59301931140E+02  0.49999976495E+02 0.  0.
         12    1    1    2    0    0  0.17049058890E+02 -0.16287648670E+01 -0.26896061112E+02  0.31886068860E+02  0.00000000000E+00 0. -1.
         11    1    3    3    0    0  0.10109686732E+01 -0.19020719905E+02  0.19453166826E+01  0.19146647242E+02  0.51100000000E-03 0. -1.
        -11    1    3    3    0    0 -0.79294110309E+01  0.16442978399E+02  0.22394337895E+02  0.28892100442E+02  0.51100000000E-03 0.  1.
         12    1    3    3    0    0 -0.10130616532E+02  0.42065063725E+01  0.25564065342E+01  0.11263183455E+02  0.00000000000E+00 0. -1.
</event>
<event>
 7    1  0.7821043E-012  0.5930194E+02  0.7816164E-02  0.1266605E+00
        -11   -1    0    0    0    0  0.00000000000E+00  0.00000000000E+00  0.45593999997E+02  0.45594000000E+02  0.51100000000E-03 0. -1.
         11   -1    0    0    0    0 -0.00000000000E+00 -0.00000000000E+00 -0.45593999997E+02  0.45594000000E+02  0.51100000000E-03 0.  1.
    9900012    2    1    2    0    0 -0.16578383269E+02  0.13208820597E+02  0.23820264112E+02  0.59301941672E+02  0.49999995703E+02 0.  0.
         12    1    1    2    0    0  0.16578383269E+02 -0.13208820597E+02 -0.23820264112E+02  0.31886058328E+02  0.00000000000E+00 0. -1.
         11    1    3    3    0    0 -0.95597983061E+01  0.91603349462E+01  0.26640456358E+02  0.29749208312E+02  0.51100000000E-03 0. -1.
        -11    1    3    3    0    0  0.58852170031E+01 -0.57160620115E+01 -0.90480157299E+01  0.12213751799E+02  0.51100000000E-03 0.  1.
        -12    1    3    3    0    0 -0.12903801966E+02  0.97645476624E+01  0.62278234831E+01  0.17338981560E+02  0.00000000000E+00 0.  1.
</event>
<event>
 7    1  0.7821043E-012  0.5930185E+02  0.7816164E-02  0.1266605E+00
        -11   -1    0    0    0    0  0.00000000000E+00  0.00000000000E+00  0.45593999997E+02  0.45594000000E+02  0.51100000000E-03 0. -1.
         11   -1    0    0    0    0 -0.00000000000E+00 -0.00000000000E+00 -0.45593999997E+02  0.45594000000E+02  0.51100000000E-03 0.  1.
    9900012    2    1    2    0    0 -0.83387895137E+01 -0.30277433261E+02 -0.55197939020E+01  0.59301850967E+02  0.49999830279E+02 0.  0.
         12    1    1    2    0    0  0.83387895137E+01  0.30277433261E+02  0.55197939020E+01  0.31886149033E+02  0.00000000000E+00 0. -1.
         11    1    3    3    0    0 -0.13612987789E+02 -0.11474065107E+01  0.88628113411E+01  0.16284329995E+02  0.51100000000E-03 0. -1.
        -11    1    3    3    0    0 -0.46581663522E+01 -0.17315074320E+02 -0.19750388367E+02  0.26675609710E+02  0.51100000000E-03 0.  1.
         12    1    3    3    0    0  0.99323646275E+01 -0.11814952431E+02  0.53677831244E+01  0.16341911262E+02  0.00000000000E+00 0. -1.
</event>
<event>
 7    1  0.7821043E-012  0.5930192E+02  0.7816164E-02  0.1266605E+00
        -11   -1    0    0    0    0  0.00000000000E+00  0.00000000000E+00  0.45593999997E+02  0.45594000000E+02  0.51100000000E-03 0. -1.
         11   -1    0    0    0    0 -0.00000000000E+00 -0.00000000000E+00 -0.45593999997E+02  0.45594000000E+02  0.51100000000E-03 0.  1.
    9900012    2    1    2    0    0  0.17057304395E+02 -0.23242603799E+02  0.13621750453E+02  0.59301916045E+02  0.49999948966E+02 0.  0.
         12    1    1    2    0    0 -0.17057304395E+02  0.23242603799E+02 -0.13621750453E+02  0.31886083955E+02  0.00000000000E+00 0. -1.
         11    1    3    3    0    0  0.92772569204E+01  0.46374448210E+01  0.19277769474E+02  0.21890769438E+02  0.51100000000E-03 0. -1.
        -11    1    3    3    0    0  0.27248093820E+01 -0.14188679851E+02 -0.14399042169E+02  0.20397932193E+02  0.51100000000E-03 0.  1.
         12    1    3    3    0    0  0.50552380921E+01 -0.13691368769E+02  0.87430231475E+01  0.17013214414E+02  0.00000000000E+00 0. -1.
</event>
<event>
 7    1  0.7821043E-012  0.5930192E+02  0.7816164E-02  0.1266605E+00
        -11   -1    0    0    0    0  0.00000000000E+00  0.00000000000E+00  0.45593999997E+02  0.45594000000E+02  0.51100000000E-03 0. -1.
         11   -1    0    0    0    0 -0.00000000000E+00 -0.00000000000E+00 -0.45593999997E+02  0.45594000000E+02  0.51100000000E-03 0.  1.
    9900012    2    1    2    0    0 -0.18648502710E+02  0.19992872749E+02 -0.16408546532E+02  0.59301921323E+02  0.49999958592E+02 0.  0.
         12    1    1    2    0    0  0.18648502710E+02 -0.19992872749E+02  0.16408546532E+02  0.31886078677E+02  0.00000000000E+00 0. -1.
         11    1    3    3    0    0 -0.16276479288E+02  0.95508444257E+01  0.13680646206E+02  0.23308849996E+02  0.51100000000E-03 0. -1.
        -11    1    3    3    0    0 -0.98640726886E+00 -0.38257402575E+01 -0.13510680229E+02  0.14076497019E+02  0.51100000000E-03 0.  1.
         12    1    3    3    0    0 -0.13856161531E+01  0.14267768580E+02 -0.16578512509E+02  0.21916574308E+02  0.00000000000E+00 0. -1.
</event>
<event>
 7    1  0.7821043E-012  0.5930195E+02  0.7816164E-02  0.1266605E+00
        -11   -1    0    0    0    0  0.00000000000E+00  0.00000000000E+00  0.45593999997E+02  0.45594000000E+02  0.51100000000E-03 0. -1.
         11   -1    0    0    0    0 -0.00000000000E+00 -0.00000000000E+00 -0.45593999997E+02  0.45594000000E+02  0.51100000000E-03 0.  1.
    9900012    2    1    2    0    0 -0.66068471030E+01 -0.14016742610E+02 -0.27867560944E+02  0.59301945760E+02  0.50000003159E+02 0.  0.
         12    1    1    2    0    0  0.66068471030E+01  0.14016742610E+02  0.27867560944E+02  0.31886054240E+02  0.00000000000E+00 0. -1.
         11    1    3    3    0    0 -0.18512153374E+02 -0.17477268106E+01 -0.33418600418E+02  0.38243394537E+02  0.51100000000E-03 0. -1.
        -11    1    3    3    0    0  0.98548485116E+01 -0.14293675043E+02  0.41324225174E+01  0.17846683208E+02  0.51100000000E-03 0.  1.
         12    1    3    3    0    0  0.20504577591E+01  0.20246592430E+01  0.14186169569E+01  0.32118680145E+01  0.00000000000E+00 0. -1.
</event>
<event>
 7    1  0.7821043E-012  0.5930195E+02  0.7816164E-02  0.1266605E+00
        -11   -1    0    0    0    0  0.00000000000E+00  0.00000000000E+00  0.45593999997E+02  0.45594000000E+02  0.51100000000E-03 0. -1.
         11   -1    0    0    0    0 -0.00000000000E+00 -0.00000000000E+00 -0.45593999997E+02  0.45594000000E+02  0.51100000000E-03 0.  1.
    9900012    2    1    2    0    0  0.20586434257E+02  0.46880801425E+01 -0.23894371663E+02  0.59301947125E+02  0.50000005648E+02 0.  0.
         12    1    1    2    0    0 -0.20586434257E+02 -0.46880801425E+01  0.23894371663E+02  0.31886052875E+02  0.00000000000E+00 0. -1.
         11    1    3    3    0    0  0.25402434119E+01 -0.82810693046E+01 -0.11111608174E+01  0.87329046739E+01  0.51100000000E-03 0. -1.
        -11    1    3    3    0    0  0.19002159798E+02  0.19222526747E+02 -0.10973696990E+00  0.27029606989E+02  0.51100000000E-03 0.  1.
        -12    1    3    3    0    0 -0.95596895290E+00 -0.62533772996E+01 -0.22673473875E+02  0.23539435462E+02  0.00000000000E+00 0.  1.
</event>
<event>
 7    1  0.7821043E-012  0.5930195E+02  0.7816164E-02  0.1266605E+00
        -11   -1    0    0    0    0  0.00000000000E+00  0.00000000000E+00  0.45593999997E+02  0.45594000000E+02  0.51100000000E-03 0. -1.
         11   -1    0    0    0    0 -0.00000000000E+00 -0.00000000000E+00 -0.45593999997E+02  0.45594000000E+02  0.51100000000E-03 0.  1.
    9900012    2    1    2    0    0 -0.36013106764E+01 -0.30997967003E+02 -0.65480541787E+01  0.59301946459E+02  0.50000004433E+02 0.  0.
         12    1    1    2    0    0  0.36013106764E+01  0.30997967003E+02  0.65480541787E+01  0.31886053541E+02  0.00000000000E+00 0. -1.
         11    1    3    3    0    0  0.26811343630E+01 -0.49465644204E+01 -0.17631691556E+02  0.18507661344E+02  0.51100000000E-03 0. -1.
        -11    1    3    3    0    0 -0.14334215623E+02 -0.25485677237E+02  0.30379213361E+01  0.29397592555E+02  0.51100000000E-03 0.  1.
         12    1    3    3    0    0  0.80517705831E+01 -0.56572534559E+00  0.80457160408E+01  0.11396692560E+02  0.00000000000E+00 0. -1.
</event>
<event>
 7    1  0.7821043E-012  0.5930194E+02  0.7816164E-02  0.1266605E+00
        -11   -1    0    0    0    0  0.00000000000E+00  0.00000000000E+00  0.45593999997E+02  0.45594000000E+02  0.51100000000E-03 0.  1.
         11   -1    0    0    0    0 -0.00000000000E+00 -0.00000000000E+00 -0.45593999997E+02  0.45594000000E+02  0.51100000000E-03 0. -1.
    9900012    2    1    2    0    0  0.16029987445E+02 -0.10009116082E+02  0.25682246749E+02  0.59301941913E+02  0.49999996143E+02 0.  0.
         12    1    1    2    0    0 -0.16029987445E+02  0.10009116082E+02 -0.25682246749E+02  0.31886058087E+02  0.00000000000E+00 0. -1.
         11    1    3    3    0    0  0.60134890134E+01 -0.12998732249E+02 -0.12476895950E+02  0.18994789364E+02  0.51100000000E-03 0. -1.
        -11    1    3    3    0    0  0.81500237439E+01 -0.12037474513E+01  0.27349087038E+02  0.28562991037E+02  0.51100000000E-03 0.  1.
         12    1    3    3    0    0  0.18664746881E+01  0.41933636183E+01  0.10810055662E+02  0.11744161511E+02  0.00000000000E+00 0. -1.
</event>
<event>
 7    1  0.7821043E-012  0.5930193E+02  0.7816164E-02  0.1266605E+00
        -11   -1    0    0    0    0  0.00000000000E+00  0.00000000000E+00  0.45593999997E+02  0.45594000000E+02  0.51100000000E-03 0.  1.
         11   -1    0    0    0    0 -0.00000000000E+00 -0.00000000000E+00 -0.45593999997E+02  0.45594000000E+02  0.51100000000E-03 0. -1.
    9900012    2    1    2    0    0  0.32785832355E+01 -0.31710487635E+02  0.64577134148E+00  0.59301934788E+02  0.49999983150E+02 0.  0.
         12    1    1    2    0    0 -0.32785832355E+01  0.31710487635E+02 -0.64577134148E+00  0.31886065212E+02  0.00000000000E+00 0. -1.
         11    1    3    3    0    0  0.83292582825E+01 -0.18472998760E+02 -0.15515002026E+02  0.25521432461E+02  0.51100000000E-03 0. -1.
        -11    1    3    3    0    0 -0.11264437804E+02 -0.14392576364E+02  0.19421378063E+02  0.26668778367E+02  0.51100000000E-03 0.  1.
        -12    1    3    3    0    0  0.62137627571E+01  0.11550874899E+01 -0.32606046960E+01  0.71117239608E+01  0.00000000000E+00 0.  1.
</event>
<event>
 7    1  0.7821043E-012  0.5930196E+02  0.7816164E-02  0.1266605E+00
        -11   -1    0    0    0    0  0.00000000000E+00  0.00000000000E+00  0.45593999997E+02  0.45594000000E+02  0.51100000000E-03 0.  1.
         11   -1    0    0    0    0 -0.00000000000E+00 -0.00000000000E+00 -0.45593999997E+02  0.45594000000E+02  0.51100000000E-03 0. -1.
    9900012    2    1    2    0    0  0.24105067374E+01  0.31653252944E+02  0.29967353783E+01  0.59301962498E+02  0.50000033685E+02 0.  0.
         12    1    1    2    0    0 -0.24105067374E+01 -0.31653252944E+02 -0.29967353783E+01  0.31886037502E+02  0.00000000000E+00 0. -1.
         11    1    3    3    0    0 -0.75428389108E+01  0.61428521959E+01 -0.32027858433E+01  0.10241430044E+02  0.51100000000E-03 0. -1.
        -11    1    3    3    0    0  0.15972105436E+02  0.10364918993E+02  0.20066145710E+02  0.27662066114E+02  0.51100000000E-03 0.  1.
        -12    1    3    3    0    0 -0.60187597882E+01  0.15145481755E+02 -0.13866624488E+02  0.21398466339E+02  0.00000000000E+00 0.  1.
</event>
<event>
 7    1  0.7821043E-012  0.5930190E+02  0.7816164E-02  0.1266605E+00
        -11   -1    0    0    0    0  0.00000000000E+00  0.00000000000E+00  0.45593999997E+02  0.45594000000E+02  0.51100000000E-03 0. -1.
         11   -1    0    0    0    0 -0.00000000000E+00 -0.00000000000E+00 -0.45593999997E+02  0.45594000000E+02  0.51100000000E-03 0.  1.
    9900012    2    1    2    0    0  0.20199545041E+02  0.70413785419E+01 -0.23645731718E+02  0.59301901773E+02  0.49999922937E+02 0.  0.
         12    1    1    2    0    0 -0.20199545041E+02 -0.70413785419E+01  0.23645731718E+02  0.31886098227E+02  0.00000000000E+00 0. -1.
         11    1    3    3    0    0  0.97709421543E+01 -0.13098984232E+02 -0.17822488815E+01  0.16438707669E+02  0.51100000000E-03 0. -1.
        -11    1    3    3    0    0  0.64839163094E+00  0.20366495155E+02 -0.16948391450E+01  0.20447176250E+02  0.51100000000E-03 0.  1.
        -12    1    3    3    0    0  0.97802112559E+01 -0.22613238102E+00 -0.20168643692E+02  0.22416017854E+02  0.00000000000E+00 0.  1.
</event>
<event>
 7    1  0.7821043E-012  0.5930190E+02  0.7816164E-02  0.1266605E+00
        -11   -1    0    0    0    0  0.00000000000E+00  0.00000000000E+00  0.45593999997E+02  0.45594000000E+02  0.51100000000E-03 0.  1.
         11   -1    0    0    0    0 -0.00000000000E+00 -0.00000000000E+00 -0.45593999997E+02  0.45594000000E+02  0.51100000000E-03 0. -1.
    9900012    2    1    2    0    0 -0.18781544432E+02 -0.14612062164E+02  0.21224144424E+02  0.59301904621E+02  0.49999928132E+02 0.  0.
         12    1    1    2    0    0  0.18781544432E+02  0.14612062164E+02 -0.21224144424E+02  0.31886095379E+02  0.00000000000E+00 0. -1.
         11    1    3    3    0    0  0.14574238568E+01 -0.15756498757E+02 -0.25562350022E+01  0.16028901242E+02  0.51100000000E-03 0. -1.
        -11    1    3    3    0    0 -0.54283080279E+01  0.77983344249E+01 -0.46151305789E+01  0.10563142448E+02  0.51100000000E-03 0.  1.
        -12    1    3    3    0    0 -0.14810660261E+02 -0.66538978325E+01  0.28395510005E+02  0.32709860932E+02  0.00000000000E+00 0.  1.
</event>
<event>
 7    1  0.7821043E-012  0.5930187E+02  0.7816164E-02  0.1266605E+00
        -11   -1    0    0    0    0  0.00000000000E+00  0.00000000000E+00  0.45593999997E+02  0.45594000000E+02  0.51100000000E-03 0.  1.
         11   -1    0    0    0    0 -0.00000000000E+00 -0.00000000000E+00 -0.45593999997E+02  0.45594000000E+02  0.51100000000E-03 0. -1.
    9900012    2    1    2    0    0  0.27138643887E+01 -0.21311738455E+02  0.23562047420E+02  0.59301869245E+02  0.49999863615E+02 0.  0.
         12    1    1    2    0    0 -0.27138643887E+01  0.21311738455E+02 -0.23562047420E+02  0.31886130755E+02  0.00000000000E+00 0. -1.
         11    1    3    3    0    0  0.26812731442E+00  0.51014183568E+01  0.18465542008E+02  0.19159138901E+02  0.51100000000E-03 0. -1.
        -11    1    3    3    0    0  0.13493854669E+02 -0.24534924738E+02  0.67809629168E+01  0.28810208331E+02  0.51100000000E-03 0.  1.
         12    1    3    3    0    0 -0.11048117594E+02 -0.18782320740E+01 -0.16844575052E+01  0.11332522014E+02  0.00000000000E+00 0. -1.
</event>
<event>
 7    1  0.7821043E-012  0.5930194E+02  0.7816164E-02  0.1266605E+00
        -11   -1    0    0    0    0  0.00000000000E+00  0.00000000000E+00  0.45593999997E+02  0.45594000000E+02  0.51100000000E-03 0.  1.
         11   -1    0    0    0    0 -0.00000000000E+00 -0.00000000000E+00 -0.45593999997E+02  0.45594000000E+02  0.51100000000E-03 0. -1.
    9900012    2    1    2    0    0 -0.33859514553E+01 -0.20874093747E+02  0.23864796204E+02  0.59301937922E+02  0.49999988865E+02 0.  0.
         12    1    1    2    0    0  0.33859514553E+01  0.20874093747E+02 -0.23864796204E+02  0.31886062078E+02  0.00000000000E+00 0. -1.
         11    1    3    3    0    0 -0.64138472637E+01 -0.29850646550E+02  0.68543816605E+01  0.31291869301E+02  0.51100000000E-03 0. -1.
        -11    1    3    3    0    0 -0.26051717150E+01  0.10289997101E+02  0.62426281315E+00  0.10632998840E+02  0.51100000000E-03 0.  1.
        -12    1    3    3    0    0  0.56330675233E+01 -0.13134442984E+01  0.16386151730E+02  0.17377069781E+02  0.00000000000E+00 0.  1.
</event>
<event>
 7    1  0.7821043E-012  0.5930188E+02  0.7816164E-02  0.1266605E+00
        -11   -1    0    0    0    0  0.00000000000E+00  0.00000000000E+00  0.45593999997E+02  0.45594000000E+02  0.51100000000E-03 0.  1.
         11   -1    0    0    0    0 -0.00000000000E+00 -0.00000000000E+00 -0.45593999997E+02  0.45594000000E+02  0.51100000000E-03 0. -1.
    9900012    2    1    2    0    0 -0.20864920501E+02  0.11746310184E+02  0.21057158590E+02  0.59301880162E+02  0.49999883523E+02 0.  0.
         12    1    1    2    0    0  0.20864920501E+02 -0.11746310184E+02 -0.21057158590E+02  0.31886119838E+02  0.00000000000E+00 0. -1.
         11    1    3    3    0    0 -0.36393978479E+02  0.74776738837E+01  0.13692598257E+02  0.39597026700E+02  0.51100000000E-03 0. -1.
        -11    1    3    3    0    0  0.57418642627E+01  0.40574051181E+01  0.69809978770E+01  0.99078692525E+01  0.51100000000E-03 0.  1.
         12    1    3    3    0    0  0.97871937152E+01  0.21123118254E+00  0.38356245623E+00  0.97969842089E+01  0.00000000000E+00 0. -1.
</event>
<event>
 7    1  0.7821043E-012  0.5930196E+02  0.7816164E-02  0.1266605E+00
        -11   -1    0    0    0    0  0.00000000000E+00  0.00000000000E+00  0.45593999997E+02  0.45594000000E+02  0.51100000000E-03 0.  1.
         11   -1    0    0    0    0 -0.00000000000E+00 -0.00000000000E+00 -0.45593999997E+02  0.45594000000E+02  0.51100000000E-03 0. -1.
    9900012    2    1    2    0    0 -0.25074073070E+02 -0.99582170672E+01  0.16995427942E+02  0.59301956056E+02  0.50000021936E+02 0.  0.
         12    1    1    2    0    0  0.25074073070E+02  0.99582170672E+01 -0.16995427942E+02  0.31886043944E+02  0.00000000000E+00 0. -1.
         11    1    3    3    0    0 -0.47384306630E+01 -0.87494104441E+01 -0.13581432882E+02  0.16836277132E+02  0.51100000000E-03 0. -1.
        -11    1    3    3    0    0 -0.15436531500E+02  0.66838078742E+01  0.92349508594E+01  0.19189687597E+02  0.51100000000E-03 0.  1.
         12    1    3    3    0    0 -0.48991109069E+01 -0.78926144973E+01  0.21341909965E+02  0.23275991327E+02  0.00000000000E+00 0. -1.
</event>
<event>
 7    1  0.7821043E-012  0.5930197E+02  0.7816164E-02  0.1266605E+00
        -11   -1    0    0    0    0  0.00000000000E+00  0.00000000000E+00  0.45593999997E+02  0.45594000000E+02  0.51100000000E-03 0.  1.
         11   -1    0    0    0    0 -0.00000000000E+00 -0.00000000000E+00 -0.45593999997E+02  0.45594000000E+02  0.51100000000E-03 0. -1.
    9900012    2    1    2    0    0  0.77877510386E+00 -0.31946963612E+01  0.31716023234E+02  0.59301973197E+02  0.50000053197E+02 0.  0.
         12    1    1    2    0    0 -0.77877510386E+00  0.31946963612E+01 -0.31716023234E+02  0.31886026803E+02  0.00000000000E+00 0. -1.
         11    1    3    3    0    0  0.23846270789E+01  0.13972516983E+02  0.84724982025E+01  0.16513658080E+02  0.51100000000E-03 0. -1.
        -11    1    3    3    0    0  0.11107011039E+02 -0.12351798523E+02  0.90173987810E+00  0.16635677204E+02  0.51100000000E-03 0.  1.
        -12    1    3    3    0    0 -0.12712863014E+02 -0.48154148206E+01  0.22341785154E+02  0.26152637912E+02  0.00000000000E+00 0.  1.
</event>
<event>
 7    1  0.7821043E-012  0.5930197E+02  0.7816164E-02  0.1266605E+00
        -11   -1    0    0    0    0  0.00000000000E+00  0.00000000000E+00  0.45593999997E+02  0.45594000000E+02  0.51100000000E-03 0.  1.
         11   -1    0    0    0    0 -0.00000000000E+00 -0.00000000000E+00 -0.45593999997E+02  0.45594000000E+02  0.51100000000E-03 0. -1.
    9900012    2    1    2    0    0 -0.59990198847E+01  0.18070912751E+02  0.25576798458E+02  0.59301972549E+02  0.50000052016E+02 0.  0.
         12    1    1    2    0    0  0.59990198847E+01 -0.18070912751E+02 -0.25576798458E+02  0.31886027451E+02  0.00000000000E+00 0. -1.
         11    1    3    3    0    0 -0.14804261064E+01 -0.14762418939E+00 -0.35700502502E+01  0.38676495973E+01  0.51100000000E-03 0. -1.
        -11    1    3    3    0    0  0.10106339024E+02  0.38621355702E+01  0.32870274689E+02  0.34605044980E+02  0.51100000000E-03 0.  1.
        -12    1    3    3    0    0 -0.14624932803E+02  0.14356401371E+02 -0.37234259811E+01  0.20829277972E+02  0.00000000000E+00 0.  1.
</event>
<event>
 7    1  0.7821043E-012  0.5930195E+02  0.7816164E-02  0.1266605E+00
        -11   -1    0    0    0    0  0.00000000000E+00  0.00000000000E+00  0.45593999997E+02  0.45594000000E+02  0.51100000000E-03 0. -1.
         11   -1    0    0    0    0 -0.00000000000E+00 -0.00000000000E+00 -0.45593999997E+02  0.45594000000E+02  0.51100000000E-03 0.  1.
    9900012    2    1    2    0    0  0.17025921858E+02  0.70794794636E+01 -0.26013825761E+02  0.59301950145E+02  0.50000011157E+02 0.  0.
         12    1    1    2    0    0 -0.17025921858E+02 -0.70794794636E+01  0.26013825761E+02  0.31886049855E+02  0.00000000000E+00 0. -1.
         11    1    3    3    0    0 -0.95802073945E+01 -0.26100806493E+01  0.46645679022E+01  0.10970464379E+02  0.51100000000E-03 0. -1.
        -11    1    3    3    0    0  0.14828881547E+02 -0.33123910351E+01 -0.26100549066E+02  0.30201098061E+02  0.51100000000E-03 0.  1.
        -12    1    3    3    0    0  0.11777247706E+02  0.13001951148E+02 -0.45778445976E+01  0.18130387705E+02  0.00000000000E+00 0.  1.
</event>
<event>
 7    1  0.7821043E-012  0.5930192E+02  0.7816164E-02  0.1266605E+00
        -11   -1    0    0    0    0  0.00000000000E+00  0.00000000000E+00  0.45593999997E+02  0.45594000000E+02  0.51100000000E-03 0. -1.
         11   -1    0    0    0    0 -0.00000000000E+00 -0.00000000000E+00 -0.45593999997E+02  0.45594000000E+02  0.51100000000E-03 0.  1.
    9900012    2    1    2    0    0  0.20721947469E+02 -0.90262746171E+00 -0.24217935212E+02  0.59301917940E+02  0.49999952422E+02 0.  0.
         12    1    1    2    0    0 -0.20721947469E+02  0.90262746171E+00  0.24217935212E+02  0.31886082060E+02  0.00000000000E+00 0. -1.
         11    1    3    3    0    0  0.52843386396E+01 -0.11114619098E+02 -0.27012998351E+02  0.29684357374E+02  0.51100000000E-03 0. -1.
        -11    1    3    3    0    0 -0.47754102075E+01  0.62270555729E+01  0.43222692564E+01  0.89589494665E+01  0.51100000000E-03 0.  1.
         12    1    3    3    0    0  0.20213019037E+02  0.39849360636E+01 -0.15272061171E+01  0.20658611099E+02  0.00000000000E+00 0. -1.
</event>
<event>
 7    1  0.7821043E-012  0.5930194E+02  0.7816164E-02  0.1266605E+00
        -11   -1    0    0    0    0  0.00000000000E+00  0.00000000000E+00  0.45593999997E+02  0.45594000000E+02  0.51100000000E-03 0.  1.
         11   -1    0    0    0    0 -0.00000000000E+00 -0.00000000000E+00 -0.45593999997E+02  0.45594000000E+02  0.51100000000E-03 0. -1.
    9900012    2    1    2    0    0 -0.78791812258E+01 -0.25544144298E+02  0.17382052271E+02  0.59301944335E+02  0.50000000561E+02 0.  0.
         12    1    1    2    0    0  0.78791812258E+01  0.25544144298E+02 -0.17382052271E+02  0.31886055665E+02  0.00000000000E+00 0. -1.
         11    1    3    3    0    0 -0.12417442036E+02  0.58166541163E+00  0.42012778386E+01  0.13121811503E+02  0.51100000000E-03 0. -1.
        -11    1    3    3    0    0  0.14611378446E+02 -0.10390805560E+02 -0.64740853055E+01  0.19062397569E+02  0.51100000000E-03 0.  1.
        -12    1    3    3    0    0 -0.10073117636E+02 -0.15735004149E+02  0.19654859738E+02  0.27117735263E+02  0.00000000000E+00 0.  1.
</event>
<event>
 7    1  0.7821043E-012  0.5930195E+02  0.7816164E-02  0.1266605E+00
        -11   -1    0    0    0    0  0.00000000000E+00  0.00000000000E+00  0.45593999997E+02  0.45594000000E+02  0.51100000000E-03 0. -1.
         11   -1    0    0    0    0 -0.00000000000E+00 -0.00000000000E+00 -0.45593999997E+02  0.45594000000E+02  0.51100000000E-03 0.  1.
    9900012    2    1    2    0    0 -0.22455802119E+02 -0.86414805364E+00 -0.22621015945E+02  0.59301950338E+02  0.50000011508E+02 0.  0.
         12    1    1    2    0    0  0.22455802119E+02  0.86414805364E+00  0.22621015945E+02  0.31886049662E+02  0.00000000000E+00 0. -1.
         11    1    3    3    0    0 -0.32210673882E+00 -0.12042782483E+02 -0.90901054123E+00  0.12081335319E+02  0.51100000000E-03 0. -1.
        -11    1    3    3    0    0 -0.92767439068E+01  0.22641575350E+02 -0.15203349380E+02  0.28806956529E+02  0.51100000000E-03 0.  1.
        -12    1    3    3    0    0 -0.12856951473E+02 -0.11462940921E+02 -0.65086560241E+01  0.18413658490E+02  0.00000000000E+00 0.  1.
</event>
<event>
 7    1  0.7821043E-012  0.5930196E+02  0.7816164E-02  0.1266605E+00
        -11   -1    0    0    0    0  0.00000000000E+00  0.00000000000E+00  0.45593999997E+02  0.45594000000E+02  0.51100000000E-03 0.  1.
         11   -1    0    0    0    0 -0.00000000000E+00 -0.00000000000E+00 -0.45593999997E+02  0.45594000000E+02  0.51100000000E-03 0. -1.
    9900012    2    1    2    0    0  0.97234784754E+01 -0.29732947952E+02 -0.61745809968E+01  0.59301957943E+02  0.50000025378E+02 0.  0.
         12    1    1    2    0    0 -0.97234784754E+01  0.29732947952E+02  0.61745809968E+01  0.31886042057E+02  0.00000000000E+00 0. -1.
         11    1    3    3    0    0  0.22803783008E+02 -0.84016857374E+01 -0.95009573585E+01  0.26093467261E+02  0.51100000000E-03 0. -1.
        -11    1    3    3    0    0 -0.12896580060E+02 -0.23240360326E+02 -0.28593760840E+01  0.26732230681E+02  0.51100000000E-03 0.  1.
        -12    1    3    3    0    0 -0.18372447277E+00  0.19090981110E+01  0.61857524458E+01  0.64762600010E+01  0.00000000000E+00 0.  1.
</event>
<event>
 7    1  0.7821043E-012  0.5930196E+02  0.7816164E-02  0.1266605E+00
        -11   -1    0    0    0    0  0.00000000000E+00  0.00000000000E+00  0.45593999997E+02  0.45594000000E+02  0.51100000000E-03 0. -1.
         11   -1    0    0    0    0 -0.00000000000E+00 -0.00000000000E+00 -0.45593999997E+02  0.45594000000E+02  0.51100000000E-03 0.  1.
    9900012    2    1    2    0    0  0.14259727518E+02 -0.26556836245E+02 -0.10397804327E+02  0.59301957363E+02  0.50000024320E+02 0.  0.
         12    1    1    2    0    0 -0.14259727518E+02  0.26556836245E+02  0.10397804327E+02  0.31886042637E+02  0.00000000000E+00 0. -1.
         11    1    3    3    0    0 -0.13949118299E+02  0.19860620623E+01  0.45562419252E+01  0.14808162769E+02  0.51100000000E-03 0. -1.
        -11    1    3    3    0    0  0.23643484262E+02 -0.17018952505E+02 -0.77013197312E+01  0.30132530897E+02  0.51100000000E-03 0.  1.
         12    1    3    3    0    0  0.45653615554E+01 -0.11523945802E+02 -0.72527265212E+01  0.14361263697E+02  0.00000000000E+00 0. -1.
</event>
<event>
 7    1  0.7821043E-012  0.5930196E+02  0.7816164E-02  0.1266605E+00
        -11   -1    0    0    0    0  0.00000000000E+00  0.00000000000E+00  0.45593999997E+02  0.45594000000E+02  0.51100000000E-03 0.  1.
         11   -1    0    0    0    0 -0.00000000000E+00 -0.00000000000E+00 -0.45593999997E+02  0.45594000000E+02  0.51100000000E-03 0. -1.
    9900012    2    1    2    0    0  0.26074275983E+02 -0.12431942419E+02  0.13501789696E+02  0.59301962533E+02  0.50000033750E+02 0.  0.
         12    1    1    2    0    0 -0.26074275983E+02  0.12431942419E+02 -0.13501789696E+02  0.31886037467E+02  0.00000000000E+00 0. -1.
         11    1    3    3    0    0 -0.42257295901E+01  0.10849380023E+02 -0.17123744530E+01  0.11768520042E+02  0.51100000000E-03 0. -1.
        -11    1    3    3    0    0  0.10601590043E+02 -0.22498967379E+02  0.11789112602E+02  0.27524178839E+02  0.51100000000E-03 0.  1.
         12    1    3    3    0    0  0.19698415530E+02 -0.78235506293E+00  0.34250515467E+01  0.20009263653E+02  0.00000000000E+00 0. -1.
</event>
<event>
 7    1  0.7821043E-012  0.5930193E+02  0.7816164E-02  0.1266605E+00
        -11   -1    0    0    0    0  0.00000000000E+00  0.00000000000E+00  0.45593999997E+02  0.45594000000E+02  0.51100000000E-03 0.  1.
         11   -1    0    0    0    0 -0.00000000000E+00 -0.00000000000E+00 -0.45593999997E+02  0.45594000000E+02  0.51100000000E-03 0. -1.
    9900012    2    1    2    0    0  0.27146872944E+02 -0.78900379270E+01  0.14748427878E+02  0.59301928840E+02  0.49999972301E+02 0.  0.
         12    1    1    2    0    0 -0.27146872944E+02  0.78900379270E+01 -0.14748427878E+02  0.31886071160E+02  0.00000000000E+00 0. -1.
         11    1    3    3    0    0  0.21810995522E+02  0.29683773023E+01 -0.71917160918E+01  0.23157106254E+02  0.51100000000E-03 0. -1.
        -11    1    3    3    0    0 -0.79731616064E+01 -0.11755432915E+02  0.61610319586E+01  0.15482888105E+02  0.51100000000E-03 0.  1.
        -12    1    3    3    0    0  0.13309039029E+02  0.89701768569E+00  0.15779112012E+02  0.20661934481E+02  0.00000000000E+00 0.  1.
</event>
<event>
 7    1  0.7821043E-012  0.5930195E+02  0.7816164E-02  0.1266605E+00
        -11   -1    0    0    0    0  0.00000000000E+00  0.00000000000E+00  0.45593999997E+02  0.45594000000E+02  0.51100000000E-03 0.  1.
         11   -1    0    0    0    0 -0.00000000000E+00 -0.00000000000E+00 -0.45593999997E+02  0.45594000000E+02  0.51100000000E-03 0. -1.
    9900012    2    1    2    0    0 -0.29797455259E+02 -0.20477409428E+01  0.11164167480E+02  0.59301949470E+02  0.50000009925E+02 0.  0.
         12    1    1    2    0    0  0.29797455259E+02  0.20477409428E+01 -0.11164167480E+02  0.31886050530E+02  0.00000000000E+00 0. -1.
         11    1    3    3    0    0  0.59316346165E+01  0.43139695315E+01  0.11995941470E+02  0.14060484855E+02  0.51100000000E-03 0.  1.
        -11    1    3    3    0    0 -0.34134732421E+02 -0.47864211219E+01  0.86178558529E+01  0.35529666820E+02  0.51100000000E-03 0. -1.
        -12    1    3    3    0    0 -0.15943574551E+01 -0.15752893524E+01 -0.94496298427E+01  0.97117977946E+01  0.00000000000E+00 0.  1.
</event>
<event>
 7    1  0.7821043E-012  0.5930193E+02  0.7816164E-02  0.1266605E+00
        -11   -1    0    0    0    0  0.00000000000E+00  0.00000000000E+00  0.45593999997E+02  0.45594000000E+02  0.51100000000E-03 0.  1.
         11   -1    0    0    0    0 -0.00000000000E+00 -0.00000000000E+00 -0.45593999997E+02  0.45594000000E+02  0.51100000000E-03 0. -1.
    9900012    2    1    2    0    0  0.70110248791E+01 -0.29749989075E+02  0.90832289943E+01  0.59301931431E+02  0.49999977027E+02 0.  0.
         12    1    1    2    0    0 -0.70110248791E+01  0.29749989075E+02 -0.90832289943E+01  0.31886068569E+02  0.00000000000E+00 0. -1.
         11    1    3    3    0    0  0.94965937783E+01 -0.49615166702E+01 -0.89179435307E+01  0.13940289026E+02  0.51100000000E-03 0. -1.
        -11    1    3    3    0    0 -0.77811832958E+01  0.23126913645E+01  0.15672401804E+02  0.17649915960E+02  0.51100000000E-03 0.  1.
        -12    1    3    3    0    0  0.52956143966E+01 -0.27101163769E+02  0.23287707212E+01  0.27711726445E+02  0.00000000000E+00 0.  1.
</event>
<event>
 7    1  0.7821043E-012  0.5930192E+02  0.7816164E-02  0.1266605E+00
        -11   -1    0    0    0    0  0.00000000000E+00  0.00000000000E+00  0.45593999997E+02  0.45594000000E+02  0.51100000000E-03 0. -1.
         11   -1    0    0    0    0 -0.00000000000E+00 -0.00000000000E+00 -0.45593999997E+02  0.45594000000E+02  0.51100000000E-03 0.  1.
    9900012    2    1    2    0    0 -0.13594736048E+02 -0.28404553672E+02 -0.50086261410E+01  0.59301923833E+02  0.49999963170E+02 0.  0.
         12    1    1    2    0    0  0.13594736048E+02  0.28404553672E+02  0.50086261410E+01  0.31886076167E+02  0.00000000000E+00 0. -1.
         11    1    3    3    0    0 -0.18970021442E+02 -0.98757260938E+01 -0.59042227183E+01  0.22186742112E+02  0.51100000000E-03 0.  1.
        -11    1    3    3    0    0  0.78587978826E+01 -0.17716327725E+02 -0.12764812934E+02  0.23207098520E+02  0.51100000000E-03 0. -1.
         12    1    3    3    0    0 -0.24835124886E+01 -0.81249985296E+00  0.13660409512E+02  0.13908083201E+02  0.00000000000E+00 0. -1.
</event>
<event>
 7    1  0.7821043E-012  0.5930197E+02  0.7816164E-02  0.1266605E+00
        -11   -1    0    0    0    0  0.00000000000E+00  0.00000000000E+00  0.45593999997E+02  0.45594000000E+02  0.51100000000E-03 0.  1.
         11   -1    0    0    0    0 -0.00000000000E+00 -0.00000000000E+00 -0.45593999997E+02  0.45594000000E+02  0.51100000000E-03 0. -1.
    9900012    2    1    2    0    0  0.12781769627E+02 -0.73687176570E+00  0.29202780415E+02  0.59301968595E+02  0.50000044804E+02 0.  0.
         12    1    1    2    0    0 -0.12781769627E+02  0.73687176570E+00 -0.29202780415E+02  0.31886031405E+02  0.00000000000E+00 0. -1.
         11    1    3    3    0    0  0.13465912584E+02 -0.54490611348E+01  0.83365021890E+01  0.16748741385E+02  0.51100000000E-03 0. -1.
        -11    1    3    3    0    0 -0.15344130266E+02 -0.83336288931E+01  0.99573482798E+01  0.20100758423E+02  0.51100000000E-03 0.  1.
         12    1    3    3    0    0  0.14659987310E+02  0.13045818262E+02  0.10908929947E+02  0.22452468787E+02  0.00000000000E+00 0. -1.
</event>
<event>
 7    1  0.7821043E-012  0.5930194E+02  0.7816164E-02  0.1266605E+00
        -11   -1    0    0    0    0  0.00000000000E+00  0.00000000000E+00  0.45593999997E+02  0.45594000000E+02  0.51100000000E-03 0.  1.
         11   -1    0    0    0    0 -0.00000000000E+00 -0.00000000000E+00 -0.45593999997E+02  0.45594000000E+02  0.51100000000E-03 0. -1.
    9900012    2    1    2    0    0  0.31734722234E+01 -0.31164708108E+02  0.59507124492E+01  0.59301938216E+02  0.49999989402E+02 0.  0.
         12    1    1    2    0    0 -0.31734722234E+01  0.31164708108E+02 -0.59507124492E+01  0.31886061784E+02  0.00000000000E+00 0. -1.
         11    1    3    3    0    0 -0.38744316744E+00  0.27032750143E+01 -0.45174074030E+01  0.52787098724E+01  0.51100000000E-03 0. -1.
        -11    1    3    3    0    0  0.87115920198E+01 -0.38186379410E+02  0.18694413357E+02  0.43400143997E+02  0.51100000000E-03 0.  1.
        -12    1    3    3    0    0 -0.51506766289E+01  0.43183962871E+01 -0.82262935044E+01  0.10623084347E+02  0.00000000000E+00 0.  1.
</event>
<event>
 7    1  0.7821043E-012  0.5930170E+02  0.7816164E-02  0.1266606E+00
        -11   -1    0    0    0    0  0.00000000000E+00  0.00000000000E+00  0.45593999997E+02  0.45594000000E+02  0.51100000000E-03 0. -1.
         11   -1    0    0    0    0 -0.00000000000E+00 -0.00000000000E+00 -0.45593999997E+02  0.45594000000E+02  0.51100000000E-03 0.  1.
    9900012    2    1    2    0    0  0.23488818807E+02  0.13525365937E+02  0.16795117663E+02  0.59301700278E+02  0.49999555457E+02 0.  0.
         12    1    1    2    0    0 -0.23488818807E+02 -0.13525365937E+02 -0.16795117663E+02  0.31886299722E+02  0.00000000000E+00 0. -1.
         11    1    3    3    0    0  0.17538537320E+01  0.71593645119E-01  0.48470885132E+01  0.51551329642E+01  0.51100000000E-03 0. -1.
        -11    1    3    3    0    0  0.39906273623E+00 -0.79387699556E+01 -0.12816074070E+02  0.15080950709E+02  0.51100000000E-03 0.  1.
        -12    1    3    3    0    0  0.21335902338E+02  0.21392542247E+02  0.24764103220E+02  0.39065616604E+02  0.00000000000E+00 0.  1.
</event>
<event>
 7    1  0.7821043E-012  0.5930194E+02  0.7816164E-02  0.1266605E+00
        -11   -1    0    0    0    0  0.00000000000E+00  0.00000000000E+00  0.45593999997E+02  0.45594000000E+02  0.51100000000E-03 0. -1.
         11   -1    0    0    0    0 -0.00000000000E+00 -0.00000000000E+00 -0.45593999997E+02  0.45594000000E+02  0.51100000000E-03 0.  1.
    9900012    2    1    2    0    0  0.27465007664E+02 -0.16177730506E+02 -0.82169040677E+00  0.59301940579E+02  0.49999993710E+02 0.  0.
         12    1    1    2    0    0 -0.27465007664E+02  0.16177730506E+02  0.82169040677E+00  0.31886059421E+02  0.00000000000E+00 0. -1.
         11    1    3    3    0    0  0.69432692977E+01  0.15212999530E+02  0.92736806996E+01  0.19121859147E+02  0.51100000000E-03 0. -1.
        -11    1    3    3    0    0  0.10563518176E+02 -0.14887540391E+02 -0.10187784585E+02  0.20904969030E+02  0.51100000000E-03 0.  1.
         12    1    3    3    0    0  0.99582201900E+01 -0.16503189646E+02  0.92413479090E-01  0.19275112401E+02  0.00000000000E+00 0. -1.
</event>
<event>
 7    1  0.7821043E-012  0.5930194E+02  0.7816164E-02  0.1266605E+00
        -11   -1    0    0    0    0  0.00000000000E+00  0.00000000000E+00  0.45593999997E+02  0.45594000000E+02  0.51100000000E-03 0. -1.
         11   -1    0    0    0    0 -0.00000000000E+00 -0.00000000000E+00 -0.45593999997E+02  0.45594000000E+02  0.51100000000E-03 0.  1.
    9900012    2    1    2    0    0 -0.79002675585E+01  0.28856782097E+02 -0.11026922435E+02  0.59301935350E+02  0.49999984174E+02 0.  0.
         12    1    1    2    0    0  0.79002675585E+01 -0.28856782097E+02  0.11026922435E+02  0.31886064650E+02  0.00000000000E+00 0. -1.
         11    1    3    3    0    0 -0.10451038018E+02  0.89418274533E+00  0.15096646798E+02  0.18382940550E+02  0.51100000000E-03 0. -1.
        -11    1    3    3    0    0 -0.48615037293E+00  0.20812222987E+02 -0.10158586373E+02  0.23164236339E+02  0.51100000000E-03 0.  1.
         12    1    3    3    0    0  0.30369208329E+01  0.71503763649E+01 -0.15964982860E+02  0.17754758461E+02  0.00000000000E+00 0. -1.
</event>
<event>
 7    1  0.7821043E-012  0.5930193E+02  0.7816164E-02  0.1266605E+00
        -11   -1    0    0    0    0  0.00000000000E+00  0.00000000000E+00  0.45593999997E+02  0.45594000000E+02  0.51100000000E-03 0.  1.
         11   -1    0    0    0    0 -0.00000000000E+00 -0.00000000000E+00 -0.45593999997E+02  0.45594000000E+02  0.51100000000E-03 0. -1.
    9900012    2    1    2    0    0  0.12410942737E+02  0.28046796013E+02 -0.87216633558E+01  0.59301926584E+02  0.49999968187E+02 0.  0.
         12    1    1    2    0    0 -0.12410942737E+02 -0.28046796013E+02  0.87216633558E+01  0.31886073416E+02  0.00000000000E+00 0. -1.
         11    1    3    3    0    0  0.74098083128E+01 -0.12206924688E+02 -0.95075451369E+01  0.17155398112E+02  0.51100000000E-03 0. -1.
        -11    1    3    3    0    0  0.82936853764E+01  0.20541301512E+02  0.25013216029E+00  0.22153845068E+02  0.51100000000E-03 0.  1.
         12    1    3    3    0    0 -0.32925509525E+01  0.19712419189E+02  0.53574962079E+00  0.19992683404E+02  0.00000000000E+00 0. -1.
</event>
<event>
 7    1  0.7821043E-012  0.5930195E+02  0.7816164E-02  0.1266605E+00
        -11   -1    0    0    0    0  0.00000000000E+00  0.00000000000E+00  0.45593999997E+02  0.45594000000E+02  0.51100000000E-03 0. -1.
         11   -1    0    0    0    0 -0.00000000000E+00 -0.00000000000E+00 -0.45593999997E+02  0.45594000000E+02  0.51100000000E-03 0.  1.
    9900012    2    1    2    0    0  0.50735239148E+01 -0.31451703780E+02 -0.13304724609E+01  0.59301945485E+02  0.50000002657E+02 0.  0.
         12    1    1    2    0    0 -0.50735239148E+01  0.31451703780E+02  0.13304724609E+01  0.31886054515E+02  0.00000000000E+00 0. -1.
         11    1    3    3    0    0 -0.14493482248E+02 -0.18962919065E+02  0.15774506979E+02  0.28609236233E+02  0.51100000000E-03 0. -1.
        -11    1    3    3    0    0  0.51707849353E+01 -0.91478320756E+01 -0.52497355151E+01  0.11746470609E+02  0.51100000000E-03 0.  1.
         12    1    3    3    0    0  0.14396221227E+02 -0.33409526391E+01 -0.11855243925E+02  0.18946238642E+02  0.00000000000E+00 0. -1.
</event>
<event>
 7    1  0.7821043E-012  0.5930196E+02  0.7816164E-02  0.1266605E+00
        -11   -1    0    0    0    0  0.00000000000E+00  0.00000000000E+00  0.45593999997E+02  0.45594000000E+02  0.51100000000E-03 0.  1.
         11   -1    0    0    0    0 -0.00000000000E+00 -0.00000000000E+00 -0.45593999997E+02  0.45594000000E+02  0.51100000000E-03 0. -1.
    9900012    2    1    2    0    0 -0.30283077126E+02  0.57534483154E+01  0.81579775686E+01  0.59301960332E+02  0.50000029734E+02 0.  0.
         12    1    1    2    0    0  0.30283077126E+02 -0.57534483154E+01 -0.81579775686E+01  0.31886039668E+02  0.00000000000E+00 0. -1.
         11    1    3    3    0    0 -0.14983329415E+02  0.18134104582E+01  0.24591359172E+02  0.28853484435E+02  0.51100000000E-03 0. -1.
        -11    1    3    3    0    0 -0.90918640591E+01 -0.67411652417E+01 -0.13744677090E+02  0.17805096165E+02  0.51100000000E-03 0.  1.
         12    1    3    3    0    0 -0.62078836518E+01  0.10681203099E+02 -0.26887045132E+01  0.12643379731E+02  0.00000000000E+00 0. -1.
</event>
<event>
 7    1  0.7821043E-012  0.5930196E+02  0.7816164E-02  0.1266605E+00
        -11   -1    0    0    0    0  0.00000000000E+00  0.00000000000E+00  0.45593999997E+02  0.45594000000E+02  0.51100000000E-03 0. -1.
         11   -1    0    0    0    0 -0.00000000000E+00 -0.00000000000E+00 -0.45593999997E+02  0.45594000000E+02  0.51100000000E-03 0.  1.
    9900012    2    1    2    0    0 -0.28291399904E+02 -0.14706147253E+02  0.21355550839E+00  0.59301957889E+02  0.50000025280E+02 0.  0.
         12    1    1    2    0    0  0.28291399904E+02  0.14706147253E+02 -0.21355550839E+00  0.31886042111E+02  0.00000000000E+00 0. -1.
         11    1    3    3    0    0  0.47541398825E+01  0.81241054476E+01 -0.42370865401E+00  0.94224447268E+01  0.51100000000E-03 0. -1.
        -11    1    3    3    0    0 -0.19062751430E+02 -0.13137564699E+02  0.15023559308E+02  0.27598757813E+02  0.51100000000E-03 0.  1.
        -12    1    3    3    0    0 -0.13982788356E+02 -0.96926880016E+01 -0.14386295146E+02  0.22280755349E+02  0.00000000000E+00 0.  1.
</event>
<event>
 7    1  0.7821043E-012  0.5930195E+02  0.7816164E-02  0.1266605E+00
        -11   -1    0    0    0    0  0.00000000000E+00  0.00000000000E+00  0.45593999997E+02  0.45594000000E+02  0.51100000000E-03 0. -1.
         11   -1    0    0    0    0 -0.00000000000E+00 -0.00000000000E+00 -0.45593999997E+02  0.45594000000E+02  0.51100000000E-03 0.  1.
    9900012    2    1    2    0    0 -0.13216065813E+02 -0.25938837545E+02 -0.13008936352E+02  0.59301951110E+02  0.50000012917E+02 0.  0.
         12    1    1    2    0    0  0.13216065813E+02  0.25938837545E+02  0.13008936352E+02  0.31886048890E+02  0.00000000000E+00 0. -1.
         11    1    3    3    0    0 -0.50082500619E+01 -0.28577308690E+02 -0.53154677821E+01  0.29495751197E+02  0.51100000000E-03 0. -1.
        -11    1    3    3    0    0 -0.17376013249E+02  0.53617030055E+01 -0.87570510073E+01  0.20183152334E+02  0.51100000000E-03 0.  1.
         12    1    3    3    0    0  0.91681974973E+01 -0.27232318609E+01  0.10635824370E+01  0.96230475795E+01  0.00000000000E+00 0. -1.
</event>
<event>
 7    1  0.7821043E-012  0.5930187E+02  0.7816164E-02  0.1266605E+00
        -11   -1    0    0    0    0  0.00000000000E+00  0.00000000000E+00  0.45593999997E+02  0.45594000000E+02  0.51100000000E-03 0. -1.
         11   -1    0    0    0    0 -0.00000000000E+00 -0.00000000000E+00 -0.45593999997E+02  0.45594000000E+02  0.51100000000E-03 0.  1.
    9900012    2    1    2    0    0 -0.12039359012E+02  0.23499957754E+02 -0.17875438232E+02  0.59301867092E+02  0.49999859687E+02 0.  0.
         12    1    1    2    0    0  0.12039359012E+02 -0.23499957754E+02  0.17875438232E+02  0.31886132908E+02  0.00000000000E+00 0. -1.
         11    1    3    3    0    0  0.68115488965E+01  0.58613950968E+01 -0.98535892148E+01  0.13335905351E+02  0.51100000000E-03 0. -1.
        -11    1    3    3    0    0 -0.76016116193E+01  0.25469010878E+01  0.14527575821E+02  0.16592819647E+02  0.51100000000E-03 0.  1.
        -12    1    3    3    0    0 -0.11249296289E+02  0.15091661569E+02 -0.22549424838E+02  0.29373142094E+02  0.00000000000E+00 0.  1.
</event>
<event>
 7    1  0.7821043E-012  0.5930195E+02  0.7816164E-02  0.1266605E+00
        -11   -1    0    0    0    0  0.00000000000E+00  0.00000000000E+00  0.45593999997E+02  0.45594000000E+02  0.51100000000E-03 0.  1.
         11   -1    0    0    0    0 -0.00000000000E+00 -0.00000000000E+00 -0.45593999997E+02  0.45594000000E+02  0.51100000000E-03 0. -1.
    9900012    2    1    2    0    0 -0.27853529125E+02 -0.18785904319E+01  0.15406884800E+02  0.59301948411E+02  0.50000007993E+02 0.  0.
         12    1    1    2    0    0  0.27853529125E+02  0.18785904319E+01 -0.15406884800E+02  0.31886051589E+02  0.00000000000E+00 0. -1.
         11    1    3    3    0    0  0.93103689380E+01  0.46183772490E+01  0.12699981717E+02  0.16410420898E+02  0.51100000000E-03 0. -1.
        -11    1    3    3    0    0 -0.27031481424E+02 -0.83005556793E+01  0.10307730944E+02  0.30097334268E+02  0.51100000000E-03 0.  1.
         12    1    3    3    0    0 -0.10132416638E+02  0.18035879984E+01 -0.76008278610E+01  0.12794193244E+02  0.00000000000E+00 0. -1.
</event>
<event>
 7    1  0.7821043E-012  0.5930190E+02  0.7816164E-02  0.1266605E+00
        -11   -1    0    0    0    0  0.00000000000E+00  0.00000000000E+00  0.45593999997E+02  0.45594000000E+02  0.51100000000E-03 0.  1.
         11   -1    0    0    0    0 -0.00000000000E+00 -0.00000000000E+00 -0.45593999997E+02  0.45594000000E+02  0.51100000000E-03 0. -1.
    9900012    2    1    2    0    0  0.19118660441E+02 -0.24953116044E+02  0.53424845507E+01  0.59301900857E+02  0.49999921267E+02 0.  0.
         12    1    1    2    0    0 -0.19118660441E+02  0.24953116044E+02 -0.53424845507E+01  0.31886099143E+02  0.00000000000E+00 0. -1.
         11    1    3    3    0    0  0.19295164728E+00 -0.26623073710E+02  0.84001162857E+01  0.27917507732E+02  0.51100000000E-03 0. -1.
        -11    1    3    3    0    0  0.11604321644E+02  0.10283352091E+02 -0.96840830289E+01  0.18280839024E+02  0.51100000000E-03 0.  1.
        -12    1    3    3    0    0  0.73213871492E+01 -0.86133944256E+01  0.66264512940E+01  0.13103554101E+02  0.00000000000E+00 0.  1.
</event>
<event>
 7    1  0.7821043E-012  0.5930194E+02  0.7816164E-02  0.1266605E+00
        -11   -1    0    0    0    0  0.00000000000E+00  0.00000000000E+00  0.45593999997E+02  0.45594000000E+02  0.51100000000E-03 0.  1.
         11   -1    0    0    0    0 -0.00000000000E+00 -0.00000000000E+00 -0.45593999997E+02  0.45594000000E+02  0.51100000000E-03 0. -1.
    9900012    2    1    2    0    0 -0.14570348066E+02 -0.15442156667E+02  0.23790030363E+02  0.59301940507E+02  0.49999993579E+02 0.  0.
         12    1    1    2    0    0  0.14570348066E+02  0.15442156667E+02 -0.23790030363E+02  0.31886059493E+02  0.00000000000E+00 0. -1.
         11    1    3    3    0    0 -0.38630563202E+01  0.64154411074E+01 -0.11749798534E+02  0.13933371974E+02  0.51100000000E-03 0. -1.
        -11    1    3    3    0    0 -0.82196114029E+01 -0.19345489461E+02  0.18611069367E+02  0.28074577065E+02  0.51100000000E-03 0.  1.
         12    1    3    3    0    0 -0.24876803429E+01 -0.25121083133E+01  0.16928759530E+02  0.17293991468E+02  0.00000000000E+00 0. -1.
</event>
<event>
 7    1  0.7821043E-012  0.5930198E+02  0.7816164E-02  0.1266605E+00
        -11   -1    0    0    0    0  0.00000000000E+00  0.00000000000E+00  0.45593999997E+02  0.45594000000E+02  0.51100000000E-03 0. -1.
         11   -1    0    0    0    0 -0.00000000000E+00 -0.00000000000E+00 -0.45593999997E+02  0.45594000000E+02  0.51100000000E-03 0.  1.
    9900012    2    1    2    0    0  0.30048545051E+02 -0.86948422125E+01  0.61808762876E+01  0.59301975279E+02  0.50000056995E+02 0.  0.
         12    1    1    2    0    0 -0.30048545051E+02  0.86948422125E+01 -0.61808762876E+01  0.31886024721E+02  0.00000000000E+00 0. -1.
         11    1    3    3    0    0  0.14454870562E+02 -0.67396072586E+01  0.23211892747E+02  0.28163052998E+02  0.51100000000E-03 0. -1.
        -11    1    3    3    0    0  0.44664843110E+01  0.27562244928E+01 -0.18254088260E+02  0.18993630354E+02  0.51100000000E-03 0.  1.
        -12    1    3    3    0    0  0.11127190178E+02 -0.47114594467E+01  0.12230718002E+01  0.12145291928E+02  0.00000000000E+00 0.  1.
</event>
<event>
 7    1  0.7821043E-012  0.5930194E+02  0.7816164E-02  0.1266605E+00
        -11   -1    0    0    0    0  0.00000000000E+00  0.00000000000E+00  0.45593999997E+02  0.45594000000E+02  0.51100000000E-03 0.  1.
         11   -1    0    0    0    0 -0.00000000000E+00 -0.00000000000E+00 -0.45593999997E+02  0.45594000000E+02  0.51100000000E-03 0. -1.
    9900012    2    1    2    0    0  0.86182916151E+01  0.68572842543E+01  0.29923633240E+02  0.59301935270E+02  0.49999984027E+02 0.  0.
         12    1    1    2    0    0 -0.86182916151E+01 -0.68572842543E+01 -0.29923633240E+02  0.31886064730E+02  0.00000000000E+00 0. -1.
         11    1    3    3    0    0  0.58339341635E+01 -0.16868087435E+02  0.32485786501E+01  0.18141676468E+02  0.51100000000E-03 0. -1.
        -11    1    3    3    0    0  0.13486360836E+01  0.22210791316E+02  0.10069402365E+02  0.24423982771E+02  0.51100000000E-03 0.  1.
         12    1    3    3    0    0  0.14357213680E+01  0.15145803737E+01  0.16605652225E+02  0.16736276031E+02  0.00000000000E+00 0. -1.
</event>
<event>
 7    1  0.7821043E-012  0.5930195E+02  0.7816164E-02  0.1266605E+00
        -11   -1    0    0    0    0  0.00000000000E+00  0.00000000000E+00  0.45593999997E+02  0.45594000000E+02  0.51100000000E-03 0. -1.
         11   -1    0    0    0    0 -0.00000000000E+00 -0.00000000000E+00 -0.45593999997E+02  0.45594000000E+02  0.51100000000E-03 0.  1.
    9900012    2    1    2    0    0  0.55595012211E+01  0.31315171768E+02  0.22742461951E+01  0.59301949250E+02  0.50000009524E+02 0.  0.
         12    1    1    2    0    0 -0.55595012211E+01 -0.31315171768E+02 -0.22742461951E+01  0.31886050750E+02  0.00000000000E+00 0. -1.
         11    1    3    3    0    0  0.15725450085E+02  0.24618656417E+02 -0.30947069689E+01  0.29375929528E+02  0.51100000000E-03 0.  1.
        -11    1    3    3    0    0 -0.90728090753E+01  0.15354725420E+01  0.15772978667E+02  0.18260898027E+02  0.51100000000E-03 0. -1.
         12    1    3    3    0    0 -0.10931397887E+01  0.51610428088E+01 -0.10404025503E+02  0.11665121694E+02  0.00000000000E+00 0. -1.
</event>
<event>
 7    1  0.7821043E-012  0.5930196E+02  0.7816164E-02  0.1266605E+00
        -11   -1    0    0    0    0  0.00000000000E+00  0.00000000000E+00  0.45593999997E+02  0.45594000000E+02  0.51100000000E-03 0. -1.
         11   -1    0    0    0    0 -0.00000000000E+00 -0.00000000000E+00 -0.45593999997E+02  0.45594000000E+02  0.51100000000E-03 0.  1.
    9900012    2    1    2    0    0  0.16362431035E+02  0.27214149959E+02 -0.28949023721E+01  0.59301959682E+02  0.50000028550E+02 0.  0.
         12    1    1    2    0    0 -0.16362431035E+02 -0.27214149959E+02  0.28949023721E+01  0.31886040318E+02  0.00000000000E+00 0. -1.
         11    1    3    3    0    0 -0.96415268508E+01  0.36260892630E+01 -0.36307599103E+01  0.10921995291E+02  0.51100000000E-03 0. -1.
        -11    1    3    3    0    0  0.25028378119E+02  0.30604581407E+02  0.53937672936E+01  0.39901789938E+02  0.51100000000E-03 0.  1.
         12    1    3    3    0    0  0.97557976754E+00 -0.70165207109E+01 -0.46579097554E+01  0.84781744532E+01  0.00000000000E+00 0. -1.
</event>
<event>
 7    1  0.7821043E-012  0.5930202E+02  0.7816164E-02  0.1266604E+00
        -11   -1    0    0    0    0  0.00000000000E+00  0.00000000000E+00  0.45593999997E+02  0.45594000000E+02  0.51100000000E-03 0.  1.
         11   -1    0    0    0    0 -0.00000000000E+00 -0.00000000000E+00 -0.45593999997E+02  0.45594000000E+02  0.51100000000E-03 0. -1.
    9900012    2    1    2    0    0 -0.13088036157E+02  0.32280207846E+01  0.28896343450E+02  0.59302023875E+02  0.50000145623E+02 0.  0.
         12    1    1    2    0    0  0.13088036157E+02 -0.32280207846E+01 -0.28896343450E+02  0.31885976125E+02  0.00000000000E+00 0. -1.
         11    1    3    3    0    0 -0.11014552383E+02 -0.28176755628E+00 -0.10790999782E+02  0.15422238285E+02  0.51100000000E-03 0. -1.
        -11    1    3    3    0    0  0.11312343216E+01  0.27352773662E+01  0.40398653780E+02  0.40506945835E+02  0.51100000000E-03 0.  1.
        -12    1    3    3    0    0 -0.32047180957E+01  0.77451097466E+00 -0.71131054803E+00  0.33728397559E+01  0.00000000000E+00 0.  1.
</event>
<event>
 7    1  0.7821043E-012  0.5930197E+02  0.7816164E-02  0.1266605E+00
        -11   -1    0    0    0    0  0.00000000000E+00  0.00000000000E+00  0.45593999997E+02  0.45594000000E+02  0.51100000000E-03 0. -1.
         11   -1    0    0    0    0 -0.00000000000E+00 -0.00000000000E+00 -0.45593999997E+02  0.45594000000E+02  0.51100000000E-03 0.  1.
    9900012    2    1    2    0    0  0.30668441404E+02 -0.27458075375E+01  0.82841050499E+01  0.59301966166E+02  0.50000040375E+02 0.  0.
         12    1    1    2    0    0 -0.30668441404E+02  0.27458075375E+01 -0.82841050499E+01  0.31886033834E+02  0.00000000000E+00 0. -1.
         11    1    3    3    0    0  0.14346496326E+02  0.20283595948E+02  0.89619048105E+01  0.26411398287E+02  0.51100000000E-03 0. -1.
        -11    1    3    3    0    0  0.13676789530E+02 -0.21216944060E+02 -0.66567527159E+01  0.26106046121E+02  0.51100000000E-03 0.  1.
         12    1    3    3    0    0  0.26451555483E+01 -0.18124594249E+01  0.59789529553E+01  0.67845217579E+01  0.00000000000E+00 0. -1.
</event>
<event>
 7    1  0.7821043E-012  0.5930202E+02  0.7816164E-02  0.1266604E+00
        -11   -1    0    0    0    0  0.00000000000E+00  0.00000000000E+00  0.45593999997E+02  0.45594000000E+02  0.51100000000E-03 0.  1.
         11   -1    0    0    0    0 -0.00000000000E+00 -0.00000000000E+00 -0.45593999997E+02  0.45594000000E+02  0.51100000000E-03 0. -1.
    9900012    2    1    2    0    0 -0.11746514302E+02 -0.22337662622E+02  0.19487525214E+02  0.59302024892E+02  0.50000147476E+02 0.  0.
         12    1    1    2    0    0  0.11746514302E+02  0.22337662622E+02 -0.19487525214E+02  0.31885975108E+02  0.00000000000E+00 0. -1.
         11    1    3    3    0    0 -0.26021742483E+02 -0.25472808126E+02  0.99233805012E+01  0.37742131849E+02  0.51100000000E-03 0. -1.
        -11    1    3    3    0    0  0.11635943754E+02  0.77320766213E+01  0.62225081806E+01  0.15293783189E+02  0.51100000000E-03 0.  1.
        -12    1    3    3    0    0  0.26392844272E+01 -0.45969311174E+01  0.33416365321E+01  0.62661098537E+01  0.00000000000E+00 0.  1.
</event>
<event>
 7    1  0.7821043E-012  0.5930195E+02  0.7816164E-02  0.1266605E+00
        -11   -1    0    0    0    0  0.00000000000E+00  0.00000000000E+00  0.45593999997E+02  0.45594000000E+02  0.51100000000E-03 0.  1.
         11   -1    0    0    0    0 -0.00000000000E+00 -0.00000000000E+00 -0.45593999997E+02  0.45594000000E+02  0.51100000000E-03 0. -1.
    9900012    2    1    2    0    0  0.22876192586E+02  0.14282900046E+02  0.17011727492E+02  0.59301948297E+02  0.50000007786E+02 0.  0.
         12    1    1    2    0    0 -0.22876192586E+02 -0.14282900046E+02 -0.17011727492E+02  0.31886051703E+02  0.00000000000E+00 0. -1.
         11    1    3    3    0    0 -0.42589595247E+01  0.20369863721E+01  0.11696423851E+02  0.12613262103E+02  0.51100000000E-03 0. -1.
        -11    1    3    3    0    0  0.11623267898E+02  0.13804644482E+02 -0.13292385795E+02  0.22413301548E+02  0.51100000000E-03 0.  1.
        -12    1    3    3    0    0  0.15511884213E+02 -0.15587308073E+01  0.18607689436E+02  0.24275384646E+02  0.00000000000E+00 0.  1.
</event>
<event>
 7    1  0.7821043E-012  0.5930195E+02  0.7816164E-02  0.1266605E+00
        -11   -1    0    0    0    0  0.00000000000E+00  0.00000000000E+00  0.45593999997E+02  0.45594000000E+02  0.51100000000E-03 0.  1.
         11   -1    0    0    0    0 -0.00000000000E+00 -0.00000000000E+00 -0.45593999997E+02  0.45594000000E+02  0.51100000000E-03 0. -1.
    9900012    2    1    2    0    0  0.12905392553E+02  0.13425003763E+02  0.25883206620E+02  0.59301948693E+02  0.50000008509E+02 0.  0.
         12    1    1    2    0    0 -0.12905392553E+02 -0.13425003763E+02 -0.25883206620E+02  0.31886051307E+02  0.00000000000E+00 0. -1.
         11    1    3    3    0    0  0.10227156875E+01 -0.86603281061E+01  0.43014682413E+01  0.97236752092E+01  0.51100000000E-03 0. -1.
        -11    1    3    3    0    0  0.18317366727E+02  0.30972341959E+01  0.22898146862E+02  0.29486334351E+02  0.51100000000E-03 0.  1.
         12    1    3    3    0    0 -0.64346898614E+01  0.18988097673E+02 -0.13164084830E+01  0.20091939133E+02  0.00000000000E+00 0. -1.
</event>
<event>
 7    1  0.7821043E-012  0.5930194E+02  0.7816164E-02  0.1266605E+00
        -11   -1    0    0    0    0  0.00000000000E+00  0.00000000000E+00  0.45593999997E+02  0.45594000000E+02  0.51100000000E-03 0. -1.
         11   -1    0    0    0    0 -0.00000000000E+00 -0.00000000000E+00 -0.45593999997E+02  0.45594000000E+02  0.51100000000E-03 0.  1.
    9900012    2    1    2    0    0  0.14228345475E+02  0.19083276213E+02 -0.21215651171E+02  0.59301935636E+02  0.49999984696E+02 0.  0.
         12    1    1    2    0    0 -0.14228345475E+02 -0.19083276213E+02  0.21215651171E+02  0.31886064364E+02  0.00000000000E+00 0. -1.
         11    1    3    3    0    0  0.29032044573E+01 -0.77564369172E+01 -0.25957267759E+02  0.27246479764E+02  0.51100000000E-03 0.  1.
        -11    1    3    3    0    0 -0.24596899621E+01  0.73445959692E+01  0.21528618415E+01  0.80391528801E+01  0.51100000000E-03 0. -1.
         12    1    3    3    0    0  0.13784830980E+02  0.19495117161E+02  0.25887547461E+01  0.24016302992E+02  0.00000000000E+00 0. -1.
</event>
<event>
 7    1  0.7821043E-012  0.5930194E+02  0.7816164E-02  0.1266605E+00
        -11   -1    0    0    0    0  0.00000000000E+00  0.00000000000E+00  0.45593999997E+02  0.45594000000E+02  0.51100000000E-03 0. -1.
         11   -1    0    0    0    0 -0.00000000000E+00 -0.00000000000E+00 -0.45593999997E+02  0.45594000000E+02  0.51100000000E-03 0.  1.
    9900012    2    1    2    0    0 -0.26247559707E+02  0.17739591223E+02 -0.36184838862E+01  0.59301938578E+02  0.49999990062E+02 0.  0.
         12    1    1    2    0    0  0.26247559707E+02 -0.17739591223E+02  0.36184838862E+01  0.31886061422E+02  0.00000000000E+00 0. -1.
         11    1    3    3    0    0 -0.34899924370E+01  0.15965705776E+02 -0.42826012334E+01  0.16894510402E+02  0.51100000000E-03 0. -1.
        -11    1    3    3    0    0 -0.21703654816E+02  0.48842771977E+01  0.15563701502E+02  0.27150204434E+02  0.51100000000E-03 0.  1.
        -12    1    3    3    0    0 -0.10539124543E+01 -0.31103917510E+01 -0.14899584155E+02  0.15257223742E+02  0.00000000000E+00 0.  1.
</event>
<event>
 7    1  0.7821043E-012  0.5930197E+02  0.7816164E-02  0.1266605E+00
        -11   -1    0    0    0    0  0.00000000000E+00  0.00000000000E+00  0.45593999997E+02  0.45594000000E+02  0.51100000000E-03 0.  1.
         11   -1    0    0    0    0 -0.00000000000E+00 -0.00000000000E+00 -0.45593999997E+02  0.45594000000E+02  0.51100000000E-03 0. -1.
    9900012    2    1    2    0    0  0.19810137598E+02  0.22699113946E+02  0.10441612930E+02  0.59301974751E+02  0.50000056032E+02 0.  0.
         12    1    1    2    0    0 -0.19810137598E+02 -0.22699113946E+02 -0.10441612930E+02  0.31886025249E+02  0.00000000000E+00 0. -1.
         11    1    3    3    0    0  0.53638427907E+01  0.10878709166E+02 -0.81584314383E+01  0.14617699080E+02  0.51100000000E-03 0. -1.
        -11    1    3    3    0    0  0.19954649642E+02  0.11552160565E+02  0.26451067651E+02  0.35089876549E+02  0.51100000000E-03 0.  1.
        -12    1    3    3    0    0 -0.55083548346E+01  0.26824421405E+00 -0.78510232820E+01  0.95943991223E+01  0.00000000000E+00 0.  1.
</event>
<event>
 7    1  0.7821043E-012  0.5930188E+02  0.7816164E-02  0.1266605E+00
        -11   -1    0    0    0    0  0.00000000000E+00  0.00000000000E+00  0.45593999997E+02  0.45594000000E+02  0.51100000000E-03 0. -1.
         11   -1    0    0    0    0 -0.00000000000E+00 -0.00000000000E+00 -0.45593999997E+02  0.45594000000E+02  0.51100000000E-03 0.  1.
    9900012    2    1    2    0    0 -0.20688205055E+02 -0.19061651729E+02 -0.15012536113E+02  0.59301880205E+02  0.49999883603E+02 0.  0.
         12    1    1    2    0    0  0.20688205055E+02  0.19061651729E+02  0.15012536113E+02  0.31886119795E+02  0.00000000000E+00 0. -1.
         11    1    3    3    0    0 -0.52295149658E+01 -0.12627310216E+02  0.14046519217E+01  0.13739353600E+02  0.51100000000E-03 0. -1.
        -11    1    3    3    0    0 -0.14968777014E+02  0.94004126608E+01 -0.22482461014E+02  0.28598830343E+02  0.51100000000E-03 0.  1.
        -12    1    3    3    0    0 -0.48991307540E+00 -0.15834754173E+02  0.60652729795E+01  0.16963696262E+02  0.00000000000E+00 0.  1.
</event>
<event>
 7    1  0.7821043E-012  0.5930200E+02  0.7816164E-02  0.1266605E+00
        -11   -1    0    0    0    0  0.00000000000E+00  0.00000000000E+00  0.45593999997E+02  0.45594000000E+02  0.51100000000E-03 0.  1.
         11   -1    0    0    0    0 -0.00000000000E+00 -0.00000000000E+00 -0.45593999997E+02  0.45594000000E+02  0.51100000000E-03 0. -1.
    9900012    2    1    2    0    0 -0.10862482746E+02  0.45146608069E+01  0.29636824146E+02  0.59301999325E+02  0.50000100848E+02 0.  0.
         12    1    1    2    0    0  0.10862482746E+02 -0.45146608069E+01 -0.29636824146E+02  0.31886000675E+02  0.00000000000E+00 0. -1.
         11    1    3    3    0    0 -0.27726977730E+02  0.48685916019E+01  0.94497683927E+01  0.29694891837E+02  0.51100000000E-03 0. -1.
        -11    1    3    3    0    0  0.84468935472E+01  0.62080901290E+01  0.13175144948E+02  0.16836711030E+02  0.51100000000E-03 0.  1.
         12    1    3    3    0    0  0.84176014368E+01 -0.65620209240E+01  0.70119108057E+01  0.12770396458E+02  0.00000000000E+00 0. -1.
</event>
<event>
 7    1  0.7821043E-012  0.5930198E+02  0.7816164E-02  0.1266605E+00
        -11   -1    0    0    0    0  0.00000000000E+00  0.00000000000E+00  0.45593999997E+02  0.45594000000E+02  0.51100000000E-03 0. -1.
         11   -1    0    0    0    0 -0.00000000000E+00 -0.00000000000E+00 -0.45593999997E+02  0.45594000000E+02  0.51100000000E-03 0.  1.
    9900012    2    1    2    0    0 -0.28710793982E+02  0.11286587624E+02  0.80635905493E+01  0.59301980433E+02  0.50000066395E+02 0.  0.
         12    1    1    2    0    0  0.28710793982E+02 -0.11286587624E+02 -0.80635905493E+01  0.31886019567E+02  0.00000000000E+00 0. -1.
         11    1    3    3    0    0 -0.20417300138E+02  0.13549484477E+02  0.10919209401E+02  0.26826923207E+02  0.51100000000E-03 0. -1.
        -11    1    3    3    0    0 -0.38108821735E+01 -0.91258537717E+01 -0.14913570434E+02  0.17894653206E+02  0.51100000000E-03 0.  1.
        -12    1    3    3    0    0 -0.44826116697E+01  0.68629569185E+01  0.12057951582E+02  0.14580404021E+02  0.00000000000E+00 0.  1.
</event>
<event>
 7    1  0.7821043E-012  0.5930200E+02  0.7816164E-02  0.1266605E+00
        -11   -1    0    0    0    0  0.00000000000E+00  0.00000000000E+00  0.45593999997E+02  0.45594000000E+02  0.51100000000E-03 0.  1.
         11   -1    0    0    0    0 -0.00000000000E+00 -0.00000000000E+00 -0.45593999997E+02  0.45594000000E+02  0.51100000000E-03 0. -1.
    9900012    2    1    2    0    0 -0.50377325227E+01 -0.20545801720E+02  0.23858085225E+02  0.59302000754E+02  0.50000103455E+02 0.  0.
         12    1    1    2    0    0  0.50377325227E+01  0.20545801720E+02 -0.23858085225E+02  0.31885999246E+02  0.00000000000E+00 0. -1.
         11    1    3    3    0    0  0.90424449157E+01 -0.64721938073E+01  0.96782750989E+00  0.11162069391E+02  0.51100000000E-03 0. -1.
        -11    1    3    3    0    0 -0.11997519662E+02 -0.23491402438E+02  0.26917714319E+02  0.37687528586E+02  0.51100000000E-03 0.  1.
        -12    1    3    3    0    0 -0.20826577764E+01  0.94177945249E+01 -0.40274566032E+01  0.10452402777E+02  0.00000000000E+00 0.  1.
</event>
<event>
 7    1  0.7821043E-012  0.5930197E+02  0.7816164E-02  0.1266605E+00
        -11   -1    0    0    0    0  0.00000000000E+00  0.00000000000E+00  0.45593999997E+02  0.45594000000E+02  0.51100000000E-03 0.  1.
         11   -1    0    0    0    0 -0.00000000000E+00 -0.00000000000E+00 -0.45593999997E+02  0.45594000000E+02  0.51100000000E-03 0. -1.
    9900012    2    1    2    0    0 -0.12221205828E+02  0.33191510057E+01  0.29263361949E+02  0.59301968766E+02  0.50000045117E+02 0.  0.
         12    1    1    2    0    0  0.12221205828E+02 -0.33191510057E+01 -0.29263361949E+02  0.31886031234E+02  0.00000000000E+00 0. -1.
         11    1    3    3    0    0 -0.19959885491E+02 -0.49540653551E+01  0.94724651119E+00  0.20587303577E+02  0.51100000000E-03 0. -1.
        -11    1    3    3    0    0  0.11646411754E+02  0.14093675158E+02  0.14932752147E+02  0.23606305792E+02  0.51100000000E-03 0.  1.
         12    1    3    3    0    0 -0.39077320915E+01 -0.58204587970E+01  0.13383363290E+02  0.15108359397E+02  0.00000000000E+00 0. -1.
</event>
<event>
 7    1  0.7821043E-012  0.5930193E+02  0.7816164E-02  0.1266605E+00
        -11   -1    0    0    0    0  0.00000000000E+00  0.00000000000E+00  0.45593999997E+02  0.45594000000E+02  0.51100000000E-03 0. -1.
         11   -1    0    0    0    0 -0.00000000000E+00 -0.00000000000E+00 -0.45593999997E+02  0.45594000000E+02  0.51100000000E-03 0.  1.
    9900012    2    1    2    0    0 -0.53026940220E+01  0.27721095664E+02  0.14837233215E+02  0.59301934106E+02  0.49999981905E+02 0.  0.
         12    1    1    2    0    0  0.53026940220E+01 -0.27721095664E+02 -0.14837233215E+02  0.31886065894E+02  0.00000000000E+00 0. -1.
         11    1    3    3    0    0 -0.87526795056E+01 -0.28544618397E+01  0.19323961828E+02  0.21404972598E+02  0.51100000000E-03 0. -1.
        -11    1    3    3    0    0 -0.11591840073E+01  0.27428739420E+02 -0.10772517497E+02  0.29491127263E+02  0.51100000000E-03 0.  1.
        -12    1    3    3    0    0  0.46091694909E+01  0.31468180837E+01  0.62857888845E+01  0.84058342447E+01  0.00000000000E+00 0.  1.
</event>
<event>
 7    1  0.7821043E-012  0.5930195E+02  0.7816164E-02  0.1266605E+00
        -11   -1    0    0    0    0  0.00000000000E+00  0.00000000000E+00  0.45593999997E+02  0.45594000000E+02  0.51100000000E-03 0.  1.
         11   -1    0    0    0    0 -0.00000000000E+00 -0.00000000000E+00 -0.45593999997E+02  0.45594000000E+02  0.51100000000E-03 0. -1.
    9900012    2    1    2    0    0 -0.13022021481E+02  0.15133084133E+02  0.24862354102E+02  0.59301953987E+02  0.50000018164E+02 0.  0.
         12    1    1    2    0    0  0.13022021481E+02 -0.15133084133E+02 -0.24862354102E+02  0.31886046013E+02  0.00000000000E+00 0. -1.
         11    1    3    3    0    0 -0.82017500205E+01  0.17139791284E+02 -0.50696319915E+01  0.19665765112E+02  0.51100000000E-03 0. -1.
        -11    1    3    3    0    0  0.16777282319E+01 -0.64064540385E+01  0.31015222136E+02  0.31714372606E+02  0.51100000000E-03 0.  1.
        -12    1    3    3    0    0 -0.64979996927E+01  0.43997468882E+01 -0.10832360429E+01  0.79218162698E+01  0.00000000000E+00 0.  1.
</event>
<event>
 7    1  0.7821043E-012  0.5930211E+02  0.7816164E-02  0.1266604E+00
        -11   -1    0    0    0    0  0.00000000000E+00  0.00000000000E+00  0.45593999997E+02  0.45594000000E+02  0.51100000000E-03 0.  1.
         11   -1    0    0    0    0 -0.00000000000E+00 -0.00000000000E+00 -0.45593999997E+02  0.45594000000E+02  0.51100000000E-03 0. -1.
    9900012    2    1    2    0    0  0.24042004179E+02 -0.19182965307E+02  0.84086650093E+01  0.59302113307E+02  0.50000308724E+02 0.  0.
         12    1    1    2    0    0 -0.24042004179E+02  0.19182965307E+02 -0.84086650093E+01  0.31885886693E+02  0.00000000000E+00 0. -1.
         11    1    3    3    0    0 -0.27054840947E+01  0.34150071367E+00  0.16095272236E+02  0.16324645648E+02  0.51100000000E-03 0. -1.
        -11    1    3    3    0    0  0.27184630589E+02 -0.57175000929E+01 -0.14394457849E+01  0.27816648828E+02  0.51100000000E-03 0.  1.
         12    1    3    3    0    0 -0.43714231523E+00 -0.13806965928E+02 -0.62471614420E+01  0.15160818831E+02  0.00000000000E+00 0. -1.
</event>
<event>
 7    1  0.7821043E-012  0.5930194E+02  0.7816164E-02  0.1266605E+00
        -11   -1    0    0    0    0  0.00000000000E+00  0.00000000000E+00  0.45593999997E+02  0.45594000000E+02  0.51100000000E-03 0. -1.
         11   -1    0    0    0    0 -0.00000000000E+00 -0.00000000000E+00 -0.45593999997E+02  0.45594000000E+02  0.51100000000E-03 0.  1.
    9900012    2    1    2    0    0  0.88725569834E+01 -0.10502704545E+02 -0.28769627728E+02  0.59301944274E+02  0.50000000449E+02 0.  0.
         12    1    1    2    0    0 -0.88725569834E+01  0.10502704545E+02  0.28769627728E+02  0.31886055726E+02  0.00000000000E+00 0. -1.
         11    1    3    3    0    0 -0.26139876736E+01 -0.17926523755E+02 -0.14067232566E+01  0.18170637196E+02  0.51100000000E-03 0. -1.
        -11    1    3    3    0    0  0.11577949886E+02  0.15962447823E+00 -0.30938486955E+02  0.33034290954E+02  0.51100000000E-03 0.  1.
         12    1    3    3    0    0 -0.91405228789E-01  0.72641947321E+01  0.35755824837E+01  0.80970161245E+01  0.00000000000E+00 0. -1.
</event>
<event>
 7    1  0.7821043E-012  0.5930191E+02  0.7816164E-02  0.1266605E+00
        -11   -1    0    0    0    0  0.00000000000E+00  0.00000000000E+00  0.45593999997E+02  0.45594000000E+02  0.51100000000E-03 0.  1.
         11   -1    0    0    0    0 -0.00000000000E+00 -0.00000000000E+00 -0.45593999997E+02  0.45594000000E+02  0.51100000000E-03 0. -1.
    9900012    2    1    2    0    0  0.17007520023E+02  0.51968479222E+01  0.26466196504E+02  0.59301913331E+02  0.49999944017E+02 0.  0.
         12    1    1    2    0    0 -0.17007520023E+02 -0.51968479222E+01 -0.26466196504E+02  0.31886086669E+02  0.00000000000E+00 0. -1.
         11    1    3    3    0    0  0.18416233869E+02 -0.10150727308E+02  0.31296561544E+02  0.37705035466E+02  0.51100000000E-03 0. -1.
        -11    1    3    3    0    0 -0.38747771308E+01 -0.13425023368E+01 -0.16923596163E+01  0.44362474761E+01  0.51100000000E-03 0.  1.
         12    1    3    3    0    0  0.24660632842E+01  0.16690077567E+02 -0.31380054235E+01  0.17160630389E+02  0.00000000000E+00 0. -1.
</event>
<event>
 7    1  0.7821043E-012  0.5930222E+02  0.7816164E-02  0.1266604E+00
        -11   -1    0    0    0    0  0.00000000000E+00  0.00000000000E+00  0.45593999997E+02  0.45594000000E+02  0.51100000000E-03 0.  1.
         11   -1    0    0    0    0 -0.00000000000E+00 -0.00000000000E+00 -0.45593999997E+02  0.45594000000E+02  0.51100000000E-03 0. -1.
    9900012    2    1    2    0    0 -0.22594649329E+02  0.13880815678E+02  0.17706153500E+02  0.59302217997E+02  0.50000499652E+02 0.  0.
         12    1    1    2    0    0  0.22594649329E+02 -0.13880815678E+02 -0.17706153500E+02  0.31885782003E+02  0.00000000000E+00 0. -1.
         11    1    3    3    0    0 -0.12894435890E+02 -0.56937172645E+01  0.13582611085E+02  0.19574785244E+02  0.51100000000E-03 0. -1.
        -11    1    3    3    0    0  0.74169407226E+01  0.20940036636E+02  0.74860985885E+00  0.22227383134E+02  0.51100000000E-03 0.  1.
        -12    1    3    3    0    0 -0.17117154161E+02 -0.13655036940E+01  0.33749325565E+01  0.17500049619E+02  0.00000000000E+00 0.  1.
</event>
<event>
 7    1  0.7821043E-012  0.5930192E+02  0.7816164E-02  0.1266605E+00
        -11   -1    0    0    0    0  0.00000000000E+00  0.00000000000E+00  0.45593999997E+02  0.45594000000E+02  0.51100000000E-03 0.  1.
         11   -1    0    0    0    0 -0.00000000000E+00 -0.00000000000E+00 -0.45593999997E+02  0.45594000000E+02  0.51100000000E-03 0. -1.
    9900012    2    1    2    0    0  0.27136766655E+02  0.12961235260E+02  0.10598305488E+02  0.59301924620E+02  0.49999964605E+02 0.  0.
         12    1    1    2    0    0 -0.27136766655E+02 -0.12961235260E+02 -0.10598305488E+02  0.31886075380E+02  0.00000000000E+00 0. -1.
         11    1    3    3    0    0  0.16977542110E+02 -0.24179843743E+01  0.28210738081E+02  0.33014077722E+02  0.51100000000E-03 0.  1.
        -11    1    3    3    0    0  0.65800658843E+01  0.13596678576E+02 -0.11503846481E+02  0.18986980262E+02  0.51100000000E-03 0. -1.
        -12    1    3    3    0    0  0.35791586610E+01  0.17825410576E+01 -0.61085861121E+01  0.73008666356E+01  0.00000000000E+00 0.  1.
</event>
<event>
 7    1  0.7821043E-012  0.5930197E+02  0.7816164E-02  0.1266605E+00
        -11   -1    0    0    0    0  0.00000000000E+00  0.00000000000E+00  0.45593999997E+02  0.45594000000E+02  0.51100000000E-03 0. -1.
         11   -1    0    0    0    0 -0.00000000000E+00 -0.00000000000E+00 -0.45593999997E+02  0.45594000000E+02  0.51100000000E-03 0.  1.
    9900012    2    1    2    0    0 -0.17511953332E+02 -0.15467857519E+02 -0.21697824117E+02  0.59301973324E+02  0.50000053430E+02 0.  0.
         12    1    1    2    0    0  0.17511953332E+02  0.15467857519E+02  0.21697824117E+02  0.31886026676E+02  0.00000000000E+00 0. -1.
         11    1    3    3    0    0 -0.13017361795E+01 -0.23400075146E+02  0.72162986951E+01  0.24522092101E+02  0.51100000000E-03 0. -1.
        -11    1    3    3    0    0 -0.14447747681E+02  0.80071006794E+01 -0.21247684458E+02  0.26913104047E+02  0.51100000000E-03 0.  1.
         12    1    3    3    0    0 -0.17624694716E+01 -0.74883053118E-01 -0.76664383538E+01  0.78667771764E+01  0.00000000000E+00 0. -1.
</event>
<event>
 7    1  0.7821043E-012  0.5930193E+02  0.7816164E-02  0.1266605E+00
        -11   -1    0    0    0    0  0.00000000000E+00  0.00000000000E+00  0.45593999997E+02  0.45594000000E+02  0.51100000000E-03 0.  1.
         11   -1    0    0    0    0 -0.00000000000E+00 -0.00000000000E+00 -0.45593999997E+02  0.45594000000E+02  0.51100000000E-03 0. -1.
    9900012    2    1    2    0    0 -0.11958997685E+02  0.10981588583E+02  0.27442825625E+02  0.59301927935E+02  0.49999970651E+02 0.  0.
         12    1    1    2    0    0  0.11958997685E+02 -0.10981588583E+02 -0.27442825625E+02  0.31886072065E+02  0.00000000000E+00 0. -1.
         11    1    3    3    0    0  0.62435466098E+01 -0.59944895886E+01 -0.95086671372E+01  0.12858092031E+02  0.51100000000E-03 0. -1.
        -11    1    3    3    0    0 -0.11729369532E+02  0.30666446074E+01  0.21417784388E+02  0.24611052539E+02  0.51100000000E-03 0.  1.
         12    1    3    3    0    0 -0.64731747636E+01  0.13909433564E+02  0.15533708374E+02  0.21832783365E+02  0.00000000000E+00 0. -1.
</event>
<event>
 7    1  0.7821043E-012  0.5930188E+02  0.7816164E-02  0.1266605E+00
        -11   -1    0    0    0    0  0.00000000000E+00  0.00000000000E+00  0.45593999997E+02  0.45594000000E+02  0.51100000000E-03 0.  1.
         11   -1    0    0    0    0 -0.00000000000E+00 -0.00000000000E+00 -0.45593999997E+02  0.45594000000E+02  0.51100000000E-03 0. -1.
    9900012    2    1    2    0    0 -0.20464247948E+02  0.18109258710E+02 -0.16431495507E+02  0.59301878572E+02  0.49999880624E+02 0.  0.
         12    1    1    2    0    0  0.20464247948E+02 -0.18109258710E+02  0.16431495507E+02  0.31886121428E+02  0.00000000000E+00 0. -1.
         11    1    3    3    0    0  0.84984209624E+00 -0.78122203367E+01 -0.36412064485E+01  0.86609123561E+01  0.51100000000E-03 0. -1.
        -11    1    3    3    0    0 -0.17607199410E+02  0.28034283858E+02  0.39736816808E+01  0.33342535729E+02  0.51100000000E-03 0.  1.
        -12    1    3    3    0    0 -0.37068906347E+01 -0.21128048107E+01 -0.16763970739E+02  0.17298430487E+02  0.00000000000E+00 0.  1.
</event>
<event>
 7    1  0.7821043E-012  0.5930198E+02  0.7816164E-02  0.1266605E+00
        -11   -1    0    0    0    0  0.00000000000E+00  0.00000000000E+00  0.45593999997E+02  0.45594000000E+02  0.51100000000E-03 0.  1.
         11   -1    0    0    0    0 -0.00000000000E+00 -0.00000000000E+00 -0.45593999997E+02  0.45594000000E+02  0.51100000000E-03 0. -1.
    9900012    2    1    2    0    0  0.74599762245E+01 -0.30977964442E+02  0.11970659903E+01  0.59301976523E+02  0.50000059263E+02 0.  0.
         12    1    1    2    0    0 -0.74599762245E+01  0.30977964442E+02 -0.11970659903E+01  0.31886023477E+02  0.00000000000E+00 0. -1.
         11    1    3    3    0    0 -0.24545827498E+01  0.11222979011E+02  0.60937321487E+00  0.11504415253E+02  0.51100000000E-03 0. -1.
        -11    1    3    3    0    0  0.14017031372E+02 -0.30789095136E+02  0.62694051147E+01  0.34405682504E+02  0.51100000000E-03 0.  1.
        -12    1    3    3    0    0 -0.41024723981E+01 -0.11411848316E+02 -0.56817123393E+01  0.13391878766E+02  0.00000000000E+00 0.  1.
</event>
<event>
 7    1  0.7821043E-012  0.5930195E+02  0.7816164E-02  0.1266605E+00
        -11   -1    0    0    0    0  0.00000000000E+00  0.00000000000E+00  0.45593999997E+02  0.45594000000E+02  0.51100000000E-03 0. -1.
         11   -1    0    0    0    0 -0.00000000000E+00 -0.00000000000E+00 -0.45593999997E+02  0.45594000000E+02  0.51100000000E-03 0.  1.
    9900012    2    1    2    0    0 -0.17827157454E+02 -0.24277367748E+02 -0.10465278458E+02  0.59301950059E+02  0.50000011000E+02 0.  0.
         12    1    1    2    0    0  0.17827157454E+02  0.24277367748E+02  0.10465278458E+02  0.31886049941E+02  0.00000000000E+00 0. -1.
         11    1    3    3    0    0 -0.39612290434E+01 -0.76937452132E+00 -0.12964741657E+02  0.13578210456E+02  0.51100000000E-03 0.  1.
        -11    1    3    3    0    0  0.27951160970E+01  0.36632668648E+01  0.11679313737E+02  0.12555419856E+02  0.51100000000E-03 0. -1.
        -12    1    3    3    0    0 -0.16661044507E+02 -0.27171260091E+02 -0.91798505387E+01  0.33168319748E+02  0.00000000000E+00 0.  1.
</event>
<event>
 7    1  0.7821043E-012  0.5930196E+02  0.7816164E-02  0.1266605E+00
        -11   -1    0    0    0    0  0.00000000000E+00  0.00000000000E+00  0.45593999997E+02  0.45594000000E+02  0.51100000000E-03 0.  1.
         11   -1    0    0    0    0 -0.00000000000E+00 -0.00000000000E+00 -0.45593999997E+02  0.45594000000E+02  0.51100000000E-03 0. -1.
    9900012    2    1    2    0    0  0.73912202533E+01  0.21499556089E+02  0.22357511491E+02  0.59301962790E+02  0.50000034219E+02 0.  0.
         12    1    1    2    0    0 -0.73912202533E+01 -0.21499556089E+02 -0.22357511491E+02  0.31886037210E+02  0.00000000000E+00 0. -1.
         11    1    3    3    0    0  0.21673096904E+01 -0.14027234755E+02  0.62705513036E+01  0.15517098958E+02  0.51100000000E-03 0. -1.
        -11    1    3    3    0    0 -0.55500612993E+01  0.10277148639E+02 -0.53561034195E+00  0.11692298460E+02  0.51100000000E-03 0.  1.
         12    1    3    3    0    0  0.10773971862E+02  0.25249642205E+02  0.16622570529E+02  0.32092565372E+02  0.00000000000E+00 0. -1.
</event>
<event>
 7    1  0.7821043E-012  0.5930194E+02  0.7816164E-02  0.1266605E+00
        -11   -1    0    0    0    0  0.00000000000E+00  0.00000000000E+00  0.45593999997E+02  0.45594000000E+02  0.51100000000E-03 0.  1.
         11   -1    0    0    0    0 -0.00000000000E+00 -0.00000000000E+00 -0.45593999997E+02  0.45594000000E+02  0.51100000000E-03 0. -1.
    9900012    2    1    2    0    0 -0.53295741485E+01  0.20300086789E+02  0.24004644640E+02  0.59301939589E+02  0.49999991904E+02 0.  0.
         12    1    1    2    0    0  0.53295741485E+01 -0.20300086789E+02 -0.24004644640E+02  0.31886060411E+02  0.00000000000E+00 0. -1.
         11    1    3    3    0    0 -0.34406917761E+01 -0.80517139736E+00 -0.62901649123E+00  0.35891952976E+01  0.51100000000E-03 0. -1.
        -11    1    3    3    0    0 -0.79401020693E+01  0.31192229160E+02  0.28843006128E+02  0.43219432939E+02  0.51100000000E-03 0.  1.
        -12    1    3    3    0    0  0.60512196969E+01 -0.10086970973E+02 -0.42093449968E+01  0.12493311352E+02  0.00000000000E+00 0.  1.
</event>
<event>
 7    1  0.7821043E-012  0.5930194E+02  0.7816164E-02  0.1266605E+00
        -11   -1    0    0    0    0  0.00000000000E+00  0.00000000000E+00  0.45593999997E+02  0.45594000000E+02  0.51100000000E-03 0. -1.
         11   -1    0    0    0    0 -0.00000000000E+00 -0.00000000000E+00 -0.45593999997E+02  0.45594000000E+02  0.51100000000E-03 0.  1.
    9900012    2    1    2    0    0  0.15805032591E+02  0.15828197599E+02 -0.22724218682E+02  0.59301937070E+02  0.49999987311E+02 0.  0.
         12    1    1    2    0    0 -0.15805032591E+02 -0.15828197599E+02  0.22724218682E+02  0.31886062930E+02  0.00000000000E+00 0. -1.
         11    1    3    3    0    0  0.17051758675E+01 -0.14513984026E+02 -0.16277950423E+02  0.21875443476E+02  0.51100000000E-03 0. -1.
        -11    1    3    3    0    0  0.35214835322E+01  0.24302405934E+02 -0.28234356202E+01  0.24718000918E+02  0.51100000000E-03 0.  1.
         12    1    3    3    0    0  0.10578373191E+02  0.60397756907E+01 -0.36228326396E+01  0.12708492676E+02  0.00000000000E+00 0. -1.
</event>
<event>
 7    1  0.7821043E-012  0.5930187E+02  0.7816164E-02  0.1266605E+00
        -11   -1    0    0    0    0  0.00000000000E+00  0.00000000000E+00  0.45593999997E+02  0.45594000000E+02  0.51100000000E-03 0.  1.
         11   -1    0    0    0    0 -0.00000000000E+00 -0.00000000000E+00 -0.45593999997E+02  0.45594000000E+02  0.51100000000E-03 0. -1.
    9900012    2    1    2    0    0  0.28088843735E+01 -0.22454122550E+02  0.22464367150E+02  0.59301870690E+02  0.49999866249E+02 0.  0.
         12    1    1    2    0    0 -0.28088843735E+01  0.22454122550E+02 -0.22464367150E+02  0.31886129310E+02  0.00000000000E+00 0. -1.
         11    1    3    3    0    0  0.12443332666E+02 -0.38593217824E+01  0.48201359853E+01  0.13891169988E+02  0.51100000000E-03 0. -1.
        -11    1    3    3    0    0 -0.17999093821E+02 -0.21911058624E+02  0.33953578609E+01  0.28558542044E+02  0.51100000000E-03 0.  1.
        -12    1    3    3    0    0  0.83646455290E+01  0.33162578567E+01  0.14248873304E+02  0.16852158658E+02  0.00000000000E+00 0.  1.
</event>
<event>
 7    1  0.7821043E-012  0.5930193E+02  0.7816164E-02  0.1266605E+00
        -11   -1    0    0    0    0  0.00000000000E+00  0.00000000000E+00  0.45593999997E+02  0.45594000000E+02  0.51100000000E-03 0. -1.
         11   -1    0    0    0    0 -0.00000000000E+00 -0.00000000000E+00 -0.45593999997E+02  0.45594000000E+02  0.51100000000E-03 0.  1.
    9900012    2    1    2    0    0 -0.18078758409E+02  0.19364362253E+02 -0.17745463727E+02  0.59301929154E+02  0.49999972875E+02 0.  0.
         12    1    1    2    0    0  0.18078758409E+02 -0.19364362253E+02  0.17745463727E+02  0.31886070846E+02  0.00000000000E+00 0. -1.
         11    1    3    3    0    0 -0.22985872836E+01  0.28358054691E+02 -0.12584540202E+02  0.31110021243E+02  0.51100000000E-03 0.  1.
        -11    1    3    3    0    0 -0.13776676822E+02 -0.60557331386E+01  0.62085588185E+01  0.16279279191E+02  0.51100000000E-03 0. -1.
        -12    1    3    3    0    0 -0.20034943037E+01 -0.29379592998E+01 -0.11369482344E+02  0.11912628721E+02  0.00000000000E+00 0.  1.
</event>
<event>
 7    1  0.7821043E-012  0.5930194E+02  0.7816164E-02  0.1266605E+00
        -11   -1    0    0    0    0  0.00000000000E+00  0.00000000000E+00  0.45593999997E+02  0.45594000000E+02  0.51100000000E-03 0. -1.
         11   -1    0    0    0    0 -0.00000000000E+00 -0.00000000000E+00 -0.45593999997E+02  0.45594000000E+02  0.51100000000E-03 0.  1.
    9900012    2    1    2    0    0 -0.70946069271E+01 -0.27970861466E+02 -0.13565324238E+02  0.59301944109E+02  0.50000000148E+02 0.  0.
         12    1    1    2    0    0  0.70946069271E+01  0.27970861466E+02  0.13565324238E+02  0.31886055891E+02  0.00000000000E+00 0. -1.
         11    1    3    3    0    0  0.12501298865E+01  0.37483443150E+01  0.13597835434E+02  0.14160297969E+02  0.51100000000E-03 0. -1.
        -11    1    3    3    0    0 -0.36769759018E+01 -0.15278785652E+02 -0.22467545258E+02  0.27418096815E+02  0.51100000000E-03 0.  1.
         12    1    3    3    0    0 -0.46677609118E+01 -0.16440420129E+02 -0.46956144143E+01  0.17723549325E+02  0.00000000000E+00 0. -1.
</event>
<event>
 7    1  0.7821043E-012  0.5930193E+02  0.7816164E-02  0.1266605E+00
        -11   -1    0    0    0    0  0.00000000000E+00  0.00000000000E+00  0.45593999997E+02  0.45594000000E+02  0.51100000000E-03 0.  1.
         11   -1    0    0    0    0 -0.00000000000E+00 -0.00000000000E+00 -0.45593999997E+02  0.45594000000E+02  0.51100000000E-03 0. -1.
    9900012    2    1    2    0    0  0.10123730072E+02  0.20466147058E+02  0.22256876314E+02  0.59301927347E+02  0.49999969579E+02 0.  0.
         12    1    1    2    0    0 -0.10123730072E+02 -0.20466147058E+02 -0.22256876314E+02  0.31886072653E+02  0.00000000000E+00 0. -1.
         11    1    3    3    0    0  0.10605426028E+02  0.11935040762E+02  0.18973794762E+02  0.24797684310E+02  0.51100000000E-03 0.  1.
        -11    1    3    3    0    0 -0.76205817413E+01  0.10515594067E+02 -0.11897081894E+02  0.17612255463E+02  0.51100000000E-03 0. -1.
         12    1    3    3    0    0  0.71388857848E+01 -0.19844877706E+01  0.15180163446E+02  0.16891987574E+02  0.00000000000E+00 0. -1.
</event>
<event>
 7    1  0.7821043E-012  0.5930188E+02  0.7816164E-02  0.1266605E+00
        -11   -1    0    0    0    0  0.00000000000E+00  0.00000000000E+00  0.45593999997E+02  0.45594000000E+02  0.51100000000E-03 0.  1.
         11   -1    0    0    0    0 -0.00000000000E+00 -0.00000000000E+00 -0.45593999997E+02  0.45594000000E+02  0.51100000000E-03 0. -1.
    9900012    2    1    2    0    0 -0.11273513733E+02  0.26969088842E+02 -0.12739721278E+02  0.59301884478E+02  0.49999891395E+02 0.  0.
         12    1    1    2    0    0  0.11273513733E+02 -0.26969088842E+02  0.12739721278E+02  0.31886115522E+02  0.00000000000E+00 0. -1.
         11    1    3    3    0    0 -0.85580146319E+01  0.11859295529E+01  0.17946643709E+01  0.88242202947E+01  0.51100000000E-03 0. -1.
        -11    1    3    3    0    0 -0.12546435654E+02  0.40509402509E+01 -0.21857918570E+02  0.25526295638E+02  0.51100000000E-03 0.  1.
        -12    1    3    3    0    0  0.98309365525E+01  0.21732219038E+02  0.73235329208E+01  0.24951368545E+02  0.00000000000E+00 0.  1.
</event>
<event>
 7    1  0.7821043E-012  0.5930195E+02  0.7816164E-02  0.1266605E+00
        -11   -1    0    0    0    0  0.00000000000E+00  0.00000000000E+00  0.45593999997E+02  0.45594000000E+02  0.51100000000E-03 0.  1.
         11   -1    0    0    0    0 -0.00000000000E+00 -0.00000000000E+00 -0.45593999997E+02  0.45594000000E+02  0.51100000000E-03 0. -1.
    9900012    2    1    2    0    0  0.11188182203E+02 -0.28379933522E+02  0.92802994959E+01  0.59301952793E+02  0.50000015986E+02 0.  0.
         12    1    1    2    0    0 -0.11188182203E+02  0.28379933522E+02 -0.92802994959E+01  0.31886047207E+02  0.00000000000E+00 0. -1.
         11    1    3    3    0    0  0.91114414324E+01 -0.50885905392E+01 -0.53248718788E+01  0.11716073550E+02  0.51100000000E-03 0. -1.
        -11    1    3    3    0    0 -0.27705521660E+01 -0.17418934770E+02  0.27464979069E+02  0.32640777003E+02  0.51100000000E-03 0.  1.
        -12    1    3    3    0    0  0.48472929369E+01 -0.58724082125E+01 -0.12859807694E+02  0.14945102240E+02  0.00000000000E+00 0.  1.
</event>
<event>
 7    1  0.7821043E-012  0.5930196E+02  0.7816164E-02  0.1266605E+00
        -11   -1    0    0    0    0  0.00000000000E+00  0.00000000000E+00  0.45593999997E+02  0.45594000000E+02  0.51100000000E-03 0. -1.
         11   -1    0    0    0    0 -0.00000000000E+00 -0.00000000000E+00 -0.45593999997E+02  0.45594000000E+02  0.51100000000E-03 0.  1.
    9900012    2    1    2    0    0  0.19218861050E+02 -0.24189945978E+02  0.78867949415E+01  0.59301958525E+02  0.50000026440E+02 0.  0.
         12    1    1    2    0    0 -0.19218861050E+02  0.24189945978E+02 -0.78867949415E+01  0.31886041475E+02  0.00000000000E+00 0. -1.
         11    1    3    3    0    0  0.23452846344E+02 -0.12255130148E+02  0.33929277798E+01  0.26678384054E+02  0.51100000000E-03 0. -1.
        -11    1    3    3    0    0 -0.52175298213E+01 -0.17137422537E+01 -0.11998657999E+02  0.13195731279E+02  0.51100000000E-03 0.  1.
         12    1    3    3    0    0  0.98354452730E+00 -0.10221073577E+02  0.16492525161E+02  0.19427843192E+02  0.00000000000E+00 0. -1.
</event>
<event>
 7    1  0.7821043E-012  0.5930194E+02  0.7816164E-02  0.1266605E+00
        -11   -1    0    0    0    0  0.00000000000E+00  0.00000000000E+00  0.45593999997E+02  0.45594000000E+02  0.51100000000E-03 0.  1.
         11   -1    0    0    0    0 -0.00000000000E+00 -0.00000000000E+00 -0.45593999997E+02  0.45594000000E+02  0.51100000000E-03 0. -1.
    9900012    2    1    2    0    0 -0.33813720514E+01 -0.16509469712E+02  0.27068887358E+02  0.59301938313E+02  0.49999989577E+02 0.  0.
         12    1    1    2    0    0  0.33813720514E+01  0.16509469712E+02 -0.27068887358E+02  0.31886061687E+02  0.00000000000E+00 0. -1.
         11    1    3    3    0    0 -0.44899291011E+00 -0.78516256807E+01 -0.11927927418E+02  0.14287234624E+02  0.51100000000E-03 0. -1.
        -11    1    3    3    0    0  0.59008694260E+01 -0.19080347491E+01  0.30222571873E+02  0.30852304735E+02  0.51100000000E-03 0.  1.
        -12    1    3    3    0    0 -0.88332485674E+01 -0.67498092820E+01  0.87742429032E+01  0.14162398954E+02  0.00000000000E+00 0.  1.
</event>
<event>
 7    1  0.7821043E-012  0.5930197E+02  0.7816164E-02  0.1266605E+00
        -11   -1    0    0    0    0  0.00000000000E+00  0.00000000000E+00  0.45593999997E+02  0.45594000000E+02  0.51100000000E-03 0.  1.
         11   -1    0    0    0    0 -0.00000000000E+00 -0.00000000000E+00 -0.45593999997E+02  0.45594000000E+02  0.51100000000E-03 0. -1.
    9900012    2    1    2    0    0 -0.28805856104E+01 -0.58107577283E+01  0.31219488523E+02  0.59301966342E+02  0.50000040695E+02 0.  0.
         12    1    1    2    0    0  0.28805856104E+01  0.58107577283E+01 -0.31219488523E+02  0.31886033658E+02  0.00000000000E+00 0. -1.
         11    1    3    3    0    0 -0.42016160481E+01 -0.12836734062E+01 -0.27146354286E+01  0.51643625551E+01  0.51100000000E-03 0.  1.
        -11    1    3    3    0    0  0.17692862839E+02  0.45428427006E+01  0.37902258697E+01  0.18655847010E+02  0.51100000000E-03 0. -1.
        -12    1    3    3    0    0 -0.16371832402E+02 -0.90699270227E+01  0.30143898082E+02  0.35481756777E+02  0.00000000000E+00 0.  1.
</event>
<event>
 7    1  0.7821043E-012  0.5930193E+02  0.7816164E-02  0.1266605E+00
        -11   -1    0    0    0    0  0.00000000000E+00  0.00000000000E+00  0.45593999997E+02  0.45594000000E+02  0.51100000000E-03 0. -1.
         11   -1    0    0    0    0 -0.00000000000E+00 -0.00000000000E+00 -0.45593999997E+02  0.45594000000E+02  0.51100000000E-03 0.  1.
    9900012    2    1    2    0    0 -0.15487172329E+02  0.13725844240E+02  0.24258400818E+02  0.59301932242E+02  0.49999978506E+02 0.  0.
         12    1    1    2    0    0  0.15487172329E+02 -0.13725844240E+02 -0.24258400818E+02  0.31886067758E+02  0.00000000000E+00 0. -1.
         11    1    3    3    0    0  0.93113387328E+00 -0.15121897804E+02  0.15226553767E+02  0.21479914882E+02  0.51100000000E-03 0. -1.
        -11    1    3    3    0    0 -0.15377591958E+02  0.16207214349E+02  0.11139771779E+02  0.24964748085E+02  0.51100000000E-03 0.  1.
         12    1    3    3    0    0 -0.10407142434E+01  0.12640527695E+02 -0.21079247278E+01  0.12857269275E+02  0.00000000000E+00 0. -1.
</event>
<event>
 7    1  0.7821043E-012  0.5930194E+02  0.7816164E-02  0.1266605E+00
        -11   -1    0    0    0    0  0.00000000000E+00  0.00000000000E+00  0.45593999997E+02  0.45594000000E+02  0.51100000000E-03 0.  1.
         11   -1    0    0    0    0 -0.00000000000E+00 -0.00000000000E+00 -0.45593999997E+02  0.45594000000E+02  0.51100000000E-03 0. -1.
    9900012    2    1    2    0    0 -0.11851978225E+02 -0.12182148972E+02  0.26978630866E+02  0.59301942470E+02  0.49999997158E+02 0.  0.
         12    1    1    2    0    0  0.11851978225E+02  0.12182148972E+02 -0.26978630866E+02  0.31886057530E+02  0.00000000000E+00 0. -1.
         11    1    3    3    0    0 -0.13377069395E+02 -0.15674821660E+02 -0.79669821710E+01  0.22093411344E+02  0.51100000000E-03 0. -1.
        -11    1    3    3    0    0 -0.46777773637E+01 -0.93421669139E+00  0.18124762549E+02  0.18741968403E+02  0.51100000000E-03 0.  1.
         12    1    3    3    0    0  0.62028685339E+01  0.44268893793E+01  0.16820850488E+02  0.18466562722E+02  0.00000000000E+00 0. -1.
</event>
<event>
 7    1  0.7821043E-012  0.5930195E+02  0.7816164E-02  0.1266605E+00
        -11   -1    0    0    0    0  0.00000000000E+00  0.00000000000E+00  0.45593999997E+02  0.45594000000E+02  0.51100000000E-03 0. -1.
         11   -1    0    0    0    0 -0.00000000000E+00 -0.00000000000E+00 -0.45593999997E+02  0.45594000000E+02  0.51100000000E-03 0.  1.
    9900012    2    1    2    0    0  0.43211961147E+00  0.29823033230E+02  0.11274761349E+02  0.59301948474E+02  0.50000008110E+02 0.  0.
         12    1    1    2    0    0 -0.43211961147E+00 -0.29823033230E+02 -0.11274761349E+02  0.31886051526E+02  0.00000000000E+00 0. -1.
         11    1    3    3    0    0  0.82046305029E+01 -0.70329758283E+01  0.17548002016E+02  0.20608519736E+02  0.51100000000E-03 0. -1.
        -11    1    3    3    0    0 -0.52077998786E+01  0.26068680171E+02 -0.15130674277E+01  0.26626803013E+02  0.51100000000E-03 0.  1.
         12    1    3    3    0    0 -0.25647110128E+01  0.10787328888E+02 -0.47601732392E+01  0.12066625725E+02  0.00000000000E+00 0. -1.
</event>
<event>
 7    1  0.7821043E-012  0.5930191E+02  0.7816164E-02  0.1266605E+00
        -11   -1    0    0    0    0  0.00000000000E+00  0.00000000000E+00  0.45593999997E+02  0.45594000000E+02  0.51100000000E-03 0.  1.
         11   -1    0    0    0    0 -0.00000000000E+00 -0.00000000000E+00 -0.45593999997E+02  0.45594000000E+02  0.51100000000E-03 0. -1.
    9900012    2    1    2    0    0  0.29167683727E+02  0.10573288551E+02 -0.73603434872E+01  0.59301908031E+02  0.49999934351E+02 0.  0.
         12    1    1    2    0    0 -0.29167683727E+02 -0.10573288551E+02  0.73603434872E+01  0.31886091969E+02  0.00000000000E+00 0. -1.
         11    1    3    3    0    0  0.15114041173E+02  0.44606627309E+01 -0.18033696358E+02  0.23948819536E+02  0.51100000000E-03 0. -1.
        -11    1    3    3    0    0  0.56986701292E+01  0.17525676080E+02  0.10494645120E+02  0.21207586845E+02  0.51100000000E-03 0.  1.
        -12    1    3    3    0    0  0.83549724251E+01 -0.11413050261E+02  0.17870775070E+00  0.14145501650E+02  0.00000000000E+00 0.  1.
</event>
<event>
 7    1  0.7821043E-012  0.5930194E+02  0.7816164E-02  0.1266605E+00
        -11   -1    0    0    0    0  0.00000000000E+00  0.00000000000E+00  0.45593999997E+02  0.45594000000E+02  0.51100000000E-03 0.  1.
         11   -1    0    0    0    0 -0.00000000000E+00 -0.00000000000E+00 -0.45593999997E+02  0.45594000000E+02  0.51100000000E-03 0. -1.
    9900012    2    1    2    0    0 -0.13124175096E+02  0.25612030684E+02  0.13729547029E+02  0.59301944281E+02  0.50000000462E+02 0.  0.
         12    1    1    2    0    0  0.13124175096E+02 -0.25612030684E+02 -0.13729547029E+02  0.31886055719E+02  0.00000000000E+00 0. -1.
         11    1    3    3    0    0 -0.10824477765E+02  0.27780428597E+02  0.67197741255E+01  0.30562671619E+02  0.51100000000E-03 0. -1.
        -11    1    3    3    0    0 -0.51393567168E+01 -0.97718869078E+01 -0.66217238766E+01  0.12874392745E+02  0.51100000000E-03 0.  1.
        -12    1    3    3    0    0  0.28396593852E+01  0.76034889948E+01  0.13631496780E+02  0.15864879917E+02  0.00000000000E+00 0.  1.
</event>
<event>
 7    1  0.7821043E-012  0.5930192E+02  0.7816164E-02  0.1266605E+00
        -11   -1    0    0    0    0  0.00000000000E+00  0.00000000000E+00  0.45593999997E+02  0.45594000000E+02  0.51100000000E-03 0.  1.
         11   -1    0    0    0    0 -0.00000000000E+00 -0.00000000000E+00 -0.45593999997E+02  0.45594000000E+02  0.51100000000E-03 0. -1.
    9900012    2    1    2    0    0 -0.22748377625E+02 -0.15338870240E+02  0.16246604592E+02  0.59301924896E+02  0.49999965108E+02 0.  0.
         12    1    1    2    0    0  0.22748377625E+02  0.15338870240E+02 -0.16246604592E+02  0.31886075104E+02  0.00000000000E+00 0. -1.
         11    1    3    3    0    0 -0.21259194201E+02 -0.30591791382E+01 -0.10147176012E+02  0.23754517388E+02  0.51100000000E-03 0. -1.
        -11    1    3    3    0    0  0.74742072352E+01 -0.10977890141E+02  0.21450071272E+02  0.25228622705E+02  0.51100000000E-03 0.  1.
         12    1    3    3    0    0 -0.89633906592E+01 -0.13018009605E+01  0.49437093319E+01  0.10318784803E+02  0.00000000000E+00 0. -1.
</event>
<event>
 7    1  0.7821043E-012  0.5930194E+02  0.7816164E-02  0.1266605E+00
        -11   -1    0    0    0    0  0.00000000000E+00  0.00000000000E+00  0.45593999997E+02  0.45594000000E+02  0.51100000000E-03 0. -1.
         11   -1    0    0    0    0 -0.00000000000E+00 -0.00000000000E+00 -0.45593999997E+02  0.45594000000E+02  0.51100000000E-03 0.  1.
    9900012    2    1    2    0    0 -0.94152403722E+01  0.58659414622E+00 -0.30458655893E+02  0.59301944070E+02  0.50000000077E+02 0.  0.
         12    1    1    2    0    0  0.94152403722E+01 -0.58659414622E+00  0.30458655893E+02  0.31886055930E+02  0.00000000000E+00 0. -1.
         11    1    3    3    0    0  0.65872559167E+01 -0.65880029214E+01 -0.93557656146E+01  0.13203184218E+02  0.51100000000E-03 0. -1.
        -11    1    3    3    0    0 -0.19446189164E+02 -0.69084337871E+01 -0.17253130378E+00  0.20637599127E+02  0.51100000000E-03 0.  1.
        -12    1    3    3    0    0  0.34436928752E+01  0.14083030855E+02 -0.20930358975E+02  0.25461160725E+02  0.00000000000E+00 0.  1.
</event>
<event>
 7    1  0.7821043E-012  0.5930166E+02  0.7816164E-02  0.1266606E+00
        -11   -1    0    0    0    0  0.00000000000E+00  0.00000000000E+00  0.45593999997E+02  0.45594000000E+02  0.51100000000E-03 0.  1.
         11   -1    0    0    0    0 -0.00000000000E+00 -0.00000000000E+00 -0.45593999997E+02  0.45594000000E+02  0.51100000000E-03 0. -1.
    9900012    2    1    2    0    0  0.17704206810E+02 -0.20991820589E+02  0.16206277191E+02  0.59301656673E+02  0.49999475931E+02 0.  0.
         12    1    1    2    0    0 -0.17704206810E+02  0.20991820589E+02 -0.16206277191E+02  0.31886343327E+02  0.00000000000E+00 0. -1.
         11    1    3    3    0    0 -0.68481489129E+01  0.23925291946E+01  0.91404445489E+01  0.11669150196E+02  0.51100000000E-03 0. -1.
        -11    1    3    3    0    0  0.35479317781E+01 -0.25710112110E+02  0.45664844603E+01  0.26352428071E+02  0.51100000000E-03 0.  1.
         12    1    3    3    0    0  0.21004423944E+02  0.23257623272E+01  0.24993481819E+01  0.21280078406E+02  0.00000000000E+00 0. -1.
</event>
<event>
 7    1  0.7821043E-012  0.5930196E+02  0.7816164E-02  0.1266605E+00
        -11   -1    0    0    0    0  0.00000000000E+00  0.00000000000E+00  0.45593999997E+02  0.45594000000E+02  0.51100000000E-03 0. -1.
         11   -1    0    0    0    0 -0.00000000000E+00 -0.00000000000E+00 -0.45593999997E+02  0.45594000000E+02  0.51100000000E-03 0.  1.
    9900012    2    1    2    0    0  0.29452216294E+02 -0.11955329316E+02  0.25212513941E+01  0.59301958347E+02  0.50000026115E+02 0.  0.
         12    1    1    2    0    0 -0.29452216294E+02  0.11955329316E+02 -0.25212513941E+01  0.31886041653E+02  0.00000000000E+00 0. -1.
         11    1    3    3    0    0 -0.12652622849E+02  0.39659353848E-01  0.75907554187E+01  0.14754999353E+02  0.51100000000E-03 0. -1.
        -11    1    3    3    0    0  0.50742545341E+01 -0.37422084307E+01 -0.33791311463E+00  0.63139819884E+01  0.51100000000E-03 0.  1.
         12    1    3    3    0    0  0.37030584609E+02 -0.82527802395E+01 -0.47315909099E+01  0.38232977006E+02  0.00000000000E+00 0. -1.
</event>
<event>
 7    1  0.8736058E-012  0.5930198E+02  0.7816164E-02  0.1266605E+00
        -11   -1    0    0    0    0  0.00000000000E+00  0.00000000000E+00  0.45593999997E+02  0.45594000000E+02  0.51100000000E-03 0.  1.
         11   -1    0    0    0    0 -0.00000000000E+00 -0.00000000000E+00 -0.45593999997E+02  0.45594000000E+02  0.51100000000E-03 0. -1.
    9900012    2    1    2    0    0  0.30140781230E+02  0.10399361978E+02 -0.32374575910E+00  0.59301980586E+02  0.50000066674E+02 0.  0.
         12    1    1    2    0    0 -0.30140781230E+02 -0.10399361978E+02  0.32374575910E+00  0.31886019414E+02  0.00000000000E+00 0. -1.
         11    1    3    3    0    0  0.67712364081E+01 -0.13490835988E+02 -0.68404927250E+01  0.16572405955E+02  0.51100000000E-03 0. -1.
        -11    1    3    3    0    0  0.15787292177E+02  0.95615679261E+01  0.15582907912E+02  0.24155521000E+02  0.51100000000E-03 0.  1.
         12    1    3    3    0    0  0.75822526449E+01  0.14328630040E+02 -0.90661609465E+01  0.18574053632E+02  0.00000000000E+00 0. -1.
</event>
<event>
 7    1  0.7821043E-012  0.5930195E+02  0.7816164E-02  0.1266605E+00
        -11   -1    0    0    0    0  0.00000000000E+00  0.00000000000E+00  0.45593999997E+02  0.45594000000E+02  0.51100000000E-03 0.  1.
         11   -1    0    0    0    0 -0.00000000000E+00 -0.00000000000E+00 -0.45593999997E+02  0.45594000000E+02  0.51100000000E-03 0. -1.
    9900012    2    1    2    0    0 -0.11380182081E+02 -0.10832309816E+02  0.27746582863E+02  0.59301947552E+02  0.50000006427E+02 0.  0.
         12    1    1    2    0    0  0.11380182081E+02  0.10832309816E+02 -0.27746582863E+02  0.31886052448E+02  0.00000000000E+00 0. -1.
         11    1    3    3    0    0 -0.23624892804E+02  0.79922049465E+01  0.11356200698E+02  0.27403908380E+02  0.51100000000E-03 0. -1.
        -11    1    3    3    0    0  0.28573620454E+01 -0.14528947774E+02  0.15654990971E+02  0.21548400958E+02  0.51100000000E-03 0.  1.
         12    1    3    3    0    0  0.93873486780E+01 -0.42955669883E+01  0.73539119392E+00  0.10349638214E+02  0.00000000000E+00 0. -1.
</event>
<event>
 7    1  0.7821043E-012  0.5930195E+02  0.7816164E-02  0.1266605E+00
        -11   -1    0    0    0    0  0.00000000000E+00  0.00000000000E+00  0.45593999997E+02  0.45594000000E+02  0.51100000000E-03 0.  1.
         11   -1    0    0    0    0 -0.00000000000E+00 -0.00000000000E+00 -0.45593999997E+02  0.45594000000E+02  0.51100000000E-03 0. -1.
    9900012    2    1    2    0    0  0.18272355767E+02 -0.10606052655E+02  0.23882067164E+02  0.59301945521E+02  0.50000002724E+02 0.  0.
         12    1    1    2    0    0 -0.18272355767E+02  0.10606052655E+02 -0.23882067164E+02  0.31886054479E+02  0.00000000000E+00 0. -1.
         11    1    3    3    0    0 -0.29057132098E-02 -0.19826744479E+02  0.12597542474E+02  0.23490378492E+02  0.51100000000E-03 0. -1.
        -11    1    3    3    0    0  0.24615610103E+02  0.81936190954E+01  0.13200748677E+02  0.29108820322E+02  0.51100000000E-03 0.  1.
         12    1    3    3    0    0 -0.63403486230E+01  0.10270727283E+01 -0.19162239875E+01  0.67027467072E+01  0.00000000000E+00 0. -1.
</event>
<event>
 7    1  0.7821043E-012  0.5930193E+02  0.7816164E-02  0.1266605E+00
        -11   -1    0    0    0    0  0.00000000000E+00  0.00000000000E+00  0.45593999997E+02  0.45594000000E+02  0.51100000000E-03 0. -1.
         11   -1    0    0    0    0 -0.00000000000E+00 -0.00000000000E+00 -0.45593999997E+02  0.45594000000E+02  0.51100000000E-03 0.  1.
    9900012    2    1    2    0    0 -0.23120677384E+02  0.91080046967E+01 -0.19979990761E+02  0.59301929325E+02  0.49999973187E+02 0.  0.
         12    1    1    2    0    0  0.23120677384E+02 -0.91080046967E+01  0.19979990761E+02  0.31886070675E+02  0.00000000000E+00 0. -1.
         11    1    3    3    0    0  0.22287150262E+01  0.42739563812E+01  0.37973403367E+01  0.61362584455E+01  0.51100000000E-03 0. -1.
        -11    1    3    3    0    0 -0.26187772536E+02 -0.12735110341E+02 -0.19555143152E+02  0.35076859748E+02  0.51100000000E-03 0.  1.
        -12    1    3    3    0    0  0.83838012586E+00  0.17569158656E+02 -0.42221879454E+01  0.18088811132E+02  0.00000000000E+00 0.  1.
</event>
<event>
 7    1  0.7821043E-012  0.5930182E+02  0.7816164E-02  0.1266605E+00
        -11   -1    0    0    0    0  0.00000000000E+00  0.00000000000E+00  0.45593999997E+02  0.45594000000E+02  0.51100000000E-03 0. -1.
         11   -1    0    0    0    0 -0.00000000000E+00 -0.00000000000E+00 -0.45593999997E+02  0.45594000000E+02  0.51100000000E-03 0.  1.
    9900012    2    1    2    0    0  0.14817276113E+02  0.23080118469E+02 -0.16262989331E+02  0.59301821773E+02  0.49999777037E+02 0.  0.
         12    1    1    2    0    0 -0.14817276113E+02 -0.23080118469E+02  0.16262989331E+02  0.31886178227E+02  0.00000000000E+00 0. -1.
         11    1    3    3    0    0 -0.36526872888E+01 -0.61203157262E+01  0.94247535394E+01  0.11816360208E+02  0.51100000000E-03 0. -1.
        -11    1    3    3    0    0  0.15916879166E+02  0.31635537148E+02 -0.19670885135E+02  0.40510467478E+02  0.51100000000E-03 0.  1.
        -12    1    3    3    0    0  0.25530842361E+01 -0.24351029534E+01 -0.60168577356E+01  0.69749940875E+01  0.00000000000E+00 0.  1.
</event>
<event>
 7    1  0.7821043E-012  0.5930193E+02  0.7816164E-02  0.1266605E+00
        -11   -1    0    0    0    0  0.00000000000E+00  0.00000000000E+00  0.45593999997E+02  0.45594000000E+02  0.51100000000E-03 0. -1.
         11   -1    0    0    0    0 -0.00000000000E+00 -0.00000000000E+00 -0.45593999997E+02  0.45594000000E+02  0.51100000000E-03 0.  1.
    9900012    2    1    2    0    0  0.47572828375E+01  0.31478511300E+02  0.17868364792E+01  0.59301934105E+02  0.49999981903E+02 0.  0.
         12    1    1    2    0    0 -0.47572828375E+01 -0.31478511300E+02 -0.17868364792E+01  0.31886065895E+02  0.00000000000E+00 0. -1.
         11    1    3    3    0    0 -0.25963724717E+01  0.29855755288E+01  0.12677589020E+02  0.13280665453E+02  0.51100000000E-03 0. -1.
        -11    1    3    3    0    0  0.17626937959E+02  0.29107781567E+02 -0.10891862635E+02  0.35729603433E+02  0.51100000000E-03 0.  1.
        -12    1    3    3    0    0 -0.10273282650E+02 -0.61484579533E+00  0.11100940990E-02  0.10291665219E+02  0.00000000000E+00 0.  1.
</event>
<event>
 7    1  0.7821043E-012  0.5930193E+02  0.7816164E-02  0.1266605E+00
        -11   -1    0    0    0    0  0.00000000000E+00  0.00000000000E+00  0.45593999997E+02  0.45594000000E+02  0.51100000000E-03 0.  1.
         11   -1    0    0    0    0 -0.00000000000E+00 -0.00000000000E+00 -0.45593999997E+02  0.45594000000E+02  0.51100000000E-03 0. -1.
    9900012    2    1    2    0    0 -0.81838405220E+01 -0.50969846022E+01  0.30393530095E+02  0.59301934558E+02  0.49999982730E+02 0.  0.
         12    1    1    2    0    0  0.81838405220E+01  0.50969846022E+01 -0.30393530095E+02  0.31886065442E+02  0.00000000000E+00 0. -1.
         11    1    3    3    0    0  0.32666921336E+01  0.17284164363E+02  0.24973357907E+02  0.30546394560E+02  0.51100000000E-03 0. -1.
        -11    1    3    3    0    0 -0.12588970542E+01 -0.16348040831E+02  0.31976443703E+01  0.16705334196E+02  0.51100000000E-03 0.  1.
        -12    1    3    3    0    0 -0.10191635601E+02 -0.60331081338E+01  0.22225278182E+01  0.12050205803E+02  0.00000000000E+00 0.  1.
</event>
<event>
 7    1  0.7821043E-012  0.5930196E+02  0.7816164E-02  0.1266605E+00
        -11   -1    0    0    0    0  0.00000000000E+00  0.00000000000E+00  0.45593999997E+02  0.45594000000E+02  0.51100000000E-03 0. -1.
         11   -1    0    0    0    0 -0.00000000000E+00 -0.00000000000E+00 -0.45593999997E+02  0.45594000000E+02  0.51100000000E-03 0.  1.
    9900012    2    1    2    0    0 -0.14906844614E+02  0.23701845391E+02 -0.15255417901E+02  0.59301964395E+02  0.50000037145E+02 0.  0.
         12    1    1    2    0    0  0.14906844614E+02 -0.23701845391E+02  0.15255417901E+02  0.31886035605E+02  0.00000000000E+00 0. -1.
         11    1    3    3    0    0  0.12044047388E+02 -0.64655955245E+00  0.69249753893E+01  0.13907997740E+02  0.51100000000E-03 0. -1.
        -11    1    3    3    0    0 -0.25803683256E+02  0.14430096527E+02 -0.17624778373E+02  0.34419334222E+02  0.51100000000E-03 0.  1.
         12    1    3    3    0    0 -0.11472087460E+01  0.99183084165E+01 -0.45556149173E+01  0.10974632432E+02  0.00000000000E+00 0. -1.
</event>
<event>
 7    1  0.7821043E-012  0.5930195E+02  0.7816164E-02  0.1266605E+00
        -11   -1    0    0    0    0  0.00000000000E+00  0.00000000000E+00  0.45593999997E+02  0.45594000000E+02  0.51100000000E-03 0.  1.
         11   -1    0    0    0    0 -0.00000000000E+00 -0.00000000000E+00 -0.45593999997E+02  0.45594000000E+02  0.51100000000E-03 0. -1.
    9900012    2    1    2    0    0 -0.18294279057E+02 -0.29791031086E+01  0.25945418673E+02  0.59301945812E+02  0.50000003255E+02 0.  0.
         12    1    1    2    0    0  0.18294279057E+02  0.29791031086E+01 -0.25945418673E+02  0.31886054188E+02  0.00000000000E+00 0. -1.
         11    1    3    3    0    0  0.13047768720E+02 -0.90808369038E+01  0.12307665076E+02  0.20104340012E+02  0.51100000000E-03 0. -1.
        -11    1    3    3    0    0 -0.18519850885E+02 -0.38670313356E+01  0.12978106128E+02  0.22942755873E+02  0.51100000000E-03 0.  1.
        -12    1    3    3    0    0 -0.12822196892E+02  0.99687651308E+01  0.65964746895E+00  0.16254849927E+02  0.00000000000E+00 0.  1.
</event>
<event>
 7    1  0.7821043E-012  0.5930194E+02  0.7816164E-02  0.1266605E+00
        -11   -1    0    0    0    0  0.00000000000E+00  0.00000000000E+00  0.45593999997E+02  0.45594000000E+02  0.51100000000E-03 0. -1.
         11   -1    0    0    0    0 -0.00000000000E+00 -0.00000000000E+00 -0.45593999997E+02  0.45594000000E+02  0.51100000000E-03 0.  1.
    9900012    2    1    2    0    0 -0.11093680547E+01 -0.20519713653E+02 -0.24380962998E+02  0.59301941877E+02  0.49999996078E+02 0.  0.
         12    1    1    2    0    0  0.11093680547E+01  0.20519713653E+02  0.24380962998E+02  0.31886058123E+02  0.00000000000E+00 0. -1.
         11    1    3    3    0    0 -0.78356875672E+01  0.53296888987E+01  0.94713850624E+01  0.13398161018E+02  0.51100000000E-03 0. -1.
        -11    1    3    3    0    0  0.88512376335E+00 -0.19145981197E+02 -0.31214926959E+02  0.36629546890E+02  0.51100000000E-03 0.  1.
         12    1    3    3    0    0  0.58411957492E+01 -0.67034213548E+01 -0.26374211021E+01  0.92742339689E+01  0.00000000000E+00 0. -1.
</event>
<event>
 7    1  0.7821043E-012  0.5930195E+02  0.7816164E-02  0.1266605E+00
        -11   -1    0    0    0    0  0.00000000000E+00  0.00000000000E+00  0.45593999997E+02  0.45594000000E+02  0.51100000000E-03 0. -1.
         11   -1    0    0    0    0 -0.00000000000E+00 -0.00000000000E+00 -0.45593999997E+02  0.45594000000E+02  0.51100000000E-03 0.  1.
    9900012    2    1    2    0    0  0.10299778699E+02 -0.18945313508E+02 -0.23488499176E+02  0.59301953856E+02  0.50000017924E+02 0.  0.
         12    1    1    2    0    0 -0.10299778699E+02  0.18945313508E+02  0.23488499176E+02  0.31886046144E+02  0.00000000000E+00 0. -1.
         11    1    3    3    0    0  0.20685713226E+02 -0.16195841918E+02 -0.11994561991E+02  0.28880331451E+02  0.51100000000E-03 0.  1.
        -11    1    3    3    0    0 -0.69006444112E+01  0.91293458038E+01 -0.13695922721E+02  0.17847749089E+02  0.51100000000E-03 0. -1.
        -12    1    3    3    0    0 -0.34852901156E+01 -0.11878817395E+02  0.22019855356E+01  0.12573873317E+02  0.00000000000E+00 0.  1.
</event>
<event>
 7    1  0.7821043E-012  0.5930195E+02  0.7816164E-02  0.1266605E+00
        -11   -1    0    0    0    0  0.00000000000E+00  0.00000000000E+00  0.45593999997E+02  0.45594000000E+02  0.51100000000E-03 0.  1.
         11   -1    0    0    0    0 -0.00000000000E+00 -0.00000000000E+00 -0.45593999997E+02  0.45594000000E+02  0.51100000000E-03 0. -1.
    9900012    2    1    2    0    0  0.18591063299E+02  0.21962111936E+02  0.13738926798E+02  0.59301951251E+02  0.50000013174E+02 0.  0.
         12    1    1    2    0    0 -0.18591063299E+02 -0.21962111936E+02 -0.13738926798E+02  0.31886048749E+02  0.00000000000E+00 0. -1.
         11    1    3    3    0    0 -0.13171493962E+02  0.53691875678E+01  0.52116616481E+01  0.15148526190E+02  0.51100000000E-03 0. -1.
        -11    1    3    3    0    0  0.22736794639E+02  0.22790816056E+02  0.45917983609E+01  0.32518729055E+02  0.51100000000E-03 0.  1.
         12    1    3    3    0    0  0.90257626227E+01 -0.61978916878E+01  0.39354667886E+01  0.11634696005E+02  0.00000000000E+00 0. -1.
</event>
<event>
 7    1  0.7821043E-012  0.5930190E+02  0.7816164E-02  0.1266605E+00
        -11   -1    0    0    0    0  0.00000000000E+00  0.00000000000E+00  0.45593999997E+02  0.45594000000E+02  0.51100000000E-03 0. -1.
         11   -1    0    0    0    0 -0.00000000000E+00 -0.00000000000E+00 -0.45593999997E+02  0.45594000000E+02  0.51100000000E-03 0.  1.
    9900012    2    1    2    0    0 -0.12557380024E+02  0.28991119394E+02 -0.43070074876E+01  0.59301904123E+02  0.49999927223E+02 0.  0.
         12    1    1    2    0    0  0.12557380024E+02 -0.28991119394E+02  0.43070074876E+01  0.31886095877E+02  0.00000000000E+00 0. -1.
         11    1    3    3    0    0  0.14022342427E+02  0.21189809363E+02 -0.32689307961E+01  0.25618743467E+02  0.51100000000E-03 0. -1.
        -11    1    3    3    0    0 -0.91369601339E+01  0.11106189049E+02  0.45285917581E+01  0.15077785621E+02  0.51100000000E-03 0.  1.
         12    1    3    3    0    0 -0.17442762317E+02 -0.33048790174E+01 -0.55666684496E+01  0.18605375035E+02  0.00000000000E+00 0. -1.
</event>
<event>
 7    1  0.7821043E-012  0.5930197E+02  0.7816164E-02  0.1266605E+00
        -11   -1    0    0    0    0  0.00000000000E+00  0.00000000000E+00  0.45593999997E+02  0.45594000000E+02  0.51100000000E-03 0. -1.
         11   -1    0    0    0    0 -0.00000000000E+00 -0.00000000000E+00 -0.45593999997E+02  0.45594000000E+02  0.51100000000E-03 0.  1.
    9900012    2    1    2    0    0 -0.11524947574E+01  0.69944195807E+01 -0.31088076471E+02  0.59301974093E+02  0.50000054832E+02 0.  0.
         12    1    1    2    0    0  0.11524947574E+01 -0.69944195807E+01  0.31088076471E+02  0.31886025907E+02  0.00000000000E+00 0. -1.
         11    1    3    3    0    0  0.21478503453E+01  0.77677047520E+01  0.58152676994E+01  0.99382008883E+01  0.51100000000E-03 0. -1.
        -11    1    3    3    0    0 -0.14732752190E+02  0.58721107657E+01 -0.31125154283E+02  0.34932948650E+02  0.51100000000E-03 0.  1.
         12    1    3    3    0    0  0.11432407087E+02 -0.66453959369E+01 -0.57781898873E+01  0.14430824555E+02  0.00000000000E+00 0. -1.
</event>
<event>
 7    1  0.7821043E-012  0.5930195E+02  0.7816164E-02  0.1266605E+00
        -11   -1    0    0    0    0  0.00000000000E+00  0.00000000000E+00  0.45593999997E+02  0.45594000000E+02  0.51100000000E-03 0. -1.
         11   -1    0    0    0    0 -0.00000000000E+00 -0.00000000000E+00 -0.45593999997E+02  0.45594000000E+02  0.51100000000E-03 0.  1.
    9900012    2    1    2    0    0 -0.18077452153E+01 -0.15708211163E+02 -0.27689431185E+02  0.59301945995E+02  0.50000003587E+02 0.  0.
         12    1    1    2    0    0  0.18077452153E+01  0.15708211163E+02  0.27689431185E+02  0.31886054005E+02  0.00000000000E+00 0. -1.
         11    1    3    3    0    0 -0.71303521506E+00  0.97462055526E+00 -0.27088163677E+02  0.27115068064E+02  0.51100000000E-03 0. -1.
        -11    1    3    3    0    0 -0.95326442589E+01 -0.13995389379E+02  0.89573242972E+01  0.19156614765E+02  0.51100000000E-03 0.  1.
        -12    1    3    3    0    0  0.84379342587E+01 -0.26874423390E+01 -0.95585918052E+01  0.13030263166E+02  0.00000000000E+00 0.  1.
</event>
<event>
 7    1  0.7821043E-012  0.5930196E+02  0.7816164E-02  0.1266605E+00
        -11   -1    0    0    0    0  0.00000000000E+00  0.00000000000E+00  0.45593999997E+02  0.45594000000E+02  0.51100000000E-03 0. -1.
         11   -1    0    0    0    0 -0.00000000000E+00 -0.00000000000E+00 -0.45593999997E+02  0.45594000000E+02  0.51100000000E-03 0.  1.
    9900012    2    1    2    0    0 -0.23058607323E+01  0.20331344765E+02 -0.24454838846E+02  0.59301957337E+02  0.50000024273E+02 0.  0.
         12    1    1    2    0    0  0.23058607323E+01 -0.20331344765E+02  0.24454838846E+02  0.31886042663E+02  0.00000000000E+00 0. -1.
         11    1    3    3    0    0 -0.48774643129E+01 -0.13068284494E+02  0.21711101942E+00  0.13950514513E+02  0.51100000000E-03 0. -1.
        -11    1    3    3    0    0  0.82920578296E+01  0.10856228363E+02 -0.14635866797E+02  0.20020602251E+02  0.51100000000E-03 0.  1.
         12    1    3    3    0    0 -0.57204542491E+01  0.22543400896E+02 -0.10036083069E+02  0.25330840573E+02  0.00000000000E+00 0. -1.
</event>
<event>
 7    1  0.7821043E-012  0.5930189E+02  0.7816164E-02  0.1266605E+00
        -11   -1    0    0    0    0  0.00000000000E+00  0.00000000000E+00  0.45593999997E+02  0.45594000000E+02  0.51100000000E-03 0.  1.
         11   -1    0    0    0    0 -0.00000000000E+00 -0.00000000000E+00 -0.45593999997E+02  0.45594000000E+02  0.51100000000E-03 0. -1.
    9900012    2    1    2    0    0 -0.98665932896E+01  0.29697129860E+02  0.61200199240E+01  0.59301892853E+02  0.49999906670E+02 0.  0.
         12    1    1    2    0    0  0.98665932896E+01 -0.29697129860E+02 -0.61200199240E+01  0.31886107147E+02  0.00000000000E+00 0. -1.
         11    1    3    3    0    0  0.70692968277E+01 -0.10014570573E+02  0.25107388491E+01  0.12512809086E+02  0.51100000000E-03 0. -1.
        -11    1    3    3    0    0 -0.19124125827E+02  0.30915415104E+02  0.71658721216E+01  0.37051920372E+02  0.51100000000E-03 0.  1.
         12    1    3    3    0    0  0.21882357101E+01  0.87962853293E+01 -0.35565910466E+01  0.97371633955E+01  0.00000000000E+00 0. -1.
</event>
<event>
 7    1  0.7821043E-012  0.5930195E+02  0.7816164E-02  0.1266605E+00
        -11   -1    0    0    0    0  0.00000000000E+00  0.00000000000E+00  0.45593999997E+02  0.45594000000E+02  0.51100000000E-03 0. -1.
         11   -1    0    0    0    0 -0.00000000000E+00 -0.00000000000E+00 -0.45593999997E+02  0.45594000000E+02  0.51100000000E-03 0.  1.
    9900012    2    1    2    0    0 -0.57573451960E+01 -0.72897599730E+01 -0.30502990891E+02  0.59301951680E+02  0.50000013956E+02 0.  0.
         12    1    1    2    0    0  0.57573451960E+01  0.72897599730E+01  0.30502990891E+02  0.31886048320E+02  0.00000000000E+00 0. -1.
         11    1    3    3    0    0 -0.52571584950E+01  0.76759599033E+01 -0.40721128362E+01  0.10155795345E+02  0.51100000000E-03 0. -1.
        -11    1    3    3    0    0 -0.13732934442E+02 -0.21013892744E+02 -0.23328873629E+02  0.34269717269E+02  0.51100000000E-03 0.  1.
        -12    1    3    3    0    0  0.13232747741E+02  0.60481728676E+01 -0.31020044262E+01  0.14876439066E+02  0.00000000000E+00 0.  1.
</event>
<event>
 7    1  0.7821043E-012  0.5930188E+02  0.7816164E-02  0.1266605E+00
        -11   -1    0    0    0    0  0.00000000000E+00  0.00000000000E+00  0.45593999997E+02  0.45594000000E+02  0.51100000000E-03 0. -1.
         11   -1    0    0    0    0 -0.00000000000E+00 -0.00000000000E+00 -0.45593999997E+02  0.45594000000E+02  0.51100000000E-03 0.  1.
    9900012    2    1    2    0    0  0.77220139256E+01  0.27063173537E+02 -0.14989311894E+02  0.59301884965E+02  0.49999892284E+02 0.  0.
         12    1    1    2    0    0 -0.77220139256E+01 -0.27063173537E+02  0.14989311894E+02  0.31886115035E+02  0.00000000000E+00 0. -1.
         11    1    3    3    0    0 -0.15352999856E+01  0.17483584237E+02  0.31616706603E+01  0.17833368314E+02  0.51100000000E-03 0. -1.
        -11    1    3    3    0    0  0.14169964684E+02 -0.62863982236E+01 -0.19376265806E+02  0.24814237418E+02  0.51100000000E-03 0.  1.
        -12    1    3    3    0    0 -0.49126507730E+01  0.15865987524E+02  0.12252832512E+01  0.16654279233E+02  0.00000000000E+00 0.  1.
</event>
<event>
 7    1  0.7821043E-012  0.5930193E+02  0.7816164E-02  0.1266605E+00
        -11   -1    0    0    0    0  0.00000000000E+00  0.00000000000E+00  0.45593999997E+02  0.45594000000E+02  0.51100000000E-03 0. -1.
         11   -1    0    0    0    0 -0.00000000000E+00 -0.00000000000E+00 -0.45593999997E+02  0.45594000000E+02  0.51100000000E-03 0.  1.
    9900012    2    1    2    0    0  0.15738083499E+02 -0.20497338216E+02 -0.18678685366E+02  0.59301930422E+02  0.49999975186E+02 0.  0.
         12    1    1    2    0    0 -0.15738083499E+02  0.20497338216E+02  0.18678685366E+02  0.31886069578E+02  0.00000000000E+00 0. -1.
         11    1    3    3    0    0 -0.80468591175E+01  0.25540824961E+01  0.36274683389E+01  0.91887869637E+01  0.51100000000E-03 0. -1.
        -11    1    3    3    0    0  0.18249600442E+02 -0.30053651562E+02 -0.21352789725E+02  0.41136498609E+02  0.51100000000E-03 0.  1.
        -12    1    3    3    0    0  0.55353421743E+01  0.70022308504E+01 -0.95336397966E+00  0.89766448490E+01  0.00000000000E+00 0.  1.
</event>
<event>
 7    1  0.7821043E-012  0.5930194E+02  0.7816164E-02  0.1266605E+00
        -11   -1    0    0    0    0  0.00000000000E+00  0.00000000000E+00  0.45593999997E+02  0.45594000000E+02  0.51100000000E-03 0.  1.
         11   -1    0    0    0    0 -0.00000000000E+00 -0.00000000000E+00 -0.45593999997E+02  0.45594000000E+02  0.51100000000E-03 0. -1.
    9900012    2    1    2    0    0 -0.25013186848E+01  0.12903035024E+02  0.29051262508E+02  0.59301940957E+02  0.49999994400E+02 0.  0.
         12    1    1    2    0    0  0.25013186848E+01 -0.12903035024E+02 -0.29051262508E+02  0.31886059043E+02  0.00000000000E+00 0. -1.
         11    1    3    3    0    0  0.17608238254E+01  0.25437047345E+01 -0.10152976743E+02  0.10613852803E+02  0.51100000000E-03 0. -1.
        -11    1    3    3    0    0  0.12475711877E+01  0.17436621085E+02  0.15572098499E+02  0.23411160601E+02  0.51100000000E-03 0.  1.
         12    1    3    3    0    0 -0.55097136980E+01 -0.70772907960E+01  0.23632140752E+02  0.25276927554E+02  0.00000000000E+00 0. -1.
</event>
<event>
 7    1  0.7821043E-012  0.5930195E+02  0.7816164E-02  0.1266605E+00
        -11   -1    0    0    0    0  0.00000000000E+00  0.00000000000E+00  0.45593999997E+02  0.45594000000E+02  0.51100000000E-03 0. -1.
         11   -1    0    0    0    0 -0.00000000000E+00 -0.00000000000E+00 -0.45593999997E+02  0.45594000000E+02  0.51100000000E-03 0.  1.
    9900012    2    1    2    0    0 -0.15356240581E+02 -0.11583897741E+02 -0.25430676505E+02  0.59301951026E+02  0.50000012763E+02 0.  0.
         12    1    1    2    0    0  0.15356240581E+02  0.11583897741E+02  0.25430676505E+02  0.31886048974E+02  0.00000000000E+00 0. -1.
         11    1    3    3    0    0 -0.34573797434E+00 -0.14621366400E+02 -0.33814192416E+02  0.36841600116E+02  0.51100000000E-03 0. -1.
        -11    1    3    3    0    0 -0.92635584668E+01  0.45848871796E+01 -0.19661666630E+01  0.10521431344E+02  0.51100000000E-03 0.  1.
         12    1    3    3    0    0 -0.57469441397E+01 -0.15474185210E+01  0.10349682574E+02  0.11938919566E+02  0.00000000000E+00 0. -1.
</event>
<event>
 7    1  0.7821043E-012  0.5930196E+02  0.7816164E-02  0.1266605E+00
        -11   -1    0    0    0    0  0.00000000000E+00  0.00000000000E+00  0.45593999997E+02  0.45594000000E+02  0.51100000000E-03 0.  1.
         11   -1    0    0    0    0 -0.00000000000E+00 -0.00000000000E+00 -0.45593999997E+02  0.45594000000E+02  0.51100000000E-03 0. -1.
    9900012    2    1    2    0    0 -0.21302068035E+02 -0.98389395350E+00  0.23705984167E+02  0.59301955479E+02  0.50000020884E+02 0.  0.
         12    1    1    2    0    0  0.21302068035E+02  0.98389395350E+00 -0.23705984167E+02  0.31886044521E+02  0.00000000000E+00 0. -1.
         11    1    3    3    0    0 -0.16681597579E+02  0.21226510075E+01  0.30885680718E+02  0.35166839761E+02  0.51100000000E-03 0.  1.
        -11    1    3    3    0    0 -0.41626651514E+01 -0.40923960840E+01 -0.15074793279E+02  0.16165546064E+02  0.51100000000E-03 0. -1.
         12    1    3    3    0    0 -0.45780530526E+00  0.98585112300E+00  0.78950967278E+01  0.79695696544E+01  0.00000000000E+00 0. -1.
</event>
<event>
 7    1  0.7821043E-012  0.5930201E+02  0.7816164E-02  0.1266605E+00
        -11   -1    0    0    0    0  0.00000000000E+00  0.00000000000E+00  0.45593999997E+02  0.45594000000E+02  0.51100000000E-03 0. -1.
         11   -1    0    0    0    0 -0.00000000000E+00 -0.00000000000E+00 -0.45593999997E+02  0.45594000000E+02  0.51100000000E-03 0.  1.
    9900012    2    1    2    0    0 -0.45170152946E+01  0.89252942508E+01 -0.30276260700E+02  0.59302011438E+02  0.50000122939E+02 0.  0.
         12    1    1    2    0    0  0.45170152946E+01 -0.89252942508E+01  0.30276260700E+02  0.31885988562E+02  0.00000000000E+00 0. -1.
         11    1    3    3    0    0  0.80706816933E+01  0.58106531355E+01 -0.75042157842E+01  0.12458444833E+02  0.51100000000E-03 0. -1.
        -11    1    3    3    0    0 -0.14112964335E+02 -0.82919311845E+01  0.47237536109E+01  0.17036599823E+02  0.51100000000E-03 0.  1.
        -12    1    3    3    0    0  0.15252673472E+01  0.11406572300E+02 -0.27495798527E+02  0.29806966782E+02  0.00000000000E+00 0.  1.
</event>
<event>
 7    1  0.7821043E-012  0.5930194E+02  0.7816164E-02  0.1266605E+00
        -11   -1    0    0    0    0  0.00000000000E+00  0.00000000000E+00  0.45593999997E+02  0.45594000000E+02  0.51100000000E-03 0.  1.
         11   -1    0    0    0    0 -0.00000000000E+00 -0.00000000000E+00 -0.45593999997E+02  0.45594000000E+02  0.51100000000E-03 0. -1.
    9900012    2    1    2    0    0 -0.29575973749E+02 -0.11909748066E+02 -0.37452601090E+00  0.59301943613E+02  0.49999999243E+02 0.  0.
         12    1    1    2    0    0  0.29575973749E+02  0.11909748066E+02  0.37452601090E+00  0.31886056387E+02  0.00000000000E+00 0. -1.
         11    1    3    3    0    0  0.36700592525E+01  0.27358744186E+00 -0.92080021718E+01  0.99162235383E+01  0.51100000000E-03 0. -1.
        -11    1    3    3    0    0 -0.26787997607E+02  0.59249049211E+01  0.11922097712E+02  0.29913838407E+02  0.51100000000E-03 0.  1.
        -12    1    3    3    0    0 -0.64580353944E+01 -0.18108240429E+02 -0.30886215512E+01  0.19471881667E+02  0.00000000000E+00 0.  1.
</event>
<event>
 7    1  0.7821043E-012  0.5930182E+02  0.7816164E-02  0.1266605E+00
        -11   -1    0    0    0    0  0.00000000000E+00  0.00000000000E+00  0.45593999997E+02  0.45594000000E+02  0.51100000000E-03 0.  1.
         11   -1    0    0    0    0 -0.00000000000E+00 -0.00000000000E+00 -0.45593999997E+02  0.45594000000E+02  0.51100000000E-03 0. -1.
    9900012    2    1    2    0    0  0.12580363077E+02 -0.24316379035E+02  0.16345547127E+02  0.59301815916E+02  0.49999766355E+02 0.  0.
         12    1    1    2    0    0 -0.12580363077E+02  0.24316379035E+02 -0.16345547127E+02  0.31886184084E+02  0.00000000000E+00 0. -1.
         11    1    3    3    0    0 -0.13358490667E+02 -0.16756827461E+02  0.17493608014E+02  0.27663457142E+02  0.51100000000E-03 0. -1.
        -11    1    3    3    0    0  0.13411742908E+02 -0.10770605942E+02 -0.53939528401E+01  0.18027077625E+02  0.51100000000E-03 0.  1.
         12    1    3    3    0    0  0.12527110836E+02  0.32110543668E+01  0.42458919538E+01  0.13611281150E+02  0.00000000000E+00 0. -1.
</event>
<event>
 7    1  0.7821043E-012  0.5930208E+02  0.7816164E-02  0.1266604E+00
        -11   -1    0    0    0    0  0.00000000000E+00  0.00000000000E+00  0.45593999997E+02  0.45594000000E+02  0.51100000000E-03 0.  1.
         11   -1    0    0    0    0 -0.00000000000E+00 -0.00000000000E+00 -0.45593999997E+02  0.45594000000E+02  0.51100000000E-03 0. -1.
    9900012    2    1    2    0    0 -0.26536055951E+02  0.17108839973E+02  0.44538684892E+01  0.59302084376E+02  0.50000255961E+02 0.  0.
         12    1    1    2    0    0  0.26536055951E+02 -0.17108839973E+02 -0.44538684892E+01  0.31885915624E+02  0.00000000000E+00 0. -1.
         11    1    3    3    0    0 -0.62514357910E+01 -0.99388647342E+01  0.74888509183E+00  0.11765301135E+02  0.51100000000E-03 0. -1.
        -11    1    3    3    0    0 -0.93781627787E+01  0.16431557095E+02 -0.14478708301E+02  0.23823916554E+02  0.51100000000E-03 0.  1.
        -12    1    3    3    0    0 -0.10906457381E+02  0.10616147612E+02  0.18183691698E+02  0.23712866687E+02  0.00000000000E+00 0.  1.
</event>
<event>
 7    1  0.7821043E-012  0.5930203E+02  0.7816164E-02  0.1266604E+00
        -11   -1    0    0    0    0  0.00000000000E+00  0.00000000000E+00  0.45593999997E+02  0.45594000000E+02  0.51100000000E-03 0.  1.
         11   -1    0    0    0    0 -0.00000000000E+00 -0.00000000000E+00 -0.45593999997E+02  0.45594000000E+02  0.51100000000E-03 0. -1.
    9900012    2    1    2    0    0  0.50968780148E+01 -0.17087201820E+01  0.31429562397E+02  0.59302026867E+02  0.50000151079E+02 0.  0.
         12    1    1    2    0    0 -0.50968780148E+01  0.17087201820E+01 -0.31429562397E+02  0.31885973133E+02  0.00000000000E+00 0. -1.
         11    1    3    3    0    0 -0.58203820175E+01  0.11754311103E+02  0.14709346521E+02  0.19708007299E+02  0.51100000000E-03 0. -1.
        -11    1    3    3    0    0  0.17833471963E+02 -0.16539051817E+02  0.37965437319E+01  0.24616797147E+02  0.51100000000E-03 0.  1.
        -12    1    3    3    0    0 -0.69162119303E+01  0.30760205313E+01  0.12923672144E+02  0.14977222421E+02  0.00000000000E+00 0.  1.
</event>
<event>
 7    1  0.7821043E-012  0.5930195E+02  0.7816164E-02  0.1266605E+00
        -11   -1    0    0    0    0  0.00000000000E+00  0.00000000000E+00  0.45593999997E+02  0.45594000000E+02  0.51100000000E-03 0.  1.
         11   -1    0    0    0    0 -0.00000000000E+00 -0.00000000000E+00 -0.45593999997E+02  0.45594000000E+02  0.51100000000E-03 0. -1.
    9900012    2    1    2    0    0 -0.55421594864E+01  0.23053583188E+02  0.21319870098E+02  0.59301951474E+02  0.50000013580E+02 0.  0.
         12    1    1    2    0    0  0.55421594864E+01 -0.23053583188E+02 -0.21319870098E+02  0.31886048526E+02  0.00000000000E+00 0. -1.
         11    1    3    3    0    0 -0.11358396218E+02  0.67992794470E+01  0.87679373668E+01  0.15878289945E+02  0.51100000000E-03 0. -1.
        -11    1    3    3    0    0  0.12457975806E+02  0.26232561759E+02  0.56272944253E+01  0.29580650778E+02  0.51100000000E-03 0.  1.
        -12    1    3    3    0    0 -0.66417390745E+01 -0.99782580175E+01  0.69246383063E+01  0.13843010752E+02  0.00000000000E+00 0.  1.
</event>
<event>
 7    1  0.7821043E-012  0.5930196E+02  0.7816164E-02  0.1266605E+00
        -11   -1    0    0    0    0  0.00000000000E+00  0.00000000000E+00  0.45593999997E+02  0.45594000000E+02  0.51100000000E-03 0.  1.
         11   -1    0    0    0    0 -0.00000000000E+00 -0.00000000000E+00 -0.45593999997E+02  0.45594000000E+02  0.51100000000E-03 0. -1.
    9900012    2    1    2    0    0  0.16647700370E+02  0.37485184741E+01  0.26935521258E+02  0.59301958794E+02  0.50000026930E+02 0.  0.
         12    1    1    2    0    0 -0.16647700370E+02 -0.37485184741E+01 -0.26935521258E+02  0.31886041206E+02  0.00000000000E+00 0. -1.
         11    1    3    3    0    0  0.12934934050E+02  0.15725291387E+02 -0.16713301700E+01  0.20430140794E+02  0.51100000000E-03 0. -1.
        -11    1    3    3    0    0 -0.18604503416E+01 -0.11480930052E+02  0.30753185611E+02  0.32879042806E+02  0.51100000000E-03 0.  1.
        -12    1    3    3    0    0  0.55732166615E+01 -0.49584286048E+00 -0.21463341831E+01  0.59927751938E+01  0.00000000000E+00 0.  1.
</event>
<event>
 7    1  0.7821043E-012  0.5930192E+02  0.7816164E-02  0.1266605E+00
        -11   -1    0    0    0    0  0.00000000000E+00  0.00000000000E+00  0.45593999997E+02  0.45594000000E+02  0.51100000000E-03 0.  1.
         11   -1    0    0    0    0 -0.00000000000E+00 -0.00000000000E+00 -0.45593999997E+02  0.45594000000E+02  0.51100000000E-03 0. -1.
    9900012    2    1    2    0    0 -0.14075537354E+02 -0.27584449661E+02  0.75960142640E+01  0.59301920787E+02  0.49999957614E+02 0.  0.
         12    1    1    2    0    0  0.14075537354E+02  0.27584449661E+02 -0.75960142640E+01  0.31886079213E+02  0.00000000000E+00 0. -1.
         11    1    3    3    0    0 -0.16970058602E+02 -0.67742645690E+01 -0.15424922442E+02  0.23912377172E+02  0.51100000000E-03 0. -1.
        -11    1    3    3    0    0 -0.55420672619E+01 -0.16313268964E+02  0.16165175409E+02  0.23625201589E+02  0.51100000000E-03 0.  1.
         12    1    3    3    0    0  0.84365885100E+01 -0.44969161275E+01  0.68557612975E+01  0.11764342026E+02  0.00000000000E+00 0. -1.
</event>
<event>
 7    1  0.7821043E-012  0.5930195E+02  0.7816164E-02  0.1266605E+00
        -11   -1    0    0    0    0  0.00000000000E+00  0.00000000000E+00  0.45593999997E+02  0.45594000000E+02  0.51100000000E-03 0.  1.
         11   -1    0    0    0    0 -0.00000000000E+00 -0.00000000000E+00 -0.45593999997E+02  0.45594000000E+02  0.51100000000E-03 0. -1.
    9900012    2    1    2    0    0 -0.54572777254E+00  0.22035773842E+02  0.23040120507E+02  0.59301948181E+02  0.50000007575E+02 0.  0.
         12    1    1    2    0    0  0.54572777254E+00 -0.22035773842E+02 -0.23040120507E+02  0.31886051819E+02  0.00000000000E+00 0. -1.
         11    1    3    3    0    0 -0.49222907168E+01  0.34427487310E+01 -0.66508999294E+01  0.89619158029E+01  0.51100000000E-03 0. -1.
        -11    1    3    3    0    0 -0.10926606809E+02  0.20792375229E+02  0.24720884432E+02  0.34100377292E+02  0.51100000000E-03 0.  1.
        -12    1    3    3    0    0  0.15303169753E+02 -0.21993501183E+01  0.49701360039E+01  0.16239655087E+02  0.00000000000E+00 0.  1.
</event>
<event>
 7    1  0.7821043E-012  0.5930194E+02  0.7816164E-02  0.1266605E+00
        -11   -1    0    0    0    0  0.00000000000E+00  0.00000000000E+00  0.45593999997E+02  0.45594000000E+02  0.51100000000E-03 0. -1.
         11   -1    0    0    0    0 -0.00000000000E+00 -0.00000000000E+00 -0.45593999997E+02  0.45594000000E+02  0.51100000000E-03 0.  1.
    9900012    2    1    2    0    0 -0.87616627083E+01 -0.58170015428E+01 -0.30101767352E+02  0.59301942890E+02  0.49999997924E+02 0.  0.
         12    1    1    2    0    0  0.87616627083E+01  0.58170015428E+01  0.30101767352E+02  0.31886057110E+02  0.00000000000E+00 0. -1.
         11    1    3    3    0    0 -0.23809147182E+02  0.29790172250E+00 -0.18993120111E+02  0.30458214767E+02  0.51100000000E-03 0. -1.
        -11    1    3    3    0    0  0.11109159300E+02 -0.13946225404E+02 -0.80060615904E+01  0.19545015882E+02  0.51100000000E-03 0.  1.
         12    1    3    3    0    0  0.39383251735E+01  0.78313221390E+01 -0.31025856499E+01  0.92987122405E+01  0.00000000000E+00 0. -1.
</event>
<event>
 7    1  0.7821043E-012  0.5930195E+02  0.7816164E-02  0.1266605E+00
        -11   -1    0    0    0    0  0.00000000000E+00  0.00000000000E+00  0.45593999997E+02  0.45594000000E+02  0.51100000000E-03 0. -1.
         11   -1    0    0    0    0 -0.00000000000E+00 -0.00000000000E+00 -0.45593999997E+02  0.45594000000E+02  0.51100000000E-03 0.  1.
    9900012    2    1    2    0    0 -0.20740367671E+02 -0.18804089851E+02 -0.15263141256E+02  0.59301950899E+02  0.50000012532E+02 0.  0.
         12    1    1    2    0    0  0.20740367671E+02  0.18804089851E+02  0.15263141256E+02  0.31886049101E+02  0.00000000000E+00 0. -1.
         11    1    3    3    0    0  0.70623284265E+01 -0.10312745295E+02 -0.20138779998E+01  0.12660367419E+02  0.51100000000E-03 0. -1.
        -11    1    3    3    0    0 -0.24805783212E+02 -0.14988233136E+02 -0.21227823755E+02  0.35924845371E+02  0.51100000000E-03 0.  1.
        -12    1    3    3    0    0 -0.29969128849E+01  0.64968885806E+01  0.79785604982E+01  0.10716738109E+02  0.00000000000E+00 0.  1.
</event>
<event>
 7    1  0.7821043E-012  0.5930194E+02  0.7816164E-02  0.1266605E+00
        -11   -1    0    0    0    0  0.00000000000E+00  0.00000000000E+00  0.45593999997E+02  0.45594000000E+02  0.51100000000E-03 0.  1.
         11   -1    0    0    0    0 -0.00000000000E+00 -0.00000000000E+00 -0.45593999997E+02  0.45594000000E+02  0.51100000000E-03 0. -1.
    9900012    2    1    2    0    0  0.28400419218E+02 -0.66768677762E+01 -0.12866881068E+02  0.59301937160E+02  0.49999987474E+02 0.  0.
         12    1    1    2    0    0 -0.28400419218E+02  0.66768677762E+01  0.12866881068E+02  0.31886062840E+02  0.00000000000E+00 0. -1.
         11    1    3    3    0    0 -0.97203815626E+01  0.30243392299E+01 -0.79387303607E+01  0.12909526928E+02  0.51100000000E-03 0. -1.
        -11    1    3    3    0    0  0.26406970850E+02  0.25332162914E+01  0.46517874719E+01  0.26932961612E+02  0.51100000000E-03 0.  1.
        -12    1    3    3    0    0  0.11713829930E+02 -0.12234423297E+02 -0.95799381792E+01  0.19459448619E+02  0.00000000000E+00 0.  1.
</event>
<event>
 7    1  0.7821043E-012  0.5930205E+02  0.7816164E-02  0.1266604E+00
        -11   -1    0    0    0    0  0.00000000000E+00  0.00000000000E+00  0.45593999997E+02  0.45594000000E+02  0.51100000000E-03 0. -1.
         11   -1    0    0    0    0 -0.00000000000E+00 -0.00000000000E+00 -0.45593999997E+02  0.45594000000E+02  0.51100000000E-03 0.  1.
    9900012    2    1    2    0    0 -0.30272787544E+01  0.10931957748E+02 -0.29800025266E+02  0.59302052896E+02  0.50000198549E+02 0.  0.
         12    1    1    2    0    0  0.30272787544E+01 -0.10931957748E+02  0.29800025266E+02  0.31885947104E+02  0.00000000000E+00 0. -1.
         11    1    3    3    0    0  0.18930861569E+01  0.43560912155E+01  0.88931567587E+01  0.10082040630E+02  0.51100000000E-03 0. -1.
        -11    1    3    3    0    0  0.15714146150E+01 -0.53067966922E+00 -0.39524135271E+02  0.39558921041E+02  0.51100000000E-03 0.  1.
         12    1    3    3    0    0 -0.64917795263E+01  0.71065462021E+01  0.83095324567E+00  0.96610912239E+01  0.00000000000E+00 0. -1.
</event>
<event>
 7    1  0.7821043E-012  0.5930196E+02  0.7816164E-02  0.1266605E+00
        -11   -1    0    0    0    0  0.00000000000E+00  0.00000000000E+00  0.45593999997E+02  0.45594000000E+02  0.51100000000E-03 0. -1.
         11   -1    0    0    0    0 -0.00000000000E+00 -0.00000000000E+00 -0.45593999997E+02  0.45594000000E+02  0.51100000000E-03 0.  1.
    9900012    2    1    2    0    0 -0.27050282425E+02  0.14336195451E+02 -0.89148810420E+01  0.59301962566E+02  0.50000033809E+02 0.  0.
         12    1    1    2    0    0  0.27050282425E+02 -0.14336195451E+02  0.89148810420E+01  0.31886037434E+02  0.00000000000E+00 0. -1.
         11    1    3    3    0    0  0.68501313334E+01 -0.68303850405E+01 -0.15816329853E+01  0.98020417387E+01  0.51100000000E-03 0. -1.
        -11    1    3    3    0    0 -0.19169211250E+02  0.22591664127E+02  0.52302577279E+01  0.30086501028E+02  0.51100000000E-03 0.  1.
        -12    1    3    3    0    0 -0.14731202508E+02 -0.14250836351E+01 -0.12563505785E+02  0.19413419799E+02  0.00000000000E+00 0.  1.
</event>
<event>
 7    1  0.7821043E-012  0.5930195E+02  0.7816164E-02  0.1266605E+00
        -11   -1    0    0    0    0  0.00000000000E+00  0.00000000000E+00  0.45593999997E+02  0.45594000000E+02  0.51100000000E-03 0.  1.
         11   -1    0    0    0    0 -0.00000000000E+00 -0.00000000000E+00 -0.45593999997E+02  0.45594000000E+02  0.51100000000E-03 0. -1.
    9900012    2    1    2    0    0 -0.39195525575E+01 -0.31210272337E+02 -0.52226348234E+01  0.59301954368E+02  0.50000018857E+02 0.  0.
         12    1    1    2    0    0  0.39195525575E+01  0.31210272337E+02  0.52226348234E+01  0.31886045632E+02  0.00000000000E+00 0. -1.
         11    1    3    3    0    0 -0.19203494077E+01 -0.31079734538E+01 -0.42012780768E+01  0.55675828307E+01  0.51100000000E-03 0. -1.
        -11    1    3    3    0    0 -0.14723216852E+01 -0.29149309794E+02  0.18253170240E+02  0.34424238796E+02  0.51100000000E-03 0.  1.
        -12    1    3    3    0    0 -0.52688146460E+00  0.10470109114E+01 -0.19274526986E+02  0.19310132741E+02  0.00000000000E+00 0.  1.
</event>
<event>
 7    1  0.7821043E-012  0.5930194E+02  0.7816164E-02  0.1266605E+00
        -11   -1    0    0    0    0  0.00000000000E+00  0.00000000000E+00  0.45593999997E+02  0.45594000000E+02  0.51100000000E-03 0.  1.
         11   -1    0    0    0    0 -0.00000000000E+00 -0.00000000000E+00 -0.45593999997E+02  0.45594000000E+02  0.51100000000E-03 0. -1.
    9900012    2    1    2    0    0  0.22884188508E+02 -0.17703418060E+02  0.13402386981E+02  0.59301936093E+02  0.49999985529E+02 0.  0.
         12    1    1    2    0    0 -0.22884188508E+02  0.17703418060E+02 -0.13402386981E+02  0.31886063907E+02  0.00000000000E+00 0. -1.
         11    1    3    3    0    0  0.56254073486E+01 -0.58324308492E+01 -0.14128924994E+02  0.16287694103E+02  0.51100000000E-03 0. -1.
        -11    1    3    3    0    0  0.64548378686E+01 -0.50552994560E+01  0.29017859810E+02  0.30153891502E+02  0.51100000000E-03 0.  1.
        -12    1    3    3    0    0  0.10803943291E+02 -0.68156877548E+01 -0.14865478352E+01  0.12860350488E+02  0.00000000000E+00 0.  1.
</event>
<event>
 7    1  0.7821043E-012  0.5930209E+02  0.7816164E-02  0.1266604E+00
        -11   -1    0    0    0    0  0.00000000000E+00  0.00000000000E+00  0.45593999997E+02  0.45594000000E+02  0.51100000000E-03 0.  1.
         11   -1    0    0    0    0 -0.00000000000E+00 -0.00000000000E+00 -0.45593999997E+02  0.45594000000E+02  0.51100000000E-03 0. -1.
    9900012    2    1    2    0    0 -0.21131363925E+02  0.15614843621E+02  0.18065244808E+02  0.59302094765E+02  0.50000274909E+02 0.  0.
         12    1    1    2    0    0  0.21131363925E+02 -0.15614843621E+02 -0.18065244808E+02  0.31885905235E+02  0.00000000000E+00 0. -1.
         11    1    3    3    0    0  0.48714781049E+01 -0.14792588063E+02  0.36587037290E+01  0.15998064688E+02  0.51100000000E-03 0. -1.
        -11    1    3    3    0    0 -0.21628163532E+02  0.23772826449E+02  0.80616745854E+01  0.33134805455E+02  0.51100000000E-03 0.  1.
         12    1    3    3    0    0 -0.43746784980E+01  0.66346052353E+01  0.63448664938E+01  0.10169224622E+02  0.00000000000E+00 0. -1.
</event>
<event>
 7    1  0.7821043E-012  0.5930194E+02  0.7816164E-02  0.1266605E+00
        -11   -1    0    0    0    0  0.00000000000E+00  0.00000000000E+00  0.45593999997E+02  0.45594000000E+02  0.51100000000E-03 0.  1.
         11   -1    0    0    0    0 -0.00000000000E+00 -0.00000000000E+00 -0.45593999997E+02  0.45594000000E+02  0.51100000000E-03 0. -1.
    9900012    2    1    2    0    0  0.84305433304E+01  0.15018970212E+02  0.26834259024E+02  0.59301937458E+02  0.49999988018E+02 0.  0.
         12    1    1    2    0    0 -0.84305433304E+01 -0.15018970212E+02 -0.26834259024E+02  0.31886062542E+02  0.00000000000E+00 0. -1.
         11    1    3    3    0    0  0.24595590000E+01 -0.14085077428E+02  0.12185533522E+02  0.18786326520E+02  0.51100000000E-03 0. -1.
        -11    1    3    3    0    0  0.11808665018E+02  0.27833911713E+02  0.16256919319E+02  0.34328685334E+02  0.51100000000E-03 0.  1.
         12    1    3    3    0    0 -0.58376806875E+01  0.12701359269E+01 -0.16081938172E+01  0.61869256045E+01  0.00000000000E+00 0. -1.
</event>
<event>
 7    1  0.7821043E-012  0.5930196E+02  0.7816164E-02  0.1266605E+00
        -11   -1    0    0    0    0  0.00000000000E+00  0.00000000000E+00  0.45593999997E+02  0.45594000000E+02  0.51100000000E-03 0.  1.
         11   -1    0    0    0    0 -0.00000000000E+00 -0.00000000000E+00 -0.45593999997E+02  0.45594000000E+02  0.51100000000E-03 0. -1.
    9900012    2    1    2    0    0 -0.19228335291E+02  0.18906779629E+02  0.17015422261E+02  0.59301956208E+02  0.50000022214E+02 0.  0.
         12    1    1    2    0    0  0.19228335291E+02 -0.18906779629E+02 -0.17015422261E+02  0.31886043792E+02  0.00000000000E+00 0. -1.
         11    1    3    3    0    0 -0.12117980162E+02  0.11189077969E+00 -0.40852641527E+01  0.12788563102E+02  0.51100000000E-03 0. -1.
        -11    1    3    3    0    0  0.26658880570E+00  0.27383198857E+02  0.66946448514E+01  0.28190936827E+02  0.51100000000E-03 0.  1.
        -12    1    3    3    0    0 -0.73769439341E+01 -0.85883100080E+01  0.14406041562E+02  0.18322456279E+02  0.00000000000E+00 0.  1.
</event>
<event>
 7    1  0.7821043E-012  0.5930195E+02  0.7816164E-02  0.1266605E+00
        -11   -1    0    0    0    0  0.00000000000E+00  0.00000000000E+00  0.45593999997E+02  0.45594000000E+02  0.51100000000E-03 0. -1.
         11   -1    0    0    0    0 -0.00000000000E+00 -0.00000000000E+00 -0.45593999997E+02  0.45594000000E+02  0.51100000000E-03 0.  1.
    9900012    2    1    2    0    0  0.20319363600E+02  0.18115413492E+02 -0.16603468273E+02  0.59301954435E+02  0.50000018979E+02 0.  0.
         12    1    1    2    0    0 -0.20319363600E+02 -0.18115413492E+02  0.16603468273E+02  0.31886045565E+02  0.00000000000E+00 0. -1.
         11    1    3    3    0    0  0.19702618964E+02 -0.64140137024E+01  0.87690610453E+01  0.22499537722E+02  0.51100000000E-03 0. -1.
        -11    1    3    3    0    0  0.25675699474E+01  0.34505382644E+01 -0.81027731346E+00  0.43766630364E+01  0.51100000000E-03 0.  1.
         12    1    3    3    0    0 -0.19508253111E+01  0.21078888930E+02 -0.24562252005E+02  0.32425753676E+02  0.00000000000E+00 0. -1.
</event>
<event>
 7    1  0.7821043E-012  0.5930193E+02  0.7816164E-02  0.1266605E+00
        -11   -1    0    0    0    0  0.00000000000E+00  0.00000000000E+00  0.45593999997E+02  0.45594000000E+02  0.51100000000E-03 0. -1.
         11   -1    0    0    0    0 -0.00000000000E+00 -0.00000000000E+00 -0.45593999997E+02  0.45594000000E+02  0.51100000000E-03 0.  1.
    9900012    2    1    2    0    0 -0.15246460303E+02 -0.14473560968E+02 -0.23974631970E+02  0.59301929421E+02  0.49999973361E+02 0.  0.
         12    1    1    2    0    0  0.15246460303E+02  0.14473560968E+02  0.23974631970E+02  0.31886070579E+02  0.00000000000E+00 0. -1.
         11    1    3    3    0    0 -0.16804415724E+02 -0.14389289960E+02 -0.27489174554E+02  0.35285900461E+02  0.51100000000E-03 0. -1.
        -11    1    3    3    0    0  0.12193732513E+02  0.29929118114E+01  0.61519852142E+00  0.12570724052E+02  0.51100000000E-03 0.  1.
         12    1    3    3    0    0 -0.10635777092E+02 -0.30771828187E+01  0.28993440621E+01  0.11445304908E+02  0.00000000000E+00 0. -1.
</event>
<event>
 7    1  0.7821043E-012  0.5930192E+02  0.7816164E-02  0.1266605E+00
        -11   -1    0    0    0    0  0.00000000000E+00  0.00000000000E+00  0.45593999997E+02  0.45594000000E+02  0.51100000000E-03 0.  1.
         11   -1    0    0    0    0 -0.00000000000E+00 -0.00000000000E+00 -0.45593999997E+02  0.45594000000E+02  0.51100000000E-03 0. -1.
    9900012    2    1    2    0    0  0.28437455112E+02  0.15300608505E+01  0.14341970576E+02  0.59301920601E+02  0.49999957275E+02 0.  0.
         12    1    1    2    0    0 -0.28437455112E+02 -0.15300608505E+01 -0.14341970576E+02  0.31886079399E+02  0.00000000000E+00 0. -1.
         11    1    3    3    0    0 -0.28650603904E+01 -0.24322299480E+01 -0.34729278944E+01  0.51171810581E+01  0.51100000000E-03 0. -1.
        -11    1    3    3    0    0  0.36336208663E+02  0.13032895048E+02  0.20158924982E+02  0.43549496782E+02  0.51100000000E-03 0.  1.
        -12    1    3    3    0    0 -0.50336931604E+01 -0.90706042495E+01 -0.23440265114E+01  0.10635242760E+02  0.00000000000E+00 0.  1.
</event>
<event>
 7    1  0.7821043E-012  0.5930192E+02  0.7816164E-02  0.1266605E+00
        -11   -1    0    0    0    0  0.00000000000E+00  0.00000000000E+00  0.45593999997E+02  0.45594000000E+02  0.51100000000E-03 0.  1.
         11   -1    0    0    0    0 -0.00000000000E+00 -0.00000000000E+00 -0.45593999997E+02  0.45594000000E+02  0.51100000000E-03 0. -1.
    9900012    2    1    2    0    0 -0.26164790904E+02  0.15797770222E+02  0.90860320283E+01  0.59301924590E+02  0.49999964550E+02 0.  0.
         12    1    1    2    0    0  0.26164790904E+02 -0.15797770222E+02 -0.90860320283E+01  0.31886075410E+02  0.00000000000E+00 0. -1.
         11    1    3    3    0    0 -0.10956629315E+02 -0.65101941702E+01 -0.11178100119E+02  0.16952294140E+02  0.51100000000E-03 0. -1.
        -11    1    3    3    0    0 -0.16557958968E+02  0.48214773474E+01  0.25699089508E+01  0.17436085606E+02  0.51100000000E-03 0.  1.
         12    1    3    3    0    0  0.13497973792E+01  0.17486487045E+02  0.17694223196E+02  0.24913544844E+02  0.00000000000E+00 0. -1.
</event>
<event>
 7    1  0.7821043E-012  0.5930194E+02  0.7816164E-02  0.1266605E+00
        -11   -1    0    0    0    0  0.00000000000E+00  0.00000000000E+00  0.45593999997E+02  0.45594000000E+02  0.51100000000E-03 0.  1.
         11   -1    0    0    0    0 -0.00000000000E+00 -0.00000000000E+00 -0.45593999997E+02  0.45594000000E+02  0.51100000000E-03 0. -1.
    9900012    2    1    2    0    0 -0.16044968862E+02 -0.75391560772E+01  0.26503604288E+02  0.59301938149E+02  0.49999989278E+02 0.  0.
         12    1    1    2    0    0  0.16044968862E+02  0.75391560772E+01 -0.26503604288E+02  0.31886061851E+02  0.00000000000E+00 0. -1.
         11    1    3    3    0    0 -0.13119922198E+01 -0.11119857435E+02  0.60706807962E+01  0.12736786037E+02  0.51100000000E-03 0. -1.
        -11    1    3    3    0    0 -0.61560290511E+01  0.19544482316E+02  0.19705327310E+02  0.28428566748E+02  0.51100000000E-03 0.  1.
         12    1    3    3    0    0 -0.85769475914E+01 -0.15963780958E+02  0.72759618115E+00  0.18136585364E+02  0.00000000000E+00 0. -1.
</event>
<event>
 7    1  0.7821043E-012  0.5930191E+02  0.7816164E-02  0.1266605E+00
        -11   -1    0    0    0    0  0.00000000000E+00  0.00000000000E+00  0.45593999997E+02  0.45594000000E+02  0.51100000000E-03 0.  1.
         11   -1    0    0    0    0 -0.00000000000E+00 -0.00000000000E+00 -0.45593999997E+02  0.45594000000E+02  0.51100000000E-03 0. -1.
    9900012    2    1    2    0    0 -0.94839270547E+01 -0.47983941661E+01  0.30062486378E+02  0.59301912968E+02  0.49999943355E+02 0.  0.
         12    1    1    2    0    0  0.94839270547E+01  0.47983941661E+01 -0.30062486378E+02  0.31886087032E+02  0.00000000000E+00 0. -1.
         11    1    3    3    0    0 -0.29799908380E+01 -0.10539447868E+02  0.42229910715E+01  0.11738567230E+02  0.51100000000E-03 0. -1.
        -11    1    3    3    0    0 -0.17700741788E+02  0.14564521275E+02  0.24002662638E+02  0.33189898370E+02  0.51100000000E-03 0.  1.
        -12    1    3    3    0    0  0.11196805571E+02 -0.88234675731E+01  0.18368326684E+01  0.14373447369E+02  0.00000000000E+00 0.  1.
</event>
<event>
 7    1  0.7821043E-012  0.5930192E+02  0.7816164E-02  0.1266605E+00
        -11   -1    0    0    0    0  0.00000000000E+00  0.00000000000E+00  0.45593999997E+02  0.45594000000E+02  0.51100000000E-03 0.  1.
         11   -1    0    0    0    0 -0.00000000000E+00 -0.00000000000E+00 -0.45593999997E+02  0.45594000000E+02  0.51100000000E-03 0. -1.
    9900012    2    1    2    0    0 -0.20710420783E+01 -0.42700957298E+01  0.31530924935E+02  0.59301919023E+02  0.49999954397E+02 0.  0.
         12    1    1    2    0    0  0.20710420783E+01  0.42700957298E+01 -0.31530924935E+02  0.31886080977E+02  0.00000000000E+00 0. -1.
         11    1    3    3    0    0  0.55550160682E+01  0.16585069382E+02  0.24719014017E+01  0.17664456593E+02  0.51100000000E-03 0. -1.
        -11    1    3    3    0    0 -0.92389700237E+01 -0.14404592115E+02  0.30370703650E+02  0.34860156075E+02  0.51100000000E-03 0.  1.
        -12    1    3    3    0    0  0.16129118771E+01 -0.64505729963E+01 -0.13116801165E+01  0.67773063552E+01  0.00000000000E+00 0.  1.
</event>
<event>
 7    1  0.7821043E-012  0.5930195E+02  0.7816164E-02  0.1266605E+00
        -11   -1    0    0    0    0  0.00000000000E+00  0.00000000000E+00  0.45593999997E+02  0.45594000000E+02  0.51100000000E-03 0. -1.
         11   -1    0    0    0    0 -0.00000000000E+00 -0.00000000000E+00 -0.45593999997E+02  0.45594000000E+02  0.51100000000E-03 0.  1.
    9900012    2    1    2    0    0  0.89765539884E+01  0.20253087637E+02 -0.22933696026E+02  0.59301945152E+02  0.50000002051E+02 0.  0.
         12    1    1    2    0    0 -0.89765539884E+01 -0.20253087637E+02  0.22933696026E+02  0.31886054848E+02  0.00000000000E+00 0. -1.
         11    1    3    3    0    0 -0.39158015866E+01 -0.48918113322E+01  0.45682116393E+00  0.62826750682E+01  0.51100000000E-03 0. -1.
        -11    1    3    3    0    0  0.41224754965E+01  0.34148660443E+02 -0.20766717678E+02  0.40179377517E+02  0.51100000000E-03 0.  1.
        -12    1    3    3    0    0  0.87698800785E+01 -0.90037614736E+01 -0.26237995123E+01  0.12839892568E+02  0.00000000000E+00 0.  1.
</event>
<event>
 7    1  0.7821043E-012  0.5930191E+02  0.7816164E-02  0.1266605E+00
        -11   -1    0    0    0    0  0.00000000000E+00  0.00000000000E+00  0.45593999997E+02  0.45594000000E+02  0.51100000000E-03 0. -1.
         11   -1    0    0    0    0 -0.00000000000E+00 -0.00000000000E+00 -0.45593999997E+02  0.45594000000E+02  0.51100000000E-03 0.  1.
    9900012    2    1    2    0    0 -0.66507832421E+01 -0.29194410944E+02 -0.10962497930E+02  0.59301907279E+02  0.49999932980E+02 0.  0.
         12    1    1    2    0    0  0.66507832421E+01  0.29194410944E+02  0.10962497930E+02  0.31886092721E+02  0.00000000000E+00 0. -1.
         11    1    3    3    0    0 -0.14209637447E+02 -0.18884547150E+02  0.32304337630E+00  0.23635656849E+02  0.51100000000E-03 0. -1.
        -11    1    3    3    0    0  0.15176703803E+02 -0.70983611110E-01 -0.16007762760E+02  0.22058690936E+02  0.51100000000E-03 0.  1.
        -12    1    3    3    0    0 -0.76178495983E+01 -0.10238880184E+02  0.47222214529E+01  0.13607559493E+02  0.00000000000E+00 0.  1.
</event>
<event>
 7    1  0.7821043E-012  0.5930199E+02  0.7816164E-02  0.1266605E+00
        -11   -1    0    0    0    0  0.00000000000E+00  0.00000000000E+00  0.45593999997E+02  0.45594000000E+02  0.51100000000E-03 0. -1.
         11   -1    0    0    0    0 -0.00000000000E+00 -0.00000000000E+00 -0.45593999997E+02  0.45594000000E+02  0.51100000000E-03 0.  1.
    9900012    2    1    2    0    0 -0.10549260247E+02  0.15403613508E+02 -0.25848783790E+02  0.59301987012E+02  0.50000078393E+02 0.  0.
         12    1    1    2    0    0  0.10549260247E+02 -0.15403613508E+02  0.25848783790E+02  0.31886012988E+02  0.00000000000E+00 0. -1.
         11    1    3    3    0    0 -0.41348149359E+01  0.42229060083E+01  0.76627581371E+01  0.96771634397E+01  0.51100000000E-03 0. -1.
        -11    1    3    3    0    0 -0.11425651146E+02  0.16043724234E+02 -0.36926890151E+02  0.41851425398E+02  0.51100000000E-03 0.  1.
        -12    1    3    3    0    0  0.50112058350E+01 -0.48630167342E+01  0.34153482240E+01  0.77733981738E+01  0.00000000000E+00 0.  1.
</event>
<event>
 7    1  0.7821043E-012  0.5930194E+02  0.7816164E-02  0.1266605E+00
        -11   -1    0    0    0    0  0.00000000000E+00  0.00000000000E+00  0.45593999997E+02  0.45594000000E+02  0.51100000000E-03 0. -1.
         11   -1    0    0    0    0 -0.00000000000E+00 -0.00000000000E+00 -0.45593999997E+02  0.45594000000E+02  0.51100000000E-03 0.  1.
    9900012    2    1    2    0    0  0.18711870647E+02  0.25275783132E+02 -0.52651309306E+01  0.59301938472E+02  0.49999989868E+02 0.  0.
         12    1    1    2    0    0 -0.18711870647E+02 -0.25275783132E+02  0.52651309306E+01  0.31886061528E+02  0.00000000000E+00 0. -1.
         11    1    3    3    0    0 -0.69813286201E+01  0.10930830227E+02  0.10912957709E+02  0.16950358255E+02  0.51100000000E-03 0. -1.
        -11    1    3    3    0    0  0.24664457376E+02  0.16319335760E+02 -0.21512600170E+02  0.36571138123E+02  0.51100000000E-03 0.  1.
        -12    1    3    3    0    0  0.10287418907E+01 -0.19743828553E+01  0.53345115302E+01  0.57804420941E+01  0.00000000000E+00 0.  1.
</event>
<event>
 7    1  0.7821043E-012  0.5930213E+02  0.7816164E-02  0.1266604E+00
        -11   -1    0    0    0    0  0.00000000000E+00  0.00000000000E+00  0.45593999997E+02  0.45594000000E+02  0.51100000000E-03 0.  1.
         11   -1    0    0    0    0 -0.00000000000E+00 -0.00000000000E+00 -0.45593999997E+02  0.45594000000E+02  0.51100000000E-03 0. -1.
    9900012    2    1    2    0    0  0.21163561579E+02 -0.23316997591E+02 -0.50129856203E+01  0.59302129459E+02  0.50000338181E+02 0.  0.
         12    1    1    2    0    0 -0.21163561579E+02  0.23316997591E+02  0.50129856203E+01  0.31885870541E+02  0.00000000000E+00 0. -1.
         11    1    3    3    0    0 -0.43645221842E+01  0.62269808797E+01  0.99425969750E+01  0.12517171391E+02  0.51100000000E-03 0. -1.
        -11    1    3    3    0    0  0.25222986440E+02 -0.23569450339E+02 -0.19151533969E+02  0.39477832867E+02  0.51100000000E-03 0.  1.
         12    1    3    3    0    0  0.30509732306E+00 -0.59745281312E+01  0.41959513740E+01  0.73071252008E+01  0.00000000000E+00 0. -1.
</event>
<event>
 7    1  0.7821043E-012  0.5930197E+02  0.7816164E-02  0.1266605E+00
        -11   -1    0    0    0    0  0.00000000000E+00  0.00000000000E+00  0.45593999997E+02  0.45594000000E+02  0.51100000000E-03 0. -1.
         11   -1    0    0    0    0 -0.00000000000E+00 -0.00000000000E+00 -0.45593999997E+02  0.45594000000E+02  0.51100000000E-03 0.  1.
    9900012    2    1    2    0    0  0.19182027614E+02  0.14735617751E+02 -0.20775717497E+02  0.59301967770E+02  0.50000043300E+02 0.  0.
         12    1    1    2    0    0 -0.19182027614E+02 -0.14735617751E+02  0.20775717497E+02  0.31886032230E+02  0.00000000000E+00 0. -1.
         11    1    3    3    0    0  0.71926964643E+01  0.85033844539E+01  0.12209271925E+02  0.16526002263E+02  0.51100000000E-03 0. -1.
        -11    1    3    3    0    0 -0.12186491570E+00 -0.19078831018E+01 -0.26896225075E+02  0.26964083380E+02  0.51100000000E-03 0.  1.
         12    1    3    3    0    0  0.12111196066E+02  0.81401163987E+01 -0.60887643465E+01  0.15811882127E+02  0.00000000000E+00 0. -1.
</event>
<event>
 7    1  0.7821043E-012  0.5930195E+02  0.7816164E-02  0.1266605E+00
        -11   -1    0    0    0    0  0.00000000000E+00  0.00000000000E+00  0.45593999997E+02  0.45594000000E+02  0.51100000000E-03 0.  1.
         11   -1    0    0    0    0 -0.00000000000E+00 -0.00000000000E+00 -0.45593999997E+02  0.45594000000E+02  0.51100000000E-03 0. -1.
    9900012    2    1    2    0    0  0.93334610158E+01 -0.22604813509E+02  0.20460433978E+02  0.59301945888E+02  0.50000003392E+02 0.  0.
         12    1    1    2    0    0 -0.93334610158E+01  0.22604813509E+02 -0.20460433978E+02  0.31886054112E+02  0.00000000000E+00 0. -1.
         11    1    3    3    0    0  0.10458030524E+02 -0.14035418933E+02  0.15044945755E+02  0.23080593149E+02  0.51100000000E-03 0.  1.
        -11    1    3    3    0    0  0.15508949324E+01  0.11197211288E+02 -0.64473662581E+01  0.13013506355E+02  0.51100000000E-03 0. -1.
        -12    1    3    3    0    0 -0.26754644408E+01 -0.19766605864E+02  0.11862854481E+02  0.23207846384E+02  0.00000000000E+00 0.  1.
</event>
<event>
 7    1  0.7821043E-012  0.5930205E+02  0.7816164E-02  0.1266604E+00
        -11   -1    0    0    0    0  0.00000000000E+00  0.00000000000E+00  0.45593999997E+02  0.45594000000E+02  0.51100000000E-03 0. -1.
         11   -1    0    0    0    0 -0.00000000000E+00 -0.00000000000E+00 -0.45593999997E+02  0.45594000000E+02  0.51100000000E-03 0.  1.
    9900012    2    1    2    0    0 -0.13767245103E+02  0.56255093120E+01 -0.28205143493E+02  0.59302054629E+02  0.50000201710E+02 0.  0.
         12    1    1    2    0    0  0.13767245103E+02 -0.56255093120E+01  0.28205143493E+02  0.31885945371E+02  0.00000000000E+00 0. -1.
         11    1    3    3    0    0 -0.88951723595E+01  0.85618181990E+01  0.64611693445E+01  0.13934688075E+02  0.51100000000E-03 0. -1.
        -11    1    3    3    0    0  0.10657976127E+02 -0.50330823478E+01 -0.22953595949E+02  0.25802944411E+02  0.51100000000E-03 0.  1.
        -12    1    3    3    0    0 -0.15530048870E+02  0.20967734608E+01 -0.11712716889E+02  0.19564422143E+02  0.00000000000E+00 0.  1.
</event>
<event>
 7    1  0.7821043E-012  0.5930195E+02  0.7816164E-02  0.1266605E+00
        -11   -1    0    0    0    0  0.00000000000E+00  0.00000000000E+00  0.45593999997E+02  0.45594000000E+02  0.51100000000E-03 0.  1.
         11   -1    0    0    0    0 -0.00000000000E+00 -0.00000000000E+00 -0.45593999997E+02  0.45594000000E+02  0.51100000000E-03 0. -1.
    9900012    2    1    2    0    0 -0.13578659109E+02 -0.80579302166E+01  0.27702168562E+02  0.59301947162E+02  0.50000005715E+02 0.  0.
         12    1    1    2    0    0  0.13578659109E+02  0.80579302166E+01 -0.27702168562E+02  0.31886052838E+02  0.00000000000E+00 0. -1.
         11    1    3    3    0    0  0.88885464381E+01 -0.48069014907E+01  0.34198442030E+01  0.10668078288E+02  0.51100000000E-03 0. -1.
        -11    1    3    3    0    0 -0.22989173964E+02 -0.12826858936E+01 -0.12134660280E+01  0.23056884063E+02  0.51100000000E-03 0.  1.
        -12    1    3    3    0    0  0.52196841702E+00 -0.19683428322E+01  0.25495790387E+02  0.25576984811E+02  0.00000000000E+00 0.  1.
</event>
<event>
 7    1  0.7821043E-012  0.5930195E+02  0.7816164E-02  0.1266605E+00
        -11   -1    0    0    0    0  0.00000000000E+00  0.00000000000E+00  0.45593999997E+02  0.45594000000E+02  0.51100000000E-03 0. -1.
         11   -1    0    0    0    0 -0.00000000000E+00 -0.00000000000E+00 -0.45593999997E+02  0.45594000000E+02  0.51100000000E-03 0.  1.
    9900012    2    1    2    0    0 -0.23937327543E+02  0.34477776186E+01 -0.20780702479E+02  0.59301946373E+02  0.50000004277E+02 0.  0.
         12    1    1    2    0    0  0.23937327543E+02 -0.34477776186E+01  0.20780702479E+02  0.31886053627E+02  0.00000000000E+00 0. -1.
         11    1    3    3    0    0  0.27286052945E+01  0.15501314047E+02 -0.13711270208E+02  0.20874265377E+02  0.51100000000E-03 0. -1.
        -11    1    3    3    0    0 -0.20143246717E+02 -0.83643513126E+01 -0.15792364709E+02  0.26927895286E+02  0.51100000000E-03 0.  1.
         12    1    3    3    0    0 -0.65226861201E+01 -0.36891851161E+01  0.87229324383E+01  0.11499785710E+02  0.00000000000E+00 0. -1.
</event>
<event>
 7    1  0.7821043E-012  0.5930194E+02  0.7816164E-02  0.1266605E+00
        -11   -1    0    0    0    0  0.00000000000E+00  0.00000000000E+00  0.45593999997E+02  0.45594000000E+02  0.51100000000E-03 0.  1.
         11   -1    0    0    0    0 -0.00000000000E+00 -0.00000000000E+00 -0.45593999997E+02  0.45594000000E+02  0.51100000000E-03 0. -1.
    9900012    2    1    2    0    0 -0.14873192435E+01  0.33181015538E+01  0.31678055160E+02  0.59301935721E+02  0.49999984851E+02 0.  0.
         12    1    1    2    0    0  0.14873192435E+01 -0.33181015538E+01 -0.31678055160E+02  0.31886064279E+02  0.00000000000E+00 0. -1.
         11    1    3    3    0    0  0.29175461990E+01  0.29774633039E+01 -0.84997151905E+00  0.42543877813E+01  0.51100000000E-03 0. -1.
        -11    1    3    3    0    0 -0.20515524094E+02 -0.12263975451E+02  0.18848922851E+02  0.30439673382E+02  0.51100000000E-03 0.  1.
        -12    1    3    3    0    0  0.16110658652E+02  0.12604613700E+02  0.13679103828E+02  0.24607874558E+02  0.00000000000E+00 0.  1.
</event>
<event>
 7    1  0.7821043E-012  0.5930192E+02  0.7816164E-02  0.1266605E+00
        -11   -1    0    0    0    0  0.00000000000E+00  0.00000000000E+00  0.45593999997E+02  0.45594000000E+02  0.51100000000E-03 0.  1.
         11   -1    0    0    0    0 -0.00000000000E+00 -0.00000000000E+00 -0.45593999997E+02  0.45594000000E+02  0.51100000000E-03 0. -1.
    9900012    2    1    2    0    0  0.18247598615E+01 -0.30193833479E+02  0.10085868322E+02  0.59301920459E+02  0.49999957016E+02 0.  0.
         12    1    1    2    0    0 -0.18247598615E+01  0.30193833479E+02 -0.10085868322E+02  0.31886079541E+02  0.00000000000E+00 0. -1.
         11    1    3    3    0    0 -0.68364111623E+01  0.61861498436E+01 -0.12290463596E+01  0.93013720860E+01  0.51100000000E-03 0. -1.
        -11    1    3    3    0    0 -0.25250150075E+01 -0.20941078844E+02  0.19984449216E+02  0.29056543061E+02  0.51100000000E-03 0.  1.
        -12    1    3    3    0    0  0.11186186031E+02 -0.15438904479E+02 -0.86695345350E+01  0.20944005311E+02  0.00000000000E+00 0.  1.
</event>
<event>
 7    1  0.7821043E-012  0.5930195E+02  0.7816164E-02  0.1266605E+00
        -11   -1    0    0    0    0  0.00000000000E+00  0.00000000000E+00  0.45593999997E+02  0.45594000000E+02  0.51100000000E-03 0. -1.
         11   -1    0    0    0    0 -0.00000000000E+00 -0.00000000000E+00 -0.45593999997E+02  0.45594000000E+02  0.51100000000E-03 0.  1.
    9900012    2    1    2    0    0  0.16163503327E+02  0.24554529227E+02 -0.12350572708E+02  0.59301946755E+02  0.50000004973E+02 0.  0.
         12    1    1    2    0    0 -0.16163503327E+02 -0.24554529227E+02  0.12350572708E+02  0.31886053245E+02  0.00000000000E+00 0. -1.
         11    1    3    3    0    0  0.11122632254E+02 -0.12948991176E+02 -0.50658994719E+01  0.17805972550E+02  0.51100000000E-03 0. -1.
        -11    1    3    3    0    0 -0.29194818818E+01  0.29009286425E+02 -0.61693813075E+01  0.29801398278E+02  0.51100000000E-03 0.  1.
         12    1    3    3    0    0  0.79603529546E+01  0.84942339773E+01 -0.11152919291E+01  0.11694575927E+02  0.00000000000E+00 0. -1.
</event>
<event>
 7    1  0.7821043E-012  0.5930196E+02  0.7816164E-02  0.1266605E+00
        -11   -1    0    0    0    0  0.00000000000E+00  0.00000000000E+00  0.45593999997E+02  0.45594000000E+02  0.51100000000E-03 0. -1.
         11   -1    0    0    0    0 -0.00000000000E+00 -0.00000000000E+00 -0.45593999997E+02  0.45594000000E+02  0.51100000000E-03 0.  1.
    9900012    2    1    2    0    0 -0.26609295517E+02  0.97881494622E+00 -0.17541575571E+02  0.59301959792E+02  0.50000028751E+02 0.  0.
         12    1    1    2    0    0  0.26609295517E+02 -0.97881494622E+00  0.17541575571E+02  0.31886040208E+02  0.00000000000E+00 0. -1.
         11    1    3    3    0    0  0.43378056282E+01  0.11839879802E+02  0.64304525846E+00  0.12625878934E+02  0.51100000000E-03 0. -1.
        -11    1    3    3    0    0 -0.16380352836E+02 -0.17567898648E+02 -0.23419346908E+01  0.24133621367E+02  0.51100000000E-03 0.  1.
        -12    1    3    3    0    0 -0.14566748309E+02  0.67068337928E+01 -0.15842686138E+02  0.22542459491E+02  0.00000000000E+00 0.  1.
</event>
<event>
 7    1  0.7821043E-012  0.5930196E+02  0.7816164E-02  0.1266605E+00
        -11   -1    0    0    0    0  0.00000000000E+00  0.00000000000E+00  0.45593999997E+02  0.45594000000E+02  0.51100000000E-03 0.  1.
         11   -1    0    0    0    0 -0.00000000000E+00 -0.00000000000E+00 -0.45593999997E+02  0.45594000000E+02  0.51100000000E-03 0. -1.
    9900012    2    1    2    0    0 -0.20317308649E+02  0.20068136064E+02 -0.14184379135E+02  0.59301957172E+02  0.50000023971E+02 0.  0.
         12    1    1    2    0    0  0.20317308649E+02 -0.20068136064E+02  0.14184379135E+02  0.31886042828E+02  0.00000000000E+00 0. -1.
         11    1    3    3    0    0 -0.65934646317E+00 -0.12054293253E+02 -0.88144988111E+01  0.14947779539E+02  0.51100000000E-03 0. -1.
        -11    1    3    3    0    0 -0.38275201543E+01  0.14152559475E+02 -0.12607290282E+02  0.19336199697E+02  0.51100000000E-03 0.  1.
         12    1    3    3    0    0 -0.15830442032E+02  0.17969869842E+02  0.72374099587E+01  0.25017977935E+02  0.00000000000E+00 0. -1.
</event>
<event>
 7    1  0.7821043E-012  0.5930192E+02  0.7816164E-02  0.1266605E+00
        -11   -1    0    0    0    0  0.00000000000E+00  0.00000000000E+00  0.45593999997E+02  0.45594000000E+02  0.51100000000E-03 0.  1.
         11   -1    0    0    0    0 -0.00000000000E+00 -0.00000000000E+00 -0.45593999997E+02  0.45594000000E+02  0.51100000000E-03 0. -1.
    9900012    2    1    2    0    0  0.98047978617E+01 -0.66442767873E+01  0.29604756018E+02  0.59301920686E+02  0.49999957430E+02 0.  0.
         12    1    1    2    0    0 -0.98047978617E+01  0.66442767873E+01 -0.29604756018E+02  0.31886079314E+02  0.00000000000E+00 0. -1.
         11    1    3    3    0    0  0.11270010345E+02  0.21248951754E+01 -0.95790687427E+01  0.14942786585E+02  0.51100000000E-03 0. -1.
        -11    1    3    3    0    0 -0.94154705163E+01 -0.37148368809E+01  0.12641029671E+02  0.16194033762E+02  0.51100000000E-03 0.  1.
         12    1    3    3    0    0  0.79502580331E+01 -0.50543350818E+01  0.26542795090E+02  0.28165100339E+02  0.00000000000E+00 0. -1.
</event>
<event>
 7    1  0.7821043E-012  0.5930195E+02  0.7816164E-02  0.1266605E+00
        -11   -1    0    0    0    0  0.00000000000E+00  0.00000000000E+00  0.45593999997E+02  0.45594000000E+02  0.51100000000E-03 0. -1.
         11   -1    0    0    0    0 -0.00000000000E+00 -0.00000000000E+00 -0.45593999997E+02  0.45594000000E+02  0.51100000000E-03 0.  1.
    9900012    2    1    2    0    0  0.27404693234E+02  0.36958938270E+01 -0.15875874683E+02  0.59301949141E+02  0.50000009325E+02 0.  0.
         12    1    1    2    0    0 -0.27404693234E+02 -0.36958938270E+01  0.15875874683E+02  0.31886050859E+02  0.00000000000E+00 0. -1.
         11    1    3    3    0    0  0.31485616696E+02  0.13601033254E+02 -0.79482277960E+01  0.35206625650E+02  0.51100000000E-03 0.  1.
        -11    1    3    3    0    0 -0.14404856264E+01 -0.15997789093E+02 -0.48668583917E+01  0.16783639819E+02  0.51100000000E-03 0. -1.
         12    1    3    3    0    0 -0.26404378357E+01  0.60926496656E+01 -0.30607884956E+01  0.73116836725E+01  0.00000000000E+00 0. -1.
</event>
<event>
 7    1  0.7821043E-012  0.5930218E+02  0.7816164E-02  0.1266604E+00
        -11   -1    0    0    0    0  0.00000000000E+00  0.00000000000E+00  0.45593999997E+02  0.45594000000E+02  0.51100000000E-03 0. -1.
         11   -1    0    0    0    0 -0.00000000000E+00 -0.00000000000E+00 -0.45593999997E+02  0.45594000000E+02  0.51100000000E-03 0.  1.
    9900012    2    1    2    0    0 -0.12074622936E+02  0.21204035899E+02 -0.20525536999E+02  0.59302182988E+02  0.50000435804E+02 0.  0.
         12    1    1    2    0    0  0.12074622936E+02 -0.21204035899E+02  0.20525536999E+02  0.31885817012E+02  0.00000000000E+00 0. -1.
         11    1    3    3    0    0  0.54636308373E+01 -0.24604671972E+01  0.10091491913E+02  0.11736412145E+02  0.51100000000E-03 0. -1.
        -11    1    3    3    0    0 -0.20749494772E+02  0.19080729750E+02 -0.17184605783E+02  0.33014034247E+02  0.51100000000E-03 0.  1.
        -12    1    3    3    0    0  0.32112409987E+01  0.45837733466E+01 -0.13432423129E+02  0.14551736596E+02  0.00000000000E+00 0.  1.
</event>
<event>
 7    1  0.7821043E-012  0.5930194E+02  0.7816164E-02  0.1266605E+00
        -11   -1    0    0    0    0  0.00000000000E+00  0.00000000000E+00  0.45593999997E+02  0.45594000000E+02  0.51100000000E-03 0. -1.
         11   -1    0    0    0    0 -0.00000000000E+00 -0.00000000000E+00 -0.45593999997E+02  0.45594000000E+02  0.51100000000E-03 0.  1.
    9900012    2    1    2    0    0 -0.37412422344E+01 -0.14178737374E+02 -0.28314083658E+02  0.59301940031E+02  0.49999992711E+02 0.  0.
         12    1    1    2    0    0  0.37412422344E+01  0.14178737374E+02  0.28314083658E+02  0.31886059969E+02  0.00000000000E+00 0. -1.
         11    1    3    3    0    0 -0.12324570444E+01 -0.23907245916E+02 -0.24235508637E+02  0.34065161629E+02  0.51100000000E-03 0. -1.
        -11    1    3    3    0    0  0.94523373469E+01  0.87448984524E+01 -0.15302273041E+01  0.12967710905E+02  0.51100000000E-03 0.  1.
        -12    1    3    3    0    0 -0.11961122537E+02  0.98361008968E+00 -0.25483477165E+01  0.12269067497E+02  0.00000000000E+00 0.  1.
</event>
<event>
 7    1  0.7821043E-012  0.5930196E+02  0.7816164E-02  0.1266605E+00
        -11   -1    0    0    0    0  0.00000000000E+00  0.00000000000E+00  0.45593999997E+02  0.45594000000E+02  0.51100000000E-03 0. -1.
         11   -1    0    0    0    0 -0.00000000000E+00 -0.00000000000E+00 -0.45593999997E+02  0.45594000000E+02  0.51100000000E-03 0.  1.
    9900012    2    1    2    0    0 -0.17633821223E+02  0.23325697115E+02 -0.12715327801E+02  0.59301962963E+02  0.50000034534E+02 0.  0.
         12    1    1    2    0    0  0.17633821223E+02 -0.23325697115E+02  0.12715327801E+02  0.31886037037E+02  0.00000000000E+00 0. -1.
         11    1    3    3    0    0 -0.99799353935E+01  0.58082787642E+00 -0.11893636816E+02  0.15536893784E+02  0.51100000000E-03 0. -1.
        -11    1    3    3    0    0 -0.10054313384E+02  0.30062411189E+02 -0.85734536001E+01  0.32838116435E+02  0.51100000000E-03 0.  1.
        -12    1    3    3    0    0  0.24004275550E+01 -0.73175419504E+01  0.77517626150E+01  0.10926952745E+02  0.00000000000E+00 0.  1.
</event>
<event>
 7    1  0.7821043E-012  0.5930194E+02  0.7816164E-02  0.1266605E+00
        -11   -1    0    0    0    0  0.00000000000E+00  0.00000000000E+00  0.45593999997E+02  0.45594000000E+02  0.51100000000E-03 0.  1.
         11   -1    0    0    0    0 -0.00000000000E+00 -0.00000000000E+00 -0.45593999997E+02  0.45594000000E+02  0.51100000000E-03 0. -1.
    9900012    2    1    2    0    0  0.70739733147E+01 -0.24830955750E+02  0.18711043841E+02  0.59301943117E+02  0.49999998338E+02 0.  0.
         12    1    1    2    0    0 -0.70739733147E+01  0.24830955750E+02 -0.18711043841E+02  0.31886056883E+02  0.00000000000E+00 0. -1.
         11    1    3    3    0    0 -0.65960273415E+01  0.32903193994E+01  0.40018132326E+01  0.83873886193E+01  0.51100000000E-03 0. -1.
        -11    1    3    3    0    0  0.13651075096E+02 -0.19490171605E+02 -0.91870782214E+01  0.25507274393E+02  0.51100000000E-03 0.  1.
        -12    1    3    3    0    0  0.18925559800E-01 -0.86311035450E+01  0.23896308830E+02  0.25407280104E+02  0.00000000000E+00 0.  1.
</event>
<event>
 7    1  0.7821043E-012  0.5930194E+02  0.7816164E-02  0.1266605E+00
        -11   -1    0    0    0    0  0.00000000000E+00  0.00000000000E+00  0.45593999997E+02  0.45594000000E+02  0.51100000000E-03 0.  1.
         11   -1    0    0    0    0 -0.00000000000E+00 -0.00000000000E+00 -0.45593999997E+02  0.45594000000E+02  0.51100000000E-03 0. -1.
    9900012    2    1    2    0    0 -0.27848618688E+02  0.14219991589E+02 -0.62423803029E+01  0.59301936658E+02  0.49999986559E+02 0.  0.
         12    1    1    2    0    0  0.27848618688E+02 -0.14219991589E+02  0.62423803029E+01  0.31886063342E+02  0.00000000000E+00 0. -1.
         11    1    3    3    0    0  0.72654342718E+01  0.11771673709E+02  0.11350260053E+02  0.17893776588E+02  0.51100000000E-03 0. -1.
        -11    1    3    3    0    0 -0.54498758823E+01 -0.43757163306E+01 -0.41925009799E+01  0.81501598306E+01  0.51100000000E-03 0.  1.
         12    1    3    3    0    0 -0.29664177078E+02  0.68240342109E+01 -0.13400139376E+02  0.33258000239E+02  0.00000000000E+00 0. -1.
</event>
<event>
 7    1  0.7821043E-012  0.5930195E+02  0.7816164E-02  0.1266605E+00
        -11   -1    0    0    0    0  0.00000000000E+00  0.00000000000E+00  0.45593999997E+02  0.45594000000E+02  0.51100000000E-03 0. -1.
         11   -1    0    0    0    0 -0.00000000000E+00 -0.00000000000E+00 -0.45593999997E+02  0.45594000000E+02  0.51100000000E-03 0.  1.
    9900012    2    1    2    0    0 -0.12181897133E+01  0.15810914661E+02 -0.27663175073E+02  0.59301948760E+02  0.50000008630E+02 0.  0.
         12    1    1    2    0    0  0.12181897133E+01 -0.15810914661E+02  0.27663175073E+02  0.31886051240E+02  0.00000000000E+00 0. -1.
         11    1    3    3    0    0 -0.15578624588E+02 -0.56122478527E+01 -0.12912500883E+02  0.20998179667E+02  0.51100000000E-03 0. -1.
        -11    1    3    3    0    0  0.17072277366E+02  0.15161849178E+02 -0.19470236358E+02  0.30007239610E+02  0.51100000000E-03 0.  1.
         12    1    3    3    0    0 -0.27118424906E+01  0.62613133356E+01  0.47195621681E+01  0.82965294816E+01  0.00000000000E+00 0. -1.
</event>
<event>
 7    1  0.7821043E-012  0.5930190E+02  0.7816164E-02  0.1266605E+00
        -11   -1    0    0    0    0  0.00000000000E+00  0.00000000000E+00  0.45593999997E+02  0.45594000000E+02  0.51100000000E-03 0.  1.
         11   -1    0    0    0    0 -0.00000000000E+00 -0.00000000000E+00 -0.45593999997E+02  0.45594000000E+02  0.51100000000E-03 0. -1.
    9900012    2    1    2    0    0 -0.10442561465E+02 -0.29727215633E+02  0.48958371946E+01  0.59301895486E+02  0.49999911471E+02 0.  0.
         12    1    1    2    0    0  0.10442561465E+02  0.29727215633E+02 -0.48958371946E+01  0.31886104514E+02  0.00000000000E+00 0. -1.
         11    1    3    3    0    0 -0.58260383880E+00 -0.12305784281E+02 -0.26146360088E+01  0.12593969815E+02  0.51100000000E-03 0. -1.
        -11    1    3    3    0    0 -0.58655093255E+01 -0.15749730876E+02  0.24201288078E+02  0.29464564603E+02  0.51100000000E-03 0.  1.
        -12    1    3    3    0    0 -0.39944483011E+01 -0.16717004760E+01 -0.16690814875E+02  0.17243361068E+02  0.00000000000E+00 0.  1.
</event>
<event>
 7    1  0.7821043E-012  0.5930196E+02  0.7816164E-02  0.1266605E+00
        -11   -1    0    0    0    0  0.00000000000E+00  0.00000000000E+00  0.45593999997E+02  0.45594000000E+02  0.51100000000E-03 0. -1.
         11   -1    0    0    0    0 -0.00000000000E+00 -0.00000000000E+00 -0.45593999997E+02  0.45594000000E+02  0.51100000000E-03 0.  1.
    9900012    2    1    2    0    0  0.15239684826E+02  0.26513477400E+02 -0.90281197342E+01  0.59301961937E+02  0.50000032661E+02 0.  0.
         12    1    1    2    0    0 -0.15239684826E+02 -0.26513477400E+02  0.90281197342E+01  0.31886038063E+02  0.00000000000E+00 0. -1.
         11    1    3    3    0    0 -0.11229302208E+01  0.64403915387E+01  0.10629711977E+02  0.12479198389E+02  0.51100000000E-03 0. -1.
        -11    1    3    3    0    0  0.17727909051E+02  0.52765389909E+01 -0.24941835703E+02  0.31051824286E+02  0.51100000000E-03 0.  1.
        -12    1    3    3    0    0 -0.13652940033E+01  0.14796546870E+02  0.52840039917E+01  0.15770939261E+02  0.00000000000E+00 0.  1.
</event>
<event>
 7    1  0.7821043E-012  0.5930197E+02  0.7816164E-02  0.1266605E+00
        -11   -1    0    0    0    0  0.00000000000E+00  0.00000000000E+00  0.45593999997E+02  0.45594000000E+02  0.51100000000E-03 0.  1.
         11   -1    0    0    0    0 -0.00000000000E+00 -0.00000000000E+00 -0.45593999997E+02  0.45594000000E+02  0.51100000000E-03 0. -1.
    9900012    2    1    2    0    0  0.18394857419E+02 -0.76930518181E+01  0.24883031020E+02  0.59301967658E+02  0.50000043096E+02 0.  0.
         12    1    1    2    0    0 -0.18394857419E+02  0.76930518181E+01 -0.24883031020E+02  0.31886032342E+02  0.00000000000E+00 0. -1.
         11    1    3    3    0    0  0.16490266603E+02 -0.27290297240E+02  0.87189689205E+01  0.33056158812E+02  0.51100000000E-03 0. -1.
        -11    1    3    3    0    0  0.29224316292E+01  0.46759876591E+01  0.27784168627E+01  0.61745500030E+01  0.51100000000E-03 0.  1.
         12    1    3    3    0    0 -0.10178408131E+01  0.14921257763E+02  0.13385645237E+02  0.20071258843E+02  0.00000000000E+00 0. -1.
</event>
<event>
 7    1  0.7821043E-012  0.5930192E+02  0.7816164E-02  0.1266605E+00
        -11   -1    0    0    0    0  0.00000000000E+00  0.00000000000E+00  0.45593999997E+02  0.45594000000E+02  0.51100000000E-03 0.  1.
         11   -1    0    0    0    0 -0.00000000000E+00 -0.00000000000E+00 -0.45593999997E+02  0.45594000000E+02  0.51100000000E-03 0. -1.
    9900012    2    1    2    0    0  0.26377602614E+02 -0.88596488447E+01  0.15570838392E+02  0.59301916742E+02  0.49999950238E+02 0.  0.
         12    1    1    2    0    0 -0.26377602614E+02  0.88596488447E+01 -0.15570838392E+02  0.31886083258E+02  0.00000000000E+00 0. -1.
         11    1    3    3    0    0  0.25169441708E+01  0.13775661002E+02 -0.86276042176E+01  0.16448081919E+02  0.51100000000E-03 0. -1.
        -11    1    3    3    0    0  0.17620940322E+02 -0.78382196928E+01  0.12426927509E+02  0.22942618712E+02  0.51100000000E-03 0.  1.
         12    1    3    3    0    0  0.62397181208E+01 -0.14797090154E+02  0.11771515101E+02  0.19911216111E+02  0.00000000000E+00 0. -1.
</event>
<event>
 7    1  0.7821043E-012  0.5930195E+02  0.7816164E-02  0.1266605E+00
        -11   -1    0    0    0    0  0.00000000000E+00  0.00000000000E+00  0.45593999997E+02  0.45594000000E+02  0.51100000000E-03 0.  1.
         11   -1    0    0    0    0 -0.00000000000E+00 -0.00000000000E+00 -0.45593999997E+02  0.45594000000E+02  0.51100000000E-03 0. -1.
    9900012    2    1    2    0    0  0.26293130072E+02  0.17998178549E+02  0.12069990397E+01  0.59301953416E+02  0.50000017122E+02 0.  0.
         12    1    1    2    0    0 -0.26293130072E+02 -0.17998178549E+02 -0.12069990397E+01  0.31886046584E+02  0.00000000000E+00 0. -1.
         11    1    3    3    0    0  0.42178611412E+01 -0.15958381564E+02  0.42691488106E+01  0.17049513969E+02  0.51100000000E-03 0. -1.
        -11    1    3    3    0    0  0.13007307017E+02  0.17028765963E+02 -0.72049058001E+01  0.22607069114E+02  0.51100000000E-03 0.  1.
         12    1    3    3    0    0  0.90679619136E+01  0.16927794149E+02  0.41427560292E+01  0.19645370334E+02  0.00000000000E+00 0. -1.
</event>
<event>
 7    1  0.7821043E-012  0.5930196E+02  0.7816164E-02  0.1266605E+00
        -11   -1    0    0    0    0  0.00000000000E+00  0.00000000000E+00  0.45593999997E+02  0.45594000000E+02  0.51100000000E-03 0. -1.
         11   -1    0    0    0    0 -0.00000000000E+00 -0.00000000000E+00 -0.45593999997E+02  0.45594000000E+02  0.51100000000E-03 0.  1.
    9900012    2    1    2    0    0  0.24642529013E+02 -0.20069876346E+02 -0.25817584946E+01  0.59301958389E+02  0.50000026191E+02 0.  0.
         12    1    1    2    0    0 -0.24642529013E+02  0.20069876346E+02  0.25817584946E+01  0.31886041611E+02  0.00000000000E+00 0. -1.
         11    1    3    3    0    0 -0.38221063013E+01 -0.16480511012E+02  0.95297569071E+01  0.19417312037E+02  0.51100000000E-03 0. -1.
        -11    1    3    3    0    0  0.14305627747E+02  0.10525221579E+02 -0.79749228407E+01  0.19468710001E+02  0.51100000000E-03 0.  1.
        -12    1    3    3    0    0  0.14159007568E+02 -0.14114586914E+02 -0.41365925610E+01  0.20415936351E+02  0.00000000000E+00 0.  1.
</event>
<event>
 7    1  0.7821043E-012  0.5930195E+02  0.7816164E-02  0.1266605E+00
        -11   -1    0    0    0    0  0.00000000000E+00  0.00000000000E+00  0.45593999997E+02  0.45594000000E+02  0.51100000000E-03 0.  1.
         11   -1    0    0    0    0 -0.00000000000E+00 -0.00000000000E+00 -0.45593999997E+02  0.45594000000E+02  0.51100000000E-03 0. -1.
    9900012    2    1    2    0    0  0.13521127084E+02  0.25602036509E+02 -0.13357964553E+02  0.59301947124E+02  0.50000005646E+02 0.  0.
         12    1    1    2    0    0 -0.13521127084E+02 -0.25602036509E+02  0.13357964553E+02  0.31886052876E+02  0.00000000000E+00 0. -1.
         11    1    3    3    0    0 -0.23273985091E+01  0.33023880375E+02 -0.13206424532E+02  0.35642714655E+02  0.51100000000E-03 0. -1.
        -11    1    3    3    0    0  0.14907095704E+02  0.20129788016E+00  0.32501699130E+01  0.15258624706E+02  0.51100000000E-03 0.  1.
         12    1    3    3    0    0  0.94142988842E+00 -0.76231417457E+01 -0.34017099337E+01  0.84006077627E+01  0.00000000000E+00 0. -1.
</event>
<event>
 7    1  0.7821043E-012  0.5930194E+02  0.7816164E-02  0.1266605E+00
        -11   -1    0    0    0    0  0.00000000000E+00  0.00000000000E+00  0.45593999997E+02  0.45594000000E+02  0.51100000000E-03 0.  1.
         11   -1    0    0    0    0 -0.00000000000E+00 -0.00000000000E+00 -0.45593999997E+02  0.45594000000E+02  0.51100000000E-03 0. -1.
    9900012    2    1    2    0    0 -0.19093265213E+02  0.18819741923E+02  0.17262258604E+02  0.59301936670E+02  0.49999986582E+02 0.  0.
         12    1    1    2    0    0  0.19093265213E+02 -0.18819741923E+02 -0.17262258604E+02  0.31886063330E+02  0.00000000000E+00 0. -1.
         11    1    3    3    0    0 -0.30727767025E+02  0.15992417787E+02  0.25541230075E+01  0.34734372567E+02  0.51100000000E-03 0.  1.
        -11    1    3    3    0    0  0.13176055765E+02  0.72184566207E+01  0.11314169689E+02  0.18807578194E+02  0.51100000000E-03 0. -1.
         12    1    3    3    0    0 -0.15415539527E+01 -0.43911324851E+01  0.33939659082E+01  0.57599859094E+01  0.00000000000E+00 0. -1.
</event>
<event>
 7    1  0.7821043E-012  0.5930195E+02  0.7816164E-02  0.1266605E+00
        -11   -1    0    0    0    0  0.00000000000E+00  0.00000000000E+00  0.45593999997E+02  0.45594000000E+02  0.51100000000E-03 0.  1.
         11   -1    0    0    0    0 -0.00000000000E+00 -0.00000000000E+00 -0.45593999997E+02  0.45594000000E+02  0.51100000000E-03 0. -1.
    9900012    2    1    2    0    0 -0.19488651417E+02  0.22677515195E+02 -0.11074439580E+02  0.59301945972E+02  0.50000003546E+02 0.  0.
         12    1    1    2    0    0  0.19488651417E+02 -0.22677515195E+02  0.11074439580E+02  0.31886054028E+02  0.00000000000E+00 0. -1.
         11    1    3    3    0    0 -0.49081220246E+00  0.15559382852E+02 -0.78014998877E+01  0.17412601532E+02  0.51100000000E-03 0. -1.
        -11    1    3    3    0    0 -0.10333225805E+01 -0.13997459570E+02 -0.13052636750E+01  0.14096110935E+02  0.51100000000E-03 0.  1.
        -12    1    3    3    0    0 -0.17964516634E+02  0.21115591913E+02 -0.19676760170E+01  0.27793233505E+02  0.00000000000E+00 0.  1.
</event>
<event>
 7    1  0.7821043E-012  0.5930196E+02  0.7816164E-02  0.1266605E+00
        -11   -1    0    0    0    0  0.00000000000E+00  0.00000000000E+00  0.45593999997E+02  0.45594000000E+02  0.51100000000E-03 0. -1.
         11   -1    0    0    0    0 -0.00000000000E+00 -0.00000000000E+00 -0.45593999997E+02  0.45594000000E+02  0.51100000000E-03 0.  1.
    9900012    2    1    2    0    0  0.13706490907E+02  0.26483360874E+02 -0.11290851518E+02  0.59301958788E+02  0.50000026919E+02 0.  0.
         12    1    1    2    0    0 -0.13706490907E+02 -0.26483360874E+02  0.11290851518E+02  0.31886041212E+02  0.00000000000E+00 0. -1.
         11    1    3    3    0    0  0.10431791875E+02 -0.90223645571E+01  0.10106205893E+02  0.17098559639E+02  0.51100000000E-03 0. -1.
        -11    1    3    3    0    0  0.35566611574E+01  0.22817524049E+02 -0.17343119215E+02  0.28880322482E+02  0.51100000000E-03 0.  1.
         12    1    3    3    0    0 -0.28196212569E+00  0.12688201383E+02 -0.40539381961E+01  0.13323076667E+02  0.00000000000E+00 0. -1.
</event>
<event>
 7    1  0.7821043E-012  0.5930195E+02  0.7816164E-02  0.1266605E+00
        -11   -1    0    0    0    0  0.00000000000E+00  0.00000000000E+00  0.45593999997E+02  0.45594000000E+02  0.51100000000E-03 0.  1.
         11   -1    0    0    0    0 -0.00000000000E+00 -0.00000000000E+00 -0.45593999997E+02  0.45594000000E+02  0.51100000000E-03 0. -1.
    9900012    2    1    2    0    0 -0.14552831361E+02  0.20518288553E+02  0.19594270246E+02  0.59301945176E+02  0.50000002094E+02 0.  0.
         12    1    1    2    0    0  0.14552831361E+02 -0.20518288553E+02 -0.19594270246E+02  0.31886054824E+02  0.00000000000E+00 0. -1.
         11    1    3    3    0    0  0.92081383155E+01 -0.19299587282E+01 -0.58422714417E+00  0.94263393503E+01  0.51100000000E-03 0.  1.
        -11    1    3    3    0    0 -0.14874812644E+02  0.29840450483E+02  0.10981414292E+02  0.35104187732E+02  0.51100000000E-03 0. -1.
        -12    1    3    3    0    0 -0.88861570324E+01 -0.73922032018E+01  0.91970830985E+01  0.14771418094E+02  0.00000000000E+00 0.  1.
</event>
<event>
 7    1  0.7821043E-012  0.5930191E+02  0.7816164E-02  0.1266605E+00
        -11   -1    0    0    0    0  0.00000000000E+00  0.00000000000E+00  0.45593999997E+02  0.45594000000E+02  0.51100000000E-03 0. -1.
         11   -1    0    0    0    0 -0.00000000000E+00 -0.00000000000E+00 -0.45593999997E+02  0.45594000000E+02  0.51100000000E-03 0.  1.
    9900012    2    1    2    0    0 -0.18378241097E+02  0.81716672162E+01 -0.24742409683E+02  0.59301910120E+02  0.49999938160E+02 0.  0.
         12    1    1    2    0    0  0.18378241097E+02 -0.81716672162E+01  0.24742409683E+02  0.31886089880E+02  0.00000000000E+00 0. -1.
         11    1    3    3    0    0  0.13305228977E+02 -0.53112348132E+01 -0.48023891311E+00  0.14334188608E+02  0.51100000000E-03 0. -1.
        -11    1    3    3    0    0 -0.11203556590E+02 -0.18882246381E+01 -0.12171329265E+02  0.16650114981E+02  0.51100000000E-03 0.  1.
         12    1    3    3    0    0 -0.20479913484E+02  0.15371126668E+02 -0.12090841505E+02  0.28317606531E+02  0.00000000000E+00 0. -1.
</event>
<event>
 7    1  0.7821043E-012  0.5930194E+02  0.7816164E-02  0.1266605E+00
        -11   -1    0    0    0    0  0.00000000000E+00  0.00000000000E+00  0.45593999997E+02  0.45594000000E+02  0.51100000000E-03 0.  1.
         11   -1    0    0    0    0 -0.00000000000E+00 -0.00000000000E+00 -0.45593999997E+02  0.45594000000E+02  0.51100000000E-03 0. -1.
    9900012    2    1    2    0    0 -0.26348149133E+02 -0.15800372609E+02  0.85348876311E+01  0.59301936521E+02  0.49999986309E+02 0.  0.
         12    1    1    2    0    0  0.26348149133E+02  0.15800372609E+02 -0.85348876311E+01  0.31886063479E+02  0.00000000000E+00 0. -1.
         11    1    3    3    0    0  0.15265243320E+01 -0.18732927143E+02  0.16899559376E+02  0.25275441505E+02  0.51100000000E-03 0. -1.
        -11    1    3    3    0    0 -0.20408110220E+02 -0.59158863657E+01 -0.38210703796E+01  0.21589100337E+02  0.51100000000E-03 0.  1.
         12    1    3    3    0    0 -0.74665632446E+01  0.88484408994E+01 -0.45436013657E+01  0.12437394679E+02  0.00000000000E+00 0. -1.
</event>
<event>
 7    1  0.7821043E-012  0.5930201E+02  0.7816164E-02  0.1266605E+00
        -11   -1    0    0    0    0  0.00000000000E+00  0.00000000000E+00  0.45593999997E+02  0.45594000000E+02  0.51100000000E-03 0.  1.
         11   -1    0    0    0    0 -0.00000000000E+00 -0.00000000000E+00 -0.45593999997E+02  0.45594000000E+02  0.51100000000E-03 0. -1.
    9900012    2    1    2    0    0  0.30029777703E+02  0.50572440698E+01 -0.94526596900E+01  0.59302014965E+02  0.50000129372E+02 0.  0.
         12    1    1    2    0    0 -0.30029777703E+02 -0.50572440698E+01  0.94526596900E+01  0.31885985035E+02  0.00000000000E+00 0. -1.
         11    1    3    3    0    0  0.69421069138E+01 -0.10768950992E+02  0.89633589070E+01  0.15636654278E+02  0.51100000000E-03 0. -1.
        -11    1    3    3    0    0  0.28683514735E+02  0.12363018632E+02 -0.96244378305E+01  0.32683605234E+02  0.51100000000E-03 0.  1.
         12    1    3    3    0    0 -0.55958439462E+01  0.34631764292E+01 -0.87915807665E+01  0.10981755453E+02  0.00000000000E+00 0. -1.
</event>
<event>
 7    1  0.7821043E-012  0.5930194E+02  0.7816164E-02  0.1266605E+00
        -11   -1    0    0    0    0  0.00000000000E+00  0.00000000000E+00  0.45593999997E+02  0.45594000000E+02  0.51100000000E-03 0.  1.
         11   -1    0    0    0    0 -0.00000000000E+00 -0.00000000000E+00 -0.45593999997E+02  0.45594000000E+02  0.51100000000E-03 0. -1.
    9900012    2    1    2    0    0 -0.15071837853E+02  0.44646202505E+00  0.28095571353E+02  0.59301941067E+02  0.49999994601E+02 0.  0.
         12    1    1    2    0    0  0.15071837853E+02 -0.44646202505E+00 -0.28095571353E+02  0.31886058933E+02  0.00000000000E+00 0. -1.
         11    1    3    3    0    0  0.12257586743E+02 -0.11660145399E+02  0.19326752551E+02  0.25685225090E+02  0.51100000000E-03 0. -1.
        -11    1    3    3    0    0 -0.87823580370E+01  0.11444282494E+01  0.81923191574E+01  0.12064560587E+02  0.51100000000E-03 0.  1.
         12    1    3    3    0    0 -0.18547066558E+02  0.10962179175E+02  0.57649964487E+00  0.21552155391E+02  0.00000000000E+00 0. -1.
</event>
<event>
 7    1  0.7821043E-012  0.5930199E+02  0.7816164E-02  0.1266605E+00
        -11   -1    0    0    0    0  0.00000000000E+00  0.00000000000E+00  0.45593999997E+02  0.45594000000E+02  0.51100000000E-03 0.  1.
         11   -1    0    0    0    0 -0.00000000000E+00 -0.00000000000E+00 -0.45593999997E+02  0.45594000000E+02  0.51100000000E-03 0. -1.
    9900012    2    1    2    0    0  0.98753839948E+01  0.22990573830E+02  0.19764314527E+02  0.59301987035E+02  0.50000078434E+02 0.  0.
         12    1    1    2    0    0 -0.98753839948E+01 -0.22990573830E+02 -0.19764314527E+02  0.31886012965E+02  0.00000000000E+00 0. -1.
         11    1    3    3    0    0  0.15563658567E+02 -0.10391959687E+01  0.21932452496E+02  0.26913562919E+02  0.51100000000E-03 0. -1.
        -11    1    3    3    0    0 -0.32995447373E+00  0.24565304555E+02  0.32116513890E+01  0.24776556717E+02  0.51100000000E-03 0.  1.
        -12    1    3    3    0    0 -0.53583200987E+01 -0.53553475605E+00 -0.53797893578E+01  0.76118673983E+01  0.00000000000E+00 0.  1.
</event>
<event>
 7    1  0.7821043E-012  0.5930193E+02  0.7816164E-02  0.1266605E+00
        -11   -1    0    0    0    0  0.00000000000E+00  0.00000000000E+00  0.45593999997E+02  0.45594000000E+02  0.51100000000E-03 0.  1.
         11   -1    0    0    0    0 -0.00000000000E+00 -0.00000000000E+00 -0.45593999997E+02  0.45594000000E+02  0.51100000000E-03 0. -1.
    9900012    2    1    2    0    0  0.20155595819E+02  0.13092113309E+02  0.20953991339E+02  0.59301933658E+02  0.49999981088E+02 0.  0.
         12    1    1    2    0    0 -0.20155595819E+02 -0.13092113309E+02 -0.20953991339E+02  0.31886066342E+02  0.00000000000E+00 0. -1.
         11    1    3    3    0    0  0.19780702544E+02  0.20484283474E+02 -0.41318859142E+01  0.28774199277E+02  0.51100000000E-03 0. -1.
        -11    1    3    3    0    0  0.43840680605E+01 -0.84291944555E+01  0.24584248455E+02  0.26356339736E+02  0.51100000000E-03 0.  1.
         12    1    3    3    0    0 -0.40091747847E+01  0.10370242903E+01  0.50162879795E+00  0.41713946450E+01  0.00000000000E+00 0. -1.
</event>
<event>
 7    1  0.7821043E-012  0.5930193E+02  0.7816164E-02  0.1266605E+00
        -11   -1    0    0    0    0  0.00000000000E+00  0.00000000000E+00  0.45593999997E+02  0.45594000000E+02  0.51100000000E-03 0. -1.
         11   -1    0    0    0    0 -0.00000000000E+00 -0.00000000000E+00 -0.45593999997E+02  0.45594000000E+02  0.51100000000E-03 0.  1.
    9900012    2    1    2    0    0 -0.78891947713E+01 -0.11102902281E+02 -0.28830667324E+02  0.59301933897E+02  0.49999981523E+02 0.  0.
         12    1    1    2    0    0  0.78891947713E+01  0.11102902281E+02  0.28830667324E+02  0.31886066103E+02  0.00000000000E+00 0. -1.
         11    1    3    3    0    0 -0.19172514885E+02 -0.66812704087E+01 -0.21638267956E+02  0.29672198127E+02  0.51100000000E-03 0.  1.
        -11    1    3    3    0    0  0.17505810875E+02 -0.21862773098E+01  0.25813296401E+01  0.17829651871E+02  0.51100000000E-03 0. -1.
         12    1    3    3    0    0 -0.62224907610E+01 -0.22353545624E+01 -0.97737290083E+01  0.11800083899E+02  0.00000000000E+00 0. -1.
</event>
<event>
 7    1  0.7821043E-012  0.5930192E+02  0.7816164E-02  0.1266605E+00
        -11   -1    0    0    0    0  0.00000000000E+00  0.00000000000E+00  0.45593999997E+02  0.45594000000E+02  0.51100000000E-03 0.  1.
         11   -1    0    0    0    0 -0.00000000000E+00 -0.00000000000E+00 -0.45593999997E+02  0.45594000000E+02  0.51100000000E-03 0. -1.
    9900012    2    1    2    0    0 -0.15700514734E+02 -0.23981502831E+01  0.27648961412E+02  0.59301915968E+02  0.49999948827E+02 0.  0.
         12    1    1    2    0    0  0.15700514734E+02  0.23981502831E+01 -0.27648961412E+02  0.31886084032E+02  0.00000000000E+00 0. -1.
         11    1    3    3    0    0  0.52177031359E+01  0.12406605394E+02  0.79462966258E+01  0.15629840490E+02  0.51100000000E-03 0.  1.
        -11    1    3    3    0    0 -0.42279685758E+01 -0.14117540661E+02 -0.34374143610E+01  0.15132629988E+02  0.51100000000E-03 0. -1.
         12    1    3    3    0    0 -0.16690249294E+02 -0.68721501565E+00  0.23140079148E+02  0.28539445491E+02  0.00000000000E+00 0. -1.
</event>
<event>
 7    1  0.7821043E-012  0.5930189E+02  0.7816164E-02  0.1266605E+00
        -11   -1    0    0    0    0  0.00000000000E+00  0.00000000000E+00  0.45593999997E+02  0.45594000000E+02  0.51100000000E-03 0.  1.
         11   -1    0    0    0    0 -0.00000000000E+00 -0.00000000000E+00 -0.45593999997E+02  0.45594000000E+02  0.51100000000E-03 0. -1.
    9900012    2    1    2    0    0  0.30049767715E+00  0.30359989568E+02  0.97419189216E+01  0.59301886256E+02  0.49999894639E+02 0.  0.
         12    1    1    2    0    0 -0.30049767715E+00 -0.30359989568E+02 -0.97419189216E+01  0.31886113744E+02  0.00000000000E+00 0. -1.
         11    1    3    3    0    0 -0.36400467437E+01  0.36273595720E+02  0.36240773574E+01  0.36635469475E+02  0.51100000000E-03 0. -1.
        -11    1    3    3    0    0 -0.30632537198E+01  0.24922667383E+01  0.10239438906E+02  0.10974562689E+02  0.51100000000E-03 0.  1.
         12    1    3    3    0    0  0.70037981407E+01 -0.84058728905E+01 -0.41215973421E+01  0.11691854092E+02  0.00000000000E+00 0. -1.
</event>
<event>
 7    1  0.7821043E-012  0.5930194E+02  0.7816164E-02  0.1266605E+00
        -11   -1    0    0    0    0  0.00000000000E+00  0.00000000000E+00  0.45593999997E+02  0.45594000000E+02  0.51100000000E-03 0.  1.
         11   -1    0    0    0    0 -0.00000000000E+00 -0.00000000000E+00 -0.45593999997E+02  0.45594000000E+02  0.51100000000E-03 0. -1.
    9900012    2    1    2    0    0  0.18577438608E+02 -0.16003500475E+02  0.20383517896E+02  0.59301936360E+02  0.49999986015E+02 0.  0.
         12    1    1    2    0    0 -0.18577438608E+02  0.16003500475E+02 -0.20383517896E+02  0.31886063640E+02  0.00000000000E+00 0. -1.
         11    1    3    3    0    0 -0.29297128199E+00 -0.17902749113E+02 -0.10660420105E+02  0.20838397613E+02  0.51100000000E-03 0. -1.
        -11    1    3    3    0    0  0.74788619289E+01  0.22302933844E+01  0.33059604918E+01  0.84756686679E+01  0.51100000000E-03 0.  1.
         12    1    3    3    0    0  0.11391547961E+02 -0.33104474609E+00  0.27737977509E+02  0.29987870079E+02  0.00000000000E+00 0. -1.
</event>
<event>
 7    1  0.7821043E-012  0.5930195E+02  0.7816164E-02  0.1266605E+00
        -11   -1    0    0    0    0  0.00000000000E+00  0.00000000000E+00  0.45593999997E+02  0.45594000000E+02  0.51100000000E-03 0.  1.
         11   -1    0    0    0    0 -0.00000000000E+00 -0.00000000000E+00 -0.45593999997E+02  0.45594000000E+02  0.51100000000E-03 0. -1.
    9900012    2    1    2    0    0 -0.22256836820E+02  0.22599618269E+02  0.32574098221E+01  0.59301948977E+02  0.50000009026E+02 0.  0.
         12    1    1    2    0    0  0.22256836820E+02 -0.22599618269E+02 -0.32574098221E+01  0.31886051023E+02  0.00000000000E+00 0. -1.
         11    1    3    3    0    0 -0.14980178036E+02  0.96985312928E+01  0.18492322717E+02  0.25698895754E+02  0.51100000000E-03 0. -1.
        -11    1    3    3    0    0  0.83633007753E+01  0.96405567489E+01 -0.21290688603E+01  0.12939013438E+02  0.51100000000E-03 0.  1.
         12    1    3    3    0    0 -0.15639959559E+02  0.32605302269E+01 -0.13105844035E+02  0.20664039785E+02  0.00000000000E+00 0. -1.
</event>
<event>
 7    1  0.7821043E-012  0.5930193E+02  0.7816164E-02  0.1266605E+00
        -11   -1    0    0    0    0  0.00000000000E+00  0.00000000000E+00  0.45593999997E+02  0.45594000000E+02  0.51100000000E-03 0. -1.
         11   -1    0    0    0    0 -0.00000000000E+00 -0.00000000000E+00 -0.45593999997E+02  0.45594000000E+02  0.51100000000E-03 0.  1.
    9900012    2    1    2    0    0  0.13622345194E+02 -0.13796133752E+02 -0.25314423554E+02  0.59301927257E+02  0.49999969415E+02 0.  0.
         12    1    1    2    0    0 -0.13622345194E+02  0.13796133752E+02  0.25314423554E+02  0.31886072743E+02  0.00000000000E+00 0. -1.
         11    1    3    3    0    0 -0.39239405811E+01 -0.19662494978E+02 -0.12115797872E+02  0.23426557084E+02  0.51100000000E-03 0. -1.
        -11    1    3    3    0    0  0.24833572827E+02  0.36064909928E+01 -0.70195028218E+01  0.26057370104E+02  0.51100000000E-03 0.  1.
         12    1    3    3    0    0 -0.72872870517E+01  0.22598702339E+01 -0.61791228600E+01  0.98180000696E+01  0.00000000000E+00 0. -1.
</event>
<event>
 7    1  0.7821043E-012  0.5930193E+02  0.7816164E-02  0.1266605E+00
        -11   -1    0    0    0    0  0.00000000000E+00  0.00000000000E+00  0.45593999997E+02  0.45594000000E+02  0.51100000000E-03 0. -1.
         11   -1    0    0    0    0 -0.00000000000E+00 -0.00000000000E+00 -0.45593999997E+02  0.45594000000E+02  0.51100000000E-03 0.  1.
    9900012    2    1    2    0    0  0.12884329447E+02 -0.28216652691E+02  0.73848567953E+01  0.59301928679E+02  0.49999972008E+02 0.  0.
         12    1    1    2    0    0 -0.12884329447E+02  0.28216652691E+02 -0.73848567953E+01  0.31886071321E+02  0.00000000000E+00 0. -1.
         11    1    3    3    0    0  0.67170758332E+01 -0.34902102567E+00  0.19313565505E+02  0.20451277129E+02  0.51100000000E-03 0. -1.
        -11    1    3    3    0    0 -0.10011468253E+01 -0.17716365007E+02 -0.17775719521E+02  0.25116689447E+02  0.51100000000E-03 0.  1.
         12    1    3    3    0    0  0.71684004395E+01 -0.10151266658E+02  0.58470108117E+01  0.13733962104E+02  0.00000000000E+00 0. -1.
</event>
<event>
 7    1  0.7821043E-012  0.5930193E+02  0.7816164E-02  0.1266605E+00
        -11   -1    0    0    0    0  0.00000000000E+00  0.00000000000E+00  0.45593999997E+02  0.45594000000E+02  0.51100000000E-03 0.  1.
         11   -1    0    0    0    0 -0.00000000000E+00 -0.00000000000E+00 -0.45593999997E+02  0.45594000000E+02  0.51100000000E-03 0. -1.
    9900012    2    1    2    0    0  0.44220793496E+01  0.77024152673E+01  0.30624161602E+02  0.59301933128E+02  0.49999980122E+02 0.  0.
         12    1    1    2    0    0 -0.44220793496E+01 -0.77024152673E+01 -0.30624161602E+02  0.31886066872E+02  0.00000000000E+00 0. -1.
         11    1    3    3    0    0 -0.10951948735E+02  0.11217147838E+02 -0.36390105943E+00  0.15681263053E+02  0.51100000000E-03 0. -1.
        -11    1    3    3    0    0  0.13883882231E+02 -0.10660003163E+02  0.75333231637E+01  0.19056463770E+02  0.51100000000E-03 0.  1.
        -12    1    3    3    0    0  0.14901458533E+01  0.71452705929E+01  0.23454739498E+02  0.24564206305E+02  0.00000000000E+00 0.  1.
</event>
<event>
 7    1  0.7821043E-012  0.5930196E+02  0.7816164E-02  0.1266605E+00
        -11   -1    0    0    0    0  0.00000000000E+00  0.00000000000E+00  0.45593999997E+02  0.45594000000E+02  0.51100000000E-03 0.  1.
         11   -1    0    0    0    0 -0.00000000000E+00 -0.00000000000E+00 -0.45593999997E+02  0.45594000000E+02  0.51100000000E-03 0. -1.
    9900012    2    1    2    0    0  0.16770596254E+02 -0.25435116138E+02  0.94085965723E+01  0.59301957267E+02  0.50000024145E+02 0.  0.
         12    1    1    2    0    0 -0.16770596254E+02  0.25435116138E+02 -0.94085965723E+01  0.31886042733E+02  0.00000000000E+00 0. -1.
         11    1    3    3    0    0  0.18457010884E+02 -0.17849997804E+02 -0.11445379991E+02  0.28111926219E+02  0.51100000000E-03 0. -1.
        -11    1    3    3    0    0 -0.83566853033E+01  0.35462513957E+01  0.13517371770E+02  0.16282795462E+02  0.51100000000E-03 0.  1.
        -12    1    3    3    0    0  0.66702706742E+01 -0.11131369730E+02  0.73366047930E+01  0.14907235586E+02  0.00000000000E+00 0.  1.
</event>
<event>
 7    1  0.7821043E-012  0.5930196E+02  0.7816164E-02  0.1266605E+00
        -11   -1    0    0    0    0  0.00000000000E+00  0.00000000000E+00  0.45593999997E+02  0.45594000000E+02  0.51100000000E-03 0.  1.
         11   -1    0    0    0    0 -0.00000000000E+00 -0.00000000000E+00 -0.45593999997E+02  0.45594000000E+02  0.51100000000E-03 0. -1.
    9900012    2    1    2    0    0  0.71504668245E+01 -0.98270717298E+01  0.29479123976E+02  0.59301964421E+02  0.50000037192E+02 0.  0.
         12    1    1    2    0    0 -0.71504668245E+01  0.98270717298E+01 -0.29479123976E+02  0.31886035579E+02  0.00000000000E+00 0. -1.
         11    1    3    3    0    0 -0.11605101171E+01 -0.10660023280E+02 -0.80075184538E+01  0.13382945570E+02  0.51100000000E-03 0. -1.
        -11    1    3    3    0    0 -0.28189259907E+01  0.74701893076E+01  0.29802197743E+02  0.30853218027E+02  0.51100000000E-03 0.  1.
        -12    1    3    3    0    0  0.11129902932E+02 -0.66372377570E+01  0.76844446863E+01  0.15065800824E+02  0.00000000000E+00 0.  1.
</event>
<event>
 7    1  0.9328572E-012  0.5930196E+02  0.7816164E-02  0.1266605E+00
        -11   -1    0    0    0    0  0.00000000000E+00  0.00000000000E+00  0.45593999997E+02  0.45594000000E+02  0.51100000000E-03 0.  1.
         11   -1    0    0    0    0 -0.00000000000E+00 -0.00000000000E+00 -0.45593999997E+02  0.45594000000E+02  0.51100000000E-03 0. -1.
    9900012    2    1    2    0    0 -0.12789510169E+02  0.23381680027E+02  0.17505563110E+02  0.59301964325E+02  0.50000037018E+02 0.  0.
         12    1    1    2    0    0  0.12789510169E+02 -0.23381680027E+02 -0.17505563110E+02  0.31886035675E+02  0.00000000000E+00 0. -1.
         11    1    3    3    0    0  0.63694911003E+01  0.68440598393E+01 -0.10247647645E+02  0.13871764649E+02  0.51100000000E-03 0. -1.
        -11    1    3    3    0    0 -0.69328388230E+01  0.17537124484E+02  0.27268119340E+02  0.33153662270E+02  0.51100000000E-03 0.  1.
        -12    1    3    3    0    0 -0.12226162446E+02 -0.99950429671E+00  0.48509141482E+00  0.12276537406E+02  0.00000000000E+00 0.  1.
</event>
<event>
 7    1  0.7821043E-012  0.5930194E+02  0.7816164E-02  0.1266605E+00
        -11   -1    0    0    0    0  0.00000000000E+00  0.00000000000E+00  0.45593999997E+02  0.45594000000E+02  0.51100000000E-03 0.  1.
         11   -1    0    0    0    0 -0.00000000000E+00 -0.00000000000E+00 -0.45593999997E+02  0.45594000000E+02  0.51100000000E-03 0. -1.
    9900012    2    1    2    0    0 -0.12557937932E+02 -0.28108346162E+02  0.83029881557E+01  0.59301944405E+02  0.50000000688E+02 0.  0.
         12    1    1    2    0    0  0.12557937932E+02  0.28108346162E+02 -0.83029881557E+01  0.31886055595E+02  0.00000000000E+00 0. -1.
         11    1    3    3    0    0 -0.31465296486E+02 -0.15100161332E+02  0.88979264891E+00  0.34912340030E+02  0.51100000000E-03 0. -1.
        -11    1    3    3    0    0  0.12429401350E+02 -0.10043790430E+02  0.63088976594E+01  0.17180510297E+02  0.51100000000E-03 0.  1.
         12    1    3    3    0    0  0.64779572034E+01 -0.29643944004E+01  0.11042978473E+01  0.72090940781E+01  0.00000000000E+00 0. -1.
</event>
<event>
 7    1  0.7821043E-012  0.5930195E+02  0.7816164E-02  0.1266605E+00
        -11   -1    0    0    0    0  0.00000000000E+00  0.00000000000E+00  0.45593999997E+02  0.45594000000E+02  0.51100000000E-03 0.  1.
         11   -1    0    0    0    0 -0.00000000000E+00 -0.00000000000E+00 -0.45593999997E+02  0.45594000000E+02  0.51100000000E-03 0. -1.
    9900012    2    1    2    0    0  0.52025169338E+00 -0.24087546174E+02  0.20886344334E+02  0.59301954115E+02  0.50000018397E+02 0.  0.
         12    1    1    2    0    0 -0.52025169338E+00  0.24087546174E+02 -0.20886344334E+02  0.31886045885E+02  0.00000000000E+00 0. -1.
         11    1    3    3    0    0 -0.11208877049E+02 -0.11053011921E+02  0.39417187500E+01  0.16227912503E+02  0.51100000000E-03 0. -1.
        -11    1    3    3    0    0  0.16135775186E+02 -0.22667402242E+02  0.73417995860E+01  0.28776316419E+02  0.51100000000E-03 0.  1.
        -12    1    3    3    0    0 -0.44066464434E+01  0.96328679884E+01  0.96028259978E+01  0.14297725193E+02  0.00000000000E+00 0.  1.
</event>
<event>
 7    1  0.7821043E-012  0.5930222E+02  0.7816164E-02  0.1266604E+00
        -11   -1    0    0    0    0  0.00000000000E+00  0.00000000000E+00  0.45593999997E+02  0.45594000000E+02  0.51100000000E-03 0.  1.
         11   -1    0    0    0    0 -0.00000000000E+00 -0.00000000000E+00 -0.45593999997E+02  0.45594000000E+02  0.51100000000E-03 0. -1.
    9900012    2    1    2    0    0 -0.86241484017E+01  0.28997061164E+02 -0.10074582642E+02  0.59302224062E+02  0.50000510712E+02 0.  0.
         12    1    1    2    0    0  0.86241484017E+01 -0.28997061164E+02  0.10074582642E+02  0.31885775938E+02  0.00000000000E+00 0. -1.
         11    1    3    3    0    0 -0.97557464072E+00  0.28799159680E+01 -0.11708668652E+02  0.12097048554E+02  0.51100000000E-03 0. -1.
        -11    1    3    3    0    0 -0.82253261918E+01  0.34016016446E+02  0.92704531529E+01  0.36203406852E+02  0.51100000000E-03 0.  1.
        -12    1    3    3    0    0  0.57675243076E+00 -0.78988712501E+01 -0.76363671432E+01  0.11001768655E+02  0.00000000000E+00 0.  1.
</event>
<event>
 7    1  0.7821043E-012  0.5930197E+02  0.7816164E-02  0.1266605E+00
        -11   -1    0    0    0    0  0.00000000000E+00  0.00000000000E+00  0.45593999997E+02  0.45594000000E+02  0.51100000000E-03 0. -1.
         11   -1    0    0    0    0 -0.00000000000E+00 -0.00000000000E+00 -0.45593999997E+02  0.45594000000E+02  0.51100000000E-03 0.  1.
    9900012    2    1    2    0    0 -0.17782555504E+02 -0.23677121912E+02 -0.11827672625E+02  0.59301965094E+02  0.50000038419E+02 0.  0.
         12    1    1    2    0    0  0.17782555504E+02  0.23677121912E+02  0.11827672625E+02  0.31886034906E+02  0.00000000000E+00 0. -1.
         11    1    3    3    0    0 -0.27938479388E+02 -0.82883756541E+01  0.85429921046E+01  0.30368380198E+02  0.51100000000E-03 0. -1.
        -11    1    3    3    0    0  0.53269165597E+01 -0.14566352376E+02 -0.13972005115E+02  0.20875142844E+02  0.51100000000E-03 0.  1.
         12    1    3    3    0    0  0.48290073241E+01 -0.82239388277E+00 -0.63986596145E+01  0.80584420514E+01  0.00000000000E+00 0. -1.
</event>
<event>
 7    1  0.7821043E-012  0.5930194E+02  0.7816164E-02  0.1266605E+00
        -11   -1    0    0    0    0  0.00000000000E+00  0.00000000000E+00  0.45593999997E+02  0.45594000000E+02  0.51100000000E-03 0.  1.
         11   -1    0    0    0    0 -0.00000000000E+00 -0.00000000000E+00 -0.45593999997E+02  0.45594000000E+02  0.51100000000E-03 0. -1.
    9900012    2    1    2    0    0 -0.15924760279E+02  0.29131329048E+01  0.27470644382E+02  0.59301942921E+02  0.49999997982E+02 0.  0.
         12    1    1    2    0    0  0.15924760279E+02 -0.29131329048E+01 -0.27470644382E+02  0.31886057079E+02  0.00000000000E+00 0. -1.
         11    1    3    3    0    0 -0.21926671683E+02 -0.91832164042E+01  0.19424047743E+02  0.30698599733E+02  0.51100000000E-03 0. -1.
        -11    1    3    3    0    0  0.77465359061E+01  0.15718123786E+02  0.13292289651E+02  0.21994390156E+02  0.51100000000E-03 0.  1.
        -12    1    3    3    0    0 -0.17446245019E+01 -0.36217744769E+01 -0.52456930113E+01  0.66089530323E+01  0.00000000000E+00 0.  1.
</event>
<event>
 7    1  0.7821043E-012  0.5930200E+02  0.7816164E-02  0.1266605E+00
        -11   -1    0    0    0    0  0.00000000000E+00  0.00000000000E+00  0.45593999997E+02  0.45594000000E+02  0.51100000000E-03 0.  1.
         11   -1    0    0    0    0 -0.00000000000E+00 -0.00000000000E+00 -0.45593999997E+02  0.45594000000E+02  0.51100000000E-03 0. -1.
    9900012    2    1    2    0    0  0.51384729870E+01 -0.45477049024E+01  0.31138904434E+02  0.59302001602E+02  0.50000105001E+02 0.  0.
         12    1    1    2    0    0 -0.51384729870E+01  0.45477049024E+01 -0.31138904434E+02  0.31885998398E+02  0.00000000000E+00 0. -1.
         11    1    3    3    0    0  0.22184138239E+02 -0.44651870757E+01  0.32672998524E+02  0.39744165834E+02  0.51100000000E-03 0. -1.
        -11    1    3    3    0    0 -0.13484721253E+02  0.29718983460E+01  0.16224537271E+01  0.13903317712E+02  0.51100000000E-03 0.  1.
         12    1    3    3    0    0 -0.35609439984E+01 -0.30544161726E+01 -0.31565478175E+01  0.56545180555E+01  0.00000000000E+00 0. -1.
</event>
<event>
 7    1  0.7821043E-012  0.5930190E+02  0.7816164E-02  0.1266605E+00
        -11   -1    0    0    0    0  0.00000000000E+00  0.00000000000E+00  0.45593999997E+02  0.45594000000E+02  0.51100000000E-03 0.  1.
         11   -1    0    0    0    0 -0.00000000000E+00 -0.00000000000E+00 -0.45593999997E+02  0.45594000000E+02  0.51100000000E-03 0. -1.
    9900012    2    1    2    0    0  0.32894278366E+01 -0.28716980328E+02 -0.13462460150E+02  0.59301903846E+02  0.49999926719E+02 0.  0.
         12    1    1    2    0    0 -0.32894278366E+01  0.28716980328E+02  0.13462460150E+02  0.31886096154E+02  0.00000000000E+00 0. -1.
         11    1    3    3    0    0 -0.12622610344E+02 -0.11990127388E+02 -0.23249619651E+02  0.29045451638E+02  0.51100000000E-03 0. -1.
        -11    1    3    3    0    0  0.68003512302E+01 -0.18082300966E+02  0.77916150947E+01  0.20830834143E+02  0.51100000000E-03 0.  1.
        -12    1    3    3    0    0  0.91116869501E+01  0.13554480258E+01  0.19955444063E+01  0.94256180649E+01  0.00000000000E+00 0.  1.
</event>
<event>
 7    1  0.7821043E-012  0.5930194E+02  0.7816164E-02  0.1266605E+00
        -11   -1    0    0    0    0  0.00000000000E+00  0.00000000000E+00  0.45593999997E+02  0.45594000000E+02  0.51100000000E-03 0.  1.
         11   -1    0    0    0    0 -0.00000000000E+00 -0.00000000000E+00 -0.45593999997E+02  0.45594000000E+02  0.51100000000E-03 0. -1.
    9900012    2    1    2    0    0 -0.53129374815E+00 -0.31317199341E+02  0.59725653108E+01  0.59301940601E+02  0.49999993751E+02 0.  0.
         12    1    1    2    0    0  0.53129374815E+00  0.31317199341E+02 -0.59725653108E+01  0.31886059399E+02  0.00000000000E+00 0. -1.
         11    1    3    3    0    0 -0.61071561642E+01  0.25899783993E+01 -0.11260338959E+02  0.13069069525E+02  0.51100000000E-03 0. -1.
        -11    1    3    3    0    0 -0.34098551880E+01 -0.33683728321E+02  0.12635884089E+02  0.36137047928E+02  0.51100000000E-03 0.  1.
        -12    1    3    3    0    0  0.89857176040E+01 -0.22344941906E+00  0.45970201808E+01  0.10095823148E+02  0.00000000000E+00 0.  1.
</event>
<event>
 7    1  0.7821043E-012  0.5930199E+02  0.7816164E-02  0.1266605E+00
        -11   -1    0    0    0    0  0.00000000000E+00  0.00000000000E+00  0.45593999997E+02  0.45594000000E+02  0.51100000000E-03 0. -1.
         11   -1    0    0    0    0 -0.00000000000E+00 -0.00000000000E+00 -0.45593999997E+02  0.45594000000E+02  0.51100000000E-03 0.  1.
    9900012    2    1    2    0    0 -0.11175373657E+02  0.19785838533E+02 -0.22368494414E+02  0.59301985430E+02  0.50000075507E+02 0.  0.
         12    1    1    2    0    0  0.11175373657E+02 -0.19785838533E+02  0.22368494414E+02  0.31886014570E+02  0.00000000000E+00 0. -1.
         11    1    3    3    0    0 -0.89953862188E+01  0.17456493338E+02  0.80543023490E+01  0.21225407404E+02  0.51100000000E-03 0. -1.
        -11    1    3    3    0    0 -0.74858708386E+01 -0.69330867322E+01 -0.22741829184E+02  0.24925824936E+02  0.51100000000E-03 0.  1.
        -12    1    3    3    0    0  0.53058834004E+01  0.92624319272E+01 -0.76809675792E+01  0.13150753089E+02  0.00000000000E+00 0.  1.
</event>
<event>
 7    1  0.7821043E-012  0.5930196E+02  0.7816164E-02  0.1266605E+00
        -11   -1    0    0    0    0  0.00000000000E+00  0.00000000000E+00  0.45593999997E+02  0.45594000000E+02  0.51100000000E-03 0.  1.
         11   -1    0    0    0    0 -0.00000000000E+00 -0.00000000000E+00 -0.45593999997E+02  0.45594000000E+02  0.51100000000E-03 0. -1.
    9900012    2    1    2    0    0  0.18382216912E+01  0.19127422657E+01  0.31775496971E+02  0.59301955251E+02  0.50000020469E+02 0.  0.
         12    1    1    2    0    0 -0.18382216912E+01 -0.19127422657E+01 -0.31775496971E+02  0.31886044749E+02  0.00000000000E+00 0. -1.
         11    1    3    3    0    0 -0.16172062817E+02 -0.42649345318E+01  0.10529702730E+02  0.19763600941E+02  0.51100000000E-03 0. -1.
        -11    1    3    3    0    0  0.20279713236E+02  0.58348764531E+01  0.31958304232E+01  0.21343052371E+02  0.51100000000E-03 0.  1.
        -12    1    3    3    0    0 -0.22694287276E+01  0.34280034439E+00  0.18049963818E+02  0.18195301940E+02  0.00000000000E+00 0.  1.
</event>
<event>
 7    1  0.7821043E-012  0.5930195E+02  0.7816164E-02  0.1266605E+00
        -11   -1    0    0    0    0  0.00000000000E+00  0.00000000000E+00  0.45593999997E+02  0.45594000000E+02  0.51100000000E-03 0. -1.
         11   -1    0    0    0    0 -0.00000000000E+00 -0.00000000000E+00 -0.45593999997E+02  0.45594000000E+02  0.51100000000E-03 0.  1.
    9900012    2    1    2    0    0 -0.13226417710E+02 -0.28812540812E+02  0.34087787844E+01  0.59301946524E+02  0.50000004552E+02 0.  0.
         12    1    1    2    0    0  0.13226417710E+02  0.28812540812E+02 -0.34087787844E+01  0.31886053476E+02  0.00000000000E+00 0. -1.
         11    1    3    3    0    0  0.15648118484E+02 -0.96515759170E+01 -0.28192863099E+01  0.18600131863E+02  0.51100000000E-03 0. -1.
        -11    1    3    3    0    0 -0.19464244151E+02 -0.80416290812E+01 -0.57631221436E+01  0.21834334791E+02  0.51100000000E-03 0.  1.
         12    1    3    3    0    0 -0.94102920426E+01 -0.11119335814E+02  0.11991187238E+02  0.18867479870E+02  0.00000000000E+00 0. -1.
</event>
<event>
 7    1  0.7821043E-012  0.5930195E+02  0.7816164E-02  0.1266605E+00
        -11   -1    0    0    0    0  0.00000000000E+00  0.00000000000E+00  0.45593999997E+02  0.45594000000E+02  0.51100000000E-03 0.  1.
         11   -1    0    0    0    0 -0.00000000000E+00 -0.00000000000E+00 -0.45593999997E+02  0.45594000000E+02  0.51100000000E-03 0. -1.
    9900012    2    1    2    0    0 -0.11705832346E+02  0.20158522572E+02  0.21756095190E+02  0.59301949428E+02  0.50000009848E+02 0.  0.
         12    1    1    2    0    0  0.11705832346E+02 -0.20158522572E+02 -0.21756095190E+02  0.31886050572E+02  0.00000000000E+00 0. -1.
         11    1    3    3    0    0 -0.19619788037E+02 -0.62593665619E+01  0.46081024487E+01  0.21103325823E+02  0.51100000000E-03 0. -1.
        -11    1    3    3    0    0  0.10970185294E+02  0.64081295124E+01  0.18772592911E+01  0.12842631816E+02  0.51100000000E-03 0.  1.
         12    1    3    3    0    0 -0.30562296034E+01  0.20009759622E+02  0.15270733450E+02  0.25355991789E+02  0.00000000000E+00 0. -1.
</event>
<event>
 7    1  0.7821043E-012  0.5930198E+02  0.7816164E-02  0.1266605E+00
        -11   -1    0    0    0    0  0.00000000000E+00  0.00000000000E+00  0.45593999997E+02  0.45594000000E+02  0.51100000000E-03 0.  1.
         11   -1    0    0    0    0 -0.00000000000E+00 -0.00000000000E+00 -0.45593999997E+02  0.45594000000E+02  0.51100000000E-03 0. -1.
    9900012    2    1    2    0    0  0.18390675287E+02  0.17013888333E+02  0.19723809948E+02  0.59301984059E+02  0.50000073008E+02 0.  0.
         12    1    1    2    0    0 -0.18390675287E+02 -0.17013888333E+02 -0.19723809948E+02  0.31886015941E+02  0.00000000000E+00 0. -1.
         11    1    3    3    0    0  0.17240391258E+02 -0.21053970043E+01  0.22249579195E+02  0.28226008607E+02  0.51100000000E-03 0. -1.
        -11    1    3    3    0    0 -0.10434391098E+02  0.37139966476E+01  0.20535254590E+01  0.11264424342E+02  0.51100000000E-03 0.  1.
         12    1    3    3    0    0  0.11584675127E+02  0.15405288689E+02 -0.45792947060E+01  0.19811551111E+02  0.00000000000E+00 0. -1.
</event>
<event>
 7    1  0.7821043E-012  0.5930197E+02  0.7816164E-02  0.1266605E+00
        -11   -1    0    0    0    0  0.00000000000E+00  0.00000000000E+00  0.45593999997E+02  0.45594000000E+02  0.51100000000E-03 0.  1.
         11   -1    0    0    0    0 -0.00000000000E+00 -0.00000000000E+00 -0.45593999997E+02  0.45594000000E+02  0.51100000000E-03 0. -1.
    9900012    2    1    2    0    0 -0.14169062243E+02  0.28084161909E+02  0.52188262899E+01  0.59301974491E+02  0.50000055557E+02 0.  0.
         12    1    1    2    0    0  0.14169062243E+02 -0.28084161909E+02 -0.52188262899E+01  0.31886025509E+02  0.00000000000E+00 0. -1.
         11    1    3    3    0    0  0.15524152234E+02 -0.11820850539E+01  0.20055604381E+01  0.15697735524E+02  0.51100000000E-03 0. -1.
        -11    1    3    3    0    0 -0.19533450353E+02  0.21364702623E+02  0.77323291071E+01  0.29963229374E+02  0.51100000000E-03 0.  1.
         12    1    3    3    0    0 -0.10159764124E+02  0.79015443399E+01 -0.45190632552E+01  0.13641009593E+02  0.00000000000E+00 0. -1.
</event>
<event>
 7    1  0.7821043E-012  0.5930197E+02  0.7816164E-02  0.1266605E+00
        -11   -1    0    0    0    0  0.00000000000E+00  0.00000000000E+00  0.45593999997E+02  0.45594000000E+02  0.51100000000E-03 0.  1.
         11   -1    0    0    0    0 -0.00000000000E+00 -0.00000000000E+00 -0.45593999997E+02  0.45594000000E+02  0.51100000000E-03 0. -1.
    9900012    2    1    2    0    0 -0.16267065517E+01  0.21995500809E+00  0.31843744073E+02  0.59301974989E+02  0.50000056465E+02 0.  0.
         12    1    1    2    0    0  0.16267065517E+01 -0.21995500809E+00 -0.31843744073E+02  0.31886025011E+02  0.00000000000E+00 0. -1.
         11    1    3    3    0    0 -0.16737987127E+02  0.11065346021E+02 -0.56897335576E-01  0.20065027615E+02  0.51100000000E-03 0. -1.
        -11    1    3    3    0    0  0.11400257305E+02 -0.11545333722E+01  0.22432153852E+02  0.25189290197E+02  0.51100000000E-03 0.  1.
         12    1    3    3    0    0  0.37110232702E+01 -0.96908576410E+01  0.94684875575E+01  0.14047657177E+02  0.00000000000E+00 0. -1.
</event>
<event>
 7    1  0.7821043E-012  0.5930195E+02  0.7816164E-02  0.1266605E+00
        -11   -1    0    0    0    0  0.00000000000E+00  0.00000000000E+00  0.45593999997E+02  0.45594000000E+02  0.51100000000E-03 0. -1.
         11   -1    0    0    0    0 -0.00000000000E+00 -0.00000000000E+00 -0.45593999997E+02  0.45594000000E+02  0.51100000000E-03 0.  1.
    9900012    2    1    2    0    0  0.76998895654E+01 -0.89204830059E+00 -0.30929534485E+02  0.59301950497E+02  0.50000011798E+02 0.  0.
         12    1    1    2    0    0 -0.76998895654E+01  0.89204830059E+00  0.30929534485E+02  0.31886049503E+02  0.00000000000E+00 0. -1.
         11    1    3    3    0    0 -0.46300998342E+01  0.11723576411E+02  0.46288329273E+01  0.13427813034E+02  0.51100000000E-03 0. -1.
        -11    1    3    3    0    0  0.15007598216E+02 -0.27067844641E+01 -0.97516065081E+01  0.18101063949E+02  0.51100000000E-03 0.  1.
         12    1    3    3    0    0 -0.26776088164E+01 -0.99088402477E+01 -0.25806760904E+02  0.27773073513E+02  0.00000000000E+00 0. -1.
</event>
<event>
 7    1  0.7821043E-012  0.5930192E+02  0.7816164E-02  0.1266605E+00
        -11   -1    0    0    0    0  0.00000000000E+00  0.00000000000E+00  0.45593999997E+02  0.45594000000E+02  0.51100000000E-03 0.  1.
         11   -1    0    0    0    0 -0.00000000000E+00 -0.00000000000E+00 -0.45593999997E+02  0.45594000000E+02  0.51100000000E-03 0. -1.
    9900012    2    1    2    0    0  0.10610408586E+02  0.10045526964E+01  0.30052161548E+02  0.59301916669E+02  0.49999950104E+02 0.  0.
         12    1    1    2    0    0 -0.10610408586E+02 -0.10045526964E+01 -0.30052161548E+02  0.31886083331E+02  0.00000000000E+00 0. -1.
         11    1    3    3    0    0 -0.17153762842E+02  0.43027702837E+00  0.86232617948E+01  0.19204097537E+02  0.51100000000E-03 0. -1.
        -11    1    3    3    0    0  0.13660486615E+02  0.99033609802E+01  0.12309335339E+02  0.20885525849E+02  0.51100000000E-03 0.  1.
         12    1    3    3    0    0  0.14103684813E+02 -0.93290853122E+01  0.91195644147E+01  0.19212293283E+02  0.00000000000E+00 0. -1.
</event>
<event>
 7    1  0.7821043E-012  0.5930185E+02  0.7816164E-02  0.1266605E+00
        -11   -1    0    0    0    0  0.00000000000E+00  0.00000000000E+00  0.45593999997E+02  0.45594000000E+02  0.51100000000E-03 0. -1.
         11   -1    0    0    0    0 -0.00000000000E+00 -0.00000000000E+00 -0.45593999997E+02  0.45594000000E+02  0.51100000000E-03 0.  1.
    9900012    2    1    2    0    0 -0.19162462052E+02 -0.22416343090E+02 -0.12125763448E+02  0.59301850520E+02  0.49999829465E+02 0.  0.
         12    1    1    2    0    0  0.19162462052E+02  0.22416343090E+02  0.12125763448E+02  0.31886149480E+02  0.00000000000E+00 0. -1.
         11    1    3    3    0    0  0.32663253788E+01  0.16649542239E+01  0.10245568396E+02  0.10881756571E+02  0.51100000000E-03 0. -1.
        -11    1    3    3    0    0 -0.25606870975E+02 -0.27945701284E+02 -0.19117832952E+02  0.42451921022E+02  0.51100000000E-03 0.  1.
        -12    1    3    3    0    0  0.31780835439E+01  0.38644039699E+01 -0.32534988923E+01  0.59681729279E+01  0.00000000000E+00 0.  1.
</event>
<event>
 7    1  0.7821043E-012  0.5930195E+02  0.7816164E-02  0.1266605E+00
        -11   -1    0    0    0    0  0.00000000000E+00  0.00000000000E+00  0.45593999997E+02  0.45594000000E+02  0.51100000000E-03 0.  1.
         11   -1    0    0    0    0 -0.00000000000E+00 -0.00000000000E+00 -0.45593999997E+02  0.45594000000E+02  0.51100000000E-03 0. -1.
    9900012    2    1    2    0    0  0.84592000808E+01 -0.21656721803E+02  0.21820826980E+02  0.59301950458E+02  0.50000011728E+02 0.  0.
         12    1    1    2    0    0 -0.84592000808E+01  0.21656721803E+02 -0.21820826980E+02  0.31886049542E+02  0.00000000000E+00 0. -1.
         11    1    3    3    0    0 -0.14654619911E+02 -0.21486339444E+01  0.43510249130E+01  0.15437160705E+02  0.51100000000E-03 0. -1.
        -11    1    3    3    0    0  0.19180304337E+02 -0.14308030508E+02  0.24520333035E+02  0.34261502359E+02  0.51100000000E-03 0.  1.
         12    1    3    3    0    0  0.39335156554E+01 -0.52000573505E+01 -0.70505309676E+01  0.96032873947E+01  0.00000000000E+00 0. -1.
</event>
<event>
 7    1  0.7821043E-012  0.5930182E+02  0.7816164E-02  0.1266605E+00
        -11   -1    0    0    0    0  0.00000000000E+00  0.00000000000E+00  0.45593999997E+02  0.45594000000E+02  0.51100000000E-03 0.  1.
         11   -1    0    0    0    0 -0.00000000000E+00 -0.00000000000E+00 -0.45593999997E+02  0.45594000000E+02  0.51100000000E-03 0. -1.
    9900012    2    1    2    0    0  0.12895356451E+02  0.28979098552E+02 -0.32634198890E+01  0.59301823054E+02  0.49999779372E+02 0.  0.
         12    1    1    2    0    0 -0.12895356451E+02 -0.28979098552E+02  0.32634198890E+01  0.31886176946E+02  0.00000000000E+00 0. -1.
         11    1    3    3    0    0 -0.13901343437E+02  0.27131194008E+02  0.52217626546E-01  0.30485271273E+02  0.51100000000E-03 0. -1.
        -11    1    3    3    0    0  0.11062878344E+02 -0.24087670467E+01  0.23445352952E+01  0.11562278407E+02  0.51100000000E-03 0.  1.
         12    1    3    3    0    0  0.15733821544E+02  0.42566715904E+01 -0.56601728107E+01  0.17254273374E+02  0.00000000000E+00 0. -1.
</event>
<event>
 7    1  0.7821043E-012  0.5930209E+02  0.7816164E-02  0.1266604E+00
        -11   -1    0    0    0    0  0.00000000000E+00  0.00000000000E+00  0.45593999997E+02  0.45594000000E+02  0.51100000000E-03 0. -1.
         11   -1    0    0    0    0 -0.00000000000E+00 -0.00000000000E+00 -0.45593999997E+02  0.45594000000E+02  0.51100000000E-03 0.  1.
    9900012    2    1    2    0    0  0.96628251101E+01 -0.60841619871E+01 -0.29771196084E+02  0.59302088809E+02  0.50000264046E+02 0.  0.
         12    1    1    2    0    0 -0.96628251101E+01  0.60841619871E+01  0.29771196084E+02  0.31885911191E+02  0.00000000000E+00 0. -1.
         11    1    3    3    0    0  0.11004521077E+01 -0.12000842902E+01  0.47263398996E+00  0.16954587269E+01  0.51100000000E-03 0. -1.
        -11    1    3    3    0    0 -0.18988602231E+02 -0.92706662999E+01 -0.13085913069E+02  0.24854645229E+02  0.51100000000E-03 0.  1.
        -12    1    3    3    0    0  0.27550975234E+02  0.43865886030E+01 -0.17157917004E+02  0.32751984853E+02  0.00000000000E+00 0.  1.
</event>
<event>
 7    1  0.7821043E-012  0.5930200E+02  0.7816164E-02  0.1266605E+00
        -11   -1    0    0    0    0  0.00000000000E+00  0.00000000000E+00  0.45593999997E+02  0.45594000000E+02  0.51100000000E-03 0. -1.
         11   -1    0    0    0    0 -0.00000000000E+00 -0.00000000000E+00 -0.45593999997E+02  0.45594000000E+02  0.51100000000E-03 0.  1.
    9900012    2    1    2    0    0 -0.10310068541E+02  0.29957655229E+02  0.35998137707E+01  0.59301995557E+02  0.50000093977E+02 0.  0.
         12    1    1    2    0    0  0.10310068541E+02 -0.29957655229E+02 -0.35998137707E+01  0.31886004443E+02  0.00000000000E+00 0. -1.
         11    1    3    3    0    0 -0.68728136148E+01  0.39059076363E+02  0.12364058625E+02  0.41541749593E+02  0.51100000000E-03 0. -1.
        -11    1    3    3    0    0 -0.68436081552E+01 -0.49209090875E+01 -0.12651349222E+01  0.85235488772E+01  0.51100000000E-03 0.  1.
         12    1    3    3    0    0  0.34063532289E+01 -0.41805120466E+01 -0.74991099321E+01  0.92366970864E+01  0.00000000000E+00 0. -1.
</event>
<event>
 7    1  0.7821043E-012  0.5930195E+02  0.7816164E-02  0.1266605E+00
        -11   -1    0    0    0    0  0.00000000000E+00  0.00000000000E+00  0.45593999997E+02  0.45594000000E+02  0.51100000000E-03 0.  1.
         11   -1    0    0    0    0 -0.00000000000E+00 -0.00000000000E+00 -0.45593999997E+02  0.45594000000E+02  0.51100000000E-03 0. -1.
    9900012    2    1    2    0    0  0.22205391051E+02  0.22095378420E+02  0.59527493295E+01  0.59301947189E+02  0.50000005766E+02 0.  0.
         12    1    1    2    0    0 -0.22205391051E+02 -0.22095378420E+02 -0.59527493295E+01  0.31886052811E+02  0.00000000000E+00 0. -1.
         11    1    3    3    0    0  0.28086527399E+02  0.46977907380E+01  0.29267049044E+01  0.28626698395E+02  0.51100000000E-03 0.  1.
        -11    1    3    3    0    0 -0.18339617216E+01  0.19863936872E+02 -0.56985981634E+01  0.20746407519E+02  0.51100000000E-03 0. -1.
        -12    1    3    3    0    0 -0.40471746260E+01 -0.24663491897E+01  0.87246425885E+01  0.99288412756E+01  0.00000000000E+00 0.  1.
</event>
<event>
 7    1  0.7821043E-012  0.5930196E+02  0.7816164E-02  0.1266605E+00
        -11   -1    0    0    0    0  0.00000000000E+00  0.00000000000E+00  0.45593999997E+02  0.45594000000E+02  0.51100000000E-03 0.  1.
         11   -1    0    0    0    0 -0.00000000000E+00 -0.00000000000E+00 -0.45593999997E+02  0.45594000000E+02  0.51100000000E-03 0. -1.
    9900012    2    1    2    0    0 -0.11241595762E+02  0.84542522775E+01  0.28615928821E+02  0.59301964826E+02  0.50000037931E+02 0.  0.
         12    1    1    2    0    0  0.11241595762E+02 -0.84542522775E+01 -0.28615928821E+02  0.31886035174E+02  0.00000000000E+00 0. -1.
         11    1    3    3    0    0  0.13740204364E+02  0.11259187239E+02  0.31496838348E+01  0.18041148017E+02  0.51100000000E-03 0. -1.
        -11    1    3    3    0    0 -0.21638183018E+02 -0.65194015302E+01  0.94716139205E+01  0.24503571804E+02  0.51100000000E-03 0.  1.
        -12    1    3    3    0    0 -0.33436171072E+01  0.37144665689E+01  0.15994631065E+02  0.16757245005E+02  0.00000000000E+00 0.  1.
</event>
<event>
 7    1  0.7821043E-012  0.5930208E+02  0.7816164E-02  0.1266604E+00
        -11   -1    0    0    0    0  0.00000000000E+00  0.00000000000E+00  0.45593999997E+02  0.45594000000E+02  0.51100000000E-03 0. -1.
         11   -1    0    0    0    0 -0.00000000000E+00 -0.00000000000E+00 -0.45593999997E+02  0.45594000000E+02  0.51100000000E-03 0.  1.
    9900012    2    1    2    0    0  0.22853154842E+02 -0.21612673221E+02 -0.52285214863E+01  0.59302081997E+02  0.50000251622E+02 0.  0.
         12    1    1    2    0    0 -0.22853154842E+02  0.21612673221E+02  0.52285214863E+01  0.31885918003E+02  0.00000000000E+00 0. -1.
         11    1    3    3    0    0  0.89492075442E+01  0.13158478607E+02  0.40947226133E+01  0.16431695849E+02  0.51100000000E-03 0. -1.
        -11    1    3    3    0    0  0.10716717696E+02 -0.36591636173E+02 -0.90609810483E+01  0.39190525051E+02  0.51100000000E-03 0.  1.
        -12    1    3    3    0    0  0.31872296014E+01  0.18204843445E+01 -0.26226305130E+00  0.36798610964E+01  0.00000000000E+00 0.  1.
</event>
<event>
 7    1  0.7821043E-012  0.5930190E+02  0.7816164E-02  0.1266605E+00
        -11   -1    0    0    0    0  0.00000000000E+00  0.00000000000E+00  0.45593999997E+02  0.45594000000E+02  0.51100000000E-03 0. -1.
         11   -1    0    0    0    0 -0.00000000000E+00 -0.00000000000E+00 -0.45593999997E+02  0.45594000000E+02  0.51100000000E-03 0.  1.
    9900012    2    1    2    0    0 -0.18506786868E+02  0.24555318615E+02  0.84414839130E+01  0.59301898277E+02  0.49999916561E+02 0.  0.
         12    1    1    2    0    0  0.18506786868E+02 -0.24555318615E+02 -0.84414839130E+01  0.31886101723E+02  0.00000000000E+00 0. -1.
         11    1    3    3    0    0  0.31107184471E+01  0.25168125429E+02  0.52780955571E+01  0.25903077034E+02  0.51100000000E-03 0. -1.
        -11    1    3    3    0    0 -0.15101513374E+02 -0.96711162323E+00  0.14086989908E+02  0.20674484178E+02  0.51100000000E-03 0.  1.
         12    1    3    3    0    0 -0.65159919414E+01  0.35430480977E+00 -0.10923601552E+02  0.12724337065E+02  0.00000000000E+00 0. -1.
</event>
<event>
 7    1  0.7821043E-012  0.5930194E+02  0.7816164E-02  0.1266605E+00
        -11   -1    0    0    0    0  0.00000000000E+00  0.00000000000E+00  0.45593999997E+02  0.45594000000E+02  0.51100000000E-03 0.  1.
         11   -1    0    0    0    0 -0.00000000000E+00 -0.00000000000E+00 -0.45593999997E+02  0.45594000000E+02  0.51100000000E-03 0. -1.
    9900012    2    1    2    0    0  0.28646577024E+02  0.12351461583E+02  0.65981903600E+01  0.59301935733E+02  0.49999984872E+02 0.  0.
         12    1    1    2    0    0 -0.28646577024E+02 -0.12351461583E+02 -0.65981903600E+01  0.31886064267E+02  0.00000000000E+00 0. -1.
         11    1    3    3    0    0  0.23768104853E+02 -0.13603742625E+02  0.76891457223E+01  0.28444816468E+02  0.51100000000E-03 0. -1.
        -11    1    3    3    0    0  0.11592912435E+01  0.19900382630E+02  0.60009369876E+01  0.20817791189E+02  0.51100000000E-03 0.  1.
         12    1    3    3    0    0  0.37191809274E+01  0.60548215777E+01 -0.70918923499E+01  0.10039328076E+02  0.00000000000E+00 0. -1.
</event>
<event>
 7    1  0.7821043E-012  0.5930193E+02  0.7816164E-02  0.1266605E+00
        -11   -1    0    0    0    0  0.00000000000E+00  0.00000000000E+00  0.45593999997E+02  0.45594000000E+02  0.51100000000E-03 0.  1.
         11   -1    0    0    0    0 -0.00000000000E+00 -0.00000000000E+00 -0.45593999997E+02  0.45594000000E+02  0.51100000000E-03 0. -1.
    9900012    2    1    2    0    0  0.15090158967E+02 -0.24141392328E+02  0.14359720063E+02  0.59301932800E+02  0.49999979524E+02 0.  0.
         12    1    1    2    0    0 -0.15090158967E+02  0.24141392328E+02 -0.14359720063E+02  0.31886067200E+02  0.00000000000E+00 0. -1.
         11    1    3    3    0    0 -0.13769757134E+01  0.17283317581E+01 -0.72100735056E+01  0.75411108597E+01  0.51100000000E-03 0. -1.
        -11    1    3    3    0    0  0.19051312651E+02 -0.25486484572E+02  0.29512619735E+02  0.43399402455E+02  0.51100000000E-03 0.  1.
        -12    1    3    3    0    0 -0.25841779700E+01 -0.38323951420E+00 -0.79428261670E+01  0.83614194862E+01  0.00000000000E+00 0.  1.
</event>
<event>
 7    1  0.7821043E-012  0.5930196E+02  0.7816164E-02  0.1266605E+00
        -11   -1    0    0    0    0  0.00000000000E+00  0.00000000000E+00  0.45593999997E+02  0.45594000000E+02  0.51100000000E-03 0.  1.
         11   -1    0    0    0    0 -0.00000000000E+00 -0.00000000000E+00 -0.45593999997E+02  0.45594000000E+02  0.51100000000E-03 0. -1.
    9900012    2    1    2    0    0 -0.18088756483E+02 -0.14708229132E+02  0.21752805414E+02  0.59301958247E+02  0.50000025933E+02 0.  0.
         12    1    1    2    0    0  0.18088756483E+02  0.14708229132E+02 -0.21752805414E+02  0.31886041753E+02  0.00000000000E+00 0. -1.
         11    1    3    3    0    0  0.95075593279E+01  0.87680272236E+01  0.16995872280E+02  0.21357239067E+02  0.51100000000E-03 0. -1.
        -11    1    3    3    0    0 -0.10587857421E+02 -0.13669052201E+02 -0.14573720242E+01  0.17351358631E+02  0.51100000000E-03 0.  1.
         12    1    3    3    0    0 -0.17008458390E+02 -0.98072041541E+01  0.62143051582E+01  0.20593360549E+02  0.00000000000E+00 0. -1.
</event>
<event>
 7    1  0.7821043E-012  0.5930195E+02  0.7816164E-02  0.1266605E+00
        -11   -1    0    0    0    0  0.00000000000E+00  0.00000000000E+00  0.45593999997E+02  0.45594000000E+02  0.51100000000E-03 0. -1.
         11   -1    0    0    0    0 -0.00000000000E+00 -0.00000000000E+00 -0.45593999997E+02  0.45594000000E+02  0.51100000000E-03 0.  1.
    9900012    2    1    2    0    0  0.63310307278E+01 -0.15050100748E+02 -0.27388553507E+02  0.59301947472E+02  0.50000006282E+02 0.  0.
         12    1    1    2    0    0 -0.63310307278E+01  0.15050100748E+02  0.27388553507E+02  0.31886052528E+02  0.00000000000E+00 0. -1.
         11    1    3    3    0    0 -0.53786184420E+01  0.42877118801E+01 -0.23556902483E+02  0.24540612550E+02  0.51100000000E-03 0. -1.
        -11    1    3    3    0    0  0.19961303085E+02 -0.12192197032E+02 -0.45244246866E+01  0.23823805497E+02  0.51100000000E-03 0.  1.
        -12    1    3    3    0    0 -0.82516539156E+01 -0.71456155955E+01  0.69277366215E+00  0.10937529425E+02  0.00000000000E+00 0.  1.
</event>
<event>
 7    1  0.7821043E-012  0.5930193E+02  0.7816164E-02  0.1266605E+00
        -11   -1    0    0    0    0  0.00000000000E+00  0.00000000000E+00  0.45593999997E+02  0.45594000000E+02  0.51100000000E-03 0. -1.
         11   -1    0    0    0    0 -0.00000000000E+00 -0.00000000000E+00 -0.45593999997E+02  0.45594000000E+02  0.51100000000E-03 0.  1.
    9900012    2    1    2    0    0  0.46569253138E+01 -0.30161850236E+02 -0.92356448812E+01  0.59301932519E+02  0.49999979010E+02 0.  0.
         12    1    1    2    0    0 -0.46569253138E+01  0.30161850236E+02  0.92356448812E+01  0.31886067481E+02  0.00000000000E+00 0. -1.
         11    1    3    3    0    0 -0.92774229930E+01 -0.43066719809E+01 -0.13001384756E+02  0.16542490949E+02  0.51100000000E-03 0. -1.
        -11    1    3    3    0    0  0.52165634648E+01 -0.31398898839E+02  0.54481762048E+01  0.32292197307E+02  0.51100000000E-03 0.  1.
        -12    1    3    3    0    0  0.87177848420E+01  0.55437205834E+01 -0.16824363295E+01  0.10467244263E+02  0.00000000000E+00 0.  1.
</event>
<event>
 7    1  0.7821043E-012  0.5930195E+02  0.7816164E-02  0.1266605E+00
        -11   -1    0    0    0    0  0.00000000000E+00  0.00000000000E+00  0.45593999997E+02  0.45594000000E+02  0.51100000000E-03 0.  1.
         11   -1    0    0    0    0 -0.00000000000E+00 -0.00000000000E+00 -0.45593999997E+02  0.45594000000E+02  0.51100000000E-03 0. -1.
    9900012    2    1    2    0    0  0.45257050787E+01  0.15243982724E+02  0.27638003776E+02  0.59301948685E+02  0.50000008494E+02 0.  0.
         12    1    1    2    0    0 -0.45257050787E+01 -0.15243982724E+02 -0.27638003776E+02  0.31886051315E+02  0.00000000000E+00 0. -1.
         11    1    3    3    0    0  0.43999437199E+01 -0.80513913793E+01 -0.56584376952E+01  0.10779718238E+02  0.51100000000E-03 0. -1.
        -11    1    3    3    0    0 -0.11737157788E+02  0.16570014003E+02  0.26205846820E+02  0.33152264550E+02  0.51100000000E-03 0.  1.
        -12    1    3    3    0    0  0.11862919147E+02  0.67253601005E+01  0.70905946506E+01  0.15369965897E+02  0.00000000000E+00 0.  1.
</event>
<event>
 7    1  0.7821043E-012  0.5930196E+02  0.7816164E-02  0.1266605E+00
        -11   -1    0    0    0    0  0.00000000000E+00  0.00000000000E+00  0.45593999997E+02  0.45594000000E+02  0.51100000000E-03 0.  1.
         11   -1    0    0    0    0 -0.00000000000E+00 -0.00000000000E+00 -0.45593999997E+02  0.45594000000E+02  0.51100000000E-03 0. -1.
    9900012    2    1    2    0    0 -0.25500312702E+01 -0.97157781210E+01  0.30262526255E+02  0.59301960746E+02  0.50000030490E+02 0.  0.
         12    1    1    2    0    0  0.25500312702E+01  0.97157781210E+01 -0.30262526255E+02  0.31886039254E+02  0.00000000000E+00 0. -1.
         11    1    3    3    0    0 -0.11483557535E+02 -0.54894020674E+01  0.20641335266E+01  0.12894428106E+02  0.51100000000E-03 0. -1.
        -11    1    3    3    0    0  0.90862263740E+01 -0.19387827286E+02  0.13636112312E+02  0.25384856033E+02  0.51100000000E-03 0.  1.
        -12    1    3    3    0    0 -0.15270010956E+00  0.15161451232E+02  0.14562280416E+02  0.21022676607E+02  0.00000000000E+00 0.  1.
</event>
<event>
 7    1  0.7821043E-012  0.5930197E+02  0.7816164E-02  0.1266605E+00
        -11   -1    0    0    0    0  0.00000000000E+00  0.00000000000E+00  0.45593999997E+02  0.45594000000E+02  0.51100000000E-03 0. -1.
         11   -1    0    0    0    0 -0.00000000000E+00 -0.00000000000E+00 -0.45593999997E+02  0.45594000000E+02  0.51100000000E-03 0.  1.
    9900012    2    1    2    0    0 -0.10206794519E+02 -0.24310929337E+02 -0.17930949902E+02  0.59301970082E+02  0.50000047517E+02 0.  0.
         12    1    1    2    0    0  0.10206794519E+02  0.24310929337E+02  0.17930949902E+02  0.31886029918E+02  0.00000000000E+00 0. -1.
         11    1    3    3    0    0 -0.90886113767E+01 -0.35103210866E+01 -0.27231153981E+02  0.28921634779E+02  0.51100000000E-03 0. -1.
        -11    1    3    3    0    0  0.26884394841E+01 -0.23210302490E+02  0.44958692285E+01  0.23794089369E+02  0.51100000000E-03 0.  1.
         12    1    3    3    0    0 -0.38066226264E+01  0.24096942394E+01  0.48043348508E+01  0.65862459342E+01  0.00000000000E+00 0. -1.
</event>
<event>
 7    1  0.7821043E-012  0.5930195E+02  0.7816164E-02  0.1266605E+00
        -11   -1    0    0    0    0  0.00000000000E+00  0.00000000000E+00  0.45593999997E+02  0.45594000000E+02  0.51100000000E-03 0. -1.
         11   -1    0    0    0    0 -0.00000000000E+00 -0.00000000000E+00 -0.45593999997E+02  0.45594000000E+02  0.51100000000E-03 0.  1.
    9900012    2    1    2    0    0 -0.27398476709E+02 -0.16309289506E+02 -0.22496421690E+00  0.59301951969E+02  0.50000014482E+02 0.  0.
         12    1    1    2    0    0  0.27398476709E+02  0.16309289506E+02  0.22496421690E+00  0.31886048031E+02  0.00000000000E+00 0. -1.
         11    1    3    3    0    0  0.15038409945E+01  0.58172757398E+00  0.81444642855E+01  0.83025443971E+01  0.51100000000E-03 0. -1.
        -11    1    3    3    0    0 -0.66661151252E+01  0.32039866698E+01 -0.18047801887E+02  0.19504506521E+02  0.51100000000E-03 0.  1.
        -12    1    3    3    0    0 -0.22236202578E+02 -0.20095003750E+02  0.96783733842E+01  0.31494901050E+02  0.00000000000E+00 0.  1.
</event>
<event>
 7    1  0.7821043E-012  0.5930194E+02  0.7816164E-02  0.1266605E+00
        -11   -1    0    0    0    0  0.00000000000E+00  0.00000000000E+00  0.45593999997E+02  0.45594000000E+02  0.51100000000E-03 0. -1.
         11   -1    0    0    0    0 -0.00000000000E+00 -0.00000000000E+00 -0.45593999997E+02  0.45594000000E+02  0.51100000000E-03 0.  1.
    9900012    2    1    2    0    0  0.18150083276E+02 -0.25713119471E+02 -0.51118201925E+01  0.59301941266E+02  0.49999994964E+02 0.  0.
         12    1    1    2    0    0 -0.18150083276E+02  0.25713119471E+02  0.51118201925E+01  0.31886058734E+02  0.00000000000E+00 0. -1.
         11    1    3    3    0    0  0.22859242698E+01  0.14443104544E+01  0.31572457199E+01  0.41568838392E+01  0.51100000000E-03 0. -1.
        -11    1    3    3    0    0  0.25221231375E+02 -0.17184139729E+02 -0.20526995824E+02  0.36779922895E+02  0.51100000000E-03 0.  1.
        -12    1    3    3    0    0 -0.93570723688E+01 -0.99732901964E+01  0.12257929912E+02  0.18365134532E+02  0.00000000000E+00 0.  1.
</event>
<event>
 7    1  0.7821043E-012  0.5930192E+02  0.7816164E-02  0.1266605E+00
        -11   -1    0    0    0    0  0.00000000000E+00  0.00000000000E+00  0.45593999997E+02  0.45594000000E+02  0.51100000000E-03 0.  1.
         11   -1    0    0    0    0 -0.00000000000E+00 -0.00000000000E+00 -0.45593999997E+02  0.45594000000E+02  0.51100000000E-03 0. -1.
    9900012    2    1    2    0    0 -0.28799508325E+02 -0.36706111030E+01 -0.13184718141E+02  0.59301923759E+02  0.49999963034E+02 0.  0.
         12    1    1    2    0    0  0.28799508325E+02  0.36706111030E+01  0.13184718141E+02  0.31886076241E+02  0.00000000000E+00 0. -1.
         11    1    3    3    0    0 -0.25907590814E+02  0.47759023509E+01 -0.20314483738E+02  0.33266961912E+02  0.51100000000E-03 0. -1.
        -11    1    3    3    0    0 -0.57227864853E+01 -0.26004100577E+01  0.14743145193E+02  0.16027250172E+02  0.51100000000E-03 0.  1.
         12    1    3    3    0    0  0.28308689749E+01 -0.58461033963E+01 -0.76133795970E+01  0.10007711675E+02  0.00000000000E+00 0. -1.
</event>
<event>
 7    1  0.7821043E-012  0.5930178E+02  0.7816164E-02  0.1266605E+00
        -11   -1    0    0    0    0  0.00000000000E+00  0.00000000000E+00  0.45593999997E+02  0.45594000000E+02  0.51100000000E-03 0. -1.
         11   -1    0    0    0    0 -0.00000000000E+00 -0.00000000000E+00 -0.45593999997E+02  0.45594000000E+02  0.51100000000E-03 0.  1.
    9900012    2    1    2    0    0  0.10065880742E+02 -0.28742068279E+02  0.94499950877E+01  0.59301782739E+02  0.49999705847E+02 0.  0.
         12    1    1    2    0    0 -0.10065880742E+02  0.28742068279E+02 -0.94499950877E+01  0.31886217261E+02  0.00000000000E+00 0. -1.
         11    1    3    3    0    0 -0.18873856009E+02 -0.18134032533E+02  0.80808543849E+01  0.27392805340E+02  0.51100000000E-03 0. -1.
        -11    1    3    3    0    0  0.55592229398E+01 -0.38657741093E+01 -0.26017907708E+01  0.72538599818E+01  0.51100000000E-03 0.  1.
         12    1    3    3    0    0  0.23380513812E+02 -0.67422616365E+01  0.39709314736E+01  0.24655117417E+02  0.00000000000E+00 0. -1.
</event>
<event>
 7    1  0.7821043E-012  0.5930222E+02  0.7816164E-02  0.1266604E+00
        -11   -1    0    0    0    0  0.00000000000E+00  0.00000000000E+00  0.45593999997E+02  0.45594000000E+02  0.51100000000E-03 0. -1.
         11   -1    0    0    0    0 -0.00000000000E+00 -0.00000000000E+00 -0.45593999997E+02  0.45594000000E+02  0.51100000000E-03 0.  1.
    9900012    2    1    2    0    0  0.29932563404E+01 -0.10215814331E+02 -0.30056284423E+02  0.59302224499E+02  0.50000511510E+02 0.  0.
         12    1    1    2    0    0 -0.29932563404E+01  0.10215814331E+02  0.30056284423E+02  0.31885775501E+02  0.00000000000E+00 0. -1.
         11    1    3    3    0    0  0.98145352964E+01  0.85190722137E+01 -0.47720603382E+01  0.13844574916E+02  0.51100000000E-03 0. -1.
        -11    1    3    3    0    0 -0.10447211260E+02 -0.26835248673E+02 -0.17851359310E+02  0.33881349205E+02  0.51100000000E-03 0.  1.
        -12    1    3    3    0    0  0.36259323044E+01  0.81003621283E+01 -0.74328647748E+01  0.11576300378E+02  0.00000000000E+00 0.  1.
</event>
<event>
 7    1  0.7821043E-012  0.5930190E+02  0.7816164E-02  0.1266605E+00
        -11   -1    0    0    0    0  0.00000000000E+00  0.00000000000E+00  0.45593999997E+02  0.45594000000E+02  0.51100000000E-03 0.  1.
         11   -1    0    0    0    0 -0.00000000000E+00 -0.00000000000E+00 -0.45593999997E+02  0.45594000000E+02  0.51100000000E-03 0. -1.
    9900012    2    1    2    0    0 -0.23084023974E+02 -0.20150482434E+02  0.88209419735E+01  0.59301903932E+02  0.49999926875E+02 0.  0.
         12    1    1    2    0    0  0.23084023974E+02  0.20150482434E+02 -0.88209419735E+01  0.31886096068E+02  0.00000000000E+00 0. -1.
         11    1    3    3    0    0 -0.51504591560E+01  0.33756284901E+01  0.17620177643E+02  0.18665282148E+02  0.51100000000E-03 0.  1.
        -11    1    3    3    0    0 -0.88592847977E+01 -0.86823012598E+01 -0.17288497874E+02  0.21278191683E+02  0.51100000000E-03 0. -1.
        -12    1    3    3    0    0 -0.90742800201E+01 -0.14843809664E+02  0.84892622045E+01  0.19358430102E+02  0.00000000000E+00 0.  1.
</event>
<event>
 7    1  0.7821043E-012  0.5930191E+02  0.7816164E-02  0.1266605E+00
        -11   -1    0    0    0    0  0.00000000000E+00  0.00000000000E+00  0.45593999997E+02  0.45594000000E+02  0.51100000000E-03 0.  1.
         11   -1    0    0    0    0 -0.00000000000E+00 -0.00000000000E+00 -0.45593999997E+02  0.45594000000E+02  0.51100000000E-03 0. -1.
    9900012    2    1    2    0    0 -0.10391982630E+02 -0.60474375175E+01  0.29532318233E+02  0.59301911753E+02  0.49999941138E+02 0.  0.
         12    1    1    2    0    0  0.10391982630E+02  0.60474375175E+01 -0.29532318233E+02  0.31886088247E+02  0.00000000000E+00 0. -1.
         11    1    3    3    0    0 -0.10966031725E+02  0.13822207991E+02  0.17757736270E+02  0.25032868059E+02  0.51100000000E-03 0. -1.
        -11    1    3    3    0    0  0.11627494861E+02 -0.14490100497E+02  0.11738053145E+02  0.21975976452E+02  0.51100000000E-03 0.  1.
         12    1    3    3    0    0 -0.11053445767E+02 -0.53795450120E+01  0.36528817284E-01  0.12293067242E+02  0.00000000000E+00 0. -1.
</event>
<event>
 7    1  0.7821043E-012  0.5930195E+02  0.7816164E-02  0.1266605E+00
        -11   -1    0    0    0    0  0.00000000000E+00  0.00000000000E+00  0.45593999997E+02  0.45594000000E+02  0.51100000000E-03 0. -1.
         11   -1    0    0    0    0 -0.00000000000E+00 -0.00000000000E+00 -0.45593999997E+02  0.45594000000E+02  0.51100000000E-03 0.  1.
    9900012    2    1    2    0    0 -0.17184120031E+02  0.18965525448E+02 -0.19019339957E+02  0.59301946165E+02  0.50000003898E+02 0.  0.
         12    1    1    2    0    0  0.17184120031E+02 -0.18965525448E+02  0.19019339957E+02  0.31886053835E+02  0.00000000000E+00 0. -1.
         11    1    3    3    0    0  0.26291438998E+01  0.70491466744E+01  0.63178579683E+01  0.98243674632E+01  0.51100000000E-03 0. -1.
        -11    1    3    3    0    0 -0.21364592497E+02  0.21127638916E+02 -0.26501450682E+02  0.40064321125E+02  0.51100000000E-03 0.  1.
         12    1    3    3    0    0  0.15513285665E+01 -0.92112601420E+01  0.11642527566E+01  0.94132575767E+01  0.00000000000E+00 0. -1.
</event>
<event>
 7    1  0.7821043E-012  0.5930194E+02  0.7816164E-02  0.1266605E+00
        -11   -1    0    0    0    0  0.00000000000E+00  0.00000000000E+00  0.45593999997E+02  0.45594000000E+02  0.51100000000E-03 0. -1.
         11   -1    0    0    0    0 -0.00000000000E+00 -0.00000000000E+00 -0.45593999997E+02  0.45594000000E+02  0.51100000000E-03 0.  1.
    9900012    2    1    2    0    0 -0.62532317373E+01  0.11861968062E+02 -0.28929427567E+02  0.59301937640E+02  0.49999988350E+02 0.  0.
         12    1    1    2    0    0  0.62532317373E+01 -0.11861968062E+02  0.28929427567E+02  0.31886062360E+02  0.00000000000E+00 0. -1.
         11    1    3    3    0    0  0.17767035196E+01  0.22405835798E+02 -0.22075706358E+01  0.22584320259E+02  0.51100000000E-03 0. -1.
        -11    1    3    3    0    0  0.40853973624E+01 -0.10352667458E+02 -0.58246369912E+01  0.12561631719E+02  0.51100000000E-03 0.  1.
        -12    1    3    3    0    0 -0.12115332619E+02 -0.19120027791E+00 -0.20897219940E+02  0.24155985661E+02  0.00000000000E+00 0.  1.
</event>
<event>
 7    1  0.7821043E-012  0.5930194E+02  0.7816164E-02  0.1266605E+00
        -11   -1    0    0    0    0  0.00000000000E+00  0.00000000000E+00  0.45593999997E+02  0.45594000000E+02  0.51100000000E-03 0.  1.
         11   -1    0    0    0    0 -0.00000000000E+00 -0.00000000000E+00 -0.45593999997E+02  0.45594000000E+02  0.51100000000E-03 0. -1.
    9900012    2    1    2    0    0  0.16028589591E+02 -0.21086549752E+02  0.17752824357E+02  0.59301936628E+02  0.49999986505E+02 0.  0.
         12    1    1    2    0    0 -0.16028589591E+02  0.21086549752E+02 -0.17752824357E+02  0.31886063372E+02  0.00000000000E+00 0. -1.
         11    1    3    3    0    0 -0.16718759848E+02 -0.10387426980E+02  0.16439626254E+01  0.19751409658E+02  0.51100000000E-03 0. -1.
        -11    1    3    3    0    0  0.16366246758E+02 -0.31489435975E+01  0.13242321064E+02  0.21286825648E+02  0.51100000000E-03 0.  1.
         12    1    3    3    0    0  0.16381102681E+02 -0.75501791742E+01  0.28665406669E+01  0.18263701322E+02  0.00000000000E+00 0. -1.
</event>
<event>
 7    1  0.7821043E-012  0.5930194E+02  0.7816164E-02  0.1266605E+00
        -11   -1    0    0    0    0  0.00000000000E+00  0.00000000000E+00  0.45593999997E+02  0.45594000000E+02  0.51100000000E-03 0.  1.
         11   -1    0    0    0    0 -0.00000000000E+00 -0.00000000000E+00 -0.45593999997E+02  0.45594000000E+02  0.51100000000E-03 0. -1.
    9900012    2    1    2    0    0 -0.60893264066E+01 -0.95272824938E+01  0.29813951976E+02  0.59301941287E+02  0.49999995002E+02 0.  0.
         12    1    1    2    0    0  0.60893264066E+01  0.95272824938E+01 -0.29813951976E+02  0.31886058713E+02  0.00000000000E+00 0. -1.
         11    1    3    3    0    0  0.10702863670E+01  0.66239337479E+00 -0.20293397181E+01  0.23879903356E+01  0.51100000000E-03 0. -1.
        -11    1    3    3    0    0  0.43715139328E+01 -0.26358469158E+02  0.22661932999E+02  0.35034871742E+02  0.51100000000E-03 0.  1.
        -12    1    3    3    0    0 -0.11531126706E+02  0.16168793290E+02  0.91813586953E+01  0.21879079210E+02  0.00000000000E+00 0.  1.
</event>
<event>
 7    1  0.7821043E-012  0.5930191E+02  0.7816164E-02  0.1266605E+00
        -11   -1    0    0    0    0  0.00000000000E+00  0.00000000000E+00  0.45593999997E+02  0.45594000000E+02  0.51100000000E-03 0.  1.
         11   -1    0    0    0    0 -0.00000000000E+00 -0.00000000000E+00 -0.45593999997E+02  0.45594000000E+02  0.51100000000E-03 0. -1.
    9900012    2    1    2    0    0  0.30350195083E+02  0.16333771275E+01 -0.96395195010E+01  0.59301912146E+02  0.49999941856E+02 0.  0.
         12    1    1    2    0    0 -0.30350195083E+02 -0.16333771275E+01  0.96395195010E+01  0.31886087854E+02  0.00000000000E+00 0. -1.
         11    1    3    3    0    0  0.34038561083E+01  0.70919430969E+00 -0.63344005763E+01  0.72259133608E+01  0.51100000000E-03 0. -1.
        -11    1    3    3    0    0  0.33654350620E+02  0.55736387848E+01  0.10798400880E+02  0.35781087558E+02  0.51100000000E-03 0.  1.
        -12    1    3    3    0    0 -0.67080116457E+01 -0.46494559670E+01 -0.14103519805E+02  0.16294911228E+02  0.00000000000E+00 0.  1.
</event>
<event>
 7    1  0.7821043E-012  0.5930193E+02  0.7816164E-02  0.1266605E+00
        -11   -1    0    0    0    0  0.00000000000E+00  0.00000000000E+00  0.45593999997E+02  0.45594000000E+02  0.51100000000E-03 0.  1.
         11   -1    0    0    0    0 -0.00000000000E+00 -0.00000000000E+00 -0.45593999997E+02  0.45594000000E+02  0.51100000000E-03 0. -1.
    9900012    2    1    2    0    0 -0.51844024671E+01 -0.11366282705E+02  0.29336853179E+02  0.59301931476E+02  0.49999977108E+02 0.  0.
         12    1    1    2    0    0  0.51844024671E+01  0.11366282705E+02 -0.29336853179E+02  0.31886068524E+02  0.00000000000E+00 0. -1.
         11    1    3    3    0    0  0.51143713089E+01  0.12840876955E+02 -0.40905316586E+01  0.14414484533E+02  0.51100000000E-03 0. -1.
        -11    1    3    3    0    0  0.30945098011E+01 -0.43667487724E+01  0.10273075215E+02  0.11583633298E+02  0.51100000000E-03 0.  1.
         12    1    3    3    0    0 -0.13393283577E+02 -0.19840410888E+02  0.23154309622E+02  0.33303813644E+02  0.00000000000E+00 0. -1.
</event>
<event>
 7    1  0.7821043E-012  0.5930233E+02  0.7816164E-02  0.1266603E+00
        -11   -1    0    0    0    0  0.00000000000E+00  0.00000000000E+00  0.45593999997E+02  0.45594000000E+02  0.51100000000E-03 0.  1.
         11   -1    0    0    0    0 -0.00000000000E+00 -0.00000000000E+00 -0.45593999997E+02  0.45594000000E+02  0.51100000000E-03 0. -1.
    9900012    2    1    2    0    0  0.29465120409E+02  0.25410781617E+01 -0.11918292027E+02  0.59302327923E+02  0.50000700129E+02 0.  0.
         12    1    1    2    0    0 -0.29465120409E+02 -0.25410781617E+01  0.11918292027E+02  0.31885672077E+02  0.00000000000E+00 0. -1.
         11    1    3    3    0    0  0.14545124836E+02 -0.18576741771E+02 -0.92080626318E+01  0.25326752832E+02  0.51100000000E-03 0. -1.
        -11    1    3    3    0    0  0.85570771355E+01  0.17425632690E+02 -0.11460537809E+02  0.22543739061E+02  0.51100000000E-03 0.  1.
         12    1    3    3    0    0  0.63629184372E+01  0.36921872431E+01  0.87503084134E+01  0.11431836030E+02  0.00000000000E+00 0. -1.
</event>
<event>
 7    1  0.7821043E-012  0.5930185E+02  0.7816164E-02  0.1266605E+00
        -11   -1    0    0    0    0  0.00000000000E+00  0.00000000000E+00  0.45593999997E+02  0.45594000000E+02  0.51100000000E-03 0.  1.
         11   -1    0    0    0    0 -0.00000000000E+00 -0.00000000000E+00 -0.45593999997E+02  0.45594000000E+02  0.51100000000E-03 0. -1.
    9900012    2    1    2    0    0 -0.21708708764E+02 -0.21611834229E+02 -0.88536439017E+01  0.59301852141E+02  0.49999832421E+02 0.  0.
         12    1    1    2    0    0  0.21708708764E+02  0.21611834229E+02  0.88536439017E+01  0.31886147859E+02  0.00000000000E+00 0. -1.
         11    1    3    3    0    0 -0.18701536996E+02 -0.31137871737E+02 -0.21331852768E+02  0.42123182277E+02  0.51100000000E-03 0. -1.
        -11    1    3    3    0    0 -0.16162635373E+01  0.60732230691E+01  0.11836311703E+02  0.13401291775E+02  0.51100000000E-03 0.  1.
        -12    1    3    3    0    0 -0.13909082303E+01  0.34528144391E+01  0.64189716389E+00  0.37773780887E+01  0.00000000000E+00 0.  1.
</event>
<event>
 7    1  0.7821043E-012  0.5930194E+02  0.7816164E-02  0.1266605E+00
        -11   -1    0    0    0    0  0.00000000000E+00  0.00000000000E+00  0.45593999997E+02  0.45594000000E+02  0.51100000000E-03 0.  1.
         11   -1    0    0    0    0 -0.00000000000E+00 -0.00000000000E+00 -0.45593999997E+02  0.45594000000E+02  0.51100000000E-03 0. -1.
    9900012    2    1    2    0    0 -0.61690674737E+01 -0.88431704620E+01  0.30007693428E+02  0.59301941570E+02  0.49999995518E+02 0.  0.
         12    1    1    2    0    0  0.61690674737E+01  0.88431704620E+01 -0.30007693428E+02  0.31886058430E+02  0.00000000000E+00 0. -1.
         11    1    3    3    0    0  0.98195493954E+01  0.45608950210E+01  0.28751455256E+02  0.30722491652E+02  0.51100000000E-03 0. -1.
        -11    1    3    3    0    0 -0.19204319433E+01 -0.14048868198E+02  0.26594505464E+01  0.14426761035E+02  0.51100000000E-03 0.  1.
         12    1    3    3    0    0 -0.14068184926E+02  0.64480271481E+00 -0.14032123743E+01  0.14152688883E+02  0.00000000000E+00 0. -1.
</event>
<event>
 7    1  0.7821043E-012  0.5930195E+02  0.7816164E-02  0.1266605E+00
        -11   -1    0    0    0    0  0.00000000000E+00  0.00000000000E+00  0.45593999997E+02  0.45594000000E+02  0.51100000000E-03 0.  1.
         11   -1    0    0    0    0 -0.00000000000E+00 -0.00000000000E+00 -0.45593999997E+02  0.45594000000E+02  0.51100000000E-03 0. -1.
    9900012    2    1    2    0    0  0.16206550451E+02 -0.25727980436E+02  0.95989050886E+01  0.59301949230E+02  0.50000009488E+02 0.  0.
         12    1    1    2    0    0 -0.16206550451E+02  0.25727980436E+02 -0.95989050886E+01  0.31886050770E+02  0.00000000000E+00 0. -1.
         11    1    3    3    0    0  0.15521385360E+02 -0.27336656253E+01  0.30206219247E+01  0.16047133336E+02  0.51100000000E-03 0. -1.
        -11    1    3    3    0    0  0.42820217221E+01 -0.29723000618E+02  0.13526248090E+02  0.32935571399E+02  0.51100000000E-03 0.  1.
        -12    1    3    3    0    0 -0.35968566312E+01  0.67286858076E+01 -0.69479649260E+01  0.10319244494E+02  0.00000000000E+00 0.  1.
</event>
<event>
 7    1  0.7821043E-012  0.5930194E+02  0.7816164E-02  0.1266605E+00
        -11   -1    0    0    0    0  0.00000000000E+00  0.00000000000E+00  0.45593999997E+02  0.45594000000E+02  0.51100000000E-03 0. -1.
         11   -1    0    0    0    0 -0.00000000000E+00 -0.00000000000E+00 -0.45593999997E+02  0.45594000000E+02  0.51100000000E-03 0.  1.
    9900012    2    1    2    0    0  0.10787080405E+02  0.13838226347E+02 -0.26624483763E+02  0.59301941170E+02  0.49999994787E+02 0.  0.
         12    1    1    2    0    0 -0.10787080405E+02 -0.13838226347E+02  0.26624483763E+02  0.31886058830E+02  0.00000000000E+00 0. -1.
         11    1    3    3    0    0 -0.70866524611E+01 -0.90126080556E+01  0.66087254850E+01  0.13233404697E+02  0.51100000000E-03 0. -1.
        -11    1    3    3    0    0 -0.17740421805E+00  0.19436369622E+01 -0.93554674667E+01  0.95568806982E+01  0.51100000000E-03 0.  1.
         12    1    3    3    0    0  0.18051137084E+02  0.20907197440E+02 -0.23877741782E+02  0.36511655775E+02  0.00000000000E+00 0. -1.
</event>
<event>
 7    1  0.7821043E-012  0.5930194E+02  0.7816164E-02  0.1266605E+00
        -11   -1    0    0    0    0  0.00000000000E+00  0.00000000000E+00  0.45593999997E+02  0.45594000000E+02  0.51100000000E-03 0. -1.
         11   -1    0    0    0    0 -0.00000000000E+00 -0.00000000000E+00 -0.45593999997E+02  0.45594000000E+02  0.51100000000E-03 0.  1.
    9900012    2    1    2    0    0 -0.13999959563E+02 -0.18593256817E+02 -0.21794791920E+02  0.59301936874E+02  0.49999986954E+02 0.  0.
         12    1    1    2    0    0  0.13999959563E+02  0.18593256817E+02  0.21794791920E+02  0.31886063126E+02  0.00000000000E+00 0. -1.
         11    1    3    3    0    0 -0.98947004452E+01 -0.57458681464E+01 -0.55819034905E+01  0.12730975787E+02  0.51100000000E-03 0. -1.
        -11    1    3    3    0    0 -0.32572450408E+01  0.14409538549E+02 -0.11883148398E+02  0.18959263239E+02  0.51100000000E-03 0.  1.
        -12    1    3    3    0    0 -0.84801407706E+00 -0.27256927219E+02 -0.43297400314E+01  0.27611697848E+02  0.00000000000E+00 0.  1.
</event>
<event>
 7    1  0.7821043E-012  0.5930193E+02  0.7816164E-02  0.1266605E+00
        -11   -1    0    0    0    0  0.00000000000E+00  0.00000000000E+00  0.45593999997E+02  0.45594000000E+02  0.51100000000E-03 0. -1.
         11   -1    0    0    0    0 -0.00000000000E+00 -0.00000000000E+00 -0.45593999997E+02  0.45594000000E+02  0.51100000000E-03 0.  1.
    9900012    2    1    2    0    0 -0.18185745996E+02  0.22089026637E+02 -0.14073911716E+02  0.59301930217E+02  0.49999974813E+02 0.  0.
         12    1    1    2    0    0  0.18185745996E+02 -0.22089026637E+02  0.14073911716E+02  0.31886069783E+02  0.00000000000E+00 0. -1.
         11    1    3    3    0    0  0.12716906491E+01  0.33957935723E+02 -0.46011457156E+01  0.34291823192E+02  0.51100000000E-03 0. -1.
        -11    1    3    3    0    0 -0.15804397058E+02 -0.86048948145E+01 -0.89067852577E+01  0.20078695302E+02  0.51100000000E-03 0.  1.
         12    1    3    3    0    0 -0.36530395865E+01 -0.32640142713E+01 -0.56598074315E+00  0.49314117234E+01  0.00000000000E+00 0. -1.
</event>
<event>
 7    1  0.7821043E-012  0.5930195E+02  0.7816164E-02  0.1266605E+00
        -11   -1    0    0    0    0  0.00000000000E+00  0.00000000000E+00  0.45593999997E+02  0.45594000000E+02  0.51100000000E-03 0. -1.
         11   -1    0    0    0    0 -0.00000000000E+00 -0.00000000000E+00 -0.45593999997E+02  0.45594000000E+02  0.51100000000E-03 0.  1.
    9900012    2    1    2    0    0  0.22119174082E+02 -0.15683402610E+02  0.16777761720E+02  0.59301948694E+02  0.50000008511E+02 0.  0.
         12    1    1    2    0    0 -0.22119174082E+02  0.15683402610E+02 -0.16777761720E+02  0.31886051306E+02  0.00000000000E+00 0. -1.
         11    1    3    3    0    0 -0.82494469077E+01 -0.11054064589E+02  0.40992140131E+01  0.14389206858E+02  0.51100000000E-03 0. -1.
        -11    1    3    3    0    0  0.22122040765E+02  0.10906082971E+02  0.11695631134E+02  0.27296796905E+02  0.51100000000E-03 0.  1.
        -12    1    3    3    0    0  0.82465802251E+01 -0.15535420993E+02  0.98291657296E+00  0.17615944931E+02  0.00000000000E+00 0.  1.
</event>
<event>
 7    1  0.7821043E-012  0.5930197E+02  0.7816164E-02  0.1266605E+00
        -11   -1    0    0    0    0  0.00000000000E+00  0.00000000000E+00  0.45593999997E+02  0.45594000000E+02  0.51100000000E-03 0.  1.
         11   -1    0    0    0    0 -0.00000000000E+00 -0.00000000000E+00 -0.45593999997E+02  0.45594000000E+02  0.51100000000E-03 0. -1.
    9900012    2    1    2    0    0  0.13061948328E+02  0.18127356501E+02  0.22748705995E+02  0.59301965874E+02  0.50000039842E+02 0.  0.
         12    1    1    2    0    0 -0.13061948328E+02 -0.18127356501E+02 -0.22748705995E+02  0.31886034126E+02  0.00000000000E+00 0. -1.
         11    1    3    3    0    0  0.30027813468E+01 -0.10624590779E+02 -0.40828311482E+01  0.11771496739E+02  0.51100000000E-03 0. -1.
        -11    1    3    3    0    0  0.64672454248E+01  0.27343705399E+02  0.31007837851E+02  0.41844826404E+02  0.51100000000E-03 0.  1.
        -12    1    3    3    0    0  0.35919215567E+01  0.14082418806E+01 -0.41763007069E+01  0.56856427305E+01  0.00000000000E+00 0.  1.
</event>
<event>
 7    1  0.7821043E-012  0.5930194E+02  0.7816164E-02  0.1266605E+00
        -11   -1    0    0    0    0  0.00000000000E+00  0.00000000000E+00  0.45593999997E+02  0.45594000000E+02  0.51100000000E-03 0. -1.
         11   -1    0    0    0    0 -0.00000000000E+00 -0.00000000000E+00 -0.45593999997E+02  0.45594000000E+02  0.51100000000E-03 0.  1.
    9900012    2    1    2    0    0  0.24474409482E+02 -0.19417998128E+02 -0.63769422560E+01  0.59301940925E+02  0.49999994342E+02 0.  0.
         12    1    1    2    0    0 -0.24474409482E+02  0.19417998128E+02  0.63769422560E+01  0.31886059075E+02  0.00000000000E+00 0. -1.
         11    1    3    3    0    0  0.18327265814E+01 -0.18574036346E+01  0.45397341985E+01  0.52362220959E+01  0.51100000000E-03 0. -1.
        -11    1    3    3    0    0 -0.64629064307E+01  0.10178071125E+02 -0.62778332648E+01  0.13593140995E+02  0.51100000000E-03 0.  1.
        -12    1    3    3    0    0  0.29104589332E+02 -0.27738665618E+02 -0.46388431898E+01  0.40472577834E+02  0.00000000000E+00 0.  1.
</event>
<event>
 7    1  0.7821043E-012  0.5930194E+02  0.7816164E-02  0.1266605E+00
        -11   -1    0    0    0    0  0.00000000000E+00  0.00000000000E+00  0.45593999997E+02  0.45594000000E+02  0.51100000000E-03 0.  1.
         11   -1    0    0    0    0 -0.00000000000E+00 -0.00000000000E+00 -0.45593999997E+02  0.45594000000E+02  0.51100000000E-03 0. -1.
    9900012    2    1    2    0    0  0.25071324402E+02 -0.18770408167E+02 -0.59851085941E+01  0.59301936353E+02  0.49999986003E+02 0.  0.
         12    1    1    2    0    0 -0.25071324402E+02  0.18770408167E+02  0.59851085941E+01  0.31886063647E+02  0.00000000000E+00 0. -1.
         11    1    3    3    0    0 -0.23925273642E+00 -0.40681755768E+01  0.17037625537E+01  0.44170240542E+01  0.51100000000E-03 0. -1.
        -11    1    3    3    0    0  0.86222163337E+01  0.26510891483E+01 -0.24110030161E+02  0.25742269573E+02  0.51100000000E-03 0.  1.
        -12    1    3    3    0    0  0.16688360804E+02 -0.17353321739E+02  0.16421159013E+02  0.29142642726E+02  0.00000000000E+00 0.  1.
</event>
<event>
 7    1  0.7821043E-012  0.5930191E+02  0.7816164E-02  0.1266605E+00
        -11   -1    0    0    0    0  0.00000000000E+00  0.00000000000E+00  0.45593999997E+02  0.45594000000E+02  0.51100000000E-03 0.  1.
         11   -1    0    0    0    0 -0.00000000000E+00 -0.00000000000E+00 -0.45593999997E+02  0.45594000000E+02  0.51100000000E-03 0. -1.
    9900012    2    1    2    0    0  0.23698842929E+02 -0.60569366259E+01  0.20454848826E+02  0.59301914038E+02  0.49999945307E+02 0.  0.
         12    1    1    2    0    0 -0.23698842929E+02  0.60569366259E+01 -0.20454848826E+02  0.31886085962E+02  0.00000000000E+00 0. -1.
         11    1    3    3    0    0 -0.22540201996E+01 -0.87555084651E+01  0.25114417482E+02  0.26692199258E+02  0.51100000000E-03 0. -1.
        -11    1    3    3    0    0  0.23406702893E+02  0.87820516018E+01 -0.63658877703E+01  0.25797726606E+02  0.51100000000E-03 0.  1.
        -12    1    3    3    0    0  0.25461602354E+01 -0.60834797625E+01  0.17063191148E+01  0.68119881743E+01  0.00000000000E+00 0.  1.
</event>
<event>
 7    1  0.7821043E-012  0.5930192E+02  0.7816164E-02  0.1266605E+00
        -11   -1    0    0    0    0  0.00000000000E+00  0.00000000000E+00  0.45593999997E+02  0.45594000000E+02  0.51100000000E-03 0.  1.
         11   -1    0    0    0    0 -0.00000000000E+00 -0.00000000000E+00 -0.45593999997E+02  0.45594000000E+02  0.51100000000E-03 0. -1.
    9900012    2    1    2    0    0  0.24899710258E+01  0.92689098977E+01  0.30407390217E+02  0.59301921122E+02  0.49999958225E+02 0.  0.
         12    1    1    2    0    0 -0.24899710258E+01 -0.92689098977E+01 -0.30407390217E+02  0.31886078878E+02  0.00000000000E+00 0. -1.
         11    1    3    3    0    0  0.12627492584E+02 -0.79191237045E+01  0.12803155830E+01  0.14960123578E+02  0.51100000000E-03 0.  1.
        -11    1    3    3    0    0 -0.16950260890E+02  0.40315599006E+01  0.21514860621E+02  0.27684906488E+02  0.51100000000E-03 0. -1.
        -12    1    3    3    0    0  0.68127393311E+01  0.13156473702E+02  0.76122140137E+01  0.16656891056E+02  0.00000000000E+00 0.  1.
</event>
<event>
 7    1  0.7821043E-012  0.5930174E+02  0.7816164E-02  0.1266605E+00
        -11   -1    0    0    0    0  0.00000000000E+00  0.00000000000E+00  0.45593999997E+02  0.45594000000E+02  0.51100000000E-03 0.  1.
         11   -1    0    0    0    0 -0.00000000000E+00 -0.00000000000E+00 -0.45593999997E+02  0.45594000000E+02  0.51100000000E-03 0. -1.
    9900012    2    1    2    0    0 -0.18898222060E+02 -0.14526537533E+02  0.21179483610E+02  0.59301739389E+02  0.49999626787E+02 0.  0.
         12    1    1    2    0    0  0.18898222060E+02  0.14526537533E+02 -0.21179483610E+02  0.31886260611E+02  0.00000000000E+00 0. -1.
         11    1    3    3    0    0 -0.48838443079E+01 -0.19719341828E+02 -0.31798166674E+01  0.20562480678E+02  0.51100000000E-03 0. -1.
        -11    1    3    3    0    0  0.26403791049E+01  0.87259724316E+01  0.18689653066E+02  0.20794646635E+02  0.51100000000E-03 0.  1.
        -12    1    3    3    0    0 -0.16654756857E+02 -0.35331681369E+01  0.56696472120E+01  0.17944612076E+02  0.00000000000E+00 0.  1.
</event>
<event>
 7    1  0.7821043E-012  0.5930195E+02  0.7816164E-02  0.1266605E+00
        -11   -1    0    0    0    0  0.00000000000E+00  0.00000000000E+00  0.45593999997E+02  0.45594000000E+02  0.51100000000E-03 0. -1.
         11   -1    0    0    0    0 -0.00000000000E+00 -0.00000000000E+00 -0.45593999997E+02  0.45594000000E+02  0.51100000000E-03 0.  1.
    9900012    2    1    2    0    0  0.12686891424E+02  0.28870218630E+02 -0.47194678537E+01  0.59301951098E+02  0.50000012894E+02 0.  0.
         12    1    1    2    0    0 -0.12686891424E+02 -0.28870218630E+02  0.47194678537E+01  0.31886048902E+02  0.00000000000E+00 0. -1.
         11    1    3    3    0    0 -0.67498639782E+01 -0.71683416222E+01 -0.12617238036E+01  0.99266173772E+01  0.51100000000E-03 0. -1.
        -11    1    3    3    0    0  0.92295936495E+01  0.36350090180E+02 -0.77535874446E+01  0.38296639194E+02  0.51100000000E-03 0.  1.
        -12    1    3    3    0    0  0.10207161753E+02 -0.31152992792E+00  0.42958433946E+01  0.11078694526E+02  0.00000000000E+00 0.  1.
</event>
<event>
 7    1  0.7821043E-012  0.5930189E+02  0.7816164E-02  0.1266605E+00
        -11   -1    0    0    0    0  0.00000000000E+00  0.00000000000E+00  0.45593999997E+02  0.45594000000E+02  0.51100000000E-03 0.  1.
         11   -1    0    0    0    0 -0.00000000000E+00 -0.00000000000E+00 -0.45593999997E+02  0.45594000000E+02  0.51100000000E-03 0. -1.
    9900012    2    1    2    0    0 -0.71507711492E+01  0.15890280519E+02  0.26703730986E+02  0.59301893440E+02  0.49999907740E+02 0.  0.
         12    1    1    2    0    0  0.71507711492E+01 -0.15890280519E+02 -0.26703730986E+02  0.31886106560E+02  0.00000000000E+00 0. -1.
         11    1    3    3    0    0 -0.80356483849E+01 -0.16907628019E+02  0.11031129407E+02  0.21728445560E+02  0.51100000000E-03 0. -1.
        -11    1    3    3    0    0  0.20089317831E+01  0.31468527212E+02  0.16563134766E+02  0.35617993281E+02  0.51100000000E-03 0.  1.
        -12    1    3    3    0    0 -0.11240545474E+01  0.13293813246E+01 -0.89053318697E+00  0.19554545991E+01  0.00000000000E+00 0.  1.
</event>
<event>
 7    1  0.7821043E-012  0.5930194E+02  0.7816164E-02  0.1266605E+00
        -11   -1    0    0    0    0  0.00000000000E+00  0.00000000000E+00  0.45593999997E+02  0.45594000000E+02  0.51100000000E-03 0. -1.
         11   -1    0    0    0    0 -0.00000000000E+00 -0.00000000000E+00 -0.45593999997E+02  0.45594000000E+02  0.51100000000E-03 0.  1.
    9900012    2    1    2    0    0  0.22288023313E+02  0.20689715421E+02 -0.95864770539E+01  0.59301939570E+02  0.49999991871E+02 0.  0.
         12    1    1    2    0    0 -0.22288023313E+02 -0.20689715421E+02  0.95864770539E+01  0.31886060430E+02  0.00000000000E+00 0. -1.
         11    1    3    3    0    0 -0.79812710406E+01  0.12693722171E+00 -0.12941552301E+02  0.15205281211E+02  0.51100000000E-03 0. -1.
        -11    1    3    3    0    0  0.27593679726E+02  0.25889942698E+02  0.42219013010E+01  0.38072624608E+02  0.51100000000E-03 0.  1.
        -12    1    3    3    0    0  0.26756146280E+01 -0.53271644982E+01 -0.86682605386E+00  0.60240337512E+01  0.00000000000E+00 0.  1.
</event>
<event>
 7    1  0.7821043E-012  0.5930194E+02  0.7816164E-02  0.1266605E+00
        -11   -1    0    0    0    0  0.00000000000E+00  0.00000000000E+00  0.45593999997E+02  0.45594000000E+02  0.51100000000E-03 0. -1.
         11   -1    0    0    0    0 -0.00000000000E+00 -0.00000000000E+00 -0.45593999997E+02  0.45594000000E+02  0.51100000000E-03 0.  1.
    9900012    2    1    2    0    0  0.31354516320E+02 -0.13948165318E+01 -0.56275846537E+01  0.59301938533E+02  0.49999989979E+02 0.  0.
         12    1    1    2    0    0 -0.31354516320E+02  0.13948165318E+01  0.56275846537E+01  0.31886061467E+02  0.00000000000E+00 0. -1.
         11    1    3    3    0    0  0.24374983042E+02 -0.83352891759E+01  0.18582761932E+02  0.31763751120E+02  0.51100000000E-03 0. -1.
        -11    1    3    3    0    0  0.44920995741E+01 -0.64674737291E+00 -0.51004411166E+01  0.68272791501E+01  0.51100000000E-03 0.  1.
         12    1    3    3    0    0  0.24874337039E+01  0.75872200170E+01 -0.19109905469E+02  0.20710908263E+02  0.00000000000E+00 0. -1.
</event>
<event>
 7    1  0.7821043E-012  0.5930193E+02  0.7816164E-02  0.1266605E+00
        -11   -1    0    0    0    0  0.00000000000E+00  0.00000000000E+00  0.45593999997E+02  0.45594000000E+02  0.51100000000E-03 0. -1.
         11   -1    0    0    0    0 -0.00000000000E+00 -0.00000000000E+00 -0.45593999997E+02  0.45594000000E+02  0.51100000000E-03 0.  1.
    9900012    2    1    2    0    0  0.14492742595E+02  0.24539696599E+02  0.14299841715E+02  0.59301925137E+02  0.49999965548E+02 0.  0.
         12    1    1    2    0    0 -0.14492742595E+02 -0.24539696599E+02 -0.14299841715E+02  0.31886074863E+02  0.00000000000E+00 0. -1.
         11    1    3    3    0    0 -0.79445086311E+00 -0.29707364483E+01  0.21025836209E+02  0.21249522719E+02  0.51100000000E-03 0. -1.
        -11    1    3    3    0    0  0.55507302916E+01  0.88861098069E+01 -0.12449109845E+02  0.16271259646E+02  0.51100000000E-03 0.  1.
        -12    1    3    3    0    0  0.97364631661E+01  0.18624323240E+02  0.57231153515E+01  0.21781142772E+02  0.00000000000E+00 0.  1.
</event>
<event>
 7    1  0.7821043E-012  0.5930187E+02  0.7816164E-02  0.1266605E+00
        -11   -1    0    0    0    0  0.00000000000E+00  0.00000000000E+00  0.45593999997E+02  0.45594000000E+02  0.51100000000E-03 0.  1.
         11   -1    0    0    0    0 -0.00000000000E+00 -0.00000000000E+00 -0.45593999997E+02  0.45594000000E+02  0.51100000000E-03 0. -1.
    9900012    2    1    2    0    0  0.74638040317E+01 -0.18961655135E+02  0.24524937364E+02  0.59301869962E+02  0.49999864922E+02 0.  0.
         12    1    1    2    0    0 -0.74638040317E+01  0.18961655135E+02 -0.24524937364E+02  0.31886130038E+02  0.00000000000E+00 0. -1.
         11    1    3    3    0    0  0.13185983832E+02 -0.14285825340E+02 -0.89707921572E+01  0.21410980535E+02  0.51100000000E-03 0. -1.
        -11    1    3    3    0    0  0.51732604736E+01 -0.59945878221E+00  0.16443955292E+02  0.17248931580E+02  0.51100000000E-03 0.  1.
         12    1    3    3    0    0 -0.10895440274E+02 -0.40763710123E+01  0.17051774230E+02  0.20641957847E+02  0.00000000000E+00 0. -1.
</event>
<event>
 7    1  0.7821043E-012  0.5930196E+02  0.7816164E-02  0.1266605E+00
        -11   -1    0    0    0    0  0.00000000000E+00  0.00000000000E+00  0.45593999997E+02  0.45594000000E+02  0.51100000000E-03 0.  1.
         11   -1    0    0    0    0 -0.00000000000E+00 -0.00000000000E+00 -0.45593999997E+02  0.45594000000E+02  0.51100000000E-03 0. -1.
    9900012    2    1    2    0    0 -0.29877800638E+02  0.10441616912E+02 -0.38741511654E+01  0.59301962587E+02  0.50000033847E+02 0.  0.
         12    1    1    2    0    0  0.29877800638E+02 -0.10441616912E+02  0.38741511654E+01  0.31886037413E+02  0.00000000000E+00 0. -1.
         11    1    3    3    0    0  0.86411015130E+00 -0.15949962576E+02  0.51332828214E+01  0.16777919576E+02  0.51100000000E-03 0. -1.
        -11    1    3    3    0    0 -0.15136237564E+02  0.11140719985E+02  0.31229556015E+00  0.18796777867E+02  0.51100000000E-03 0.  1.
         12    1    3    3    0    0 -0.15605673225E+02  0.15250859503E+02 -0.93197295469E+01  0.23727265144E+02  0.00000000000E+00 0. -1.
</event>
<event>
 7    1  0.7821043E-012  0.5930197E+02  0.7816164E-02  0.1266605E+00
        -11   -1    0    0    0    0  0.00000000000E+00  0.00000000000E+00  0.45593999997E+02  0.45594000000E+02  0.51100000000E-03 0.  1.
         11   -1    0    0    0    0 -0.00000000000E+00 -0.00000000000E+00 -0.45593999997E+02  0.45594000000E+02  0.51100000000E-03 0. -1.
    9900012    2    1    2    0    0 -0.23943618798E+02 -0.53497145584E+01  0.20366704038E+02  0.59301969197E+02  0.50000045903E+02 0.  0.
         12    1    1    2    0    0  0.23943618798E+02  0.53497145584E+01 -0.20366704038E+02  0.31886030803E+02  0.00000000000E+00 0. -1.
         11    1    3    3    0    0 -0.16224124484E+02  0.17662752114E+01 -0.98443192798E+01  0.19059185862E+02  0.51100000000E-03 0. -1.
        -11    1    3    3    0    0 -0.19047865463E+01  0.85974527925E+01  0.16042119476E+02  0.18300109394E+02  0.51100000000E-03 0.  1.
        -12    1    3    3    0    0 -0.58147077678E+01 -0.15713442562E+02  0.14168903842E+02  0.21942673940E+02  0.00000000000E+00 0.  1.
</event>
<event>
 7    1  0.7821043E-012  0.5930194E+02  0.7816164E-02  0.1266605E+00
        -11   -1    0    0    0    0  0.00000000000E+00  0.00000000000E+00  0.45593999997E+02  0.45594000000E+02  0.51100000000E-03 0.  1.
         11   -1    0    0    0    0 -0.00000000000E+00 -0.00000000000E+00 -0.45593999997E+02  0.45594000000E+02  0.51100000000E-03 0. -1.
    9900012    2    1    2    0    0  0.28367659208E+02  0.26481595110E+01  0.14317257486E+02  0.59301941924E+02  0.49999996163E+02 0.  0.
         12    1    1    2    0    0 -0.28367659208E+02 -0.26481595110E+01 -0.14317257486E+02  0.31886058076E+02  0.00000000000E+00 0. -1.
         11    1    3    3    0    0  0.71468590943E+01  0.18529583717E+02  0.14944297905E+02  0.24854679796E+02  0.51100000000E-03 0. -1.
        -11    1    3    3    0    0  0.20486847734E+02 -0.79465337720E+01 -0.81998718240E+01  0.23454130281E+02  0.51100000000E-03 0.  1.
         12    1    3    3    0    0  0.73395237954E+00 -0.79348904342E+01  0.75728314051E+01  0.10993131846E+02  0.00000000000E+00 0. -1.
</event>
<event>
 7    1  0.7821043E-012  0.5930195E+02  0.7816164E-02  0.1266605E+00
        -11   -1    0    0    0    0  0.00000000000E+00  0.00000000000E+00  0.45593999997E+02  0.45594000000E+02  0.51100000000E-03 0.  1.
         11   -1    0    0    0    0 -0.00000000000E+00 -0.00000000000E+00 -0.45593999997E+02  0.45594000000E+02  0.51100000000E-03 0. -1.
    9900012    2    1    2    0    0  0.35721672530E+01  0.14467243446E+02  0.28189685702E+02  0.59301954591E+02  0.50000019265E+02 0.  0.
         12    1    1    2    0    0 -0.35721672530E+01 -0.14467243446E+02 -0.28189685702E+02  0.31886045409E+02  0.00000000000E+00 0. -1.
         11    1    3    3    0    0  0.72740151143E+01 -0.12819229328E+02 -0.54699173371E+01  0.15721448164E+02  0.51100000000E-03 0. -1.
        -11    1    3    3    0    0 -0.21113433948E+01  0.85726016872E+01  0.12258795357E+02  0.15107128598E+02  0.51100000000E-03 0.  1.
         12    1    3    3    0    0 -0.15905044665E+01  0.18713871087E+02  0.21400807683E+02  0.28473377829E+02  0.00000000000E+00 0. -1.
</event>
<event>
 7    1  0.7821043E-012  0.5930196E+02  0.7816164E-02  0.1266605E+00
        -11   -1    0    0    0    0  0.00000000000E+00  0.00000000000E+00  0.45593999997E+02  0.45594000000E+02  0.51100000000E-03 0. -1.
         11   -1    0    0    0    0 -0.00000000000E+00 -0.00000000000E+00 -0.45593999997E+02  0.45594000000E+02  0.51100000000E-03 0.  1.
    9900012    2    1    2    0    0  0.23558499010E+02 -0.67462871967E+01 -0.20401083193E+02  0.59301961331E+02  0.50000031557E+02 0.  0.
         12    1    1    2    0    0 -0.23558499010E+02  0.67462871967E+01  0.20401083193E+02  0.31886038669E+02  0.00000000000E+00 0. -1.
         11    1    3    3    0    0  0.22435167252E+02 -0.17561950821E+02 -0.72607514566E+01  0.29401995821E+02  0.51100000000E-03 0. -1.
        -11    1    3    3    0    0  0.35778979089E+01  0.75574148640E+01 -0.20135277084E+02  0.21802414004E+02  0.51100000000E-03 0.  1.
         12    1    3    3    0    0 -0.24545661513E+01  0.32582487602E+01  0.69949453477E+01  0.80975515060E+01  0.00000000000E+00 0. -1.
</event>
<event>
 7    1  0.7821043E-012  0.5930193E+02  0.7816164E-02  0.1266605E+00
        -11   -1    0    0    0    0  0.00000000000E+00  0.00000000000E+00  0.45593999997E+02  0.45594000000E+02  0.51100000000E-03 0. -1.
         11   -1    0    0    0    0 -0.00000000000E+00 -0.00000000000E+00 -0.45593999997E+02  0.45594000000E+02  0.51100000000E-03 0.  1.
    9900012    2    1    2    0    0  0.57562875561E+01 -0.29939770022E+02 -0.93379163934E+01  0.59301931601E+02  0.49999977337E+02 0.  0.
         12    1    1    2    0    0 -0.57562875561E+01  0.29939770022E+02  0.93379163934E+01  0.31886068399E+02  0.00000000000E+00 0. -1.
         11    1    3    3    0    0  0.21166761848E+02 -0.18125597971E+01 -0.77977091723E+01  0.22630100503E+02  0.51100000000E-03 0.  1.
        -11    1    3    3    0    0 -0.58973390073E+01 -0.23644559466E+02  0.41421830482E+01  0.24718444133E+02  0.51100000000E-03 0. -1.
         12    1    3    3    0    0 -0.95131352849E+01 -0.44826507588E+01 -0.56823902693E+01  0.11953386965E+02  0.00000000000E+00 0. -1.
</event>
<event>
 7    1  0.7821043E-012  0.5930196E+02  0.7816164E-02  0.1266605E+00
        -11   -1    0    0    0    0  0.00000000000E+00  0.00000000000E+00  0.45593999997E+02  0.45594000000E+02  0.51100000000E-03 0.  1.
         11   -1    0    0    0    0 -0.00000000000E+00 -0.00000000000E+00 -0.45593999997E+02  0.45594000000E+02  0.51100000000E-03 0. -1.
    9900012    2    1    2    0    0  0.89291782897E+01 -0.29128677073E+02 -0.94079569675E+01  0.59301957485E+02  0.50000024543E+02 0.  0.
         12    1    1    2    0    0 -0.89291782897E+01  0.29128677073E+02  0.94079569675E+01  0.31886042515E+02  0.00000000000E+00 0. -1.
         11    1    3    3    0    0  0.74411936631E+01  0.10179772123E+02 -0.10479260420E+01  0.12652955104E+02  0.51100000000E-03 0. -1.
        -11    1    3    3    0    0  0.76323576830E+01 -0.24138666726E+02  0.46514118581E+01  0.25740313666E+02  0.51100000000E-03 0.  1.
        -12    1    3    3    0    0 -0.61443730563E+01 -0.15169782471E+02 -0.13011442784E+02  0.20908688715E+02  0.00000000000E+00 0.  1.
</event>
<event>
 7    1  0.7821043E-012  0.5930194E+02  0.7816164E-02  0.1266605E+00
        -11   -1    0    0    0    0  0.00000000000E+00  0.00000000000E+00  0.45593999997E+02  0.45594000000E+02  0.51100000000E-03 0. -1.
         11   -1    0    0    0    0 -0.00000000000E+00 -0.00000000000E+00 -0.45593999997E+02  0.45594000000E+02  0.51100000000E-03 0.  1.
    9900012    2    1    2    0    0 -0.29775093924E+02 -0.11403850006E+02  0.34183903117E+00  0.59301939299E+02  0.49999991376E+02 0.  0.
         12    1    1    2    0    0  0.29775093924E+02  0.11403850006E+02 -0.34183903117E+00  0.31886060701E+02  0.00000000000E+00 0. -1.
         11    1    3    3    0    0 -0.31810537696E+02 -0.37593320612E+01  0.17647643452E+02  0.36571603816E+02  0.51100000000E-03 0. -1.
        -11    1    3    3    0    0 -0.11779019807E+01 -0.23010829605E+01 -0.16191225380E+02  0.16396286636E+02  0.51100000000E-03 0.  1.
         12    1    3    3    0    0  0.32133457526E+01 -0.53434349844E+01 -0.11145790406E+01  0.63340488470E+01  0.00000000000E+00 0. -1.
</event>
<event>
 7    1  0.7821043E-012  0.5930219E+02  0.7816164E-02  0.1266604E+00
        -11   -1    0    0    0    0  0.00000000000E+00  0.00000000000E+00  0.45593999997E+02  0.45594000000E+02  0.51100000000E-03 0.  1.
         11   -1    0    0    0    0 -0.00000000000E+00 -0.00000000000E+00 -0.45593999997E+02  0.45594000000E+02  0.51100000000E-03 0. -1.
    9900012    2    1    2    0    0  0.30666036561E+01 -0.56532097553E+01  0.31230469162E+02  0.59302187440E+02  0.50000443924E+02 0.  0.
         12    1    1    2    0    0 -0.30666036561E+01  0.56532097553E+01 -0.31230469162E+02  0.31885812560E+02  0.00000000000E+00 0. -1.
         11    1    3    3    0    0 -0.88727950679E+01  0.12014110762E+02  0.16744790692E+02  0.22437766496E+02  0.51100000000E-03 0. -1.
        -11    1    3    3    0    0  0.78150355334E+00 -0.15165726433E+02  0.19213954093E+02  0.24490529561E+02  0.51100000000E-03 0.  1.
         12    1    3    3    0    0  0.11157895171E+02 -0.25015940844E+01 -0.47282756227E+01  0.12373891383E+02  0.00000000000E+00 0. -1.
</event>
<event>
 7    1  0.7821043E-012  0.5930189E+02  0.7816164E-02  0.1266605E+00
        -11   -1    0    0    0    0  0.00000000000E+00  0.00000000000E+00  0.45593999997E+02  0.45594000000E+02  0.51100000000E-03 0.  1.
         11   -1    0    0    0    0 -0.00000000000E+00 -0.00000000000E+00 -0.45593999997E+02  0.45594000000E+02  0.51100000000E-03 0. -1.
    9900012    2    1    2    0    0 -0.72824628684E+01  0.15752035976E+02  0.26750011255E+02  0.59301890094E+02  0.49999901637E+02 0.  0.
         12    1    1    2    0    0  0.72824628684E+01 -0.15752035976E+02 -0.26750011255E+02  0.31886109906E+02  0.00000000000E+00 0. -1.
         11    1    3    3    0    0 -0.41163162379E+01  0.21052285319E+02  0.17852999251E+02  0.27908284774E+02  0.51100000000E-03 0.  1.
        -11    1    3    3    0    0 -0.95830443076E+01 -0.15382541175E+02  0.46514179804E+01  0.18710772316E+02  0.51100000000E-03 0. -1.
         12    1    3    3    0    0  0.64168976772E+01  0.10082291831E+02  0.42455940241E+01  0.12682833003E+02  0.00000000000E+00 0. -1.
</event>
<event>
 7    1  0.7821043E-012  0.5930195E+02  0.7816164E-02  0.1266605E+00
        -11   -1    0    0    0    0  0.00000000000E+00  0.00000000000E+00  0.45593999997E+02  0.45594000000E+02  0.51100000000E-03 0.  1.
         11   -1    0    0    0    0 -0.00000000000E+00 -0.00000000000E+00 -0.45593999997E+02  0.45594000000E+02  0.51100000000E-03 0. -1.
    9900012    2    1    2    0    0 -0.10277550973E+02  0.16492462708E+02  0.25280239123E+02  0.59301954929E+02  0.50000019881E+02 0.  0.
         12    1    1    2    0    0  0.10277550973E+02 -0.16492462708E+02 -0.25280239123E+02  0.31886045071E+02  0.00000000000E+00 0. -1.
         11    1    3    3    0    0  0.77746907827E+01 -0.56448599278E+01  0.36211881324E+00  0.96146445939E+01  0.51100000000E-03 0. -1.
        -11    1    3    3    0    0 -0.15577103615E+02  0.40315696959E+01 -0.29533855635E+01  0.16359162502E+02  0.51100000000E-03 0.  1.
        -12    1    3    3    0    0 -0.24751381412E+01  0.18105752940E+02  0.27871505873E+02  0.33328147833E+02  0.00000000000E+00 0.  1.
</event>
<event>
 7    1  0.7821043E-012  0.5930190E+02  0.7816164E-02  0.1266605E+00
        -11   -1    0    0    0    0  0.00000000000E+00  0.00000000000E+00  0.45593999997E+02  0.45594000000E+02  0.51100000000E-03 0. -1.
         11   -1    0    0    0    0 -0.00000000000E+00 -0.00000000000E+00 -0.45593999997E+02  0.45594000000E+02  0.51100000000E-03 0.  1.
    9900012    2    1    2    0    0 -0.22176491252E+01 -0.25736682997E+02 -0.18692999903E+02  0.59301904838E+02  0.49999928527E+02 0.  0.
         12    1    1    2    0    0  0.22176491252E+01  0.25736682997E+02  0.18692999903E+02  0.31886095162E+02  0.00000000000E+00 0. -1.
         11    1    3    3    0    0 -0.46826156917E+01 -0.23297853457E+02 -0.11325551359E+02  0.26324607865E+02  0.51100000000E-03 0. -1.
        -11    1    3    3    0    0 -0.10308436667E+02  0.92279396380E+01 -0.73738707715E+01  0.15677777486E+02  0.51100000000E-03 0.  1.
        -12    1    3    3    0    0  0.12773403234E+02 -0.11666769178E+02  0.64222272970E-02  0.17299519487E+02  0.00000000000E+00 0.  1.
</event>
<event>
 7    1  0.7821043E-012  0.5930195E+02  0.7816164E-02  0.1266605E+00
        -11   -1    0    0    0    0  0.00000000000E+00  0.00000000000E+00  0.45593999997E+02  0.45594000000E+02  0.51100000000E-03 0.  1.
         11   -1    0    0    0    0 -0.00000000000E+00 -0.00000000000E+00 -0.45593999997E+02  0.45594000000E+02  0.51100000000E-03 0. -1.
    9900012    2    1    2    0    0  0.18034898922E+02 -0.42876189174E+01  0.25943769335E+02  0.59301946271E+02  0.50000004091E+02 0.  0.
         12    1    1    2    0    0 -0.18034898922E+02  0.42876189174E+01 -0.25943769335E+02  0.31886053729E+02  0.00000000000E+00 0. -1.
         11    1    3    3    0    0  0.35670715852E+01  0.14018927832E+02  0.97033039321E+00  0.14498133624E+02  0.51100000000E-03 0. -1.
        -11    1    3    3    0    0  0.38761832285E+01 -0.24021954830E+02  0.20964520594E+02  0.32118378450E+02  0.51100000000E-03 0.  1.
         12    1    3    3    0    0  0.10591644108E+02  0.57154080800E+01  0.40089183477E+01  0.12685434197E+02  0.00000000000E+00 0. -1.
</event>
<event>
 7    1  0.7821043E-012  0.5930194E+02  0.7816164E-02  0.1266605E+00
        -11   -1    0    0    0    0  0.00000000000E+00  0.00000000000E+00  0.45593999997E+02  0.45594000000E+02  0.51100000000E-03 0.  1.
         11   -1    0    0    0    0 -0.00000000000E+00 -0.00000000000E+00 -0.45593999997E+02  0.45594000000E+02  0.51100000000E-03 0. -1.
    9900012    2    1    2    0    0  0.86644338655E+00  0.68305056585E+01  0.31133807657E+02  0.59301944883E+02  0.50000001560E+02 0.  0.
         12    1    1    2    0    0 -0.86644338655E+00 -0.68305056585E+01 -0.31133807657E+02  0.31886055117E+02  0.00000000000E+00 0. -1.
         11    1    3    3    0    0 -0.55866426490E+01 -0.10741483634E+02  0.27489304087E+02  0.30037507989E+02  0.51100000000E-03 0. -1.
        -11    1    3    3    0    0  0.71640194441E+01  0.18374697234E+02  0.10488163628E+02  0.22337283846E+02  0.51100000000E-03 0.  1.
         12    1    3    3    0    0 -0.71093340857E+00 -0.80270794229E+00 -0.68436600587E+01  0.69271530480E+01  0.00000000000E+00 0. -1.
</event>
<event>
 7    1  0.7821043E-012  0.5930195E+02  0.7816164E-02  0.1266605E+00
        -11   -1    0    0    0    0  0.00000000000E+00  0.00000000000E+00  0.45593999997E+02  0.45594000000E+02  0.51100000000E-03 0.  1.
         11   -1    0    0    0    0 -0.00000000000E+00 -0.00000000000E+00 -0.45593999997E+02  0.45594000000E+02  0.51100000000E-03 0. -1.
    9900012    2    1    2    0    0 -0.97977004835E+01  0.26193003849E+02  0.15318350041E+02  0.59301949235E+02  0.50000009497E+02 0.  0.
         12    1    1    2    0    0  0.97977004835E+01 -0.26193003849E+02 -0.15318350041E+02  0.31886050765E+02  0.00000000000E+00 0. -1.
         11    1    3    3    0    0 -0.95085719691E+01 -0.13217236506E+02 -0.20367226047E+00  0.16283419924E+02  0.51100000000E-03 0. -1.
        -11    1    3    3    0    0 -0.82821755636E+00  0.67427830912E+01  0.57951838485E+01  0.89294582274E+01  0.51100000000E-03 0.  1.
         12    1    3    3    0    0  0.53908904192E+00  0.32667457264E+02  0.97268384533E+01  0.34089071084E+02  0.00000000000E+00 0. -1.
</event>
<event>
 7    1  0.7821043E-012  0.5930172E+02  0.7816164E-02  0.1266606E+00
        -11   -1    0    0    0    0  0.00000000000E+00  0.00000000000E+00  0.45593999997E+02  0.45594000000E+02  0.51100000000E-03 0. -1.
         11   -1    0    0    0    0 -0.00000000000E+00 -0.00000000000E+00 -0.45593999997E+02  0.45594000000E+02  0.51100000000E-03 0.  1.
    9900012    2    1    2    0    0  0.16283908509E+01 -0.20305744021E+02 -0.24530797054E+02  0.59301719234E+02  0.49999590028E+02 0.  0.
         12    1    1    2    0    0 -0.16283908509E+01  0.20305744021E+02  0.24530797054E+02  0.31886280766E+02  0.00000000000E+00 0. -1.
         11    1    3    3    0    0  0.59726338074E+01 -0.51847429028E+01 -0.41907546605E+01  0.89507730644E+01  0.51100000000E-03 0. -1.
        -11    1    3    3    0    0  0.33940700856E+01  0.13552751606E+02 -0.14398748213E+02  0.20062919483E+02  0.51100000000E-03 0.  1.
        -12    1    3    3    0    0 -0.77383130421E+01 -0.28673752724E+02 -0.59412941811E+01  0.30288026686E+02  0.00000000000E+00 0.  1.
</event>
<event>
 7    1  0.7821043E-012  0.5930196E+02  0.7816164E-02  0.1266605E+00
        -11   -1    0    0    0    0  0.00000000000E+00  0.00000000000E+00  0.45593999997E+02  0.45594000000E+02  0.51100000000E-03 0. -1.
         11   -1    0    0    0    0 -0.00000000000E+00 -0.00000000000E+00 -0.45593999997E+02  0.45594000000E+02  0.51100000000E-03 0.  1.
    9900012    2    1    2    0    0  0.76938040382E+01  0.30928919124E+02  0.96278136524E+00  0.59301959062E+02  0.50000027418E+02 0.  0.
         12    1    1    2    0    0 -0.76938040382E+01 -0.30928919124E+02 -0.96278136524E+00  0.31886040938E+02  0.00000000000E+00 0. -1.
         11    1    3    3    0    0  0.22167914977E+02  0.24062919440E+02 -0.39591722057E+01  0.32956267860E+02  0.51100000000E-03 0. -1.
        -11    1    3    3    0    0 -0.66774378911E+01 -0.41254150149E+01 -0.52661848642E+01  0.94519801692E+01  0.51100000000E-03 0.  1.
         12    1    3    3    0    0 -0.77966730476E+01  0.10991414699E+02  0.10188138435E+02  0.16893711033E+02  0.00000000000E+00 0. -1.
</event>
<event>
 7    1  0.7821043E-012  0.5930197E+02  0.7816164E-02  0.1266605E+00
        -11   -1    0    0    0    0  0.00000000000E+00  0.00000000000E+00  0.45593999997E+02  0.45594000000E+02  0.51100000000E-03 0. -1.
         11   -1    0    0    0    0 -0.00000000000E+00 -0.00000000000E+00 -0.45593999997E+02  0.45594000000E+02  0.51100000000E-03 0.  1.
    9900012    2    1    2    0    0  0.30348937170E+02 -0.20357652187E+01 -0.95664373151E+01  0.59301967787E+02  0.50000043331E+02 0.  0.
         12    1    1    2    0    0 -0.30348937170E+02  0.20357652187E+01  0.95664373151E+01  0.31886032213E+02  0.00000000000E+00 0. -1.
         11    1    3    3    0    0 -0.10435315046E+02  0.58412135968E+01 -0.22343237988E+01  0.12165844791E+02  0.51100000000E-03 0. -1.
        -11    1    3    3    0    0  0.31737827584E+02 -0.10700490668E+02 -0.13188022289E+02  0.35996029398E+02  0.51100000000E-03 0.  1.
        -12    1    3    3    0    0  0.90464246323E+01  0.28235118529E+01  0.58559087726E+01  0.11140093598E+02  0.00000000000E+00 0.  1.
</event>
<event>
 7    1  0.7821043E-012  0.5930194E+02  0.7816164E-02  0.1266605E+00
        -11   -1    0    0    0    0  0.00000000000E+00  0.00000000000E+00  0.45593999997E+02  0.45594000000E+02  0.51100000000E-03 0. -1.
         11   -1    0    0    0    0 -0.00000000000E+00 -0.00000000000E+00 -0.45593999997E+02  0.45594000000E+02  0.51100000000E-03 0.  1.
    9900012    2    1    2    0    0 -0.16385945618E+02  0.23120867707E+02 -0.14616670522E+02  0.59301940437E+02  0.49999993451E+02 0.  0.
         12    1    1    2    0    0  0.16385945618E+02 -0.23120867707E+02  0.14616670522E+02  0.31886059563E+02  0.00000000000E+00 0. -1.
         11    1    3    3    0    0  0.11091220550E+02  0.73196383431E+01  0.30103433178E+01  0.13625507180E+02  0.51100000000E-03 0. -1.
        -11    1    3    3    0    0 -0.22464051552E+02  0.34243404277E+01 -0.21996596979E+02  0.31626096794E+02  0.51100000000E-03 0.  1.
         12    1    3    3    0    0 -0.50131146165E+01  0.12376888936E+02  0.43695831392E+01  0.14050336462E+02  0.00000000000E+00 0. -1.
</event>
<event>
 7    1  0.7821043E-012  0.5930197E+02  0.7816164E-02  0.1266605E+00
        -11   -1    0    0    0    0  0.00000000000E+00  0.00000000000E+00  0.45593999997E+02  0.45594000000E+02  0.51100000000E-03 0. -1.
         11   -1    0    0    0    0 -0.00000000000E+00 -0.00000000000E+00 -0.45593999997E+02  0.45594000000E+02  0.51100000000E-03 0.  1.
    9900012    2    1    2    0    0 -0.39913904927E+01  0.13546729201E+02 -0.28588005971E+02  0.59301966137E+02  0.50000040322E+02 0.  0.
         12    1    1    2    0    0  0.39913904927E+01 -0.13546729201E+02  0.28588005971E+02  0.31886033863E+02  0.00000000000E+00 0. -1.
         11    1    3    3    0    0 -0.37659677302E+01 -0.30348565653E+01  0.11624315927E+02  0.12590376816E+02  0.51100000000E-03 0. -1.
        -11    1    3    3    0    0  0.81034983033E+01  0.56803919406E+01 -0.14277657825E+02  0.17371961622E+02  0.51100000000E-03 0.  1.
        -12    1    3    3    0    0 -0.83289210658E+01  0.10901193825E+02 -0.25934664073E+02  0.29339627699E+02  0.00000000000E+00 0.  1.
</event>
<event>
 7    1  0.7821043E-012  0.5930159E+02  0.7816164E-02  0.1266606E+00
        -11   -1    0    0    0    0  0.00000000000E+00  0.00000000000E+00  0.45593999997E+02  0.45594000000E+02  0.51100000000E-03 0.  1.
         11   -1    0    0    0    0 -0.00000000000E+00 -0.00000000000E+00 -0.45593999997E+02  0.45594000000E+02  0.51100000000E-03 0. -1.
    9900012    2    1    2    0    0  0.11335377415E+02 -0.12209420070E+02  0.27187915039E+02  0.59301585279E+02  0.49999345725E+02 0.  0.
         12    1    1    2    0    0 -0.11335377415E+02  0.12209420070E+02 -0.27187915039E+02  0.31886414721E+02  0.00000000000E+00 0. -1.
         11    1    3    3    0    0 -0.61962171139E+01 -0.20241367142E+02 -0.45263412820E+01  0.21647027879E+02  0.51100000000E-03 0. -1.
        -11    1    3    3    0    0  0.11540462916E+02  0.22257392492E+01  0.15873464061E+02  0.19751026836E+02  0.51100000000E-03 0.  1.
         12    1    3    3    0    0  0.59911316126E+01  0.58062078227E+01  0.15840792259E+02  0.17903530565E+02  0.00000000000E+00 0. -1.
</event>
<event>
 7    1  0.7821043E-012  0.5930192E+02  0.7816164E-02  0.1266605E+00
        -11   -1    0    0    0    0  0.00000000000E+00  0.00000000000E+00  0.45593999997E+02  0.45594000000E+02  0.51100000000E-03 0.  1.
         11   -1    0    0    0    0 -0.00000000000E+00 -0.00000000000E+00 -0.45593999997E+02  0.45594000000E+02  0.51100000000E-03 0. -1.
    9900012    2    1    2    0    0 -0.26272825758E+02 -0.42702507900E+01  0.17556358227E+02  0.59301919506E+02  0.49999955278E+02 0.  0.
         12    1    1    2    0    0  0.26272825758E+02  0.42702507900E+01 -0.17556358227E+02  0.31886080494E+02  0.00000000000E+00 0. -1.
         11    1    3    3    0    0 -0.15633224174E+02 -0.18982628795E+02  0.21911312908E+02  0.32936962939E+02  0.51100000000E-03 0.  1.
        -11    1    3    3    0    0 -0.70872020373E+01  0.13901277788E+02 -0.10789232380E+02  0.18970542756E+02  0.51100000000E-03 0. -1.
        -12    1    3    3    0    0 -0.35523995460E+01  0.81110021707E+00  0.64342776988E+01  0.73944138106E+01  0.00000000000E+00 0.  1.
</event>
<event>
 7    1  0.7821043E-012  0.5930199E+02  0.7816164E-02  0.1266605E+00
        -11   -1    0    0    0    0  0.00000000000E+00  0.00000000000E+00  0.45593999997E+02  0.45594000000E+02  0.51100000000E-03 0. -1.
         11   -1    0    0    0    0 -0.00000000000E+00 -0.00000000000E+00 -0.45593999997E+02  0.45594000000E+02  0.51100000000E-03 0.  1.
    9900012    2    1    2    0    0 -0.15550924908E+02 -0.71439113818E+01 -0.26904474642E+02  0.59301992237E+02  0.50000087922E+02 0.  0.
         12    1    1    2    0    0  0.15550924908E+02  0.71439113818E+01  0.26904474642E+02  0.31886007763E+02  0.00000000000E+00 0. -1.
         11    1    3    3    0    0  0.22230797538E+01  0.59574744345E+01 -0.94185247749E+01  0.11364074728E+02  0.51100000000E-03 0. -1.
        -11    1    3    3    0    0 -0.56522490965E+01 -0.18359671734E+02 -0.25919941635E+02  0.32262498984E+02  0.51100000000E-03 0.  1.
        -12    1    3    3    0    0 -0.12121755565E+02  0.52582859180E+01  0.84339917682E+01  0.15675418525E+02  0.00000000000E+00 0.  1.
</event>
<event>
 7    1  0.7821043E-012  0.5930198E+02  0.7816164E-02  0.1266605E+00
        -11   -1    0    0    0    0  0.00000000000E+00  0.00000000000E+00  0.45593999997E+02  0.45594000000E+02  0.51100000000E-03 0. -1.
         11   -1    0    0    0    0 -0.00000000000E+00 -0.00000000000E+00 -0.45593999997E+02  0.45594000000E+02  0.51100000000E-03 0.  1.
    9900012    2    1    2    0    0  0.28525444405E+02 -0.10506309826E+02  0.96247009750E+01  0.59301978086E+02  0.50000062114E+02 0.  0.
         12    1    1    2    0    0 -0.28525444405E+02  0.10506309826E+02 -0.96247009750E+01  0.31886021914E+02  0.00000000000E+00 0. -1.
         11    1    3    3    0    0  0.49094244503E+01  0.17124838306E+02 -0.17152307611E+01  0.17897054290E+02  0.51100000000E-03 0. -1.
        -11    1    3    3    0    0  0.14459433586E+02 -0.22033665013E+02  0.14677471820E+02  0.30165970776E+02  0.51100000000E-03 0.  1.
        -12    1    3    3    0    0  0.91565863682E+01 -0.55974831185E+01 -0.33375400843E+01  0.11238953020E+02  0.00000000000E+00 0.  1.
</event>
<event>
 7    1  0.7821043E-012  0.5930195E+02  0.7816164E-02  0.1266605E+00
        -11   -1    0    0    0    0  0.00000000000E+00  0.00000000000E+00  0.45593999997E+02  0.45594000000E+02  0.51100000000E-03 0. -1.
         11   -1    0    0    0    0 -0.00000000000E+00 -0.00000000000E+00 -0.45593999997E+02  0.45594000000E+02  0.51100000000E-03 0.  1.
    9900012    2    1    2    0    0 -0.57583203650E+01 -0.30369240621E+02  0.78276066825E+01  0.59301945749E+02  0.50000003140E+02 0.  0.
         12    1    1    2    0    0  0.57583203650E+01  0.30369240621E+02 -0.78276066825E+01  0.31886054251E+02  0.00000000000E+00 0. -1.
         11    1    3    3    0    0 -0.41755160175E+01 -0.10923900411E+02  0.53968489805E+01  0.12879926761E+02  0.51100000000E-03 0. -1.
        -11    1    3    3    0    0 -0.17911956397E+01  0.10850655727E+02 -0.88264920940E+01  0.14101491924E+02  0.51100000000E-03 0.  1.
        -12    1    3    3    0    0  0.20839129213E+00 -0.30295995937E+02  0.11257249796E+02  0.32320527064E+02  0.00000000000E+00 0.  1.
</event>
<event>
 7    1  0.7821043E-012  0.5930193E+02  0.7816164E-02  0.1266605E+00
        -11   -1    0    0    0    0  0.00000000000E+00  0.00000000000E+00  0.45593999997E+02  0.45594000000E+02  0.51100000000E-03 0. -1.
         11   -1    0    0    0    0 -0.00000000000E+00 -0.00000000000E+00 -0.45593999997E+02  0.45594000000E+02  0.51100000000E-03 0.  1.
    9900012    2    1    2    0    0 -0.23292858130E+02  0.12034877598E+02 -0.18147338764E+02  0.59301930583E+02  0.49999975479E+02 0.  0.
         12    1    1    2    0    0  0.23292858130E+02 -0.12034877598E+02  0.18147338764E+02  0.31886069417E+02  0.00000000000E+00 0. -1.
         11    1    3    3    0    0 -0.29999871254E+02 -0.23901242958E+01 -0.29283538203E+01  0.30237067082E+02  0.51100000000E-03 0. -1.
        -11    1    3    3    0    0  0.51209816240E+01  0.14833952881E+02 -0.20870579369E+01  0.15831185110E+02  0.51100000000E-03 0.  1.
        -12    1    3    3    0    0  0.15860314996E+01 -0.40895098773E+00 -0.13131927007E+02  0.13233678391E+02  0.00000000000E+00 0.  1.
</event>
<event>
 7    1  0.7821043E-012  0.5930198E+02  0.7816164E-02  0.1266605E+00
        -11   -1    0    0    0    0  0.00000000000E+00  0.00000000000E+00  0.45593999997E+02  0.45594000000E+02  0.51100000000E-03 0. -1.
         11   -1    0    0    0    0 -0.00000000000E+00 -0.00000000000E+00 -0.45593999997E+02  0.45594000000E+02  0.51100000000E-03 0.  1.
    9900012    2    1    2    0    0 -0.20971971213E+02 -0.23382291137E+02 -0.54920896806E+01  0.59301981678E+02  0.50000068665E+02 0.  0.
         12    1    1    2    0    0  0.20971971213E+02  0.23382291137E+02  0.54920896806E+01  0.31886018322E+02  0.00000000000E+00 0. -1.
         11    1    3    3    0    0  0.45272357826E+01 -0.27236979009E+01  0.40198216434E+01  0.66387770254E+01  0.51100000000E-03 0. -1.
        -11    1    3    3    0    0 -0.28689261737E+02 -0.12736408111E+02 -0.21425663900E+02  0.38004590570E+02  0.51100000000E-03 0.  1.
        -12    1    3    3    0    0  0.31900547409E+01 -0.79221851250E+01  0.11913752576E+02  0.14658614083E+02  0.00000000000E+00 0.  1.
</event>
<event>
 7    1  0.7821043E-012  0.5930217E+02  0.7816164E-02  0.1266604E+00
        -11   -1    0    0    0    0  0.00000000000E+00  0.00000000000E+00  0.45593999997E+02  0.45594000000E+02  0.51100000000E-03 0. -1.
         11   -1    0    0    0    0 -0.00000000000E+00 -0.00000000000E+00 -0.45593999997E+02  0.45594000000E+02  0.51100000000E-03 0.  1.
    9900012    2    1    2    0    0  0.26922349840E+02  0.24807299602E+01  0.16903817434E+02  0.59302172649E+02  0.50000416948E+02 0.  0.
         12    1    1    2    0    0 -0.26922349840E+02 -0.24807299602E+01 -0.16903817434E+02  0.31885827351E+02  0.00000000000E+00 0. -1.
         11    1    3    3    0    0 -0.63357033941E+01  0.74927489530E+01  0.13737040605E+02  0.16881608608E+02  0.51100000000E-03 0. -1.
        -11    1    3    3    0    0  0.29032730103E+02  0.54029128544E+01 -0.28563598142E+01  0.29669001941E+02  0.51100000000E-03 0.  1.
        -12    1    3    3    0    0  0.42253231306E+01 -0.10414931847E+02  0.60231366438E+01  0.12751562099E+02  0.00000000000E+00 0.  1.
</event>
<event>
 7    1  0.7821043E-012  0.5930194E+02  0.7816164E-02  0.1266605E+00
        -11   -1    0    0    0    0  0.00000000000E+00  0.00000000000E+00  0.45593999997E+02  0.45594000000E+02  0.51100000000E-03 0.  1.
         11   -1    0    0    0    0 -0.00000000000E+00 -0.00000000000E+00 -0.45593999997E+02  0.45594000000E+02  0.51100000000E-03 0. -1.
    9900012    2    1    2    0    0  0.27150478866E+02 -0.10539963050E+02 -0.12980039534E+02  0.59301941134E+02  0.49999994722E+02 0.  0.
         12    1    1    2    0    0 -0.27150478866E+02  0.10539963050E+02  0.12980039534E+02  0.31886058866E+02  0.00000000000E+00 0. -1.
         11    1    3    3    0    0 -0.11495512298E+02 -0.12492702806E+01  0.10933196039E+01  0.11614767637E+02  0.51100000000E-03 0. -1.
        -11    1    3    3    0    0  0.34981811466E+02 -0.16892223639E+01 -0.16766849012E+02  0.38829213637E+02  0.51100000000E-03 0.  1.
        -12    1    3    3    0    0  0.36641796980E+01 -0.76014704051E+01  0.26934898737E+01  0.88579598598E+01  0.00000000000E+00 0.  1.
</event>
<event>
 7    1  0.7821043E-012  0.5930195E+02  0.7816164E-02  0.1266605E+00
        -11   -1    0    0    0    0  0.00000000000E+00  0.00000000000E+00  0.45593999997E+02  0.45594000000E+02  0.51100000000E-03 0. -1.
         11   -1    0    0    0    0 -0.00000000000E+00 -0.00000000000E+00 -0.45593999997E+02  0.45594000000E+02  0.51100000000E-03 0.  1.
    9900012    2    1    2    0    0  0.62837957519E+01  0.25626133467E+02  0.17903504663E+02  0.59301948429E+02  0.50000008027E+02 0.  0.
         12    1    1    2    0    0 -0.62837957519E+01 -0.25626133467E+02 -0.17903504663E+02  0.31886051571E+02  0.00000000000E+00 0. -1.
         11    1    3    3    0    0  0.60655790850E+01  0.25969597441E+02  0.29980718936E+02  0.40125487525E+02  0.51100000000E-03 0. -1.
        -11    1    3    3    0    0 -0.40380501948E+01  0.60084195272E+01 -0.62289684358E+01  0.95502357366E+01  0.51100000000E-03 0.  1.
         12    1    3    3    0    0  0.42562668617E+01 -0.63518835012E+01 -0.58482458371E+01  0.96262251679E+01  0.00000000000E+00 0. -1.
</event>
<event>
 7    1  0.7821043E-012  0.5930193E+02  0.7816164E-02  0.1266605E+00
        -11   -1    0    0    0    0  0.00000000000E+00  0.00000000000E+00  0.45593999997E+02  0.45594000000E+02  0.51100000000E-03 0. -1.
         11   -1    0    0    0    0 -0.00000000000E+00 -0.00000000000E+00 -0.45593999997E+02  0.45594000000E+02  0.51100000000E-03 0.  1.
    9900012    2    1    2    0    0 -0.89586260896E+01 -0.27644885753E+02 -0.13123449530E+02  0.59301927534E+02  0.49999969920E+02 0.  0.
         12    1    1    2    0    0  0.89586260896E+01  0.27644885753E+02  0.13123449530E+02  0.31886072466E+02  0.00000000000E+00 0. -1.
         11    1    3    3    0    0  0.55694565094E+01  0.53066341351E+00  0.15380645463E+02  0.16366572781E+02  0.51100000000E-03 0. -1.
        -11    1    3    3    0    0 -0.93703336704E+01 -0.13923102323E+02 -0.12773084470E+02  0.21090462739E+02  0.51100000000E-03 0.  1.
         12    1    3    3    0    0 -0.51577489286E+01 -0.14252446844E+02 -0.15731010523E+02  0.21844892014E+02  0.00000000000E+00 0. -1.
</event>
<event>
 7    1  0.7821043E-012  0.5930189E+02  0.7816164E-02  0.1266605E+00
        -11   -1    0    0    0    0  0.00000000000E+00  0.00000000000E+00  0.45593999997E+02  0.45594000000E+02  0.51100000000E-03 0. -1.
         11   -1    0    0    0    0 -0.00000000000E+00 -0.00000000000E+00 -0.45593999997E+02  0.45594000000E+02  0.51100000000E-03 0.  1.
    9900012    2    1    2    0    0 -0.74457678722E+01  0.18250527335E+02 -0.25063968778E+02  0.59301894278E+02  0.49999909268E+02 0.  0.
         12    1    1    2    0    0  0.74457678722E+01 -0.18250527335E+02  0.25063968778E+02  0.31886105722E+02  0.00000000000E+00 0. -1.
         11    1    3    3    0    0 -0.17164096695E+02  0.37686824574E+01  0.33718612105E+00  0.17576202023E+02  0.51100000000E-03 0. -1.
        -11    1    3    3    0    0  0.61010037228E+01  0.18459427283E+02 -0.29244257457E+02  0.35116937459E+02  0.51100000000E-03 0.  1.
         12    1    3    3    0    0  0.36173251001E+01 -0.39775824051E+01  0.38431025579E+01  0.66087547949E+01  0.00000000000E+00 0. -1.
</event>
<event>
 7    1  0.7821043E-012  0.5930195E+02  0.7816164E-02  0.1266605E+00
        -11   -1    0    0    0    0  0.00000000000E+00  0.00000000000E+00  0.45593999997E+02  0.45594000000E+02  0.51100000000E-03 0. -1.
         11   -1    0    0    0    0 -0.00000000000E+00 -0.00000000000E+00 -0.45593999997E+02  0.45594000000E+02  0.51100000000E-03 0.  1.
    9900012    2    1    2    0    0  0.50292334132E+01  0.30193118407E+02 -0.89332142560E+01  0.59301954388E+02  0.50000018894E+02 0.  0.
         12    1    1    2    0    0 -0.50292334132E+01 -0.30193118407E+02  0.89332142560E+01  0.31886045612E+02  0.00000000000E+00 0. -1.
         11    1    3    3    0    0  0.26740541266E+01  0.34181726748E+02  0.41506362482E+01  0.34536484918E+02  0.51100000000E-03 0. -1.
        -11    1    3    3    0    0 -0.33270545430E+01 -0.97208212675E+01 -0.11223785433E+01  0.10335540233E+02  0.51100000000E-03 0.  1.
         12    1    3    3    0    0  0.56822338296E+01  0.57322129260E+01 -0.11961471961E+02  0.14429929237E+02  0.00000000000E+00 0. -1.
</event>
<event>
 7    1  0.7821043E-012  0.5930195E+02  0.7816164E-02  0.1266605E+00
        -11   -1    0    0    0    0  0.00000000000E+00  0.00000000000E+00  0.45593999997E+02  0.45594000000E+02  0.51100000000E-03 0. -1.
         11   -1    0    0    0    0 -0.00000000000E+00 -0.00000000000E+00 -0.45593999997E+02  0.45594000000E+02  0.51100000000E-03 0.  1.
    9900012    2    1    2    0    0  0.32120538865E+01 -0.31491962269E+02  0.38287553988E+01  0.59301947475E+02  0.50000006287E+02 0.  0.
         12    1    1    2    0    0 -0.32120538865E+01  0.31491962269E+02 -0.38287553988E+01  0.31886052525E+02  0.00000000000E+00 0. -1.
         11    1    3    3    0    0  0.12189383659E+02 -0.31364832902E+01  0.18727627214E+02  0.22564188945E+02  0.51100000000E-03 0. -1.
        -11    1    3    3    0    0 -0.12286464970E+02 -0.13139668347E+02 -0.73462131011E+01  0.19431287989E+02  0.51100000000E-03 0.  1.
        -12    1    3    3    0    0  0.33091351974E+01 -0.15215810632E+02 -0.75526587142E+01  0.17306470541E+02  0.00000000000E+00 0.  1.
</event>
<event>
 7    1  0.7821043E-012  0.5930166E+02  0.7816164E-02  0.1266606E+00
        -11   -1    0    0    0    0  0.00000000000E+00  0.00000000000E+00  0.45593999997E+02  0.45594000000E+02  0.51100000000E-03 0.  1.
         11   -1    0    0    0    0 -0.00000000000E+00 -0.00000000000E+00 -0.45593999997E+02  0.45594000000E+02  0.51100000000E-03 0. -1.
    9900012    2    1    2    0    0 -0.57248325127E+01  0.27848568639E+02 -0.14436837529E+02  0.59301658717E+02  0.49999479659E+02 0.  0.
         12    1    1    2    0    0  0.57248325127E+01 -0.27848568639E+02  0.14436837529E+02  0.31886341283E+02  0.00000000000E+00 0. -1.
         11    1    3    3    0    0  0.18181558080E+02  0.13677132532E+02 -0.92316674116E+01  0.24553140166E+02  0.51100000000E-03 0. -1.
        -11    1    3    3    0    0 -0.17063877486E+02  0.13922349527E+02  0.48815066361E+01  0.22557412052E+02  0.51100000000E-03 0.  1.
        -12    1    3    3    0    0 -0.68425131069E+01  0.24908658040E+00 -0.10086676753E+02  0.12191106499E+02  0.00000000000E+00 0.  1.
</event>
<event>
 7    1  0.7821043E-012  0.5930191E+02  0.7816164E-02  0.1266605E+00
        -11   -1    0    0    0    0  0.00000000000E+00  0.00000000000E+00  0.45593999997E+02  0.45594000000E+02  0.51100000000E-03 0.  1.
         11   -1    0    0    0    0 -0.00000000000E+00 -0.00000000000E+00 -0.45593999997E+02  0.45594000000E+02  0.51100000000E-03 0. -1.
    9900012    2    1    2    0    0 -0.11005493658E+02  0.28923838648E+02  0.76820121987E+01  0.59301911431E+02  0.49999940552E+02 0.  0.
         12    1    1    2    0    0  0.11005493658E+02 -0.28923838648E+02 -0.76820121987E+01  0.31886088569E+02  0.00000000000E+00 0. -1.
         11    1    3    3    0    0  0.20928608047E+01  0.17042780268E+01 -0.13509209039E+02  0.13776188118E+02  0.51100000000E-03 0. -1.
        -11    1    3    3    0    0 -0.19345662161E+02  0.14853915250E+02  0.63093431479E+01  0.25193277952E+02  0.51100000000E-03 0.  1.
        -12    1    3    3    0    0  0.62473076990E+01  0.12365645371E+02  0.14881878090E+02  0.20332445362E+02  0.00000000000E+00 0.  1.
</event>
<event>
 7    1  0.7821043E-012  0.5930195E+02  0.7816164E-02  0.1266605E+00
        -11   -1    0    0    0    0  0.00000000000E+00  0.00000000000E+00  0.45593999997E+02  0.45594000000E+02  0.51100000000E-03 0. -1.
         11   -1    0    0    0    0 -0.00000000000E+00 -0.00000000000E+00 -0.45593999997E+02  0.45594000000E+02  0.51100000000E-03 0.  1.
    9900012    2    1    2    0    0 -0.21165054585E+02  0.22136523607E+02 -0.88732563487E+01  0.59301954600E+02  0.50000019282E+02 0.  0.
         12    1    1    2    0    0  0.21165054585E+02 -0.22136523607E+02  0.88732563487E+01  0.31886045400E+02  0.00000000000E+00 0. -1.
         11    1    3    3    0    0 -0.27017954973E+02  0.24554739163E+02 -0.18078618808E+02  0.40739925927E+02  0.51100000000E-03 0. -1.
        -11    1    3    3    0    0  0.38570137261E+01  0.27153097837E+00 -0.36259731768E+01  0.53007514274E+01  0.51100000000E-03 0.  1.
         12    1    3    3    0    0  0.19958866616E+01 -0.26897465338E+01  0.12831335636E+02  0.13261277246E+02  0.00000000000E+00 0. -1.
</event>
<event>
 7    1  0.7821043E-012  0.5930195E+02  0.7816164E-02  0.1266605E+00
        -11   -1    0    0    0    0  0.00000000000E+00  0.00000000000E+00  0.45593999997E+02  0.45594000000E+02  0.51100000000E-03 0.  1.
         11   -1    0    0    0    0 -0.00000000000E+00 -0.00000000000E+00 -0.45593999997E+02  0.45594000000E+02  0.51100000000E-03 0. -1.
    9900012    2    1    2    0    0 -0.13706691340E+02 -0.11040545678E+02  0.26588585472E+02  0.59301954246E+02  0.50000018637E+02 0.  0.
         12    1    1    2    0    0  0.13706691340E+02  0.11040545678E+02 -0.26588585472E+02  0.31886045754E+02  0.00000000000E+00 0. -1.
         11    1    3    3    0    0 -0.92483328361E+01 -0.68710855179E+01 -0.91370296199E+00  0.11557609173E+02  0.51100000000E-03 0.  1.
        -11    1    3    3    0    0  0.12104071213E+02 -0.83524967881E+01  0.26892543126E+02  0.30650964398E+02  0.51100000000E-03 0. -1.
        -12    1    3    3    0    0 -0.16562429717E+02  0.41830366276E+01  0.60974530858E+00  0.17093380675E+02  0.00000000000E+00 0.  1.
</event>
<event>
 7    1  0.7821043E-012  0.5930195E+02  0.7816164E-02  0.1266605E+00
        -11   -1    0    0    0    0  0.00000000000E+00  0.00000000000E+00  0.45593999997E+02  0.45594000000E+02  0.51100000000E-03 0.  1.
         11   -1    0    0    0    0 -0.00000000000E+00 -0.00000000000E+00 -0.45593999997E+02  0.45594000000E+02  0.51100000000E-03 0. -1.
    9900012    2    1    2    0    0 -0.24909048415E+02  0.18213792281E+02  0.80322643267E+01  0.59301949878E+02  0.50000010669E+02 0.  0.
         12    1    1    2    0    0  0.24909048415E+02 -0.18213792281E+02 -0.80322643267E+01  0.31886050122E+02  0.00000000000E+00 0. -1.
         11    1    3    3    0    0 -0.21719812392E+02  0.15277200584E+02  0.23376467043E+02  0.35377992025E+02  0.51100000000E-03 0. -1.
        -11    1    3    3    0    0  0.25839148996E+01 -0.60786654365E+01 -0.21782363671E+01  0.69549625182E+01  0.51100000000E-03 0.  1.
         12    1    3    3    0    0 -0.57731509221E+01  0.90152571335E+01 -0.13165966349E+02  0.16968995334E+02  0.00000000000E+00 0. -1.
</event>
<event>
 7    1  0.7821043E-012  0.5930195E+02  0.7816164E-02  0.1266605E+00
        -11   -1    0    0    0    0  0.00000000000E+00  0.00000000000E+00  0.45593999997E+02  0.45594000000E+02  0.51100000000E-03 0. -1.
         11   -1    0    0    0    0 -0.00000000000E+00 -0.00000000000E+00 -0.45593999997E+02  0.45594000000E+02  0.51100000000E-03 0.  1.
    9900012    2    1    2    0    0 -0.34982172450E+00 -0.71913436284E+01 -0.31062559061E+02  0.59301947033E+02  0.50000005481E+02 0.  0.
         12    1    1    2    0    0  0.34982172450E+00  0.71913436284E+01  0.31062559061E+02  0.31886052967E+02  0.00000000000E+00 0. -1.
         11    1    3    3    0    0  0.78566191556E+01  0.10041792046E+01  0.17118795571E+00  0.79223825967E+01  0.51100000000E-03 0. -1.
        -11    1    3    3    0    0 -0.12115281475E+02  0.13375694827E+02 -0.19285309036E+02  0.26412353212E+02  0.51100000000E-03 0.  1.
        -12    1    3    3    0    0  0.39088405954E+01 -0.21571217660E+02 -0.11948437981E+02  0.24967211224E+02  0.00000000000E+00 0.  1.
</event>
<event>
 7    1  0.7821043E-012  0.5930195E+02  0.7816164E-02  0.1266605E+00
        -11   -1    0    0    0    0  0.00000000000E+00  0.00000000000E+00  0.45593999997E+02  0.45594000000E+02  0.51100000000E-03 0. -1.
         11   -1    0    0    0    0 -0.00000000000E+00 -0.00000000000E+00 -0.45593999997E+02  0.45594000000E+02  0.51100000000E-03 0.  1.
    9900012    2    1    2    0    0  0.19127942497E+02 -0.25001368893E+02 -0.50767741562E+01  0.59301948715E+02  0.50000008549E+02 0.  0.
         12    1    1    2    0    0 -0.19127942497E+02  0.25001368893E+02  0.50767741562E+01  0.31886051285E+02  0.00000000000E+00 0. -1.
         11    1    3    3    0    0  0.17838976049E+02 -0.46580002783E+01 -0.16266285527E-01  0.18437090278E+02  0.51100000000E-03 0.  1.
        -11    1    3    3    0    0 -0.11501505904E+02 -0.16327015769E+02 -0.14317388585E+02  0.24573231333E+02  0.51100000000E-03 0. -1.
         12    1    3    3    0    0  0.12790472351E+02 -0.40163528462E+01  0.92568807147E+01  0.16291627104E+02  0.00000000000E+00 0. -1.
</event>
<event>
 7    1  0.7821043E-012  0.5930196E+02  0.7816164E-02  0.1266605E+00
        -11   -1    0    0    0    0  0.00000000000E+00  0.00000000000E+00  0.45593999997E+02  0.45594000000E+02  0.51100000000E-03 0.  1.
         11   -1    0    0    0    0 -0.00000000000E+00 -0.00000000000E+00 -0.45593999997E+02  0.45594000000E+02  0.51100000000E-03 0. -1.
    9900012    2    1    2    0    0  0.24720211988E+02 -0.11329619483E+02  0.16651439054E+02  0.59301959466E+02  0.50000028156E+02 0.  0.
         12    1    1    2    0    0 -0.24720211988E+02  0.11329619483E+02 -0.16651439054E+02  0.31886040534E+02  0.00000000000E+00 0. -1.
         11    1    3    3    0    0  0.91275554782E+01 -0.23519384340E+02 -0.42076622905E+01  0.25576906203E+02  0.51100000000E-03 0. -1.
        -11    1    3    3    0    0  0.20328717340E+01  0.44999550579E+01  0.16949030956E+02  0.17653662895E+02  0.51100000000E-03 0.  1.
         12    1    3    3    0    0  0.13559784776E+02  0.76898097991E+01  0.39100703889E+01  0.16071390368E+02  0.00000000000E+00 0. -1.
</event>
<event>
 7    1  0.7821043E-012  0.5930194E+02  0.7816164E-02  0.1266605E+00
        -11   -1    0    0    0    0  0.00000000000E+00  0.00000000000E+00  0.45593999997E+02  0.45594000000E+02  0.51100000000E-03 0.  1.
         11   -1    0    0    0    0 -0.00000000000E+00 -0.00000000000E+00 -0.45593999997E+02  0.45594000000E+02  0.51100000000E-03 0. -1.
    9900012    2    1    2    0    0  0.44522668727E+01 -0.30752111880E+02 -0.71558227632E+01  0.59301939334E+02  0.49999991439E+02 0.  0.
         12    1    1    2    0    0 -0.44522668727E+01  0.30752111880E+02  0.71558227632E+01  0.31886060666E+02  0.00000000000E+00 0. -1.
         11    1    3    3    0    0 -0.18078274419E+02 -0.25653824523E+02 -0.41054146132E+00  0.31386482173E+02  0.51100000000E-03 0. -1.
        -11    1    3    3    0    0  0.17858119768E+02 -0.77353852372E+01 -0.97488613004E+01  0.21766692981E+02  0.51100000000E-03 0.  1.
         12    1    3    3    0    0  0.46724215240E+01  0.26370978805E+01  0.30035799985E+01  0.61487641796E+01  0.00000000000E+00 0. -1.
</event>
<event>
 7    1  0.7821043E-012  0.5930194E+02  0.7816164E-02  0.1266605E+00
        -11   -1    0    0    0    0  0.00000000000E+00  0.00000000000E+00  0.45593999997E+02  0.45594000000E+02  0.51100000000E-03 0.  1.
         11   -1    0    0    0    0 -0.00000000000E+00 -0.00000000000E+00 -0.45593999997E+02  0.45594000000E+02  0.51100000000E-03 0. -1.
    9900012    2    1    2    0    0 -0.12346229132E+01  0.14212174470E+02  0.28516851413E+02  0.59301937035E+02  0.49999987247E+02 0.  0.
         12    1    1    2    0    0  0.12346229132E+01 -0.14212174470E+02 -0.28516851413E+02  0.31886062965E+02  0.00000000000E+00 0. -1.
         11    1    3    3    0    0  0.10968086611E+02  0.23376458181E+02  0.43442550123E+01  0.26184542632E+02  0.51100000000E-03 0. -1.
        -11    1    3    3    0    0  0.15687746485E+01 -0.67876410467E+01  0.14603713512E+02  0.16180283480E+02  0.51100000000E-03 0.  1.
        -12    1    3    3    0    0 -0.13771484173E+02 -0.23766426644E+01  0.95688828888E+01  0.16937110923E+02  0.00000000000E+00 0.  1.
</event>
<event>
 7    1  0.7821043E-012  0.5930190E+02  0.7816164E-02  0.1266605E+00
        -11   -1    0    0    0    0  0.00000000000E+00  0.00000000000E+00  0.45593999997E+02  0.45594000000E+02  0.51100000000E-03 0.  1.
         11   -1    0    0    0    0 -0.00000000000E+00 -0.00000000000E+00 -0.45593999997E+02  0.45594000000E+02  0.51100000000E-03 0. -1.
    9900012    2    1    2    0    0 -0.22957970229E+00  0.21025169165E+02  0.23971085964E+02  0.59301899462E+02  0.49999918723E+02 0.  0.
         12    1    1    2    0    0  0.22957970229E+00 -0.21025169165E+02 -0.23971085964E+02  0.31886100538E+02  0.00000000000E+00 0. -1.
         11    1    3    3    0    0 -0.63492690665E+01  0.24528803025E+01 -0.83760122137E+01  0.10792933814E+02  0.51100000000E-03 0. -1.
        -11    1    3    3    0    0  0.13128610651E+02 -0.68726105038E+00  0.44229835468E+01  0.13870671545E+02  0.51100000000E-03 0.  1.
         12    1    3    3    0    0 -0.70089212871E+01  0.19259549913E+02  0.27924114631E+02  0.34638294103E+02  0.00000000000E+00 0. -1.
</event>
<event>
 7    1  0.7821043E-012  0.5930194E+02  0.7816164E-02  0.1266605E+00
        -11   -1    0    0    0    0  0.00000000000E+00  0.00000000000E+00  0.45593999997E+02  0.45594000000E+02  0.51100000000E-03 0. -1.
         11   -1    0    0    0    0 -0.00000000000E+00 -0.00000000000E+00 -0.45593999997E+02  0.45594000000E+02  0.51100000000E-03 0.  1.
    9900012    2    1    2    0    0  0.23050947471E+01 -0.19330155652E+02 -0.25253766943E+02  0.59301935267E+02  0.49999984023E+02 0.  0.
         12    1    1    2    0    0 -0.23050947471E+01  0.19330155652E+02  0.25253766943E+02  0.31886064733E+02  0.00000000000E+00 0. -1.
         11    1    3    3    0    0 -0.13120764820E+02  0.58807316472E+01 -0.48626847180E+01  0.15178378605E+02  0.51100000000E-03 0. -1.
        -11    1    3    3    0    0  0.56968245687E+01 -0.21684909313E+02 -0.13612149103E+01  0.22462012562E+02  0.51100000000E-03 0.  1.
         12    1    3    3    0    0  0.97290349981E+01 -0.35259779868E+01 -0.19029867315E+02  0.21661544099E+02  0.00000000000E+00 0. -1.
</event>
<event>
 7    1  0.7821043E-012  0.5930194E+02  0.7816164E-02  0.1266605E+00
        -11   -1    0    0    0    0  0.00000000000E+00  0.00000000000E+00  0.45593999997E+02  0.45594000000E+02  0.51100000000E-03 0.  1.
         11   -1    0    0    0    0 -0.00000000000E+00 -0.00000000000E+00 -0.45593999997E+02  0.45594000000E+02  0.51100000000E-03 0. -1.
    9900012    2    1    2    0    0  0.11861735276E+01  0.23738651821E+01  0.31775444571E+02  0.59301935313E+02  0.49999984106E+02 0.  0.
         12    1    1    2    0    0 -0.11861735276E+01 -0.23738651821E+01 -0.31775444571E+02  0.31886064687E+02  0.00000000000E+00 0. -1.
         11    1    3    3    0    0 -0.15633960641E+02  0.45152241773E+00  0.63912028388E+01  0.16895918791E+02  0.51100000000E-03 0. -1.
        -11    1    3    3    0    0  0.18789230453E+01  0.94347089634E+00  0.27237494257E+02  0.27318520875E+02  0.51100000000E-03 0.  1.
        -12    1    3    3    0    0  0.14941211123E+02  0.97887186803E+00 -0.18532525250E+01  0.15087495646E+02  0.00000000000E+00 0.  1.
</event>
<event>
 7    1  0.7821043E-012  0.5930220E+02  0.7816164E-02  0.1266604E+00
        -11   -1    0    0    0    0  0.00000000000E+00  0.00000000000E+00  0.45593999997E+02  0.45594000000E+02  0.51100000000E-03 0.  1.
         11   -1    0    0    0    0 -0.00000000000E+00 -0.00000000000E+00 -0.45593999997E+02  0.45594000000E+02  0.51100000000E-03 0. -1.
    9900012    2    1    2    0    0 -0.15980760568E+01 -0.15167555925E+02  0.28001709758E+02  0.59302198313E+02  0.50000463754E+02 0.  0.
         12    1    1    2    0    0  0.15980760568E+01  0.15167555925E+02 -0.28001709758E+02  0.31885801687E+02  0.00000000000E+00 0. -1.
         11    1    3    3    0    0 -0.21975573003E+02 -0.55750952963E+01  0.29479453251E+01  0.22862586867E+02  0.51100000000E-03 0. -1.
        -11    1    3    3    0    0  0.11052744196E+02 -0.12506790854E+02  0.15766125827E+02  0.22959827865E+02  0.51100000000E-03 0.  1.
        -12    1    3    3    0    0  0.93247527500E+01  0.29143302259E+01  0.92876386066E+01  0.13479783581E+02  0.00000000000E+00 0.  1.
</event>
<event>
 7    1  0.7821043E-012  0.5930192E+02  0.7816164E-02  0.1266605E+00
        -11   -1    0    0    0    0  0.00000000000E+00  0.00000000000E+00  0.45593999997E+02  0.45594000000E+02  0.51100000000E-03 0. -1.
         11   -1    0    0    0    0 -0.00000000000E+00 -0.00000000000E+00 -0.45593999997E+02  0.45594000000E+02  0.51100000000E-03 0.  1.
    9900012    2    1    2    0    0  0.12365709898E+02 -0.16198227920E+02 -0.24524039322E+02  0.59301923514E+02  0.49999962588E+02 0.  0.
         12    1    1    2    0    0 -0.12365709898E+02  0.16198227920E+02  0.24524039322E+02  0.31886076486E+02  0.00000000000E+00 0. -1.
         11    1    3    3    0    0 -0.58400052543E+01  0.29054953963E+01 -0.18462830981E+02  0.19581207648E+02  0.51100000000E-03 0. -1.
        -11    1    3    3    0    0  0.23151210667E+02 -0.57980891274E+01 -0.84663268575E+01  0.25323409794E+02  0.51100000000E-03 0.  1.
         12    1    3    3    0    0 -0.49454955151E+01 -0.13305634189E+02  0.24051185168E+01  0.14397306072E+02  0.00000000000E+00 0. -1.
</event>
<event>
 7    1  0.7910719E-012  0.5930194E+02  0.7816164E-02  0.1266605E+00
        -11   -1    0    0    0    0  0.00000000000E+00  0.00000000000E+00  0.45593999997E+02  0.45594000000E+02  0.51100000000E-03 0. -1.
         11   -1    0    0    0    0 -0.00000000000E+00 -0.00000000000E+00 -0.45593999997E+02  0.45594000000E+02  0.51100000000E-03 0.  1.
    9900012    2    1    2    0    0 -0.31377487391E+02  0.56659718252E+01  0.26604846744E+00  0.59301941393E+02  0.49999995195E+02 0.  0.
         12    1    1    2    0    0  0.31377487391E+02 -0.56659718252E+01 -0.26604846744E+00  0.31886058607E+02  0.00000000000E+00 0. -1.
         11    1    3    3    0    0 -0.17850096062E+01  0.29357237203E+01 -0.17679749367E+02  0.18010504463E+02  0.51100000000E-03 0. -1.
        -11    1    3    3    0    0 -0.24223201730E+02  0.55883624775E+00  0.19832817455E+01  0.24310680919E+02  0.51100000000E-03 0.  1.
         12    1    3    3    0    0 -0.53692760553E+01  0.21714118572E+01  0.15962516089E+02  0.16980756011E+02  0.00000000000E+00 0. -1.
</event>
<event>
 7    1  0.7821043E-012  0.5930198E+02  0.7816164E-02  0.1266605E+00
        -11   -1    0    0    0    0  0.00000000000E+00  0.00000000000E+00  0.45593999997E+02  0.45594000000E+02  0.51100000000E-03 0. -1.
         11   -1    0    0    0    0 -0.00000000000E+00 -0.00000000000E+00 -0.45593999997E+02  0.45594000000E+02  0.51100000000E-03 0.  1.
    9900012    2    1    2    0    0  0.24487270930E+02  0.32184107313E+00 -0.20420297510E+02  0.59301975324E+02  0.50000057076E+02 0.  0.
         12    1    1    2    0    0 -0.24487270930E+02 -0.32184107313E+00  0.20420297510E+02  0.31886024676E+02  0.00000000000E+00 0. -1.
         11    1    3    3    0    0 -0.33166680742E+01  0.92107400570E+01 -0.76211788088E+01  0.12406465500E+02  0.51100000000E-03 0. -1.
        -11    1    3    3    0    0  0.14281739080E+02 -0.16160296904E+02  0.62266042205E+01  0.22447580438E+02  0.51100000000E-03 0.  1.
         12    1    3    3    0    0  0.13522199924E+02  0.72713979200E+01 -0.19025722922E+02  0.24447929385E+02  0.00000000000E+00 0. -1.
</event>
<event>
 7    1  0.7821043E-012  0.5930209E+02  0.7816164E-02  0.1266604E+00
        -11   -1    0    0    0    0  0.00000000000E+00  0.00000000000E+00  0.45593999997E+02  0.45594000000E+02  0.51100000000E-03 0.  1.
         11   -1    0    0    0    0 -0.00000000000E+00 -0.00000000000E+00 -0.45593999997E+02  0.45594000000E+02  0.51100000000E-03 0. -1.
    9900012    2    1    2    0    0 -0.23280308189E+02 -0.20861791860E+02  0.62868443309E+01  0.59302085858E+02  0.50000258664E+02 0.  0.
         12    1    1    2    0    0  0.23280308189E+02  0.20861791860E+02 -0.62868443309E+01  0.31885914142E+02  0.00000000000E+00 0. -1.
         11    1    3    3    0    0 -0.32388640261E+02 -0.12812130624E+02 -0.30804462145E+01  0.34966610620E+02  0.51100000000E-03 0. -1.
        -11    1    3    3    0    0 -0.11236389288E+01  0.53996733339E+01  0.16437166191E+01  0.57550709066E+01  0.51100000000E-03 0.  1.
         12    1    3    3    0    0  0.10231971001E+02 -0.13449334570E+02  0.77235739262E+01  0.18580404332E+02  0.00000000000E+00 0. -1.
</event>
<event>
 7    1  0.7821043E-012  0.5930196E+02  0.7816164E-02  0.1266605E+00
        -11   -1    0    0    0    0  0.00000000000E+00  0.00000000000E+00  0.45593999997E+02  0.45594000000E+02  0.51100000000E-03 0.  1.
         11   -1    0    0    0    0 -0.00000000000E+00 -0.00000000000E+00 -0.45593999997E+02  0.45594000000E+02  0.51100000000E-03 0. -1.
    9900012    2    1    2    0    0 -0.87048465729E+01  0.25450696483E+02  0.17123289211E+02  0.59301963264E+02  0.50000035082E+02 0.  0.
         12    1    1    2    0    0  0.87048465729E+01 -0.25450696483E+02 -0.17123289211E+02  0.31886036736E+02  0.00000000000E+00 0. -1.
         11    1    3    3    0    0  0.72514974165E+01  0.94396945301E+01 -0.24794551095E+01  0.12158936858E+02  0.51100000000E-03 0. -1.
        -11    1    3    3    0    0 -0.10542606156E+02 -0.88672680243E+01 -0.17854207187E+01  0.13891101978E+02  0.51100000000E-03 0.  1.
        -12    1    3    3    0    0 -0.54137378336E+01  0.24878269977E+02  0.21388165040E+02  0.33251924428E+02  0.00000000000E+00 0.  1.
</event>
<event>
 7    1  0.7821043E-012  0.5930198E+02  0.7816164E-02  0.1266605E+00
        -11   -1    0    0    0    0  0.00000000000E+00  0.00000000000E+00  0.45593999997E+02  0.45594000000E+02  0.51100000000E-03 0. -1.
         11   -1    0    0    0    0 -0.00000000000E+00 -0.00000000000E+00 -0.45593999997E+02  0.45594000000E+02  0.51100000000E-03 0.  1.
    9900012    2    1    2    0    0  0.11373786459E+02 -0.89353606536E+01 -0.28416800277E+02  0.59301980706E+02  0.50000066893E+02 0.  0.
         12    1    1    2    0    0 -0.11373786459E+02  0.89353606536E+01  0.28416800277E+02  0.31886019294E+02  0.00000000000E+00 0. -1.
         11    1    3    3    0    0 -0.11992688960E+02 -0.28462115226E+01  0.54931858772E+01  0.13494465527E+02  0.51100000000E-03 0. -1.
        -11    1    3    3    0    0  0.82228268064E+01  0.95417249169E-01 -0.26688251185E+02  0.27926452276E+02  0.51100000000E-03 0.  1.
         12    1    3    3    0    0  0.15143648612E+02 -0.61845663802E+01 -0.72217349686E+01  0.17881062903E+02  0.00000000000E+00 0. -1.
</event>
<event>
 7    1  0.7821043E-012  0.5930196E+02  0.7816164E-02  0.1266605E+00
        -11   -1    0    0    0    0  0.00000000000E+00  0.00000000000E+00  0.45593999997E+02  0.45594000000E+02  0.51100000000E-03 0. -1.
         11   -1    0    0    0    0 -0.00000000000E+00 -0.00000000000E+00 -0.45593999997E+02  0.45594000000E+02  0.51100000000E-03 0.  1.
    9900012    2    1    2    0    0 -0.35030964619E+00 -0.66434349712E+01 -0.31184313450E+02  0.59301963081E+02  0.50000034748E+02 0.  0.
         12    1    1    2    0    0  0.35030964619E+00  0.66434349712E+01  0.31184313450E+02  0.31886036919E+02  0.00000000000E+00 0. -1.
         11    1    3    3    0    0 -0.82539144778E+01 -0.15660900555E+02 -0.38073158557E+01  0.18107638297E+02  0.51100000000E-03 0. -1.
        -11    1    3    3    0    0 -0.82986265414E+00  0.17108830351E+02 -0.91394129809E+01  0.19414675323E+02  0.51100000000E-03 0.  1.
         12    1    3    3    0    0  0.87334674858E+01 -0.80913647668E+01 -0.18237584614E+02  0.21779649461E+02  0.00000000000E+00 0. -1.
</event>
<event>
 7    1  0.7821043E-012  0.5930195E+02  0.7816164E-02  0.1266605E+00
        -11   -1    0    0    0    0  0.00000000000E+00  0.00000000000E+00  0.45593999997E+02  0.45594000000E+02  0.51100000000E-03 0. -1.
         11   -1    0    0    0    0 -0.00000000000E+00 -0.00000000000E+00 -0.45593999997E+02  0.45594000000E+02  0.51100000000E-03 0.  1.
    9900012    2    1    2    0    0 -0.53534448554E+01  0.37214506708E+01 -0.31212366485E+02  0.59301946802E+02  0.50000005060E+02 0.  0.
         12    1    1    2    0    0  0.53534448554E+01 -0.37214506708E+01  0.31212366485E+02  0.31886053198E+02  0.00000000000E+00 0. -1.
         11    1    3    3    0    0  0.25589325944E+00 -0.12394426562E+02  0.67482107461E+01  0.14114731301E+02  0.51100000000E-03 0. -1.
        -11    1    3    3    0    0 -0.82507486000E+01  0.23953343785E+01 -0.23758278534E+02  0.25263971944E+02  0.51100000000E-03 0.  1.
         12    1    3    3    0    0  0.26414104851E+01  0.13720542854E+02 -0.14202298697E+02  0.19923243557E+02  0.00000000000E+00 0. -1.
</event>
<event>
 7    1  0.7821043E-012  0.5930195E+02  0.7816164E-02  0.1266605E+00
        -11   -1    0    0    0    0  0.00000000000E+00  0.00000000000E+00  0.45593999997E+02  0.45594000000E+02  0.51100000000E-03 0.  1.
         11   -1    0    0    0    0 -0.00000000000E+00 -0.00000000000E+00 -0.45593999997E+02  0.45594000000E+02  0.51100000000E-03 0. -1.
    9900012    2    1    2    0    0 -0.21159226382E+02 -0.11485530645E+02  0.20906701033E+02  0.59301946257E+02  0.50000004065E+02 0.  0.
         12    1    1    2    0    0  0.21159226382E+02  0.11485530645E+02 -0.20906701033E+02  0.31886053743E+02  0.00000000000E+00 0. -1.
         11    1    3    3    0    0 -0.16573018189E+02 -0.19665728582E+02  0.15265706021E+01  0.25763078826E+02  0.51100000000E-03 0. -1.
        -11    1    3    3    0    0 -0.91249567739E+00  0.11537839768E+02 -0.18609397365E+01  0.11722520712E+02  0.51100000000E-03 0.  1.
        -12    1    3    3    0    0 -0.36737125159E+01 -0.33576418311E+01  0.21241070167E+02  0.21816346719E+02  0.00000000000E+00 0.  1.
</event>
<event>
 7    1  0.7821043E-012  0.5930194E+02  0.7816164E-02  0.1266605E+00
        -11   -1    0    0    0    0  0.00000000000E+00  0.00000000000E+00  0.45593999997E+02  0.45594000000E+02  0.51100000000E-03 0.  1.
         11   -1    0    0    0    0 -0.00000000000E+00 -0.00000000000E+00 -0.45593999997E+02  0.45594000000E+02  0.51100000000E-03 0. -1.
    9900012    2    1    2    0    0  0.31866169133E+02  0.11241582821E+01  0.63950482036E-01  0.59301944165E+02  0.50000000251E+02 0.  0.
         12    1    1    2    0    0 -0.31866169133E+02 -0.11241582821E+01 -0.63950482036E-01  0.31886055835E+02  0.00000000000E+00 0. -1.
         11    1    3    3    0    0  0.17334700506E+02 -0.15316940752E+02  0.54616358674E+01  0.23768255768E+02  0.51100000000E-03 0. -1.
        -11    1    3    3    0    0  0.19518776578E+02  0.97540433957E+01  0.48168066085E+01  0.22345595267E+02  0.51100000000E-03 0.  1.
         12    1    3    3    0    0 -0.49873079513E+01  0.66870556388E+01 -0.10214491994E+02  0.13188093130E+02  0.00000000000E+00 0. -1.
</event>
<event>
 7    1  0.7821043E-012  0.5930203E+02  0.7816164E-02  0.1266604E+00
        -11   -1    0    0    0    0  0.00000000000E+00  0.00000000000E+00  0.45593999997E+02  0.45594000000E+02  0.51100000000E-03 0. -1.
         11   -1    0    0    0    0 -0.00000000000E+00 -0.00000000000E+00 -0.45593999997E+02  0.45594000000E+02  0.51100000000E-03 0.  1.
    9900012    2    1    2    0    0 -0.13922461716E+02  0.20508830260E+02 -0.20056614299E+02  0.59302033871E+02  0.50000163852E+02 0.  0.
         12    1    1    2    0    0  0.13922461716E+02 -0.20508830260E+02  0.20056614299E+02  0.31885966129E+02  0.00000000000E+00 0. -1.
         11    1    3    3    0    0 -0.30703051789E+02  0.53962915693E+01 -0.19327152947E+02  0.36678824861E+02  0.51100000000E-03 0. -1.
        -11    1    3    3    0    0  0.68071247542E+01  0.68633625158E+01 -0.16454013426E+00  0.96679763219E+01  0.51100000000E-03 0.  1.
         12    1    3    3    0    0  0.99734653185E+01  0.82491761748E+01 -0.56492121721E+00  0.12955232688E+02  0.00000000000E+00 0. -1.
</event>
<event>
 7    1  0.7821043E-012  0.5930194E+02  0.7816164E-02  0.1266605E+00
        -11   -1    0    0    0    0  0.00000000000E+00  0.00000000000E+00  0.45593999997E+02  0.45594000000E+02  0.51100000000E-03 0.  1.
         11   -1    0    0    0    0 -0.00000000000E+00 -0.00000000000E+00 -0.45593999997E+02  0.45594000000E+02  0.51100000000E-03 0. -1.
    9900012    2    1    2    0    0 -0.68396223034E+01  0.10356955857E+02  0.29371315081E+02  0.59301935372E+02  0.49999984214E+02 0.  0.
         12    1    1    2    0    0  0.68396223034E+01 -0.10356955857E+02 -0.29371315081E+02  0.31886064628E+02  0.00000000000E+00 0. -1.
         11    1    3    3    0    0  0.96456327278E+00 -0.19364180982E+02  0.69029131284E+01  0.20580381370E+02  0.51100000000E-03 0. -1.
        -11    1    3    3    0    0 -0.65344771881E+01  0.17936192079E+02  0.17402436156E+02  0.25831205214E+02  0.51100000000E-03 0.  1.
         12    1    3    3    0    0 -0.12697083881E+01  0.11784944761E+02  0.50659657968E+01  0.12890348787E+02  0.00000000000E+00 0. -1.
</event>
<event>
 7    1  0.7821043E-012  0.5930193E+02  0.7816164E-02  0.1266605E+00
        -11   -1    0    0    0    0  0.00000000000E+00  0.00000000000E+00  0.45593999997E+02  0.45594000000E+02  0.51100000000E-03 0.  1.
         11   -1    0    0    0    0 -0.00000000000E+00 -0.00000000000E+00 -0.45593999997E+02  0.45594000000E+02  0.51100000000E-03 0. -1.
    9900012    2    1    2    0    0 -0.68113025884E+00 -0.28391067076E+02  0.14498442667E+02  0.59301929877E+02  0.49999974192E+02 0.  0.
         12    1    1    2    0    0  0.68113025884E+00  0.28391067076E+02 -0.14498442667E+02  0.31886070123E+02  0.00000000000E+00 0. -1.
         11    1    3    3    0    0  0.16099798981E+02  0.70009354747E+01  0.16141284074E+01  0.17630145646E+02  0.51100000000E-03 0. -1.
        -11    1    3    3    0    0 -0.94091932532E+01 -0.16495550446E+02  0.34485547806E+01  0.19301000817E+02  0.51100000000E-03 0.  1.
         12    1    3    3    0    0 -0.73717359863E+01 -0.18896452105E+02  0.94357594793E+01  0.22370783414E+02  0.00000000000E+00 0. -1.
</event>
<event>
 7    1  0.7821043E-012  0.5930195E+02  0.7816164E-02  0.1266605E+00
        -11   -1    0    0    0    0  0.00000000000E+00  0.00000000000E+00  0.45593999997E+02  0.45594000000E+02  0.51100000000E-03 0.  1.
         11   -1    0    0    0    0 -0.00000000000E+00 -0.00000000000E+00 -0.45593999997E+02  0.45594000000E+02  0.51100000000E-03 0. -1.
    9900012    2    1    2    0    0  0.26577869327E+01 -0.45016844193E+01  0.31454584457E+02  0.59301954818E+02  0.50000019680E+02 0.  0.
         12    1    1    2    0    0 -0.26577869327E+01  0.45016844193E+01 -0.31454584457E+02  0.31886045182E+02  0.00000000000E+00 0. -1.
         11    1    3    3    0    0 -0.98726865578E+01 -0.26640194489E+01 -0.48953913721E+01  0.11337186443E+02  0.51100000000E-03 0. -1.
        -11    1    3    3    0    0  0.48761095370E+01 -0.15160391025E+02  0.18144471357E+02  0.24141991246E+02  0.51100000000E-03 0.  1.
         12    1    3    3    0    0  0.76543639535E+01  0.13322726055E+02  0.18205504472E+02  0.23822777129E+02  0.00000000000E+00 0. -1.
</event>
<event>
 7    1  0.7821043E-012  0.5930190E+02  0.7816164E-02  0.1266605E+00
        -11   -1    0    0    0    0  0.00000000000E+00  0.00000000000E+00  0.45593999997E+02  0.45594000000E+02  0.51100000000E-03 0.  1.
         11   -1    0    0    0    0 -0.00000000000E+00 -0.00000000000E+00 -0.45593999997E+02  0.45594000000E+02  0.51100000000E-03 0. -1.
    9900012    2    1    2    0    0 -0.20283138885E+02  0.12574538697E+02  0.21147072869E+02  0.59301898993E+02  0.49999917868E+02 0.  0.
         12    1    1    2    0    0  0.20283138885E+02 -0.12574538697E+02 -0.21147072869E+02  0.31886101007E+02  0.00000000000E+00 0. -1.
         11    1    3    3    0    0 -0.10927895182E+02  0.16356568779E+02  0.11004158800E+02  0.22539914518E+02  0.51100000000E-03 0. -1.
        -11    1    3    3    0    0  0.61591005525E+01 -0.14915599153E+02  0.32574561587E+01  0.16462704474E+02  0.51100000000E-03 0.  1.
        -12    1    3    3    0    0 -0.15514344255E+02  0.11133569071E+02  0.68854579110E+01  0.20299280002E+02  0.00000000000E+00 0.  1.
</event>
<event>
 7    1  0.7821043E-012  0.5930189E+02  0.7816164E-02  0.1266605E+00
        -11   -1    0    0    0    0  0.00000000000E+00  0.00000000000E+00  0.45593999997E+02  0.45594000000E+02  0.51100000000E-03 0. -1.
         11   -1    0    0    0    0 -0.00000000000E+00 -0.00000000000E+00 -0.45593999997E+02  0.45594000000E+02  0.51100000000E-03 0.  1.
    9900012    2    1    2    0    0 -0.29114512222E+02  0.28325657388E+01  0.12690376846E+02  0.59301891503E+02  0.49999904207E+02 0.  0.
         12    1    1    2    0    0  0.29114512222E+02 -0.28325657388E+01 -0.12690376846E+02  0.31886108497E+02  0.00000000000E+00 0. -1.
         11    1    3    3    0    0 -0.49197357643E+01 -0.10911426067E+01 -0.16639271844E+02  0.17385619343E+02  0.51100000000E-03 0. -1.
        -11    1    3    3    0    0 -0.11774346564E+02 -0.67122077060E+01  0.14380395934E+02  0.19760687153E+02  0.51100000000E-03 0.  1.
         12    1    3    3    0    0 -0.12420429894E+02  0.10635916051E+02  0.14949252757E+02  0.22155585007E+02  0.00000000000E+00 0. -1.
</event>
<event>
 7    1  0.7821043E-012  0.5930193E+02  0.7816164E-02  0.1266605E+00
        -11   -1    0    0    0    0  0.00000000000E+00  0.00000000000E+00  0.45593999997E+02  0.45594000000E+02  0.51100000000E-03 0. -1.
         11   -1    0    0    0    0 -0.00000000000E+00 -0.00000000000E+00 -0.45593999997E+02  0.45594000000E+02  0.51100000000E-03 0.  1.
    9900012    2    1    2    0    0  0.54983506151E+01 -0.25723417282E+02 -0.18022087350E+02  0.59301926416E+02  0.49999967880E+02 0.  0.
         12    1    1    2    0    0 -0.54983506151E+01  0.25723417282E+02  0.18022087350E+02  0.31886073584E+02  0.00000000000E+00 0. -1.
         11    1    3    3    0    0  0.58145352867E+01 -0.18826800096E+02 -0.47529700908E+00  0.19709975393E+02  0.51100000000E-03 0. -1.
        -11    1    3    3    0    0 -0.79053784959E+01 -0.79569143762E+01 -0.25919287925E+02  0.28242113631E+02  0.51100000000E-03 0.  1.
         12    1    3    3    0    0  0.75891938243E+01  0.10602971907E+01  0.83724975840E+01  0.11349837392E+02  0.00000000000E+00 0. -1.
</event>
<event>
 7    1  0.7821043E-012  0.5930194E+02  0.7816164E-02  0.1266605E+00
        -11   -1    0    0    0    0  0.00000000000E+00  0.00000000000E+00  0.45593999997E+02  0.45594000000E+02  0.51100000000E-03 0.  1.
         11   -1    0    0    0    0 -0.00000000000E+00 -0.00000000000E+00 -0.45593999997E+02  0.45594000000E+02  0.51100000000E-03 0. -1.
    9900012    2    1    2    0    0  0.19198278130E+02 -0.58098551973E+01  0.24786946453E+02  0.59301936978E+02  0.49999987143E+02 0.  0.
         12    1    1    2    0    0 -0.19198278130E+02  0.58098551973E+01 -0.24786946453E+02  0.31886063022E+02  0.00000000000E+00 0. -1.
         11    1    3    3    0    0  0.24874174641E+02 -0.66414618916E+01  0.24129282483E+02  0.35285348993E+02  0.51100000000E-03 0.  1.
        -11    1    3    3    0    0 -0.71095653149E+01 -0.55119687861E+01  0.94716542241E+01  0.13062922830E+02  0.51100000000E-03 0. -1.
        -12    1    3    3    0    0  0.14336688039E+01  0.63435754804E+01 -0.88139902548E+01  0.10953665155E+02  0.00000000000E+00 0.  1.
</event>
<event>
 7    1  0.7821043E-012  0.5930190E+02  0.7816164E-02  0.1266605E+00
        -11   -1    0    0    0    0  0.00000000000E+00  0.00000000000E+00  0.45593999997E+02  0.45594000000E+02  0.51100000000E-03 0.  1.
         11   -1    0    0    0    0 -0.00000000000E+00 -0.00000000000E+00 -0.45593999997E+02  0.45594000000E+02  0.51100000000E-03 0. -1.
    9900012    2    1    2    0    0 -0.12974890796E+02  0.18417856801E+02  0.22564526963E+02  0.59301904012E+02  0.49999927020E+02 0.  0.
         12    1    1    2    0    0  0.12974890796E+02 -0.18417856801E+02 -0.22564526963E+02  0.31886095988E+02  0.00000000000E+00 0. -1.
         11    1    3    3    0    0  0.73900148806E+01  0.32252062007E+01 -0.61016373108E+01  0.10111590038E+02  0.51100000000E-03 0. -1.
        -11    1    3    3    0    0 -0.26876770569E+02  0.58925563442E+01  0.25222316798E+02  0.37326241190E+02  0.51100000000E-03 0.  1.
        -12    1    3    3    0    0  0.65118648928E+01  0.93000942562E+01  0.34438474765E+01  0.11864072783E+02  0.00000000000E+00 0.  1.
</event>
<event>
 7    1  0.7821043E-012  0.5930195E+02  0.7816164E-02  0.1266605E+00
        -11   -1    0    0    0    0  0.00000000000E+00  0.00000000000E+00  0.45593999997E+02  0.45594000000E+02  0.51100000000E-03 0.  1.
         11   -1    0    0    0    0 -0.00000000000E+00 -0.00000000000E+00 -0.45593999997E+02  0.45594000000E+02  0.51100000000E-03 0. -1.
    9900012    2    1    2    0    0  0.16056019940E+01 -0.68659920128E+01  0.31096633538E+02  0.59301946285E+02  0.50000004117E+02 0.  0.
         12    1    1    2    0    0 -0.16056019940E+01  0.68659920128E+01 -0.31096633538E+02  0.31886053715E+02  0.00000000000E+00 0. -1.
         11    1    3    3    0    0 -0.17611003964E+02 -0.11582640113E+02  0.46558540948E+01  0.21586615997E+02  0.51100000000E-03 0. -1.
        -11    1    3    3    0    0  0.20153063526E+02  0.58340385037E+01  0.28377539054E+02  0.35291170252E+02  0.51100000000E-03 0.  1.
        -12    1    3    3    0    0 -0.93645756865E+00 -0.11173904030E+01 -0.19367596101E+01  0.24241600355E+01  0.00000000000E+00 0.  1.
</event>
<event>
 7    1  0.7821043E-012  0.5930197E+02  0.7816164E-02  0.1266605E+00
        -11   -1    0    0    0    0  0.00000000000E+00  0.00000000000E+00  0.45593999997E+02  0.45594000000E+02  0.51100000000E-03 0.  1.
         11   -1    0    0    0    0 -0.00000000000E+00 -0.00000000000E+00 -0.45593999997E+02  0.45594000000E+02  0.51100000000E-03 0. -1.
    9900012    2    1    2    0    0  0.16340459011E+02  0.21128937296E+02  0.17414839396E+02  0.59301965077E+02  0.50000038389E+02 0.  0.
         12    1    1    2    0    0 -0.16340459011E+02 -0.21128937296E+02 -0.17414839396E+02  0.31886034923E+02  0.00000000000E+00 0. -1.
         11    1    3    3    0    0  0.48677364822E+01 -0.63120903846E+01 -0.56163044335E+01  0.97509086364E+01  0.51100000000E-03 0. -1.
        -11    1    3    3    0    0  0.17477486612E+02  0.13309646359E+02  0.25867261747E+02  0.33937066093E+02  0.51100000000E-03 0.  1.
        -12    1    3    3    0    0 -0.60047640831E+01  0.14131381321E+02 -0.28361179177E+01  0.15613990347E+02  0.00000000000E+00 0.  1.
</event>
<event>
 7    1  0.7821043E-012  0.5930234E+02  0.7816164E-02  0.1266603E+00
        -11   -1    0    0    0    0  0.00000000000E+00  0.00000000000E+00  0.45593999997E+02  0.45594000000E+02  0.51100000000E-03 0.  1.
         11   -1    0    0    0    0 -0.00000000000E+00 -0.00000000000E+00 -0.45593999997E+02  0.45594000000E+02  0.51100000000E-03 0. -1.
    9900012    2    1    2    0    0 -0.74546941257E+01  0.47314137362E+01  0.30638810894E+02  0.59302337494E+02  0.50000717583E+02 0.  0.
         12    1    1    2    0    0  0.74546941257E+01 -0.47314137362E+01 -0.30638810894E+02  0.31885662506E+02  0.00000000000E+00 0. -1.
         11    1    3    3    0    0 -0.25134520792E+01  0.59463123401E+01 -0.56603555407E+01  0.85857845832E+01  0.51100000000E-03 0. -1.
        -11    1    3    3    0    0  0.31262160570E+01 -0.11718505185E+02  0.35424830965E+02  0.37443493958E+02  0.51100000000E-03 0.  1.
        -12    1    3    3    0    0 -0.80674581036E+01  0.10503606581E+02  0.87433546895E+00  0.13273058953E+02  0.00000000000E+00 0.  1.
</event>
<event>
 7    1  0.7821043E-012  0.5930188E+02  0.7816164E-02  0.1266605E+00
        -11   -1    0    0    0    0  0.00000000000E+00  0.00000000000E+00  0.45593999997E+02  0.45594000000E+02  0.51100000000E-03 0.  1.
         11   -1    0    0    0    0 -0.00000000000E+00 -0.00000000000E+00 -0.45593999997E+02  0.45594000000E+02  0.51100000000E-03 0. -1.
    9900012    2    1    2    0    0  0.28121040385E+02  0.98721666356E+01  0.11334561265E+02  0.59301876599E+02  0.49999877027E+02 0.  0.
         12    1    1    2    0    0 -0.28121040385E+02 -0.98721666356E+01 -0.11334561265E+02  0.31886123401E+02  0.00000000000E+00 0. -1.
         11    1    3    3    0    0  0.27191821400E+02  0.21258601014E+02 -0.39722377037E+01  0.34743372616E+02  0.51100000000E-03 0. -1.
        -11    1    3    3    0    0 -0.49439772617E+01  0.23893469580E+00  0.85649692462E+01  0.98923556044E+01  0.51100000000E-03 0.  1.
         12    1    3    3    0    0  0.58731962474E+01 -0.11625369074E+02  0.67418297229E+01  0.14666148379E+02  0.00000000000E+00 0. -1.
</event>
<event>
 7    1  0.7821043E-012  0.5930193E+02  0.7816164E-02  0.1266605E+00
        -11   -1    0    0    0    0  0.00000000000E+00  0.00000000000E+00  0.45593999997E+02  0.45594000000E+02  0.51100000000E-03 0.  1.
         11   -1    0    0    0    0 -0.00000000000E+00 -0.00000000000E+00 -0.45593999997E+02  0.45594000000E+02  0.51100000000E-03 0. -1.
    9900012    2    1    2    0    0  0.19149055681E+02  0.19209396745E+02  0.16764078589E+02  0.59301927998E+02  0.49999970766E+02 0.  0.
         12    1    1    2    0    0 -0.19149055681E+02 -0.19209396745E+02 -0.16764078589E+02  0.31886072002E+02  0.00000000000E+00 0. -1.
         11    1    3    3    0    0  0.85785171328E+01 -0.14692145203E+01 -0.16397031287E+02  0.18563732998E+02  0.51100000000E-03 0. -1.
        -11    1    3    3    0    0  0.10577221838E+02  0.17934113683E+02  0.28001226682E+02  0.34893821106E+02  0.51100000000E-03 0.  1.
         12    1    3    3    0    0 -0.66832893370E-02  0.27444975824E+01  0.51598831936E+01  0.58443738944E+01  0.00000000000E+00 0. -1.
</event>
<event>
 7    1  0.7821043E-012  0.5930191E+02  0.7816164E-02  0.1266605E+00
        -11   -1    0    0    0    0  0.00000000000E+00  0.00000000000E+00  0.45593999997E+02  0.45594000000E+02  0.51100000000E-03 0.  1.
         11   -1    0    0    0    0 -0.00000000000E+00 -0.00000000000E+00 -0.45593999997E+02  0.45594000000E+02  0.51100000000E-03 0. -1.
    9900012    2    1    2    0    0  0.22391881110E+02  0.19744056476E+02  0.11202603344E+02  0.59301914830E+02  0.49999946751E+02 0.  0.
         12    1    1    2    0    0 -0.22391881110E+02 -0.19744056476E+02 -0.11202603344E+02  0.31886085170E+02  0.00000000000E+00 0. -1.
         11    1    3    3    0    0 -0.54326913253E-02 -0.17643884191E+01 -0.99319890492E+01  0.10087492391E+02  0.51100000000E-03 0. -1.
        -11    1    3    3    0    0  0.61646283529E+01  0.23514991915E+02  0.22067132546E+02  0.32831628448E+02  0.51100000000E-03 0.  1.
        -12    1    3    3    0    0  0.16232685449E+02 -0.20065470203E+01 -0.93254015210E+00  0.16382793991E+02  0.00000000000E+00 0.  1.
</event>
<event>
 7    1  0.7821043E-012  0.5930195E+02  0.7816164E-02  0.1266605E+00
        -11   -1    0    0    0    0  0.00000000000E+00  0.00000000000E+00  0.45593999997E+02  0.45594000000E+02  0.51100000000E-03 0. -1.
         11   -1    0    0    0    0 -0.00000000000E+00 -0.00000000000E+00 -0.45593999997E+02  0.45594000000E+02  0.51100000000E-03 0.  1.
    9900012    2    1    2    0    0  0.94782614096E+00  0.16213994305E+02 -0.27439539941E+02  0.59301947596E+02  0.50000006508E+02 0.  0.
         12    1    1    2    0    0 -0.94782614096E+00 -0.16213994305E+02  0.27439539941E+02  0.31886052404E+02  0.00000000000E+00 0. -1.
         11    1    3    3    0    0  0.12210385380E+02  0.20535541260E+02 -0.70991673030E+01  0.24923886989E+02  0.51100000000E-03 0. -1.
        -11    1    3    3    0    0 -0.73676548159E+01  0.65018197322E+01 -0.20652496252E+02  0.22870977220E+02  0.51100000000E-03 0.  1.
         12    1    3    3    0    0 -0.38949044232E+01 -0.10823366687E+02  0.31212361393E+00  0.11507083386E+02  0.00000000000E+00 0. -1.
</event>
<event>
 7    1  0.7821043E-012  0.5930200E+02  0.7816164E-02  0.1266605E+00
        -11   -1    0    0    0    0  0.00000000000E+00  0.00000000000E+00  0.45593999997E+02  0.45594000000E+02  0.51100000000E-03 0.  1.
         11   -1    0    0    0    0 -0.00000000000E+00 -0.00000000000E+00 -0.45593999997E+02  0.45594000000E+02  0.51100000000E-03 0. -1.
    9900012    2    1    2    0    0  0.16638035629E+02 -0.22448351697E+02  0.15361135234E+02  0.59301996814E+02  0.50000096270E+02 0.  0.
         12    1    1    2    0    0 -0.16638035629E+02  0.22448351697E+02 -0.15361135234E+02  0.31886003186E+02  0.00000000000E+00 0. -1.
         11    1    3    3    0    0  0.26838480972E+02 -0.24542334490E+02  0.83050278387E+01  0.37304205269E+02  0.51100000000E-03 0.  1.
        -11    1    3    3    0    0 -0.73004165982E+01  0.80798117937E+01  0.99439588367E+01  0.14746584646E+02  0.51100000000E-03 0. -1.
         12    1    3    3    0    0 -0.29000287450E+01 -0.59858290000E+01 -0.28878514412E+01  0.72512068986E+01  0.00000000000E+00 0. -1.
</event>
<event>
 7    1  0.7821043E-012  0.5930194E+02  0.7816164E-02  0.1266605E+00
        -11   -1    0    0    0    0  0.00000000000E+00  0.00000000000E+00  0.45593999997E+02  0.45594000000E+02  0.51100000000E-03 0.  1.
         11   -1    0    0    0    0 -0.00000000000E+00 -0.00000000000E+00 -0.45593999997E+02  0.45594000000E+02  0.51100000000E-03 0. -1.
    9900012    2    1    2    0    0 -0.88887478568E+01 -0.24292224872E+02  0.18643993894E+02  0.59301944490E+02  0.50000000843E+02 0.  0.
         12    1    1    2    0    0  0.88887478568E+01  0.24292224872E+02 -0.18643993894E+02  0.31886055510E+02  0.00000000000E+00 0. -1.
         11    1    3    3    0    0 -0.85021195358E+01 -0.60244320549E+01 -0.15834531006E+02  0.18955531926E+02  0.51100000000E-03 0. -1.
        -11    1    3    3    0    0 -0.34184556713E+01 -0.51132200737E+01  0.50096196701E+01  0.79326633736E+01  0.51100000000E-03 0.  1.
         12    1    3    3    0    0  0.30318273503E+01 -0.13154572743E+02  0.29468905229E+02  0.32413749190E+02  0.00000000000E+00 0. -1.
</event>
<event>
 7    1  0.7821043E-012  0.5930194E+02  0.7816164E-02  0.1266605E+00
        -11   -1    0    0    0    0  0.00000000000E+00  0.00000000000E+00  0.45593999997E+02  0.45594000000E+02  0.51100000000E-03 0.  1.
         11   -1    0    0    0    0 -0.00000000000E+00 -0.00000000000E+00 -0.45593999997E+02  0.45594000000E+02  0.51100000000E-03 0. -1.
    9900012    2    1    2    0    0 -0.21440216174E+02 -0.44285333331E+01  0.23182457561E+02  0.59301935400E+02  0.49999984266E+02 0.  0.
         12    1    1    2    0    0  0.21440216174E+02  0.44285333331E+01 -0.23182457561E+02  0.31886064600E+02  0.00000000000E+00 0. -1.
         11    1    3    3    0    0 -0.18446370482E+02  0.82772243118E+01 -0.60710264850E+01  0.21110148960E+02  0.51100000000E-03 0. -1.
        -11    1    3    3    0    0  0.51336010585E+01 -0.28262194568E+01  0.23401101104E+02  0.24123700160E+02  0.51100000000E-03 0.  1.
         12    1    3    3    0    0 -0.81274467504E+01 -0.98795381881E+01  0.58523829418E+01  0.14068086280E+02  0.00000000000E+00 0. -1.
</event>
<event>
 7    1  0.7821043E-012  0.5930191E+02  0.7816164E-02  0.1266605E+00
        -11   -1    0    0    0    0  0.00000000000E+00  0.00000000000E+00  0.45593999997E+02  0.45594000000E+02  0.51100000000E-03 0.  1.
         11   -1    0    0    0    0 -0.00000000000E+00 -0.00000000000E+00 -0.45593999997E+02  0.45594000000E+02  0.51100000000E-03 0. -1.
    9900012    2    1    2    0    0 -0.22161316956E+02  0.18800595782E+02  0.13120062943E+02  0.59301914906E+02  0.49999946889E+02 0.  0.
         12    1    1    2    0    0  0.22161316956E+02 -0.18800595782E+02 -0.13120062943E+02  0.31886085094E+02  0.00000000000E+00 0. -1.
         11    1    3    3    0    0 -0.51257385718E+00 -0.12201370202E+02  0.35911071115E+01  0.12729187614E+02  0.51100000000E-03 0. -1.
        -11    1    3    3    0    0 -0.23802938784E+02  0.12602985580E+02  0.73632458019E+01  0.27921900531E+02  0.51100000000E-03 0.  1.
         12    1    3    3    0    0  0.21541956852E+01  0.18398980404E+02  0.21657100293E+01  0.18650826761E+02  0.00000000000E+00 0. -1.
</event>
<event>
 7    1  0.7821043E-012  0.5930194E+02  0.7816164E-02  0.1266605E+00
        -11   -1    0    0    0    0  0.00000000000E+00  0.00000000000E+00  0.45593999997E+02  0.45594000000E+02  0.51100000000E-03 0. -1.
         11   -1    0    0    0    0 -0.00000000000E+00 -0.00000000000E+00 -0.45593999997E+02  0.45594000000E+02  0.51100000000E-03 0.  1.
    9900012    2    1    2    0    0 -0.19891805329E+02 -0.23234110955E+02 -0.90118081197E+01  0.59301944793E+02  0.50000001395E+02 0.  0.
         12    1    1    2    0    0  0.19891805329E+02  0.23234110955E+02  0.90118081197E+01  0.31886055207E+02  0.00000000000E+00 0. -1.
         11    1    3    3    0    0 -0.13729192952E+02 -0.42565432734E+01  0.66972017637E+01  0.15857534848E+02  0.51100000000E-03 0. -1.
        -11    1    3    3    0    0  0.10816819385E+02 -0.14975446817E+02  0.20059650190E+01  0.18582020474E+02  0.51100000000E-03 0.  1.
        -12    1    3    3    0    0 -0.16979431762E+02 -0.40021208642E+01 -0.17714974902E+02  0.24862389470E+02  0.00000000000E+00 0.  1.
</event>
<event>
 7    1  0.7821043E-012  0.5930196E+02  0.7816164E-02  0.1266605E+00
        -11   -1    0    0    0    0  0.00000000000E+00  0.00000000000E+00  0.45593999997E+02  0.45594000000E+02  0.51100000000E-03 0.  1.
         11   -1    0    0    0    0 -0.00000000000E+00 -0.00000000000E+00 -0.45593999997E+02  0.45594000000E+02  0.51100000000E-03 0. -1.
    9900012    2    1    2    0    0  0.60521653341E+01 -0.10001755289E+02  0.29665738008E+02  0.59301955628E+02  0.50000021157E+02 0.  0.
         12    1    1    2    0    0 -0.60521653341E+01  0.10001755289E+02 -0.29665738008E+02  0.31886044372E+02  0.00000000000E+00 0. -1.
         11    1    3    3    0    0 -0.10160914742E+02 -0.13582807811E+02 -0.21724627959E+01  0.17101358171E+02  0.51100000000E-03 0.  1.
        -11    1    3    3    0    0  0.10077271783E+02 -0.31941399213E+01  0.31308001164E+02  0.33044589173E+02  0.51100000000E-03 0. -1.
         12    1    3    3    0    0  0.61358082931E+01  0.67751924432E+01  0.53019964000E+00  0.91560082848E+01  0.00000000000E+00 0. -1.
</event>
<event>
 7    1  0.7821043E-012  0.5930198E+02  0.7816164E-02  0.1266605E+00
        -11   -1    0    0    0    0  0.00000000000E+00  0.00000000000E+00  0.45593999997E+02  0.45594000000E+02  0.51100000000E-03 0.  1.
         11   -1    0    0    0    0 -0.00000000000E+00 -0.00000000000E+00 -0.45593999997E+02  0.45594000000E+02  0.51100000000E-03 0. -1.
    9900012    2    1    2    0    0  0.61215313207E+01 -0.13152225023E+02  0.28394786326E+02  0.59301983327E+02  0.50000071673E+02 0.  0.
         12    1    1    2    0    0 -0.61215313207E+01  0.13152225023E+02 -0.28394786326E+02  0.31886016673E+02  0.00000000000E+00 0. -1.
         11    1    3    3    0    0 -0.15181846816E+02  0.21499204335E+01  0.10975174894E+01  0.15372546162E+02  0.51100000000E-03 0. -1.
        -11    1    3    3    0    0  0.24900335752E+02 -0.17249019283E+02  0.24692779372E+02  0.39080541708E+02  0.51100000000E-03 0.  1.
        -12    1    3    3    0    0 -0.35969576156E+01  0.19468738264E+01  0.26044894645E+01  0.48488954573E+01  0.00000000000E+00 0.  1.
</event>
<event>
 7    1  0.7821043E-012  0.5930195E+02  0.7816164E-02  0.1266605E+00
        -11   -1    0    0    0    0  0.00000000000E+00  0.00000000000E+00  0.45593999997E+02  0.45594000000E+02  0.51100000000E-03 0. -1.
         11   -1    0    0    0    0 -0.00000000000E+00 -0.00000000000E+00 -0.45593999997E+02  0.45594000000E+02  0.51100000000E-03 0.  1.
    9900012    2    1    2    0    0 -0.14622466289E+02 -0.28214407796E+02  0.26174602068E+01  0.59301946221E+02  0.50000004000E+02 0.  0.
         12    1    1    2    0    0  0.14622466289E+02  0.28214407796E+02 -0.26174602068E+01  0.31886053779E+02  0.00000000000E+00 0. -1.
         11    1    3    3    0    0  0.15481746329E+02 -0.99608018669E+01 -0.79902438572E+01  0.20068533588E+02  0.51100000000E-03 0. -1.
        -11    1    3    3    0    0 -0.15728635666E+02 -0.16596267345E+01  0.46043122583E+01  0.16472523560E+02  0.51100000000E-03 0.  1.
         12    1    3    3    0    0 -0.14375576953E+02 -0.16593979194E+02  0.60033918056E+01  0.22760889073E+02  0.00000000000E+00 0. -1.
</event>
<event>
 7    1  0.7821043E-012  0.5930192E+02  0.7816164E-02  0.1266605E+00
        -11   -1    0    0    0    0  0.00000000000E+00  0.00000000000E+00  0.45593999997E+02  0.45594000000E+02  0.51100000000E-03 0. -1.
         11   -1    0    0    0    0 -0.00000000000E+00 -0.00000000000E+00 -0.45593999997E+02  0.45594000000E+02  0.51100000000E-03 0.  1.
    9900012    2    1    2    0    0 -0.29097726830E+02 -0.10857814365E+02 -0.72216535591E+01  0.59301919657E+02  0.49999955554E+02 0.  0.
         12    1    1    2    0    0  0.29097726830E+02  0.10857814365E+02  0.72216535591E+01  0.31886080343E+02  0.00000000000E+00 0. -1.
         11    1    3    3    0    0 -0.13849908766E+02  0.46439112966E+01 -0.60408967173E+01  0.15807539922E+02  0.51100000000E-03 0. -1.
        -11    1    3    3    0    0  0.11174121740E+02  0.25615120667E+01  0.59608608714E-01  0.11464113319E+02  0.51100000000E-03 0.  1.
        -12    1    3    3    0    0 -0.26421939805E+02 -0.18063237729E+02 -0.12403654505E+01  0.32030266417E+02  0.00000000000E+00 0.  1.
</event>
<event>
 7    1  0.7821043E-012  0.5930197E+02  0.7816164E-02  0.1266605E+00
        -11   -1    0    0    0    0  0.00000000000E+00  0.00000000000E+00  0.45593999997E+02  0.45594000000E+02  0.51100000000E-03 0.  1.
         11   -1    0    0    0    0 -0.00000000000E+00 -0.00000000000E+00 -0.45593999997E+02  0.45594000000E+02  0.51100000000E-03 0. -1.
    9900012    2    1    2    0    0  0.27375911069E+02 -0.10091394063E+02  0.12862434004E+02  0.59301969368E+02  0.50000046214E+02 0.  0.
         12    1    1    2    0    0 -0.27375911069E+02  0.10091394063E+02 -0.12862434004E+02  0.31886030632E+02  0.00000000000E+00 0. -1.
         11    1    3    3    0    0  0.35084327522E+01 -0.24084126033E+02  0.88796032837E+01  0.25907558393E+02  0.51100000000E-03 0.  1.
        -11    1    3    3    0    0  0.12235491474E+02  0.16927117195E+02  0.45940375981E+00  0.20891280483E+02  0.51100000000E-03 0. -1.
         12    1    3    3    0    0  0.11631986843E+02 -0.29343852251E+01  0.35234269606E+01  0.12503130492E+02  0.00000000000E+00 0. -1.
</event>
<event>
 7    1  0.7821043E-012  0.5930190E+02  0.7816164E-02  0.1266605E+00
        -11   -1    0    0    0    0  0.00000000000E+00  0.00000000000E+00  0.45593999997E+02  0.45594000000E+02  0.51100000000E-03 0.  1.
         11   -1    0    0    0    0 -0.00000000000E+00 -0.00000000000E+00 -0.45593999997E+02  0.45594000000E+02  0.51100000000E-03 0. -1.
    9900012    2    1    2    0    0 -0.16806395197E+02  0.19779309675E+02  0.18521543442E+02  0.59301896722E+02  0.49999913726E+02 0.  0.
         12    1    1    2    0    0  0.16806395197E+02 -0.19779309675E+02 -0.18521543442E+02  0.31886103278E+02  0.00000000000E+00 0. -1.
         11    1    3    3    0    0  0.63045528564E+00 -0.43998582994E+01  0.81830394092E+00  0.45194964900E+01  0.51100000000E-03 0. -1.
        -11    1    3    3    0    0 -0.21254417323E+02  0.19767820010E+02  0.29646706060E+02  0.41490289757E+02  0.51100000000E-03 0.  1.
        -12    1    3    3    0    0  0.38175668397E+01  0.44113479644E+01 -0.11943466559E+02  0.13292110475E+02  0.00000000000E+00 0.  1.
</event>
<event>
 7    1  0.7821043E-012  0.5930195E+02  0.7816164E-02  0.1266605E+00
        -11   -1    0    0    0    0  0.00000000000E+00  0.00000000000E+00  0.45593999997E+02  0.45594000000E+02  0.51100000000E-03 0. -1.
         11   -1    0    0    0    0 -0.00000000000E+00 -0.00000000000E+00 -0.45593999997E+02  0.45594000000E+02  0.51100000000E-03 0.  1.
    9900012    2    1    2    0    0  0.29525424878E+02  0.10305149852E+02 -0.62268364646E+01  0.59301947876E+02  0.50000007018E+02 0.  0.
         12    1    1    2    0    0 -0.29525424878E+02 -0.10305149852E+02  0.62268364646E+01  0.31886052124E+02  0.00000000000E+00 0. -1.
         11    1    3    3    0    0  0.13114015538E+02  0.64885298978E+01  0.20747019697E+02  0.25387344295E+02  0.51100000000E-03 0. -1.
        -11    1    3    3    0    0  0.16847385693E+02  0.60863812445E+01 -0.21576804768E+02  0.28043483122E+02  0.51100000000E-03 0.  1.
        -12    1    3    3    0    0 -0.43597635293E+00 -0.22697612904E+01 -0.53970513939E+01  0.58711204590E+01  0.00000000000E+00 0.  1.
</event>
<event>
 7    1  0.7821043E-012  0.5930192E+02  0.7816164E-02  0.1266605E+00
        -11   -1    0    0    0    0  0.00000000000E+00  0.00000000000E+00  0.45593999997E+02  0.45594000000E+02  0.51100000000E-03 0. -1.
         11   -1    0    0    0    0 -0.00000000000E+00 -0.00000000000E+00 -0.45593999997E+02  0.45594000000E+02  0.51100000000E-03 0.  1.
    9900012    2    1    2    0    0  0.25685987373E+02  0.14332508273E+02 -0.12309808968E+02  0.59301919376E+02  0.49999955041E+02 0.  0.
         12    1    1    2    0    0 -0.25685987373E+02 -0.14332508273E+02  0.12309808968E+02  0.31886080624E+02  0.00000000000E+00 0. -1.
         11    1    3    3    0    0  0.46558296998E+01 -0.13364650641E+02  0.47947394310E+01  0.14942562143E+02  0.51100000000E-03 0. -1.
        -11    1    3    3    0    0  0.15694694099E+02  0.42639958975E+01 -0.31402679430E+01  0.16564008177E+02  0.51100000000E-03 0.  1.
         12    1    3    3    0    0  0.53354635743E+01  0.23433163016E+02 -0.13964280456E+02  0.27795349056E+02  0.00000000000E+00 0. -1.
</event>
<event>
 7    1  0.7821043E-012  0.5930199E+02  0.7816164E-02  0.1266605E+00
        -11   -1    0    0    0    0  0.00000000000E+00  0.00000000000E+00  0.45593999997E+02  0.45594000000E+02  0.51100000000E-03 0.  1.
         11   -1    0    0    0    0 -0.00000000000E+00 -0.00000000000E+00 -0.45593999997E+02  0.45594000000E+02  0.51100000000E-03 0. -1.
    9900012    2    1    2    0    0 -0.22228501052E+02  0.13942023296E+01  0.22818139009E+02  0.59301991673E+02  0.50000086894E+02 0.  0.
         12    1    1    2    0    0  0.22228501052E+02 -0.13942023296E+01 -0.22818139009E+02  0.31886008327E+02  0.00000000000E+00 0. -1.
         11    1    3    3    0    0 -0.16567414527E+02 -0.13005174077E+02 -0.55359730047E+01  0.21777529113E+02  0.51100000000E-03 0. -1.
        -11    1    3    3    0    0 -0.67025576707E+01 -0.64376556753E+00  0.18039086893E+02  0.19254801210E+02  0.51100000000E-03 0.  1.
         12    1    3    3    0    0  0.10414711456E+01  0.15043141975E+02  0.10315025121E+02  0.18269661350E+02  0.00000000000E+00 0. -1.
</event>
<event>
 7    1  0.7821043E-012  0.5930197E+02  0.7816164E-02  0.1266605E+00
        -11   -1    0    0    0    0  0.00000000000E+00  0.00000000000E+00  0.45593999997E+02  0.45594000000E+02  0.51100000000E-03 0. -1.
         11   -1    0    0    0    0 -0.00000000000E+00 -0.00000000000E+00 -0.45593999997E+02  0.45594000000E+02  0.51100000000E-03 0.  1.
    9900012    2    1    2    0    0 -0.25790437379E+00  0.28502035878E+02 -0.14292871831E+02  0.59301972511E+02  0.50000051946E+02 0.  0.
         12    1    1    2    0    0  0.25790437379E+00 -0.28502035878E+02  0.14292871831E+02  0.31886027489E+02  0.00000000000E+00 0. -1.
         11    1    3    3    0    0 -0.13131560515E+02  0.12140148813E+01 -0.55016371096E+01  0.14289147099E+02  0.51100000000E-03 0. -1.
        -11    1    3    3    0    0  0.12421808095E+02  0.34627390972E+02 -0.75713617077E+01  0.37559060694E+02  0.51100000000E-03 0.  1.
        -12    1    3    3    0    0  0.45184804605E+00 -0.73393699751E+01 -0.12198730138E+01  0.74537647171E+01  0.00000000000E+00 0.  1.
</event>
<event>
 7    1  0.7821043E-012  0.5930206E+02  0.7816164E-02  0.1266604E+00
        -11   -1    0    0    0    0  0.00000000000E+00  0.00000000000E+00  0.45593999997E+02  0.45594000000E+02  0.51100000000E-03 0. -1.
         11   -1    0    0    0    0 -0.00000000000E+00 -0.00000000000E+00 -0.45593999997E+02  0.45594000000E+02  0.51100000000E-03 0.  1.
    9900012    2    1    2    0    0  0.20218885680E+00  0.12313077400E+01 -0.31861518908E+02  0.59302056605E+02  0.50000205313E+02 0.  0.
         12    1    1    2    0    0 -0.20218885680E+00 -0.12313077400E+01  0.31861518908E+02  0.31885943395E+02  0.00000000000E+00 0. -1.
         11    1    3    3    0    0  0.32898832701E+01 -0.92866270845E+01 -0.33463197598E+02  0.34883382409E+02  0.51100000000E-03 0.  1.
        -11    1    3    3    0    0  0.94301017978E+01  0.38796661992E+01  0.64527495855E+00  0.10217387620E+02  0.51100000000E-03 0. -1.
         12    1    3    3    0    0 -0.12517796211E+02  0.66382686252E+01  0.95640373122E+00  0.14201286576E+02  0.00000000000E+00 0. -1.
</event>
<event>
 7    1  0.7821043E-012  0.5930194E+02  0.7816164E-02  0.1266605E+00
        -11   -1    0    0    0    0  0.00000000000E+00  0.00000000000E+00  0.45593999997E+02  0.45594000000E+02  0.51100000000E-03 0. -1.
         11   -1    0    0    0    0 -0.00000000000E+00 -0.00000000000E+00 -0.45593999997E+02  0.45594000000E+02  0.51100000000E-03 0.  1.
    9900012    2    1    2    0    0 -0.27038645571E+02 -0.15147838356E+02 -0.74950178947E+01  0.59301942632E+02  0.49999997455E+02 0.  0.
         12    1    1    2    0    0  0.27038645571E+02  0.15147838356E+02  0.74950178947E+01  0.31886057368E+02  0.00000000000E+00 0. -1.
         11    1    3    3    0    0 -0.14339427474E+02 -0.19094544602E+02 -0.10001415607E+02  0.25889170095E+02  0.51100000000E-03 0. -1.
        -11    1    3    3    0    0  0.34531347148E+01  0.10138804907E+02 -0.78243182175E+01  0.13264217283E+02  0.51100000000E-03 0.  1.
         12    1    3    3    0    0 -0.16152352813E+02 -0.61920986616E+01  0.10330715930E+02  0.20148555254E+02  0.00000000000E+00 0. -1.
</event>
<event>
 7    1  0.7821043E-012  0.5930195E+02  0.7816164E-02  0.1266605E+00
        -11   -1    0    0    0    0  0.00000000000E+00  0.00000000000E+00  0.45593999997E+02  0.45594000000E+02  0.51100000000E-03 0. -1.
         11   -1    0    0    0    0 -0.00000000000E+00 -0.00000000000E+00 -0.45593999997E+02  0.45594000000E+02  0.51100000000E-03 0.  1.
    9900012    2    1    2    0    0  0.13467782700E+02 -0.13304792058E+02 -0.25657780542E+02  0.59301947173E+02  0.50000005736E+02 0.  0.
         12    1    1    2    0    0 -0.13467782700E+02  0.13304792058E+02  0.25657780542E+02  0.31886052827E+02  0.00000000000E+00 0. -1.
         11    1    3    3    0    0 -0.63224476746E+01 -0.59845534152E+01 -0.26960512888E+02  0.28331210345E+02  0.51100000000E-03 0. -1.
        -11    1    3    3    0    0  0.50040476036E+01  0.72830466881E+01 -0.37246704683E+01  0.95893916303E+01  0.51100000000E-03 0.  1.
         12    1    3    3    0    0  0.14786182771E+02 -0.14603285331E+02  0.50274028146E+01  0.21381345198E+02  0.00000000000E+00 0. -1.
</event>
<event>
 7    1  0.7821043E-012  0.5930195E+02  0.7816164E-02  0.1266605E+00
        -11   -1    0    0    0    0  0.00000000000E+00  0.00000000000E+00  0.45593999997E+02  0.45594000000E+02  0.51100000000E-03 0. -1.
         11   -1    0    0    0    0 -0.00000000000E+00 -0.00000000000E+00 -0.45593999997E+02  0.45594000000E+02  0.51100000000E-03 0.  1.
    9900012    2    1    2    0    0 -0.26150349429E+02 -0.17771215473E+02 -0.41307628133E+01  0.59301951702E+02  0.50000013995E+02 0.  0.
         12    1    1    2    0    0  0.26150349429E+02  0.17771215473E+02  0.41307628133E+01  0.31886048298E+02  0.00000000000E+00 0. -1.
         11    1    3    3    0    0 -0.18966334483E+02 -0.24826713583E+02  0.13269347179E+02  0.33943528483E+02  0.51100000000E-03 0. -1.
        -11    1    3    3    0    0 -0.12028087715E+02  0.43703345410E+01 -0.13379064933E+02  0.18514159361E+02  0.51100000000E-03 0.  1.
         12    1    3    3    0    0  0.48440727692E+01  0.26851635691E+01 -0.40210450595E+01  0.68442638579E+01  0.00000000000E+00 0. -1.
</event>
<event>
 7    1  0.7821043E-012  0.5930195E+02  0.7816164E-02  0.1266605E+00
        -11   -1    0    0    0    0  0.00000000000E+00  0.00000000000E+00  0.45593999997E+02  0.45594000000E+02  0.51100000000E-03 0.  1.
         11   -1    0    0    0    0 -0.00000000000E+00 -0.00000000000E+00 -0.45593999997E+02  0.45594000000E+02  0.51100000000E-03 0. -1.
    9900012    2    1    2    0    0  0.23842911833E+02  0.90737272182E+00  0.21152130511E+02  0.59301946699E+02  0.50000004871E+02 0.  0.
         12    1    1    2    0    0 -0.23842911833E+02 -0.90737272182E+00 -0.21152130511E+02  0.31886053301E+02  0.00000000000E+00 0. -1.
         11    1    3    3    0    0  0.19227208251E+02 -0.17352220374E+02  0.25837330680E+02  0.36583503741E+02  0.51100000000E-03 0. -1.
        -11    1    3    3    0    0  0.57110584351E+01  0.13903080283E+02  0.14659044780E+01  0.15101678913E+02  0.51100000000E-03 0.  1.
         12    1    3    3    0    0 -0.10953548521E+01  0.43565128131E+01 -0.61511046467E+01  0.76167640450E+01  0.00000000000E+00 0. -1.
</event>
<event>
 7    1  0.7821043E-012  0.5930197E+02  0.7816164E-02  0.1266605E+00
        -11   -1    0    0    0    0  0.00000000000E+00  0.00000000000E+00  0.45593999997E+02  0.45594000000E+02  0.51100000000E-03 0.  1.
         11   -1    0    0    0    0 -0.00000000000E+00 -0.00000000000E+00 -0.45593999997E+02  0.45594000000E+02  0.51100000000E-03 0. -1.
    9900012    2    1    2    0    0  0.14891689746E+02  0.48527876135E+01  0.27774214415E+02  0.59301969242E+02  0.50000045985E+02 0.  0.
         12    1    1    2    0    0 -0.14891689746E+02 -0.48527876135E+01 -0.27774214415E+02  0.31886030758E+02  0.00000000000E+00 0. -1.
         11    1    3    3    0    0  0.98822206463E+01 -0.96547643734E+01  0.22067875277E+02  0.26035819163E+02  0.51100000000E-03 0.  1.
        -11    1    3    3    0    0  0.21434666685E+00  0.12294450493E+02 -0.10532246745E+02  0.16190357598E+02  0.51100000000E-03 0. -1.
        -12    1    3    3    0    0  0.47951224332E+01  0.22131014941E+01  0.16238585883E+02  0.17075792481E+02  0.00000000000E+00 0.  1.
</event>
<event>
 7    1  0.7821043E-012  0.5930196E+02  0.7816164E-02  0.1266605E+00
        -11   -1    0    0    0    0  0.00000000000E+00  0.00000000000E+00  0.45593999997E+02  0.45594000000E+02  0.51100000000E-03 0.  1.
         11   -1    0    0    0    0 -0.00000000000E+00 -0.00000000000E+00 -0.45593999997E+02  0.45594000000E+02  0.51100000000E-03 0. -1.
    9900012    2    1    2    0    0  0.22480544865E+01 -0.27335444443E+01  0.31689010631E+02  0.59301962163E+02  0.50000033074E+02 0.  0.
         12    1    1    2    0    0 -0.22480544865E+01  0.27335444443E+01 -0.31689010631E+02  0.31886037837E+02  0.00000000000E+00 0. -1.
         11    1    3    3    0    0  0.19994445624E+01 -0.23415176299E+02  0.72465357486E+01  0.24592286195E+02  0.51100000000E-03 0. -1.
        -11    1    3    3    0    0 -0.39449504558E+01  0.10862429710E+02  0.20095400932E+02  0.23181461390E+02  0.51100000000E-03 0.  1.
         12    1    3    3    0    0  0.41935603800E+01  0.98192021453E+01  0.43470739503E+01  0.11528214578E+02  0.00000000000E+00 0. -1.
</event>
<event>
 7    1  0.7821043E-012  0.5930194E+02  0.7816164E-02  0.1266605E+00
        -11   -1    0    0    0    0  0.00000000000E+00  0.00000000000E+00  0.45593999997E+02  0.45594000000E+02  0.51100000000E-03 0.  1.
         11   -1    0    0    0    0 -0.00000000000E+00 -0.00000000000E+00 -0.45593999997E+02  0.45594000000E+02  0.51100000000E-03 0. -1.
    9900012    2    1    2    0    0  0.16279283340E+01  0.11578195511E+02  0.29665069484E+02  0.59301935498E+02  0.49999984443E+02 0.  0.
         12    1    1    2    0    0 -0.16279283340E+01 -0.11578195511E+02 -0.29665069484E+02  0.31886064502E+02  0.00000000000E+00 0. -1.
         11    1    3    3    0    0 -0.22990469704E+01  0.23423281639E+02  0.80720809149E+01  0.24881604255E+02  0.51100000000E-03 0.  1.
        -11    1    3    3    0    0  0.10231204775E+02 -0.15851373796E+02  0.12405792642E+02  0.22579798354E+02  0.51100000000E-03 0. -1.
        -12    1    3    3    0    0 -0.63042294704E+01  0.40062876678E+01  0.91871959273E+01  0.11840532889E+02  0.00000000000E+00 0.  1.
</event>
<event>
 7    1  0.7821043E-012  0.5930202E+02  0.7816164E-02  0.1266604E+00
        -11   -1    0    0    0    0  0.00000000000E+00  0.00000000000E+00  0.45593999997E+02  0.45594000000E+02  0.51100000000E-03 0. -1.
         11   -1    0    0    0    0 -0.00000000000E+00 -0.00000000000E+00 -0.45593999997E+02  0.45594000000E+02  0.51100000000E-03 0.  1.
    9900012    2    1    2    0    0 -0.23699352328E+02  0.16742359792E+02 -0.13219287971E+02  0.59302023668E+02  0.50000145245E+02 0.  0.
         12    1    1    2    0    0  0.23699352328E+02 -0.16742359792E+02  0.13219287971E+02  0.31885976332E+02  0.00000000000E+00 0. -1.
         11    1    3    3    0    0 -0.27513161616E+02  0.17391406264E+02  0.41785812445E+01  0.32816087753E+02  0.51100000000E-03 0. -1.
        -11    1    3    3    0    0 -0.12434784186E+01  0.72325509379E+01 -0.15182132578E+02  0.16862775025E+02  0.51100000000E-03 0.  1.
        -12    1    3    3    0    0  0.50572877062E+01 -0.78815974105E+01 -0.22157366371E+01  0.96231608908E+01  0.00000000000E+00 0.  1.
</event>
<event>
 7    1  0.7821043E-012  0.5930200E+02  0.7816164E-02  0.1266605E+00
        -11   -1    0    0    0    0  0.00000000000E+00  0.00000000000E+00  0.45593999997E+02  0.45594000000E+02  0.51100000000E-03 0. -1.
         11   -1    0    0    0    0 -0.00000000000E+00 -0.00000000000E+00 -0.45593999997E+02  0.45594000000E+02  0.51100000000E-03 0.  1.
    9900012    2    1    2    0    0  0.18613754209E+02  0.11113805581E+02 -0.23382230042E+02  0.59301996770E+02  0.50000096188E+02 0.  0.
         12    1    1    2    0    0 -0.18613754209E+02 -0.11113805581E+02  0.23382230042E+02  0.31886003230E+02  0.00000000000E+00 0. -1.
         11    1    3    3    0    0  0.53407118378E+01 -0.73609765169E+01 -0.33084826836E+02  0.34311994189E+02  0.51100000000E-03 0.  1.
        -11    1    3    3    0    0  0.70882732390E+01  0.12650914835E+02  0.54695092278E+01  0.15498541709E+02  0.51100000000E-03 0. -1.
        -12    1    3    3    0    0  0.61847691322E+01  0.58238672637E+01  0.42330875658E+01  0.94914608708E+01  0.00000000000E+00 0.  1.
</event>
<event>
 7    1  0.7821043E-012  0.5930195E+02  0.7816164E-02  0.1266605E+00
        -11   -1    0    0    0    0  0.00000000000E+00  0.00000000000E+00  0.45593999997E+02  0.45594000000E+02  0.51100000000E-03 0. -1.
         11   -1    0    0    0    0 -0.00000000000E+00 -0.00000000000E+00 -0.45593999997E+02  0.45594000000E+02  0.51100000000E-03 0.  1.
    9900012    2    1    2    0    0  0.30750062586E+02  0.67010261857E+01 -0.51234955576E+01  0.59301948070E+02  0.50000007371E+02 0.  0.
         12    1    1    2    0    0 -0.30750062586E+02 -0.67010261857E+01  0.51234955576E+01  0.31886051930E+02  0.00000000000E+00 0. -1.
         11    1    3    3    0    0 -0.53280307104E+01 -0.15363444845E+02  0.19730180941E+01  0.16380358647E+02  0.51100000000E-03 0. -1.
        -11    1    3    3    0    0  0.19176839901E+02  0.11047027726E+02 -0.29818236793E+01  0.22331128115E+02  0.51100000000E-03 0.  1.
         12    1    3    3    0    0  0.16901253395E+02  0.11017443304E+02 -0.41146899724E+01  0.20590461308E+02  0.00000000000E+00 0. -1.
</event>
<event>
 7    1  0.7821043E-012  0.5930193E+02  0.7816164E-02  0.1266605E+00
        -11   -1    0    0    0    0  0.00000000000E+00  0.00000000000E+00  0.45593999997E+02  0.45594000000E+02  0.51100000000E-03 0.  1.
         11   -1    0    0    0    0 -0.00000000000E+00 -0.00000000000E+00 -0.45593999997E+02  0.45594000000E+02  0.51100000000E-03 0. -1.
    9900012    2    1    2    0    0  0.19774332074E+02  0.24451398696E+02 -0.52750614329E+01  0.59301931251E+02  0.49999976698E+02 0.  0.
         12    1    1    2    0    0 -0.19774332074E+02 -0.24451398696E+02  0.52750614329E+01  0.31886068749E+02  0.00000000000E+00 0. -1.
         11    1    3    3    0    0  0.18700123337E+02  0.19929591037E+02 -0.19271282234E+02  0.33440477433E+02  0.51100000000E-03 0. -1.
        -11    1    3    3    0    0  0.11070454473E+02  0.18112069829E+01  0.88939929942E+01  0.14315674787E+02  0.51100000000E-03 0.  1.
         12    1    3    3    0    0 -0.99962457357E+01  0.27106006761E+01  0.51022278070E+01  0.11545779031E+02  0.00000000000E+00 0. -1.
</event>
<event>
 7    1  0.7821043E-012  0.5930192E+02  0.7816164E-02  0.1266605E+00
        -11   -1    0    0    0    0  0.00000000000E+00  0.00000000000E+00  0.45593999997E+02  0.45594000000E+02  0.51100000000E-03 0.  1.
         11   -1    0    0    0    0 -0.00000000000E+00 -0.00000000000E+00 -0.45593999997E+02  0.45594000000E+02  0.51100000000E-03 0. -1.
    9900012    2    1    2    0    0 -0.66278785383E+00  0.11294861481E+01  0.31859176645E+02  0.59301918974E+02  0.49999954308E+02 0.  0.
         12    1    1    2    0    0  0.66278785383E+00 -0.11294861481E+01 -0.31859176645E+02  0.31886081026E+02  0.00000000000E+00 0. -1.
         11    1    3    3    0    0 -0.11054848821E+02  0.14342761356E+02 -0.28136031625E+01  0.18325961060E+02  0.51100000000E-03 0. -1.
        -11    1    3    3    0    0  0.68796999908E+01 -0.86392045382E+01  0.78733312799E+01  0.13563018570E+02  0.51100000000E-03 0.  1.
         12    1    3    3    0    0  0.35123609764E+01 -0.45740706694E+01  0.26799448528E+02  0.27412939344E+02  0.00000000000E+00 0. -1.
</event>
<event>
 7    1  0.7821043E-012  0.5930195E+02  0.7816164E-02  0.1266605E+00
        -11   -1    0    0    0    0  0.00000000000E+00  0.00000000000E+00  0.45593999997E+02  0.45594000000E+02  0.51100000000E-03 0.  1.
         11   -1    0    0    0    0 -0.00000000000E+00 -0.00000000000E+00 -0.45593999997E+02  0.45594000000E+02  0.51100000000E-03 0. -1.
    9900012    2    1    2    0    0  0.16161327375E+02 -0.27068046589E+02  0.47804536358E+01  0.59301946847E+02  0.50000005142E+02 0.  0.
         12    1    1    2    0    0 -0.16161327375E+02  0.27068046589E+02 -0.47804536358E+01  0.31886053153E+02  0.00000000000E+00 0. -1.
         11    1    3    3    0    0  0.61023884454E+01  0.28288968551E+01 -0.10629129385E+02  0.12578560884E+02  0.51100000000E-03 0. -1.
        -11    1    3    3    0    0  0.16257232431E+02 -0.27807682124E+02  0.20718507360E+02  0.38299103630E+02  0.51100000000E-03 0.  1.
        -12    1    3    3    0    0 -0.61982935009E+01 -0.20892613207E+01 -0.53089243388E+01  0.84242823329E+01  0.00000000000E+00 0.  1.
</event>
<event>
 7    1  0.7821043E-012  0.5930193E+02  0.7816164E-02  0.1266605E+00
        -11   -1    0    0    0    0  0.00000000000E+00  0.00000000000E+00  0.45593999997E+02  0.45594000000E+02  0.51100000000E-03 0. -1.
         11   -1    0    0    0    0 -0.00000000000E+00 -0.00000000000E+00 -0.45593999997E+02  0.45594000000E+02  0.51100000000E-03 0.  1.
    9900012    2    1    2    0    0  0.64186311036E+01 -0.83780399741E+01 -0.30088714926E+02  0.59301934941E+02  0.49999983428E+02 0.  0.
         12    1    1    2    0    0 -0.64186311036E+01  0.83780399741E+01  0.30088714926E+02  0.31886065059E+02  0.00000000000E+00 0. -1.
         11    1    3    3    0    0  0.13544049628E+02 -0.24777379847E+01  0.24673159111E+01  0.13988141903E+02  0.51100000000E-03 0. -1.
        -11    1    3    3    0    0 -0.18537831356E+02 -0.46567052553E+01 -0.25391840953E+02  0.31781782242E+02  0.51100000000E-03 0.  1.
        -12    1    3    3    0    0  0.11412412832E+02 -0.12435967341E+01 -0.71641898842E+01  0.13532010796E+02  0.00000000000E+00 0.  1.
</event>
<event>
 7    1  0.7821043E-012  0.5930193E+02  0.7816164E-02  0.1266605E+00
        -11   -1    0    0    0    0  0.00000000000E+00  0.00000000000E+00  0.45593999997E+02  0.45594000000E+02  0.51100000000E-03 0. -1.
         11   -1    0    0    0    0 -0.00000000000E+00 -0.00000000000E+00 -0.45593999997E+02  0.45594000000E+02  0.51100000000E-03 0.  1.
    9900012    2    1    2    0    0 -0.90354626531E+01  0.16692055475E+01 -0.30533517602E+02  0.59301928909E+02  0.49999972426E+02 0.  0.
         12    1    1    2    0    0  0.90354626531E+01 -0.16692055475E+01  0.30533517602E+02  0.31886071091E+02  0.00000000000E+00 0. -1.
         11    1    3    3    0    0  0.45969986456E+01  0.82525147563E+01  0.22353897509E+01  0.97073870814E+01  0.51100000000E-03 0. -1.
        -11    1    3    3    0    0 -0.15340144840E+02 -0.18496057774E+02 -0.15678664490E+02  0.28692241414E+02  0.51100000000E-03 0.  1.
        -12    1    3    3    0    0  0.17076835413E+01  0.11912748566E+02 -0.17090242863E+02  0.20902300413E+02  0.00000000000E+00 0.  1.
</event>
<event>
 7    1  0.7821043E-012  0.5930194E+02  0.7816164E-02  0.1266605E+00
        -11   -1    0    0    0    0  0.00000000000E+00  0.00000000000E+00  0.45593999997E+02  0.45594000000E+02  0.51100000000E-03 0.  1.
         11   -1    0    0    0    0 -0.00000000000E+00 -0.00000000000E+00 -0.45593999997E+02  0.45594000000E+02  0.51100000000E-03 0. -1.
    9900012    2    1    2    0    0 -0.14239237711E+02 -0.16758709643E+02  0.23089183148E+02  0.59301943205E+02  0.49999998500E+02 0.  0.
         12    1    1    2    0    0  0.14239237711E+02  0.16758709643E+02 -0.23089183148E+02  0.31886056795E+02  0.00000000000E+00 0. -1.
         11    1    3    3    0    0  0.14141556209E+02  0.22531679473E+01  0.13059652900E+02  0.19380787185E+02  0.51100000000E-03 0. -1.
        -11    1    3    3    0    0 -0.11980949115E+02 -0.15714577552E+02 -0.11614104886E+01  0.19794947939E+02  0.51100000000E-03 0.  1.
         12    1    3    3    0    0 -0.16399844804E+02 -0.32973000392E+01  0.11190940736E+02  0.20126208081E+02  0.00000000000E+00 0. -1.
</event>
<event>
 7    1  0.7821043E-012  0.5930191E+02  0.7816164E-02  0.1266605E+00
        -11   -1    0    0    0    0  0.00000000000E+00  0.00000000000E+00  0.45593999997E+02  0.45594000000E+02  0.51100000000E-03 0. -1.
         11   -1    0    0    0    0 -0.00000000000E+00 -0.00000000000E+00 -0.45593999997E+02  0.45594000000E+02  0.51100000000E-03 0.  1.
    9900012    2    1    2    0    0 -0.23427217410E+02  0.47906937807E+01 -0.21093543873E+02  0.59301908116E+02  0.49999934506E+02 0.  0.
         12    1    1    2    0    0  0.23427217410E+02 -0.47906937807E+01  0.21093543873E+02  0.31886091884E+02  0.00000000000E+00 0. -1.
         11    1    3    3    0    0 -0.20967216458E+02  0.12835639493E+02 -0.61586281690E+01  0.25343766657E+02  0.51100000000E-03 0. -1.
        -11    1    3    3    0    0  0.45809619957E+01 -0.16825921120E+02 -0.14525364353E+02  0.22695441044E+02  0.51100000000E-03 0.  1.
        -12    1    3    3    0    0 -0.70409629483E+01  0.87809754075E+01 -0.40955135114E+00  0.11262700416E+02  0.00000000000E+00 0.  1.
</event>
<event>
 7    1  0.7821043E-012  0.5930196E+02  0.7816164E-02  0.1266605E+00
        -11   -1    0    0    0    0  0.00000000000E+00  0.00000000000E+00  0.45593999997E+02  0.45594000000E+02  0.51100000000E-03 0. -1.
         11   -1    0    0    0    0 -0.00000000000E+00 -0.00000000000E+00 -0.45593999997E+02  0.45594000000E+02  0.51100000000E-03 0.  1.
    9900012    2    1    2    0    0  0.24058636583E+02 -0.17981504689E+02  0.10703596847E+02  0.59301960883E+02  0.50000030740E+02 0.  0.
         12    1    1    2    0    0 -0.24058636583E+02  0.17981504689E+02 -0.10703596847E+02  0.31886039117E+02  0.00000000000E+00 0. -1.
         11    1    3    3    0    0 -0.77182197549E+01 -0.98609780991E+01  0.13088653772E+01  0.12590589108E+02  0.51100000000E-03 0. -1.
        -11    1    3    3    0    0  0.29025212305E+02 -0.13229006060E+02 -0.39675931626E+01  0.32143605063E+02  0.51100000000E-03 0.  1.
         12    1    3    3    0    0  0.27516440329E+01  0.51084794699E+01  0.13362324632E+02  0.14567766712E+02  0.00000000000E+00 0. -1.
</event>
<event>
 7    1  0.7821043E-012  0.5930193E+02  0.7816164E-02  0.1266605E+00
        -11   -1    0    0    0    0  0.00000000000E+00  0.00000000000E+00  0.45593999997E+02  0.45594000000E+02  0.51100000000E-03 0.  1.
         11   -1    0    0    0    0 -0.00000000000E+00 -0.00000000000E+00 -0.45593999997E+02  0.45594000000E+02  0.51100000000E-03 0. -1.
    9900012    2    1    2    0    0 -0.29040659004E+02 -0.37241427262E+01  0.12629025279E+02  0.59301931037E+02  0.49999976308E+02 0.  0.
         12    1    1    2    0    0  0.29040659004E+02  0.37241427262E+01 -0.12629025279E+02  0.31886068963E+02  0.00000000000E+00 0. -1.
         11    1    3    3    0    0 -0.30179817090E+02 -0.16789883574E+02  0.63191185762E+01  0.35109155642E+02  0.51100000000E-03 0. -1.
        -11    1    3    3    0    0 -0.68808088787E+01  0.74905263055E+01  0.94998406743E+01  0.13917632279E+02  0.51100000000E-03 0.  1.
         12    1    3    3    0    0  0.80199669650E+01  0.55752145420E+01 -0.31899339717E+01  0.10275143116E+02  0.00000000000E+00 0. -1.
</event>
<event>
 7    1  0.7821043E-012  0.5930196E+02  0.7816164E-02  0.1266605E+00
        -11   -1    0    0    0    0  0.00000000000E+00  0.00000000000E+00  0.45593999997E+02  0.45594000000E+02  0.51100000000E-03 0.  1.
         11   -1    0    0    0    0 -0.00000000000E+00 -0.00000000000E+00 -0.45593999997E+02  0.45594000000E+02  0.51100000000E-03 0. -1.
    9900012    2    1    2    0    0  0.28276850680E+02  0.21538198944E+01  0.14577400943E+02  0.59301955360E+02  0.50000020668E+02 0.  0.
         12    1    1    2    0    0 -0.28276850680E+02 -0.21538198944E+01 -0.14577400943E+02  0.31886044640E+02  0.00000000000E+00 0. -1.
         11    1    3    3    0    0 -0.14684614942E+01 -0.90093881562E+00  0.21934486597E+02  0.22002040189E+02  0.51100000000E-03 0. -1.
        -11    1    3    3    0    0  0.19568618898E+02 -0.23911632491E+01  0.50535193194E+01  0.20351574018E+02  0.51100000000E-03 0.  1.
         12    1    3    3    0    0  0.10176693276E+02  0.54459219592E+01 -0.12410604974E+02  0.16948341153E+02  0.00000000000E+00 0. -1.
</event>
<event>
 7    1  0.7821043E-012  0.5930199E+02  0.7816164E-02  0.1266605E+00
        -11   -1    0    0    0    0  0.00000000000E+00  0.00000000000E+00  0.45593999997E+02  0.45594000000E+02  0.51100000000E-03 0.  1.
         11   -1    0    0    0    0 -0.00000000000E+00 -0.00000000000E+00 -0.45593999997E+02  0.45594000000E+02  0.51100000000E-03 0. -1.
    9900012    2    1    2    0    0  0.85520164995E+01 -0.12213911179E+01  0.30693466519E+02  0.59301989440E+02  0.50000082821E+02 0.  0.
         12    1    1    2    0    0 -0.85520164995E+01  0.12213911179E+01 -0.30693466519E+02  0.31886010560E+02  0.00000000000E+00 0. -1.
         11    1    3    3    0    0 -0.12731381500E+02 -0.35374668056E+01 -0.65410956079E+01  0.14744072650E+02  0.51100000000E-03 0. -1.
        -11    1    3    3    0    0  0.71338110092E+01  0.33448796752E+01  0.23602985813E+02  0.24883336173E+02  0.51100000000E-03 0.  1.
         12    1    3    3    0    0  0.14149586990E+02 -0.10288039875E+01  0.13631576314E+02  0.19674580617E+02  0.00000000000E+00 0. -1.
</event>
<event>
 7    1  0.7821043E-012  0.5930195E+02  0.7816164E-02  0.1266605E+00
        -11   -1    0    0    0    0  0.00000000000E+00  0.00000000000E+00  0.45593999997E+02  0.45594000000E+02  0.51100000000E-03 0.  1.
         11   -1    0    0    0    0 -0.00000000000E+00 -0.00000000000E+00 -0.45593999997E+02  0.45594000000E+02  0.51100000000E-03 0. -1.
    9900012    2    1    2    0    0  0.99604298171E+01  0.30426949589E+01  0.30137217874E+02  0.59301952017E+02  0.50000014571E+02 0.  0.
         12    1    1    2    0    0 -0.99604298171E+01 -0.30426949589E+01 -0.30137217874E+02  0.31886047983E+02  0.00000000000E+00 0. -1.
         11    1    3    3    0    0 -0.10275097183E+02  0.17719010201E+02  0.46084155994E+01  0.20994724080E+02  0.51100000000E-03 0. -1.
        -11    1    3    3    0    0 -0.24644684263E+00 -0.38921652329E+00  0.74820723157E+01  0.74962411879E+01  0.51100000000E-03 0.  1.
         12    1    3    3    0    0  0.20481973842E+02 -0.14287098718E+02  0.18046729959E+02  0.30810986750E+02  0.00000000000E+00 0. -1.
</event>
<event>
 7    1  0.7821043E-012  0.5930192E+02  0.7816164E-02  0.1266605E+00
        -11   -1    0    0    0    0  0.00000000000E+00  0.00000000000E+00  0.45593999997E+02  0.45594000000E+02  0.51100000000E-03 0.  1.
         11   -1    0    0    0    0 -0.00000000000E+00 -0.00000000000E+00 -0.45593999997E+02  0.45594000000E+02  0.51100000000E-03 0. -1.
    9900012    2    1    2    0    0  0.68139312922E+01  0.62280312307E+01  0.30520553321E+02  0.59301918276E+02  0.49999953035E+02 0.  0.
         12    1    1    2    0    0 -0.68139312922E+01 -0.62280312307E+01 -0.30520553321E+02  0.31886081724E+02  0.00000000000E+00 0. -1.
         11    1    3    3    0    0  0.13825731776E+02  0.11742972635E+02  0.24343433302E+00  0.18141320954E+02  0.51100000000E-03 0.  1.
        -11    1    3    3    0    0 -0.17074140761E+02 -0.18523378955E+01  0.18478929204E+02  0.25227529867E+02  0.51100000000E-03 0. -1.
        -12    1    3    3    0    0  0.10062340278E+02 -0.36626035084E+01  0.11798189784E+02  0.15933067455E+02  0.00000000000E+00 0.  1.
</event>
<event>
 7    1  0.7821043E-012  0.5930197E+02  0.7816164E-02  0.1266605E+00
        -11   -1    0    0    0    0  0.00000000000E+00  0.00000000000E+00  0.45593999997E+02  0.45594000000E+02  0.51100000000E-03 0.  1.
         11   -1    0    0    0    0 -0.00000000000E+00 -0.00000000000E+00 -0.45593999997E+02  0.45594000000E+02  0.51100000000E-03 0. -1.
    9900012    2    1    2    0    0  0.21791113366E+02  0.10289402641E+02  0.20880487398E+02  0.59301965715E+02  0.50000039552E+02 0.  0.
         12    1    1    2    0    0 -0.21791113366E+02 -0.10289402641E+02 -0.20880487398E+02  0.31886034285E+02  0.00000000000E+00 0. -1.
         11    1    3    3    0    0  0.19961377343E+02 -0.19512258366E+01 -0.61766965461E+01  0.20986077485E+02  0.51100000000E-03 0. -1.
        -11    1    3    3    0    0  0.20256306666E+01 -0.12779119079E+01  0.24424923762E+02  0.24542068769E+02  0.51100000000E-03 0.  1.
         12    1    3    3    0    0 -0.19589464352E+00  0.13518540386E+02  0.26322601825E+01  0.13773819461E+02  0.00000000000E+00 0. -1.
</event>
<event>
 7    1  0.7821043E-012  0.5930192E+02  0.7816164E-02  0.1266605E+00
        -11   -1    0    0    0    0  0.00000000000E+00  0.00000000000E+00  0.45593999997E+02  0.45594000000E+02  0.51100000000E-03 0.  1.
         11   -1    0    0    0    0 -0.00000000000E+00 -0.00000000000E+00 -0.45593999997E+02  0.45594000000E+02  0.51100000000E-03 0. -1.
    9900012    2    1    2    0    0  0.77286210975E+01 -0.11448259947E+02  0.28738962051E+02  0.59301918716E+02  0.49999953837E+02 0.  0.
         12    1    1    2    0    0 -0.77286210975E+01  0.11448259947E+02 -0.28738962051E+02  0.31886081284E+02  0.00000000000E+00 0. -1.
         11    1    3    3    0    0 -0.33497246712E+00  0.18152627835E+02  0.15972504725E+02  0.24181625490E+02  0.51100000000E-03 0.  1.
        -11    1    3    3    0    0  0.30768574844E+01 -0.24072777127E+02  0.58620668632E+01  0.24966567220E+02  0.51100000000E-03 0. -1.
         12    1    3    3    0    0  0.49867360803E+01 -0.55281106548E+01  0.69043904629E+01  0.10153726006E+02  0.00000000000E+00 0. -1.
</event>
<event>
 7    1  0.7821043E-012  0.5930194E+02  0.7816164E-02  0.1266605E+00
        -11   -1    0    0    0    0  0.00000000000E+00  0.00000000000E+00  0.45593999997E+02  0.45594000000E+02  0.51100000000E-03 0. -1.
         11   -1    0    0    0    0 -0.00000000000E+00 -0.00000000000E+00 -0.45593999997E+02  0.45594000000E+02  0.51100000000E-03 0.  1.
    9900012    2    1    2    0    0  0.14386477266E+02 -0.80470493143E+01 -0.27294599357E+02  0.59301939020E+02  0.49999990867E+02 0.  0.
         12    1    1    2    0    0 -0.14386477266E+02  0.80470493143E+01  0.27294599357E+02  0.31886060980E+02  0.00000000000E+00 0. -1.
         11    1    3    3    0    0 -0.12515277649E+02 -0.14617105583E+02 -0.12883918254E+02  0.23157877712E+02  0.51100000000E-03 0. -1.
        -11    1    3    3    0    0  0.28374842784E+02  0.50093474164E+01 -0.16454072726E+02  0.33180744026E+02  0.51100000000E-03 0.  1.
        -12    1    3    3    0    0 -0.14730878691E+01  0.15607088523E+01  0.20433916233E+01  0.29633172827E+01  0.00000000000E+00 0.  1.
</event>
<event>
 7    1  0.7821043E-012  0.5930197E+02  0.7816164E-02  0.1266605E+00
        -11   -1    0    0    0    0  0.00000000000E+00  0.00000000000E+00  0.45593999997E+02  0.45594000000E+02  0.51100000000E-03 0.  1.
         11   -1    0    0    0    0 -0.00000000000E+00 -0.00000000000E+00 -0.45593999997E+02  0.45594000000E+02  0.51100000000E-03 0. -1.
    9900012    2    1    2    0    0 -0.17797507714E+02 -0.15867657494E+02  0.21170379153E+02  0.59301971890E+02  0.50000050813E+02 0.  0.
         12    1    1    2    0    0  0.17797507714E+02  0.15867657494E+02 -0.21170379153E+02  0.31886028110E+02  0.00000000000E+00 0. -1.
         11    1    3    3    0    0  0.73385311999E+01  0.10002669235E+02  0.96072584725E+01  0.15690979817E+02  0.51100000000E-03 0. -1.
        -11    1    3    3    0    0 -0.45918303479E+01 -0.20129576944E+02  0.69650799296E+01  0.21789839664E+02  0.51100000000E-03 0.  1.
         12    1    3    3    0    0 -0.20544208566E+02 -0.57407497848E+01  0.45980407511E+01  0.21821152409E+02  0.00000000000E+00 0. -1.
</event>
<event>
 7    1  0.7821043E-012  0.5930194E+02  0.7816164E-02  0.1266605E+00
        -11   -1    0    0    0    0  0.00000000000E+00  0.00000000000E+00  0.45593999997E+02  0.45594000000E+02  0.51100000000E-03 0.  1.
         11   -1    0    0    0    0 -0.00000000000E+00 -0.00000000000E+00 -0.45593999997E+02  0.45594000000E+02  0.51100000000E-03 0. -1.
    9900012    2    1    2    0    0  0.26252086484E+02  0.18026732333E+02  0.16079125420E+01  0.59301944959E+02  0.50000001698E+02 0.  0.
         12    1    1    2    0    0 -0.26252086484E+02 -0.18026732333E+02 -0.16079125420E+01  0.31886055041E+02  0.00000000000E+00 0. -1.
         11    1    3    3    0    0  0.40698948435E+01 -0.11657974587E+02  0.42463748297E+01  0.13057722426E+02  0.51100000000E-03 0. -1.
        -11    1    3    3    0    0  0.26309881995E+02  0.22018952740E+02  0.49894164342E+01  0.34668983933E+02  0.51100000000E-03 0.  1.
         12    1    3    3    0    0 -0.41276903552E+01  0.76657541804E+01 -0.76278787219E+01  0.11575238599E+02  0.00000000000E+00 0. -1.
</event>
<event>
 7    1  0.7821043E-012  0.5930193E+02  0.7816164E-02  0.1266605E+00
        -11   -1    0    0    0    0  0.00000000000E+00  0.00000000000E+00  0.45593999997E+02  0.45594000000E+02  0.51100000000E-03 0. -1.
         11   -1    0    0    0    0 -0.00000000000E+00 -0.00000000000E+00 -0.45593999997E+02  0.45594000000E+02  0.51100000000E-03 0.  1.
    9900012    2    1    2    0    0 -0.79554791905E+01 -0.29069611836E+02 -0.10411021908E+02  0.59301931590E+02  0.49999977317E+02 0.  0.
         12    1    1    2    0    0  0.79554791905E+01  0.29069611836E+02  0.10411021908E+02  0.31886068410E+02  0.00000000000E+00 0. -1.
         11    1    3    3    0    0 -0.82177787515E+01  0.94355232670E+00 -0.45597234142E+00  0.82843279534E+01  0.51100000000E-03 0. -1.
        -11    1    3    3    0    0 -0.63341600249E+01 -0.31006308789E+02 -0.21095024463E+02  0.38033049120E+02  0.51100000000E-03 0.  1.
        -12    1    3    3    0    0  0.65964595859E+01  0.99314462622E+00  0.11139974896E+02  0.12984554517E+02  0.00000000000E+00 0.  1.
</event>
<event>
 7    1  0.7821043E-012  0.5930195E+02  0.7816164E-02  0.1266605E+00
        -11   -1    0    0    0    0  0.00000000000E+00  0.00000000000E+00  0.45593999997E+02  0.45594000000E+02  0.51100000000E-03 0.  1.
         11   -1    0    0    0    0 -0.00000000000E+00 -0.00000000000E+00 -0.45593999997E+02  0.45594000000E+02  0.51100000000E-03 0. -1.
    9900012    2    1    2    0    0  0.30725008762E+02 -0.74185399764E+01  0.42022981237E+01  0.59301949628E+02  0.50000010214E+02 0.  0.
         12    1    1    2    0    0 -0.30725008762E+02  0.74185399764E+01 -0.42022981237E+01  0.31886050372E+02  0.00000000000E+00 0. -1.
         11    1    3    3    0    0 -0.64222969130E+01  0.15450866551E+00  0.87329851896E+00  0.64832415605E+01  0.51100000000E-03 0. -1.
        -11    1    3    3    0    0  0.24259989889E+02 -0.27951332461E+01 -0.15930943577E+02  0.29157414886E+02  0.51100000000E-03 0.  1.
        -12    1    3    3    0    0  0.12887315785E+02 -0.47779153958E+01  0.19259943182E+02  0.23661293182E+02  0.00000000000E+00 0.  1.
</event>
<event>
 7    1  0.7821043E-012  0.5930194E+02  0.7816164E-02  0.1266605E+00
        -11   -1    0    0    0    0  0.00000000000E+00  0.00000000000E+00  0.45593999997E+02  0.45594000000E+02  0.51100000000E-03 0. -1.
         11   -1    0    0    0    0 -0.00000000000E+00 -0.00000000000E+00 -0.45593999997E+02  0.45594000000E+02  0.51100000000E-03 0.  1.
    9900012    2    1    2    0    0 -0.23365197910E+02  0.20855069635E+02 -0.59878818290E+01  0.59301935150E+02  0.49999983809E+02 0.  0.
         12    1    1    2    0    0  0.23365197910E+02 -0.20855069635E+02  0.59878818290E+01  0.31886064850E+02  0.00000000000E+00 0. -1.
         11    1    3    3    0    0  0.52986121454E+01 -0.79534793252E+01 -0.46052326308E+00  0.95679258975E+01  0.51100000000E-03 0. -1.
        -11    1    3    3    0    0 -0.18586419031E+02  0.32816659172E+02 -0.34957494323E+00  0.37716180805E+02  0.51100000000E-03 0.  1.
        -12    1    3    3    0    0 -0.10077391025E+02 -0.40081102125E+01 -0.51777836227E+01  0.12017828447E+02  0.00000000000E+00 0.  1.
</event>
<event>
 7    1  0.7821043E-012  0.5930194E+02  0.7816164E-02  0.1266605E+00
        -11   -1    0    0    0    0  0.00000000000E+00  0.00000000000E+00  0.45593999997E+02  0.45594000000E+02  0.51100000000E-03 0.  1.
         11   -1    0    0    0    0 -0.00000000000E+00 -0.00000000000E+00 -0.45593999997E+02  0.45594000000E+02  0.51100000000E-03 0. -1.
    9900012    2    1    2    0    0  0.28830178729E+02  0.66723554796E+01  0.11875235295E+02  0.59301941189E+02  0.49999994822E+02 0.  0.
         12    1    1    2    0    0 -0.28830178729E+02 -0.66723554796E+01 -0.11875235295E+02  0.31886058811E+02  0.00000000000E+00 0. -1.
         11    1    3    3    0    0  0.27363947303E+01 -0.89879527433E+01 -0.13326523162E+02  0.16305439905E+02  0.51100000000E-03 0. -1.
        -11    1    3    3    0    0  0.10313960720E+02  0.13025524011E+02  0.52531710931E+01  0.17425207840E+02  0.51100000000E-03 0.  1.
         12    1    3    3    0    0  0.15779823280E+02  0.26347842120E+01  0.19948587364E+02  0.25571293444E+02  0.00000000000E+00 0. -1.
</event>
<event>
 7    1  0.7821043E-012  0.5930159E+02  0.7816164E-02  0.1266606E+00
        -11   -1    0    0    0    0  0.00000000000E+00  0.00000000000E+00  0.45593999997E+02  0.45594000000E+02  0.51100000000E-03 0.  1.
         11   -1    0    0    0    0 -0.00000000000E+00 -0.00000000000E+00 -0.45593999997E+02  0.45594000000E+02  0.51100000000E-03 0. -1.
    9900012    2    1    2    0    0 -0.21491420739E+02 -0.23271102528E+02 -0.36493915780E+01  0.59301585382E+02  0.49999345913E+02 0.  0.
         12    1    1    2    0    0  0.21491420739E+02  0.23271102528E+02  0.36493915780E+01  0.31886414618E+02  0.00000000000E+00 0. -1.
         11    1    3    3    0    0 -0.81583059923E-01 -0.48681173743E+01 -0.11673324366E+02  0.12647992907E+02  0.51100000000E-03 0. -1.
        -11    1    3    3    0    0 -0.13231777150E+02 -0.27817371090E+02  0.12721812717E+02  0.33327624878E+02  0.51100000000E-03 0.  1.
        -12    1    3    3    0    0 -0.81780605298E+01  0.94143859365E+01 -0.46978799289E+01  0.13325967598E+02  0.00000000000E+00 0.  1.
</event>
<event>
 7    1  0.7821043E-012  0.5930195E+02  0.7816164E-02  0.1266605E+00
        -11   -1    0    0    0    0  0.00000000000E+00  0.00000000000E+00  0.45593999997E+02  0.45594000000E+02  0.51100000000E-03 0. -1.
         11   -1    0    0    0    0 -0.00000000000E+00 -0.00000000000E+00 -0.45593999997E+02  0.45594000000E+02  0.51100000000E-03 0.  1.
    9900012    2    1    2    0    0 -0.83433025299E+01 -0.29882646927E+02 -0.73577868447E+01  0.59301948007E+02  0.50000007257E+02 0.  0.
         12    1    1    2    0    0  0.83433025299E+01  0.29882646927E+02  0.73577868447E+01  0.31886051993E+02  0.00000000000E+00 0. -1.
         11    1    3    3    0    0  0.24117148989E+01  0.10701474506E+01 -0.50816126008E+01  0.57257638098E+01  0.51100000000E-03 0. -1.
        -11    1    3    3    0    0 -0.82271033620E+01 -0.41476476053E+02 -0.45120607185E+01  0.42524604497E+02  0.51100000000E-03 0.  1.
        -12    1    3    3    0    0 -0.25279140669E+01  0.10523681675E+02  0.22358864746E+01  0.11051579700E+02  0.00000000000E+00 0.  1.
</event>
<event>
 7    1  0.7821043E-012  0.5930196E+02  0.7816164E-02  0.1266605E+00
        -11   -1    0    0    0    0  0.00000000000E+00  0.00000000000E+00  0.45593999997E+02  0.45594000000E+02  0.51100000000E-03 0. -1.
         11   -1    0    0    0    0 -0.00000000000E+00 -0.00000000000E+00 -0.45593999997E+02  0.45594000000E+02  0.51100000000E-03 0.  1.
    9900012    2    1    2    0    0 -0.88559607763E+01 -0.70428789979E+01 -0.29810889985E+02  0.59301963126E+02  0.50000034831E+02 0.  0.
         12    1    1    2    0    0  0.88559607763E+01  0.70428789979E+01  0.29810889985E+02  0.31886036874E+02  0.00000000000E+00 0. -1.
         11    1    3    3    0    0 -0.21037223619E+01 -0.11256931554E+02  0.10396941149E+02  0.15467402539E+02  0.51100000000E-03 0. -1.
        -11    1    3    3    0    0  0.27242258930E+01  0.68229218995E+01 -0.13402748870E+02  0.15284218904E+02  0.51100000000E-03 0.  1.
         12    1    3    3    0    0 -0.94764643075E+01 -0.26088693433E+01 -0.26805082264E+02  0.28550341683E+02  0.00000000000E+00 0. -1.
</event>
<event>
 7    1  0.7821043E-012  0.5930194E+02  0.7816164E-02  0.1266605E+00
        -11   -1    0    0    0    0  0.00000000000E+00  0.00000000000E+00  0.45593999997E+02  0.45594000000E+02  0.51100000000E-03 0.  1.
         11   -1    0    0    0    0 -0.00000000000E+00 -0.00000000000E+00 -0.45593999997E+02  0.45594000000E+02  0.51100000000E-03 0. -1.
    9900012    2    1    2    0    0 -0.15978152499E+02 -0.94781021857E+01  0.25914957766E+02  0.59301940125E+02  0.49999992882E+02 0.  0.
         12    1    1    2    0    0  0.15978152499E+02  0.94781021857E+01 -0.25914957766E+02  0.31886059875E+02  0.00000000000E+00 0. -1.
         11    1    3    3    0    0  0.62640852230E+01 -0.55030929954E+01  0.15943973877E+02  0.17992584568E+02  0.51100000000E-03 0. -1.
        -11    1    3    3    0    0 -0.15365976897E+02  0.13202783729E+02 -0.66629044227E-01  0.20259101261E+02  0.51100000000E-03 0.  1.
        -12    1    3    3    0    0 -0.68762608253E+01 -0.17177792920E+02  0.10037612933E+02  0.21050254296E+02  0.00000000000E+00 0.  1.
</event>
<event>
 7    1  0.7821043E-012  0.5930197E+02  0.7816164E-02  0.1266605E+00
        -11   -1    0    0    0    0  0.00000000000E+00  0.00000000000E+00  0.45593999997E+02  0.45594000000E+02  0.51100000000E-03 0. -1.
         11   -1    0    0    0    0 -0.00000000000E+00 -0.00000000000E+00 -0.45593999997E+02  0.45594000000E+02  0.51100000000E-03 0.  1.
    9900012    2    1    2    0    0 -0.25063339771E+02 -0.10854103085E+02 -0.16454077011E+02  0.59301965368E+02  0.50000038920E+02 0.  0.
         12    1    1    2    0    0  0.25063339771E+02  0.10854103085E+02  0.16454077011E+02  0.31886034632E+02  0.00000000000E+00 0. -1.
         11    1    3    3    0    0  0.76397317610E+01 -0.31041865175E+01 -0.15131856422E+00  0.82476889420E+01  0.51100000000E-03 0. -1.
        -11    1    3    3    0    0 -0.40046175067E+02 -0.48623891939E+01 -0.15094661212E+02  0.43071890643E+02  0.51100000000E-03 0.  1.
        -12    1    3    3    0    0  0.73431035352E+01 -0.28875273739E+01 -0.12080972346E+01  0.79823857832E+01  0.00000000000E+00 0.  1.
</event>
<event>
 7    1  0.7821043E-012  0.5930188E+02  0.7816164E-02  0.1266605E+00
        -11   -1    0    0    0    0  0.00000000000E+00  0.00000000000E+00  0.45593999997E+02  0.45594000000E+02  0.51100000000E-03 0.  1.
         11   -1    0    0    0    0 -0.00000000000E+00 -0.00000000000E+00 -0.45593999997E+02  0.45594000000E+02  0.51100000000E-03 0. -1.
    9900012    2    1    2    0    0 -0.27182226768E+02  0.16645378687E+02  0.88450144285E+00  0.59301883484E+02  0.49999889582E+02 0.  0.
         12    1    1    2    0    0  0.27182226768E+02 -0.16645378687E+02 -0.88450144285E+00  0.31886116516E+02  0.00000000000E+00 0. -1.
         11    1    3    3    0    0 -0.18689084320E+02  0.57041104120E+01 -0.56004222654E+01  0.20326915116E+02  0.51100000000E-03 0. -1.
        -11    1    3    3    0    0  0.98403035738E+01  0.28167639332E+01 -0.90074860571E+01  0.13634534785E+02  0.51100000000E-03 0.  1.
        -12    1    3    3    0    0 -0.18333446021E+02  0.81245043414E+01  0.15492409765E+02  0.25340433582E+02  0.00000000000E+00 0.  1.
</event>
<event>
 7    1  0.7821043E-012  0.5930192E+02  0.7816164E-02  0.1266605E+00
        -11   -1    0    0    0    0  0.00000000000E+00  0.00000000000E+00  0.45593999997E+02  0.45594000000E+02  0.51100000000E-03 0. -1.
         11   -1    0    0    0    0 -0.00000000000E+00 -0.00000000000E+00 -0.45593999997E+02  0.45594000000E+02  0.51100000000E-03 0.  1.
    9900012    2    1    2    0    0 -0.24097935479E+02  0.96993124093E+01 -0.18491485432E+02  0.59301918568E+02  0.49999953568E+02 0.  0.
         12    1    1    2    0    0  0.24097935479E+02 -0.96993124093E+01  0.18491485432E+02  0.31886081432E+02  0.00000000000E+00 0. -1.
         11    1    3    3    0    0  0.11796232135E+02  0.34373536310E+01  0.32964254251E+01  0.12721356587E+02  0.51100000000E-03 0. -1.
        -11    1    3    3    0    0 -0.30704456579E+02  0.54158305438E+01 -0.85393893597E+01  0.32326707923E+02  0.51100000000E-03 0.  1.
        -12    1    3    3    0    0 -0.51897110357E+01  0.84612823452E+00 -0.13248521498E+02  0.14253854058E+02  0.00000000000E+00 0.  1.
</event>
<event>
 7    1  0.7821043E-012  0.5930194E+02  0.7816164E-02  0.1266605E+00
        -11   -1    0    0    0    0  0.00000000000E+00  0.00000000000E+00  0.45593999997E+02  0.45594000000E+02  0.51100000000E-03 0. -1.
         11   -1    0    0    0    0 -0.00000000000E+00 -0.00000000000E+00 -0.45593999997E+02  0.45594000000E+02  0.51100000000E-03 0.  1.
    9900012    2    1    2    0    0  0.67675029268E+01  0.13444843485E+02 -0.28109747461E+02  0.59301940123E+02  0.49999992878E+02 0.  0.
         12    1    1    2    0    0 -0.67675029268E+01 -0.13444843485E+02  0.28109747461E+02  0.31886059877E+02  0.00000000000E+00 0. -1.
         11    1    3    3    0    0 -0.45106011872E+01  0.21962102155E+02 -0.31661458558E+00  0.22422749591E+02  0.51100000000E-03 0. -1.
        -11    1    3    3    0    0  0.27853523766E+01 -0.10258480044E+02 -0.25912597156E+02  0.28008164744E+02  0.51100000000E-03 0.  1.
         12    1    3    3    0    0  0.84927517374E+01  0.17412213734E+01 -0.18805357186E+01  0.88710257881E+01  0.00000000000E+00 0. -1.
</event>
<event>
 7    1  0.7821043E-012  0.5930195E+02  0.7816164E-02  0.1266605E+00
        -11   -1    0    0    0    0  0.00000000000E+00  0.00000000000E+00  0.45593999997E+02  0.45594000000E+02  0.51100000000E-03 0.  1.
         11   -1    0    0    0    0 -0.00000000000E+00 -0.00000000000E+00 -0.45593999997E+02  0.45594000000E+02  0.51100000000E-03 0. -1.
    9900012    2    1    2    0    0  0.22752151943E+02 -0.22239637911E+02 -0.21114119912E+01  0.59301953317E+02  0.50000016942E+02 0.  0.
         12    1    1    2    0    0 -0.22752151943E+02  0.22239637911E+02  0.21114119912E+01  0.31886046683E+02  0.00000000000E+00 0. -1.
         11    1    3    3    0    0  0.23468581119E+02 -0.14854172104E+02 -0.16904243776E+02  0.32514215146E+02  0.51100000000E-03 0. -1.
        -11    1    3    3    0    0 -0.26379733190E+00 -0.14720356851E+02  0.11738177147E+02  0.18829320164E+02  0.51100000000E-03 0.  1.
        -12    1    3    3    0    0 -0.45263184422E+00  0.73348910444E+01  0.30546546379E+01  0.79584180072E+01  0.00000000000E+00 0.  1.
</event>
<event>
 7    1  0.7821043E-012  0.5930194E+02  0.7816164E-02  0.1266605E+00
        -11   -1    0    0    0    0  0.00000000000E+00  0.00000000000E+00  0.45593999997E+02  0.45594000000E+02  0.51100000000E-03 0.  1.
         11   -1    0    0    0    0 -0.00000000000E+00 -0.00000000000E+00 -0.45593999997E+02  0.45594000000E+02  0.51100000000E-03 0. -1.
    9900012    2    1    2    0    0  0.84813025486E+01  0.19783524315E+02  0.23524463182E+02  0.59301941992E+02  0.49999996288E+02 0.  0.
         12    1    1    2    0    0 -0.84813025486E+01 -0.19783524315E+02 -0.23524463182E+02  0.31886058008E+02  0.00000000000E+00 0. -1.
         11    1    3    3    0    0 -0.30661063051E+01 -0.41866671985E+01 -0.35826693492E+01  0.63059265800E+01  0.51100000000E-03 0. -1.
        -11    1    3    3    0    0 -0.47602531465E+01  0.16040602688E+02  0.30272182177E+02  0.34588523510E+02  0.51100000000E-03 0.  1.
        -12    1    3    3    0    0  0.16307662000E+02  0.79295888259E+01 -0.31650496457E+01  0.18407491902E+02  0.00000000000E+00 0.  1.
</event>
<event>
 7    1  0.7821043E-012  0.5930194E+02  0.7816164E-02  0.1266605E+00
        -11   -1    0    0    0    0  0.00000000000E+00  0.00000000000E+00  0.45593999997E+02  0.45594000000E+02  0.51100000000E-03 0.  1.
         11   -1    0    0    0    0 -0.00000000000E+00 -0.00000000000E+00 -0.45593999997E+02  0.45594000000E+02  0.51100000000E-03 0. -1.
    9900012    2    1    2    0    0  0.12608161494E+02 -0.19921962491E+02  0.21467897233E+02  0.59301938196E+02  0.49999989365E+02 0.  0.
         12    1    1    2    0    0 -0.12608161494E+02  0.19921962491E+02 -0.21467897233E+02  0.31886061804E+02  0.00000000000E+00 0. -1.
         11    1    3    3    0    0  0.18633732130E+01 -0.35055840588E+02  0.15854198661E+02  0.38519342343E+02  0.51100000000E-03 0.  1.
        -11    1    3    3    0    0  0.95293487035E+01  0.11282243386E+02  0.72168902496E+01  0.16437183691E+02  0.51100000000E-03 0. -1.
        -12    1    3    3    0    0  0.12154395772E+01  0.38516347104E+01 -0.16031916782E+01  0.43454121629E+01  0.00000000000E+00 0.  1.
</event>
<event>
 7    1  0.7821043E-012  0.5930193E+02  0.7816164E-02  0.1266605E+00
        -11   -1    0    0    0    0  0.00000000000E+00  0.00000000000E+00  0.45593999997E+02  0.45594000000E+02  0.51100000000E-03 0. -1.
         11   -1    0    0    0    0 -0.00000000000E+00 -0.00000000000E+00 -0.45593999997E+02  0.45594000000E+02  0.51100000000E-03 0.  1.
    9900012    2    1    2    0    0  0.18032216133E+02 -0.23885258858E+02  0.11002502721E+02  0.59301929757E+02  0.49999973974E+02 0.  0.
         12    1    1    2    0    0 -0.18032216133E+02  0.23885258858E+02 -0.11002502721E+02  0.31886070243E+02  0.00000000000E+00 0. -1.
         11    1    3    3    0    0  0.59550268173E+01  0.12391891341E+02  0.10491257738E+02  0.17294155215E+02  0.51100000000E-03 0. -1.
        -11    1    3    3    0    0  0.95080276686E+01 -0.10882151845E+02 -0.60298926762E+01  0.15658334039E+02  0.51100000000E-03 0.  1.
         12    1    3    3    0    0  0.25691616475E+01 -0.25394998354E+02  0.65411376594E+01  0.26349440504E+02  0.00000000000E+00 0. -1.
</event>
<event>
 7    1  0.7821043E-012  0.5930195E+02  0.7816164E-02  0.1266605E+00
        -11   -1    0    0    0    0  0.00000000000E+00  0.00000000000E+00  0.45593999997E+02  0.45594000000E+02  0.51100000000E-03 0.  1.
         11   -1    0    0    0    0 -0.00000000000E+00 -0.00000000000E+00 -0.45593999997E+02  0.45594000000E+02  0.51100000000E-03 0. -1.
    9900012    2    1    2    0    0  0.22824154535E+02  0.25178975140E+01  0.22123248598E+02  0.59301953418E+02  0.50000017125E+02 0.  0.
         12    1    1    2    0    0 -0.22824154535E+02 -0.25178975140E+01 -0.22123248598E+02  0.31886046582E+02  0.00000000000E+00 0. -1.
         11    1    3    3    0    0  0.41457249838E+01  0.12725925229E+02 -0.12503961199E+02  0.18316256564E+02  0.51100000000E-03 0. -1.
        -11    1    3    3    0    0  0.20704141760E+01 -0.11779528856E+01  0.78813030032E+01  0.82334151571E+01  0.51100000000E-03 0.  1.
         12    1    3    3    0    0  0.16608015376E+02 -0.90300748294E+01  0.26745906794E+02  0.32752281697E+02  0.00000000000E+00 0. -1.
</event>
<event>
 7    1  0.7821043E-012  0.5930197E+02  0.7816164E-02  0.1266605E+00
        -11   -1    0    0    0    0  0.00000000000E+00  0.00000000000E+00  0.45593999997E+02  0.45594000000E+02  0.51100000000E-03 0.  1.
         11   -1    0    0    0    0 -0.00000000000E+00 -0.00000000000E+00 -0.45593999997E+02  0.45594000000E+02  0.51100000000E-03 0. -1.
    9900012    2    1    2    0    0  0.88526563850E+01 -0.14420044514E+02  0.27026127058E+02  0.59301972455E+02  0.50000051844E+02 0.  0.
         12    1    1    2    0    0 -0.88526563850E+01  0.14420044514E+02 -0.27026127058E+02  0.31886027545E+02  0.00000000000E+00 0. -1.
         11    1    3    3    0    0  0.21083310309E+01  0.27908601772E+01 -0.20081327112E+01  0.40331820578E+01  0.51100000000E-03 0. -1.
        -11    1    3    3    0    0 -0.12456894511E+02 -0.91358174294E+01  0.30704768510E+02  0.34371793531E+02  0.51100000000E-03 0.  1.
        -12    1    3    3    0    0  0.19201219865E+02 -0.80750872617E+01 -0.16705087415E+01  0.20896996867E+02  0.00000000000E+00 0.  1.
</event>
<event>
 7    1  0.7821043E-012  0.5930193E+02  0.7816164E-02  0.1266605E+00
        -11   -1    0    0    0    0  0.00000000000E+00  0.00000000000E+00  0.45593999997E+02  0.45594000000E+02  0.51100000000E-03 0. -1.
         11   -1    0    0    0    0 -0.00000000000E+00 -0.00000000000E+00 -0.45593999997E+02  0.45594000000E+02  0.51100000000E-03 0.  1.
    9900012    2    1    2    0    0 -0.25840576473E+02  0.18293052186E+01 -0.18591384622E+02  0.59301932005E+02  0.49999978073E+02 0.  0.
         12    1    1    2    0    0  0.25840576473E+02 -0.18293052186E+01  0.18591384622E+02  0.31886067995E+02  0.00000000000E+00 0. -1.
         11    1    3    3    0    0  0.66615132638E+01  0.28115314576E+01  0.75265810479E+01  0.10436948339E+02  0.51100000000E-03 0. -1.
        -11    1    3    3    0    0 -0.22493420202E+02  0.11108663720E+02 -0.19742185351E+02  0.31923506147E+02  0.51100000000E-03 0.  1.
        -12    1    3    3    0    0 -0.10008669535E+02 -0.12090889958E+02 -0.63757803189E+01  0.16941477519E+02  0.00000000000E+00 0.  1.
</event>
<event>
 7    1  0.7821043E-012  0.5930193E+02  0.7816164E-02  0.1266605E+00
        -11   -1    0    0    0    0  0.00000000000E+00  0.00000000000E+00  0.45593999997E+02  0.45594000000E+02  0.51100000000E-03 0.  1.
         11   -1    0    0    0    0 -0.00000000000E+00 -0.00000000000E+00 -0.45593999997E+02  0.45594000000E+02  0.51100000000E-03 0. -1.
    9900012    2    1    2    0    0 -0.22804402917E+02 -0.79912150800E+01  0.20804351802E+02  0.59301931494E+02  0.49999977142E+02 0.  0.
         12    1    1    2    0    0  0.22804402917E+02  0.79912150800E+01 -0.20804351802E+02  0.31886068506E+02  0.00000000000E+00 0. -1.
         11    1    3    3    0    0  0.71375425524E+01 -0.41505659401E+01 -0.96087591334E+01  0.12668858025E+02  0.51100000000E-03 0. -1.
        -11    1    3    3    0    0 -0.83955605670E+01  0.70545877488E+01  0.70567966778E+01  0.13040361389E+02  0.51100000000E-03 0.  1.
         12    1    3    3    0    0 -0.21546384903E+02 -0.10895236889E+02  0.23356314257E+02  0.33592712080E+02  0.00000000000E+00 0. -1.
</event>
<event>
 7    1  0.7821043E-012  0.5930195E+02  0.7816164E-02  0.1266605E+00
        -11   -1    0    0    0    0  0.00000000000E+00  0.00000000000E+00  0.45593999997E+02  0.45594000000E+02  0.51100000000E-03 0.  1.
         11   -1    0    0    0    0 -0.00000000000E+00 -0.00000000000E+00 -0.45593999997E+02  0.45594000000E+02  0.51100000000E-03 0. -1.
    9900012    2    1    2    0    0 -0.10608035233E+02 -0.31411961671E+01  0.29905226268E+02  0.59301951593E+02  0.50000013798E+02 0.  0.
         12    1    1    2    0    0  0.10608035233E+02  0.31411961671E+01 -0.29905226268E+02  0.31886048407E+02  0.00000000000E+00 0. -1.
         11    1    3    3    0    0  0.38251538468E+01  0.53237748036E+01  0.69233102420E+01  0.95344955336E+01  0.51100000000E-03 0. -1.
        -11    1    3    3    0    0  0.56666750040E+01 -0.16129985434E+02 -0.15180593872E+01  0.17163686674E+02  0.51100000000E-03 0.  1.
        -12    1    3    3    0    0 -0.20099864084E+02  0.76650144628E+01  0.24499975413E+02  0.32603769385E+02  0.00000000000E+00 0.  1.
</event>
<event>
 7    1  0.7821043E-012  0.5930194E+02  0.7816164E-02  0.1266605E+00
        -11   -1    0    0    0    0  0.00000000000E+00  0.00000000000E+00  0.45593999997E+02  0.45594000000E+02  0.51100000000E-03 0. -1.
         11   -1    0    0    0    0 -0.00000000000E+00 -0.00000000000E+00 -0.45593999997E+02  0.45594000000E+02  0.51100000000E-03 0.  1.
    9900012    2    1    2    0    0  0.11199243234E+02  0.25071276992E+02 -0.16208910686E+02  0.59301940904E+02  0.49999994303E+02 0.  0.
         12    1    1    2    0    0 -0.11199243234E+02 -0.25071276992E+02  0.16208910686E+02  0.31886059096E+02  0.00000000000E+00 0. -1.
         11    1    3    3    0    0 -0.11931979945E+02  0.44229222110E+01  0.11549575455E+02  0.17185083059E+02  0.51100000000E-03 0. -1.
        -11    1    3    3    0    0  0.12828796783E+02  0.11485198156E+02 -0.19628336681E+02  0.26110522874E+02  0.51100000000E-03 0.  1.
         12    1    3    3    0    0  0.10302426395E+02  0.91631566250E+01 -0.81301494602E+01  0.16006334971E+02  0.00000000000E+00 0. -1.
</event>
<event>
 7    1  0.8723779E-012  0.5930194E+02  0.7816164E-02  0.1266605E+00
        -11   -1    0    0    0    0  0.00000000000E+00  0.00000000000E+00  0.45593999997E+02  0.45594000000E+02  0.51100000000E-03 0. -1.
         11   -1    0    0    0    0 -0.00000000000E+00 -0.00000000000E+00 -0.45593999997E+02  0.45594000000E+02  0.51100000000E-03 0.  1.
    9900012    2    1    2    0    0 -0.29246517326E+02  0.12570044346E+02 -0.18318997960E+01  0.59301942743E+02  0.49999997656E+02 0.  0.
         12    1    1    2    0    0  0.29246517326E+02 -0.12570044346E+02  0.18318997960E+01  0.31886057257E+02  0.00000000000E+00 0. -1.
         11    1    3    3    0    0 -0.11330721291E+02 -0.44538416752E+01  0.12018449307E+02  0.17107456698E+02  0.51100000000E-03 0. -1.
        -11    1    3    3    0    0 -0.25974788818E+02  0.12014846774E+02 -0.15525416849E+02  0.32558942946E+02  0.51100000000E-03 0.  1.
         12    1    3    3    0    0  0.80589927831E+01  0.50090392474E+01  0.16750677461E+01  0.96355430991E+01  0.00000000000E+00 0. -1.
</event>
<event>
 7    1  0.7821043E-012  0.5930192E+02  0.7816164E-02  0.1266605E+00
        -11   -1    0    0    0    0  0.00000000000E+00  0.00000000000E+00  0.45593999997E+02  0.45594000000E+02  0.51100000000E-03 0. -1.
         11   -1    0    0    0    0 -0.00000000000E+00 -0.00000000000E+00 -0.45593999997E+02  0.45594000000E+02  0.51100000000E-03 0.  1.
    9900012    2    1    2    0    0 -0.21054925119E+02  0.13439197021E+02 -0.19819184340E+02  0.59301922219E+02  0.49999960225E+02 0.  0.
         12    1    1    2    0    0  0.21054925119E+02 -0.13439197021E+02  0.19819184340E+02  0.31886077781E+02  0.00000000000E+00 0. -1.
         11    1    3    3    0    0  0.69030634296E+01  0.44690057415E+01  0.87007540126E+01  0.11971942937E+02  0.51100000000E-03 0. -1.
        -11    1    3    3    0    0 -0.16857096353E+02  0.16340565364E+02 -0.12861176020E+02  0.26769116958E+02  0.51100000000E-03 0.  1.
        -12    1    3    3    0    0 -0.11100892196E+02 -0.73703740836E+01 -0.15658762334E+02  0.20560862324E+02  0.00000000000E+00 0.  1.
</event>
<event>
 7    1  0.7821043E-012  0.5930191E+02  0.7816164E-02  0.1266605E+00
        -11   -1    0    0    0    0  0.00000000000E+00  0.00000000000E+00  0.45593999997E+02  0.45594000000E+02  0.51100000000E-03 0. -1.
         11   -1    0    0    0    0 -0.00000000000E+00 -0.00000000000E+00 -0.45593999997E+02  0.45594000000E+02  0.51100000000E-03 0.  1.
    9900012    2    1    2    0    0  0.11107024808E+01  0.20807293946E+02 -0.24135985077E+02  0.59301907154E+02  0.49999932750E+02 0.  0.
         12    1    1    2    0    0 -0.11107024808E+01 -0.20807293946E+02  0.24135985077E+02  0.31886092846E+02  0.00000000000E+00 0. -1.
         11    1    3    3    0    0 -0.13741756274E+02  0.18690295822E+02 -0.84645104616E+01  0.24694350792E+02  0.51100000000E-03 0. -1.
        -11    1    3    3    0    0  0.19895622914E+02  0.87031183661E+01 -0.14771628624E+02  0.26263683917E+02  0.51100000000E-03 0.  1.
         12    1    3    3    0    0 -0.50431641583E+01 -0.65861202418E+01 -0.89984599140E+00  0.83438724448E+01  0.00000000000E+00 0. -1.
</event>
<event>
 7    1  0.7821043E-012  0.5930191E+02  0.7816164E-02  0.1266605E+00
        -11   -1    0    0    0    0  0.00000000000E+00  0.00000000000E+00  0.45593999997E+02  0.45594000000E+02  0.51100000000E-03 0. -1.
         11   -1    0    0    0    0 -0.00000000000E+00 -0.00000000000E+00 -0.45593999997E+02  0.45594000000E+02  0.51100000000E-03 0.  1.
    9900012    2    1    2    0    0  0.17444840973E+02  0.24351485305E+02 -0.10927274974E+02  0.59301911317E+02  0.49999940344E+02 0.  0.
         12    1    1    2    0    0 -0.17444840973E+02 -0.24351485305E+02  0.10927274974E+02  0.31886088683E+02  0.00000000000E+00 0. -1.
         11    1    3    3    0    0 -0.74956734179E+01  0.58924215035E+01  0.14942151622E+02  0.17724944190E+02  0.51100000000E-03 0. -1.
        -11    1    3    3    0    0  0.91012927701E+01  0.11761610816E+02 -0.15571967999E+02  0.21532654428E+02  0.51100000000E-03 0.  1.
         12    1    3    3    0    0  0.15839221621E+02  0.66974529856E+01 -0.10297458597E+02  0.20044312700E+02  0.00000000000E+00 0. -1.
</event>
<event>
 7    1  0.7821043E-012  0.5930209E+02  0.7816164E-02  0.1266604E+00
        -11   -1    0    0    0    0  0.00000000000E+00  0.00000000000E+00  0.45593999997E+02  0.45594000000E+02  0.51100000000E-03 0. -1.
         11   -1    0    0    0    0 -0.00000000000E+00 -0.00000000000E+00 -0.45593999997E+02  0.45594000000E+02  0.51100000000E-03 0.  1.
    9900012    2    1    2    0    0 -0.30107676129E+01 -0.15737385466E+02 -0.27567757971E+02  0.59302089280E+02  0.50000264904E+02 0.  0.
         12    1    1    2    0    0  0.30107676129E+01  0.15737385466E+02  0.27567757971E+02  0.31885910720E+02  0.00000000000E+00 0. -1.
         11    1    3    3    0    0  0.72894490191E+01  0.14117079277E+02 -0.56782196651E+01  0.16872171560E+02  0.51100000000E-03 0. -1.
        -11    1    3    3    0    0 -0.13058381515E+02 -0.27289524773E+02 -0.13293210925E+02  0.33044650808E+02  0.51100000000E-03 0.  1.
        -12    1    3    3    0    0  0.27581648830E+01 -0.25649399700E+01 -0.85963273807E+01  0.93852669119E+01  0.00000000000E+00 0.  1.
</event>
<event>
 7    1  0.7821043E-012  0.5930198E+02  0.7816164E-02  0.1266605E+00
        -11   -1    0    0    0    0  0.00000000000E+00  0.00000000000E+00  0.45593999997E+02  0.45594000000E+02  0.51100000000E-03 0.  1.
         11   -1    0    0    0    0 -0.00000000000E+00 -0.00000000000E+00 -0.45593999997E+02  0.45594000000E+02  0.51100000000E-03 0. -1.
    9900012    2    1    2    0    0 -0.22588450328E+02 -0.22423000515E+02 -0.19206989799E+01  0.59301982298E+02  0.50000069796E+02 0.  0.
         12    1    1    2    0    0  0.22588450328E+02  0.22423000515E+02  0.19206989799E+01  0.31886017702E+02  0.00000000000E+00 0. -1.
         11    1    3    3    0    0 -0.87702060021E-01  0.72071113950E+01  0.74623873379E+01  0.10374843197E+02  0.51100000000E-03 0. -1.
        -11    1    3    3    0    0 -0.92351436853E+01 -0.66923913185E+01 -0.17786542009E+02  0.21129057181E+02  0.51100000000E-03 0.  1.
        -12    1    3    3    0    0 -0.13265604583E+02 -0.22937720592E+02  0.84034556917E+01  0.27798081920E+02  0.00000000000E+00 0.  1.
</event>
<event>
 7    1  0.7821043E-012  0.5930196E+02  0.7816164E-02  0.1266605E+00
        -11   -1    0    0    0    0  0.00000000000E+00  0.00000000000E+00  0.45593999997E+02  0.45594000000E+02  0.51100000000E-03 0.  1.
         11   -1    0    0    0    0 -0.00000000000E+00 -0.00000000000E+00 -0.45593999997E+02  0.45594000000E+02  0.51100000000E-03 0. -1.
    9900012    2    1    2    0    0 -0.26063403865E+02  0.13877164587E+02  0.12035079354E+02  0.59301955199E+02  0.50000020374E+02 0.  0.
         12    1    1    2    0    0  0.26063403865E+02 -0.13877164587E+02 -0.12035079354E+02  0.31886044801E+02  0.00000000000E+00 0. -1.
         11    1    3    3    0    0  0.94248611874E+01 -0.12946203399E+01  0.17374417963E+02  0.19808443908E+02  0.51100000000E-03 0.  1.
        -11    1    3    3    0    0 -0.30901393184E+02  0.15421731139E+02 -0.48191168583E+01  0.34870471456E+02  0.51100000000E-03 0. -1.
        -12    1    3    3    0    0 -0.45868718683E+01 -0.24994621215E+00 -0.52022175110E+00  0.46230398349E+01  0.00000000000E+00 0.  1.
</event>
<event>
 7    1  0.7821043E-012  0.5930195E+02  0.7816164E-02  0.1266605E+00
        -11   -1    0    0    0    0  0.00000000000E+00  0.00000000000E+00  0.45593999997E+02  0.45594000000E+02  0.51100000000E-03 0. -1.
         11   -1    0    0    0    0 -0.00000000000E+00 -0.00000000000E+00 -0.45593999997E+02  0.45594000000E+02  0.51100000000E-03 0.  1.
    9900012    2    1    2    0    0  0.30592050087E+02 -0.61975049711E+01  0.65144029996E+01  0.59301952223E+02  0.50000014946E+02 0.  0.
         12    1    1    2    0    0 -0.30592050087E+02  0.61975049711E+01 -0.65144029996E+01  0.31886047777E+02  0.00000000000E+00 0. -1.
         11    1    3    3    0    0  0.18449916805E+02  0.15042464139E+02  0.93379933451E+01  0.25570945964E+02  0.51100000000E-03 0. -1.
        -11    1    3    3    0    0 -0.44301494775E+00 -0.14036788140E+02  0.75093118388E+01  0.15925371207E+02  0.51100000000E-03 0.  1.
        -12    1    3    3    0    0  0.12585148230E+02 -0.72031809706E+01 -0.10332902184E+02  0.17805635052E+02  0.00000000000E+00 0.  1.
</event>
<event>
 7    1  0.7821043E-012  0.5930193E+02  0.7816164E-02  0.1266605E+00
        -11   -1    0    0    0    0  0.00000000000E+00  0.00000000000E+00  0.45593999997E+02  0.45594000000E+02  0.51100000000E-03 0. -1.
         11   -1    0    0    0    0 -0.00000000000E+00 -0.00000000000E+00 -0.45593999997E+02  0.45594000000E+02  0.51100000000E-03 0.  1.
    9900012    2    1    2    0    0  0.85891559497E+01 -0.30324288680E+02 -0.48358198627E+01  0.59301933487E+02  0.49999980777E+02 0.  0.
         12    1    1    2    0    0 -0.85891559497E+01  0.30324288680E+02  0.48358198627E+01  0.31886066513E+02  0.00000000000E+00 0. -1.
         11    1    3    3    0    0  0.12658073306E+02 -0.34179165254E+02 -0.13392109208E+01  0.36472395636E+02  0.51100000000E-03 0. -1.
        -11    1    3    3    0    0 -0.81570643634E+01  0.28497051282E+01 -0.11143170272E+02  0.14100665315E+02  0.51100000000E-03 0.  1.
         12    1    3    3    0    0  0.40881470069E+01  0.10051714455E+01  0.76465613300E+01  0.87288725365E+01  0.00000000000E+00 0. -1.
</event>
<event>
 7    1  0.7821043E-012  0.5930192E+02  0.7816164E-02  0.1266605E+00
        -11   -1    0    0    0    0  0.00000000000E+00  0.00000000000E+00  0.45593999997E+02  0.45594000000E+02  0.51100000000E-03 0. -1.
         11   -1    0    0    0    0 -0.00000000000E+00 -0.00000000000E+00 -0.45593999997E+02  0.45594000000E+02  0.51100000000E-03 0.  1.
    9900012    2    1    2    0    0 -0.45515907675E+01 -0.29199894158E+02 -0.11973786880E+02  0.59301915738E+02  0.49999948406E+02 0.  0.
         12    1    1    2    0    0  0.45515907675E+01  0.29199894158E+02  0.11973786880E+02  0.31886084262E+02  0.00000000000E+00 0. -1.
         11    1    3    3    0    0  0.11457090106E+01  0.89398671474E+01 -0.31435710437E+01  0.95454655685E+01  0.51100000000E-03 0. -1.
        -11    1    3    3    0    0 -0.14370541654E+02 -0.20747783943E+02 -0.15007876068E+02  0.29363571825E+02  0.51100000000E-03 0.  1.
         12    1    3    3    0    0  0.86732418762E+01 -0.17391977362E+02  0.61776602322E+01  0.20392878344E+02  0.00000000000E+00 0. -1.
</event>
<event>
 7    1  0.7821043E-012  0.5930202E+02  0.7816164E-02  0.1266605E+00
        -11   -1    0    0    0    0  0.00000000000E+00  0.00000000000E+00  0.45593999997E+02  0.45594000000E+02  0.51100000000E-03 0. -1.
         11   -1    0    0    0    0 -0.00000000000E+00 -0.00000000000E+00 -0.45593999997E+02  0.45594000000E+02  0.51100000000E-03 0.  1.
    9900012    2    1    2    0    0 -0.94016991312E+01  0.30468327136E+02  0.70625293907E-01  0.59302017297E+02  0.50000133626E+02 0.  0.
         12    1    1    2    0    0  0.94016991312E+01 -0.30468327136E+02 -0.70625293907E-01  0.31885982703E+02  0.00000000000E+00 0. -1.
         11    1    3    3    0    0  0.22422025929E+01 -0.63842521881E+01  0.12064766017E+02  0.13832741152E+02  0.51100000000E-03 0. -1.
        -11    1    3    3    0    0 -0.28442866993E+01  0.26945744565E+02  0.72069422116E+00  0.27105027530E+02  0.51100000000E-03 0.  1.
         12    1    3    3    0    0 -0.87996150248E+01  0.99068347583E+01 -0.12714834944E+02  0.18364248615E+02  0.00000000000E+00 0. -1.
</event>
<event>
 7    1  0.7821043E-012  0.5930194E+02  0.7816164E-02  0.1266605E+00
        -11   -1    0    0    0    0  0.00000000000E+00  0.00000000000E+00  0.45593999997E+02  0.45594000000E+02  0.51100000000E-03 0. -1.
         11   -1    0    0    0    0 -0.00000000000E+00 -0.00000000000E+00 -0.45593999997E+02  0.45594000000E+02  0.51100000000E-03 0.  1.
    9900012    2    1    2    0    0 -0.26270573539E+02 -0.18063037494E+02  0.55202230317E+00  0.59301935862E+02  0.49999985108E+02 0.  0.
         12    1    1    2    0    0  0.26270573539E+02  0.18063037494E+02 -0.55202230317E+00  0.31886064138E+02  0.00000000000E+00 0. -1.
         11    1    3    3    0    0 -0.39435223858E+00  0.10068707493E+02  0.55238093664E+01  0.11491164190E+02  0.51100000000E-03 0. -1.
        -11    1    3    3    0    0 -0.20681456229E+02 -0.33618451268E+02 -0.67626433150E+01  0.40045676949E+02  0.51100000000E-03 0.  1.
        -12    1    3    3    0    0 -0.51947650705E+01  0.54867062805E+01  0.17908562518E+01  0.77650947232E+01  0.00000000000E+00 0.  1.
</event>
<event>
 7    1  0.7821043E-012  0.5930197E+02  0.7816164E-02  0.1266605E+00
        -11   -1    0    0    0    0  0.00000000000E+00  0.00000000000E+00  0.45593999997E+02  0.45594000000E+02  0.51100000000E-03 0.  1.
         11   -1    0    0    0    0 -0.00000000000E+00 -0.00000000000E+00 -0.45593999997E+02  0.45594000000E+02  0.51100000000E-03 0. -1.
    9900012    2    1    2    0    0 -0.13361805267E+02 -0.18429460393E+02  0.22327921488E+02  0.59301969699E+02  0.50000046818E+02 0.  0.
         12    1    1    2    0    0  0.13361805267E+02  0.18429460393E+02 -0.22327921488E+02  0.31886030301E+02  0.00000000000E+00 0. -1.
         11    1    3    3    0    0  0.83562480846E+01 -0.75568939909E-01 -0.35082643914E+01  0.90631402956E+01  0.51100000000E-03 0. -1.
        -11    1    3    3    0    0 -0.14573534167E+02  0.12797611826E+00  0.26685479103E+02  0.30405905203E+02  0.51100000000E-03 0.  1.
        -12    1    3    3    0    0 -0.71445191852E+01 -0.18481867572E+02 -0.84929322384E+00  0.19832924200E+02  0.00000000000E+00 0.  1.
</event>
<event>
 7    1  0.7821043E-012  0.5930195E+02  0.7816164E-02  0.1266605E+00
        -11   -1    0    0    0    0  0.00000000000E+00  0.00000000000E+00  0.45593999997E+02  0.45594000000E+02  0.51100000000E-03 0.  1.
         11   -1    0    0    0    0 -0.00000000000E+00 -0.00000000000E+00 -0.45593999997E+02  0.45594000000E+02  0.51100000000E-03 0. -1.
    9900012    2    1    2    0    0  0.38996478715E+01  0.28765197619E+02  0.13193789264E+02  0.59301954107E+02  0.50000018382E+02 0.  0.
         12    1    1    2    0    0 -0.38996478715E+01 -0.28765197619E+02 -0.13193789264E+02  0.31886045893E+02  0.00000000000E+00 0. -1.
         11    1    3    3    0    0  0.20717615149E+02  0.13570743732E+02  0.16199522668E+02  0.29594073695E+02  0.51100000000E-03 0. -1.
        -11    1    3    3    0    0 -0.12310986981E+02  0.89635595130E+00  0.42473486752E+01  0.13053881624E+02  0.51100000000E-03 0.  1.
         12    1    3    3    0    0 -0.45069802971E+01  0.14298097936E+02 -0.72530820798E+01  0.16653998788E+02  0.00000000000E+00 0. -1.
</event>
<event>
 7    1  0.7821043E-012  0.5930195E+02  0.7816164E-02  0.1266605E+00
        -11   -1    0    0    0    0  0.00000000000E+00  0.00000000000E+00  0.45593999997E+02  0.45594000000E+02  0.51100000000E-03 0. -1.
         11   -1    0    0    0    0 -0.00000000000E+00 -0.00000000000E+00 -0.45593999997E+02  0.45594000000E+02  0.51100000000E-03 0.  1.
    9900012    2    1    2    0    0 -0.21817246331E+02  0.23241406274E+02 -0.75185305440E+00  0.59301945273E+02  0.50000002272E+02 0.  0.
         12    1    1    2    0    0  0.21817246331E+02 -0.23241406274E+02  0.75185305440E+00  0.31886054727E+02  0.00000000000E+00 0. -1.
         11    1    3    3    0    0 -0.29117998474E+01 -0.10044477388E+02  0.92768326483E+01  0.13979618328E+02  0.51100000000E-03 0. -1.
        -11    1    3    3    0    0 -0.20445877296E+02  0.33108845641E+02 -0.40239280824E+01  0.39120602699E+02  0.51100000000E-03 0.  1.
        -12    1    3    3    0    0  0.15404308127E+01  0.17703802060E+00 -0.60047576204E+01  0.62017242465E+01  0.00000000000E+00 0.  1.
</event>
<event>
 7    1  0.7821043E-012  0.5930196E+02  0.7816164E-02  0.1266605E+00
        -11   -1    0    0    0    0  0.00000000000E+00  0.00000000000E+00  0.45593999997E+02  0.45594000000E+02  0.51100000000E-03 0.  1.
         11   -1    0    0    0    0 -0.00000000000E+00 -0.00000000000E+00 -0.45593999997E+02  0.45594000000E+02  0.51100000000E-03 0. -1.
    9900012    2    1    2    0    0  0.26882403729E+02  0.17147983994E+02 -0.48198606419E-01  0.59301963739E+02  0.50000035949E+02 0.  0.
         12    1    1    2    0    0 -0.26882403729E+02 -0.17147983994E+02  0.48198606419E-01  0.31886036261E+02  0.00000000000E+00 0. -1.
         11    1    3    3    0    0  0.19640892899E+02  0.24454146795E+02 -0.12350671358E+02  0.33709183505E+02  0.51100000000E-03 0. -1.
        -11    1    3    3    0    0  0.32870324889E+01 -0.76841584187E+01 -0.36741913051E+01  0.91296525232E+01  0.51100000000E-03 0.  1.
         12    1    3    3    0    0  0.39544783410E+01  0.37799561783E+00  0.15976664057E+02  0.16463127711E+02  0.00000000000E+00 0. -1.
</event>
<event>
 7    1  0.7821043E-012  0.5930190E+02  0.7816164E-02  0.1266605E+00
        -11   -1    0    0    0    0  0.00000000000E+00  0.00000000000E+00  0.45593999997E+02  0.45594000000E+02  0.51100000000E-03 0.  1.
         11   -1    0    0    0    0 -0.00000000000E+00 -0.00000000000E+00 -0.45593999997E+02  0.45594000000E+02  0.51100000000E-03 0. -1.
    9900012    2    1    2    0    0  0.16954463042E+02  0.22420415760E+02  0.15053047861E+02  0.59301904131E+02  0.49999927238E+02 0.  0.
         12    1    1    2    0    0 -0.16954463042E+02 -0.22420415760E+02 -0.15053047861E+02  0.31886095869E+02  0.00000000000E+00 0. -1.
         11    1    3    3    0    0 -0.77984065677E+01  0.31430737094E+00  0.22343244747E+02  0.23667161220E+02  0.51100000000E-03 0. -1.
        -11    1    3    3    0    0  0.61277259026E+01  0.22248833115E+00 -0.16505933836E+01  0.63500381553E+01  0.51100000000E-03 0.  1.
         12    1    3    3    0    0  0.18625143707E+02  0.21883620058E+02 -0.56396035031E+01  0.29284704755E+02  0.00000000000E+00 0. -1.
</event>
<event>
 7    1  0.7821043E-012  0.5930191E+02  0.7816164E-02  0.1266605E+00
        -11   -1    0    0    0    0  0.00000000000E+00  0.00000000000E+00  0.45593999997E+02  0.45594000000E+02  0.51100000000E-03 0.  1.
         11   -1    0    0    0    0 -0.00000000000E+00 -0.00000000000E+00 -0.45593999997E+02  0.45594000000E+02  0.51100000000E-03 0. -1.
    9900012    2    1    2    0    0 -0.56236976799E+01 -0.30646217673E+02 -0.67753924792E+01  0.59301912493E+02  0.49999942488E+02 0.  0.
         12    1    1    2    0    0  0.56236976799E+01  0.30646217673E+02  0.67753924792E+01  0.31886087507E+02  0.00000000000E+00 0. -1.
         11    1    3    3    0    0 -0.18721636054E+02 -0.25288343561E+02  0.82428080749E+00  0.31475060217E+02  0.51100000000E-03 0. -1.
        -11    1    3    3    0    0  0.10280364576E+02  0.16390402100E+01  0.61882047237E+01  0.12110583247E+02  0.51100000000E-03 0.  1.
         12    1    3    3    0    0  0.28175737976E+01 -0.69969143224E+01 -0.13787878010E+02  0.15716269028E+02  0.00000000000E+00 0. -1.
</event>
<event>
 7    1  0.7821043E-012  0.5930216E+02  0.7816164E-02  0.1266604E+00
        -11   -1    0    0    0    0  0.00000000000E+00  0.00000000000E+00  0.45593999997E+02  0.45594000000E+02  0.51100000000E-03 0.  1.
         11   -1    0    0    0    0 -0.00000000000E+00 -0.00000000000E+00 -0.45593999997E+02  0.45594000000E+02  0.51100000000E-03 0. -1.
    9900012    2    1    2    0    0  0.29526314212E+02 -0.67887405604E+01  0.99406583396E+01  0.59302158039E+02  0.50000390304E+02 0.  0.
         12    1    1    2    0    0 -0.29526314212E+02  0.67887405604E+01 -0.99406583396E+01  0.31885841961E+02  0.00000000000E+00 0. -1.
         11    1    3    3    0    0  0.45985050969E+01 -0.75246199560E+01 -0.46120548723E+01  0.99517438178E+01  0.51100000000E-03 0. -1.
        -11    1    3    3    0    0  0.23534991818E+02 -0.77303634435E+01  0.25426792155E+02  0.35498959399E+02  0.51100000000E-03 0.  1.
        -12    1    3    3    0    0  0.13928172971E+01  0.84662428390E+01 -0.10874078943E+02  0.13851454822E+02  0.00000000000E+00 0.  1.
</event>
<event>
 7    1  0.7821043E-012  0.5930194E+02  0.7816164E-02  0.1266605E+00
        -11   -1    0    0    0    0  0.00000000000E+00  0.00000000000E+00  0.45593999997E+02  0.45594000000E+02  0.51100000000E-03 0.  1.
         11   -1    0    0    0    0 -0.00000000000E+00 -0.00000000000E+00 -0.45593999997E+02  0.45594000000E+02  0.51100000000E-03 0. -1.
    9900012    2    1    2    0    0 -0.29179840888E+02  0.56693528298E+01  0.11537599427E+02  0.59301939154E+02  0.49999991111E+02 0.  0.
         12    1    1    2    0    0  0.29179840888E+02 -0.56693528298E+01 -0.11537599427E+02  0.31886060846E+02  0.00000000000E+00 0. -1.
         11    1    3    3    0    0 -0.73677378376E+01  0.40279431290E+01  0.24063759819E+01  0.87349031089E+01  0.51100000000E-03 0. -1.
        -11    1    3    3    0    0 -0.92352645532E+01  0.64653621240E+01 -0.17445802439E+02  0.20771303323E+02  0.51100000000E-03 0.  1.
        -12    1    3    3    0    0 -0.12576838497E+02 -0.48239524232E+01  0.26577025884E+02  0.29795732721E+02  0.00000000000E+00 0.  1.
</event>
<event>
 7    1  0.7821043E-012  0.5930196E+02  0.7816164E-02  0.1266605E+00
        -11   -1    0    0    0    0  0.00000000000E+00  0.00000000000E+00  0.45593999997E+02  0.45594000000E+02  0.51100000000E-03 0.  1.
         11   -1    0    0    0    0 -0.00000000000E+00 -0.00000000000E+00 -0.45593999997E+02  0.45594000000E+02  0.51100000000E-03 0. -1.
    9900012    2    1    2    0    0  0.29151957442E+02  0.11777299892E+02  0.53082809664E+01  0.59301964463E+02  0.50000037270E+02 0.  0.
         12    1    1    2    0    0 -0.29151957442E+02 -0.11777299892E+02 -0.53082809664E+01  0.31886035537E+02  0.00000000000E+00 0. -1.
         11    1    3    3    0    0 -0.31344503994E+00 -0.34922455848E+01  0.78411680099E+00  0.35928910972E+01  0.51100000000E-03 0. -1.
        -11    1    3    3    0    0  0.11935997827E+02  0.30038825192E+02 -0.10958592028E+00  0.32323537436E+02  0.51100000000E-03 0.  1.
        -12    1    3    3    0    0  0.17529404655E+02 -0.14769279716E+02  0.46337500857E+01  0.23385535930E+02  0.00000000000E+00 0.  1.
</event>
<event>
 7    1  0.7821043E-012  0.5930196E+02  0.7816164E-02  0.1266605E+00
        -11   -1    0    0    0    0  0.00000000000E+00  0.00000000000E+00  0.45593999997E+02  0.45594000000E+02  0.51100000000E-03 0. -1.
         11   -1    0    0    0    0 -0.00000000000E+00 -0.00000000000E+00 -0.45593999997E+02  0.45594000000E+02  0.51100000000E-03 0.  1.
    9900012    2    1    2    0    0 -0.24482542519E+02 -0.20413798052E+02  0.77545333061E+00  0.59301962822E+02  0.50000034276E+02 0.  0.
         12    1    1    2    0    0  0.24482542519E+02  0.20413798052E+02 -0.77545333061E+00  0.31886037178E+02  0.00000000000E+00 0. -1.
         11    1    3    3    0    0  0.81403839008E+00 -0.88076850083E+01  0.86289230133E+00  0.88872131229E+01  0.51100000000E-03 0. -1.
        -11    1    3    3    0    0 -0.13479504145E+02  0.11578123376E+02  0.12283471771E+02  0.21601704838E+02  0.51100000000E-03 0.  1.
        -12    1    3    3    0    0 -0.11817076764E+02 -0.23184236419E+02 -0.12370910742E+02  0.28813044861E+02  0.00000000000E+00 0.  1.
</event>
<event>
 7    1  0.7821043E-012  0.5930193E+02  0.7816164E-02  0.1266605E+00
        -11   -1    0    0    0    0  0.00000000000E+00  0.00000000000E+00  0.45593999997E+02  0.45594000000E+02  0.51100000000E-03 0.  1.
         11   -1    0    0    0    0 -0.00000000000E+00 -0.00000000000E+00 -0.45593999997E+02  0.45594000000E+02  0.51100000000E-03 0. -1.
    9900012    2    1    2    0    0 -0.10153404963E+02  0.29042015997E+02  0.83780009808E+01  0.59301933671E+02  0.49999981112E+02 0.  0.
         12    1    1    2    0    0  0.10153404963E+02 -0.29042015997E+02 -0.83780009808E+01  0.31886066329E+02  0.00000000000E+00 0. -1.
         11    1    3    3    0    0  0.24233986567E+00  0.12475671451E+02  0.11608523205E+02  0.17042855337E+02  0.51100000000E-03 0. -1.
        -11    1    3    3    0    0  0.96848281742E+01  0.69193371854E+01 -0.13268058323E+02  0.17824547562E+02  0.51100000000E-03 0.  1.
        -12    1    3    3    0    0 -0.20080573003E+02  0.96470073601E+01  0.10037536099E+02  0.24434530773E+02  0.00000000000E+00 0.  1.
</event>
<event>
 7    1  0.7821043E-012  0.5930193E+02  0.7816164E-02  0.1266605E+00
        -11   -1    0    0    0    0  0.00000000000E+00  0.00000000000E+00  0.45593999997E+02  0.45594000000E+02  0.51100000000E-03 0. -1.
         11   -1    0    0    0    0 -0.00000000000E+00 -0.00000000000E+00 -0.45593999997E+02  0.45594000000E+02  0.51100000000E-03 0.  1.
    9900012    2    1    2    0    0  0.15435483070E+01 -0.60641729912E+01 -0.31266028657E+02  0.59301932770E+02  0.49999979468E+02 0.  0.
         12    1    1    2    0    0 -0.15435483070E+01  0.60641729912E+01  0.31266028657E+02  0.31886067230E+02  0.00000000000E+00 0. -1.
         11    1    3    3    0    0 -0.94539882972E+01  0.11909436322E+02 -0.23748881959E+02  0.28199680190E+02  0.51100000000E-03 0. -1.
        -11    1    3    3    0    0  0.16990794067E+02 -0.91635595783E+01 -0.30301875398E+01  0.19540725267E+02  0.51100000000E-03 0.  1.
         12    1    3    3    0    0 -0.59932574625E+01 -0.88100497347E+01 -0.44869591575E+01  0.11561527313E+02  0.00000000000E+00 0. -1.
</event>
<event>
 7    1  0.7821043E-012  0.5930197E+02  0.7816164E-02  0.1266605E+00
        -11   -1    0    0    0    0  0.00000000000E+00  0.00000000000E+00  0.45593999997E+02  0.45594000000E+02  0.51100000000E-03 0.  1.
         11   -1    0    0    0    0 -0.00000000000E+00 -0.00000000000E+00 -0.45593999997E+02  0.45594000000E+02  0.51100000000E-03 0. -1.
    9900012    2    1    2    0    0  0.12466276383E+02 -0.45670151752E+01  0.28990568176E+02  0.59301973003E+02  0.50000052844E+02 0.  0.
         12    1    1    2    0    0 -0.12466276383E+02  0.45670151752E+01 -0.28990568176E+02  0.31886026997E+02  0.00000000000E+00 0. -1.
         11    1    3    3    0    0 -0.11307019444E+02 -0.52314230133E+01  0.11566061292E+02  0.16999713219E+02  0.51100000000E-03 0. -1.
        -11    1    3    3    0    0  0.99852862734E+01  0.23829740355E+01  0.24605870582E+02  0.26661458598E+02  0.51100000000E-03 0.  1.
         12    1    3    3    0    0  0.13788009553E+02 -0.17185661973E+01 -0.71813636974E+01  0.15640801187E+02  0.00000000000E+00 0. -1.
</event>
<event>
 7    1  0.7821043E-012  0.5930196E+02  0.7816164E-02  0.1266605E+00
        -11   -1    0    0    0    0  0.00000000000E+00  0.00000000000E+00  0.45593999997E+02  0.45594000000E+02  0.51100000000E-03 0. -1.
         11   -1    0    0    0    0 -0.00000000000E+00 -0.00000000000E+00 -0.45593999997E+02  0.45594000000E+02  0.51100000000E-03 0.  1.
    9900012    2    1    2    0    0 -0.13175833655E+02  0.11237512706E+02 -0.26773785335E+02  0.59301955004E+02  0.50000020018E+02 0.  0.
         12    1    1    2    0    0  0.13175833655E+02 -0.11237512706E+02  0.26773785335E+02  0.31886044996E+02  0.00000000000E+00 0. -1.
         11    1    3    3    0    0 -0.26867311252E+01  0.33332352721E+01  0.14677267688E+02  0.15288923068E+02  0.51100000000E-03 0. -1.
        -11    1    3    3    0    0 -0.90799531378E+01  0.31573237836E+01 -0.23466034070E+02  0.25358805131E+02  0.51100000000E-03 0.  1.
        -12    1    3    3    0    0 -0.14091493920E+01  0.47469536505E+01 -0.17985018953E+02  0.18654226805E+02  0.00000000000E+00 0.  1.
</event>
<event>
 7    1  0.7821043E-012  0.5930194E+02  0.7816164E-02  0.1266605E+00
        -11   -1    0    0    0    0  0.00000000000E+00  0.00000000000E+00  0.45593999997E+02  0.45594000000E+02  0.51100000000E-03 0. -1.
         11   -1    0    0    0    0 -0.00000000000E+00 -0.00000000000E+00 -0.45593999997E+02  0.45594000000E+02  0.51100000000E-03 0.  1.
    9900012    2    1    2    0    0  0.73925630132E+01  0.10201595378E+02 -0.29291602615E+02  0.59301944742E+02  0.50000001303E+02 0.  0.
         12    1    1    2    0    0 -0.73925630132E+01 -0.10201595378E+02  0.29291602615E+02  0.31886055258E+02  0.00000000000E+00 0. -1.
         11    1    3    3    0    0  0.61063836031E+01 -0.69040077464E+01  0.15557471365E+01  0.93473842911E+01  0.51100000000E-03 0. -1.
        -11    1    3    3    0    0 -0.13302509338E+02  0.16346544981E+02 -0.74152521939E+01  0.22341715531E+02  0.51100000000E-03 0.  1.
        -12    1    3    3    0    0  0.14588688749E+02  0.75905814400E+00 -0.23432097557E+02  0.27612844920E+02  0.00000000000E+00 0.  1.
</event>
<event>
 7    1  0.7821043E-012  0.5930194E+02  0.7816164E-02  0.1266605E+00
        -11   -1    0    0    0    0  0.00000000000E+00  0.00000000000E+00  0.45593999997E+02  0.45594000000E+02  0.51100000000E-03 0.  1.
         11   -1    0    0    0    0 -0.00000000000E+00 -0.00000000000E+00 -0.45593999997E+02  0.45594000000E+02  0.51100000000E-03 0. -1.
    9900012    2    1    2    0    0  0.25716966564E+02 -0.32408726810E+01 -0.18570275604E+02  0.59301940962E+02  0.49999994409E+02 0.  0.
         12    1    1    2    0    0 -0.25716966564E+02  0.32408726810E+01  0.18570275604E+02  0.31886059038E+02  0.00000000000E+00 0. -1.
         11    1    3    3    0    0  0.15518447742E+01 -0.19944058307E+02 -0.13661447161E+02  0.24224137194E+02  0.51100000000E-03 0. -1.
        -11    1    3    3    0    0  0.10757441767E+02 -0.22628989577E+01  0.12083900797E+01  0.11059090013E+02  0.51100000000E-03 0.  1.
         12    1    3    3    0    0  0.13407680022E+02  0.18966084584E+02 -0.61172185224E+01  0.24018713756E+02  0.00000000000E+00 0. -1.
</event>
<event>
 7    1  0.7821043E-012  0.5930194E+02  0.7816164E-02  0.1266605E+00
        -11   -1    0    0    0    0  0.00000000000E+00  0.00000000000E+00  0.45593999997E+02  0.45594000000E+02  0.51100000000E-03 0.  1.
         11   -1    0    0    0    0 -0.00000000000E+00 -0.00000000000E+00 -0.45593999997E+02  0.45594000000E+02  0.51100000000E-03 0. -1.
    9900012    2    1    2    0    0  0.10924664589E+02 -0.24052081588E+02  0.17856933109E+02  0.59301937446E+02  0.49999987997E+02 0.  0.
         12    1    1    2    0    0 -0.10924664589E+02  0.24052081588E+02 -0.17856933109E+02  0.31886062554E+02  0.00000000000E+00 0. -1.
         11    1    3    3    0    0  0.14765091166E+02  0.54975296185E+01  0.58967936971E+01  0.16822690784E+02  0.51100000000E-03 0. -1.
        -11    1    3    3    0    0 -0.10127586366E+02 -0.12624107208E+02 -0.57619936033E+01  0.17179541872E+02  0.51100000000E-03 0.  1.
        -12    1    3    3    0    0  0.62871597889E+01 -0.16925503999E+02  0.17722133015E+02  0.25299704790E+02  0.00000000000E+00 0.  1.
</event>
<event>
 7    1  0.7821043E-012  0.5930205E+02  0.7816164E-02  0.1266604E+00
        -11   -1    0    0    0    0  0.00000000000E+00  0.00000000000E+00  0.45593999997E+02  0.45594000000E+02  0.51100000000E-03 0.  1.
         11   -1    0    0    0    0 -0.00000000000E+00 -0.00000000000E+00 -0.45593999997E+02  0.45594000000E+02  0.51100000000E-03 0. -1.
    9900012    2    1    2    0    0  0.22757625470E+02  0.11334249490E+02  0.19244195818E+02  0.59302050097E+02  0.50000193445E+02 0.  0.
         12    1    1    2    0    0 -0.22757625470E+02 -0.11334249490E+02 -0.19244195818E+02  0.31885949903E+02  0.00000000000E+00 0. -1.
         11    1    3    3    0    0  0.51306986910E+01 -0.19152015339E+01 -0.78427446552E+01  0.95656003450E+01  0.51100000000E-03 0. -1.
        -11    1    3    3    0    0  0.61839708681E+01  0.13178554082E+02  0.33565715658E+02  0.36586514610E+02  0.51100000000E-03 0.  1.
        -12    1    3    3    0    0  0.11442955911E+02  0.70896942320E-01 -0.64787751851E+01  0.13149935142E+02  0.00000000000E+00 0.  1.
</event>
<event>
 7    1  0.7821043E-012  0.5930193E+02  0.7816164E-02  0.1266605E+00
        -11   -1    0    0    0    0  0.00000000000E+00  0.00000000000E+00  0.45593999997E+02  0.45594000000E+02  0.51100000000E-03 0.  1.
         11   -1    0    0    0    0 -0.00000000000E+00 -0.00000000000E+00 -0.45593999997E+02  0.45594000000E+02  0.51100000000E-03 0. -1.
    9900012    2    1    2    0    0  0.23227400587E+02 -0.19622268591E+02 -0.96008339406E+01  0.59301928197E+02  0.49999971128E+02 0.  0.
         12    1    1    2    0    0 -0.23227400587E+02  0.19622268591E+02  0.96008339406E+01  0.31886071803E+02  0.00000000000E+00 0. -1.
         11    1    3    3    0    0 -0.99668601743E+01 -0.10425518722E+02  0.79526844689E+01  0.16470426008E+02  0.51100000000E-03 0. -1.
        -11    1    3    3    0    0  0.10336416020E+02 -0.11062472329E+02 -0.11777444217E+02  0.19181448921E+02  0.51100000000E-03 0.  1.
         12    1    3    3    0    0  0.22857844741E+02  0.18657224595E+01 -0.57760741921E+01  0.23650053267E+02  0.00000000000E+00 0. -1.
</event>
<event>
 7    1  0.7821043E-012  0.5930192E+02  0.7816164E-02  0.1266605E+00
        -11   -1    0    0    0    0  0.00000000000E+00  0.00000000000E+00  0.45593999997E+02  0.45594000000E+02  0.51100000000E-03 0. -1.
         11   -1    0    0    0    0 -0.00000000000E+00 -0.00000000000E+00 -0.45593999997E+02  0.45594000000E+02  0.51100000000E-03 0.  1.
    9900012    2    1    2    0    0  0.23659655941E+02 -0.20167762962E+02 -0.70855073990E+01  0.59301915304E+02  0.49999947615E+02 0.  0.
         12    1    1    2    0    0 -0.23659655941E+02  0.20167762962E+02  0.70855073990E+01  0.31886084696E+02  0.00000000000E+00 0. -1.
         11    1    3    3    0    0 -0.55779073170E+01  0.57076418621E+01  0.80243970445E+00  0.80208562762E+01  0.51100000000E-03 0. -1.
        -11    1    3    3    0    0  0.19485439270E+02 -0.25508213987E+02 -0.18349992575E+02  0.36973957756E+02  0.51100000000E-03 0.  1.
        -12    1    3    3    0    0  0.97521239876E+01 -0.36719083683E+00  0.10462045471E+02  0.14307101272E+02  0.00000000000E+00 0.  1.
</event>
<event>
 7    1  0.7821043E-012  0.5930194E+02  0.7816164E-02  0.1266605E+00
        -11   -1    0    0    0    0  0.00000000000E+00  0.00000000000E+00  0.45593999997E+02  0.45594000000E+02  0.51100000000E-03 0. -1.
         11   -1    0    0    0    0 -0.00000000000E+00 -0.00000000000E+00 -0.45593999997E+02  0.45594000000E+02  0.51100000000E-03 0.  1.
    9900012    2    1    2    0    0  0.26080435291E+02 -0.18987425474E+00  0.18343814840E+02  0.59301941916E+02  0.49999996150E+02 0.  0.
         12    1    1    2    0    0 -0.26080435291E+02  0.18987425474E+00 -0.18343814840E+02  0.31886058084E+02  0.00000000000E+00 0. -1.
         11    1    3    3    0    0  0.39323476868E+01 -0.19167330534E+02  0.18752934248E+02  0.27102074852E+02  0.51100000000E-03 0. -1.
        -11    1    3    3    0    0  0.69015528324E+01  0.11956303299E+02 -0.51871179687E+01  0.14747569738E+02  0.51100000000E-03 0.  1.
         12    1    3    3    0    0  0.15246534772E+02  0.70211529799E+01  0.47779985610E+01  0.17452297326E+02  0.00000000000E+00 0. -1.
</event>
<event>
 7    1  0.7821043E-012  0.5930196E+02  0.7816164E-02  0.1266605E+00
        -11   -1    0    0    0    0  0.00000000000E+00  0.00000000000E+00  0.45593999997E+02  0.45594000000E+02  0.51100000000E-03 0. -1.
         11   -1    0    0    0    0 -0.00000000000E+00 -0.00000000000E+00 -0.45593999997E+02  0.45594000000E+02  0.51100000000E-03 0.  1.
    9900012    2    1    2    0    0 -0.13520547549E+02  0.20981726942E+02 -0.19841409939E+02  0.59301958856E+02  0.50000027043E+02 0.  0.
         12    1    1    2    0    0  0.13520547549E+02 -0.20981726942E+02  0.19841409939E+02  0.31886041144E+02  0.00000000000E+00 0. -1.
         11    1    3    3    0    0  0.14317294195E+02  0.13870479369E+02  0.45229163574E+01  0.20440936466E+02  0.51100000000E-03 0. -1.
        -11    1    3    3    0    0 -0.13318968446E+02 -0.14683477099E+01 -0.10275768880E+02  0.16886159770E+02  0.51100000000E-03 0.  1.
         12    1    3    3    0    0 -0.14518873298E+02  0.85795952827E+01 -0.14088557417E+02  0.21974862619E+02  0.00000000000E+00 0. -1.
</event>
<event>
 7    1  0.7821043E-012  0.5930195E+02  0.7816164E-02  0.1266605E+00
        -11   -1    0    0    0    0  0.00000000000E+00  0.00000000000E+00  0.45593999997E+02  0.45594000000E+02  0.51100000000E-03 0.  1.
         11   -1    0    0    0    0 -0.00000000000E+00 -0.00000000000E+00 -0.45593999997E+02  0.45594000000E+02  0.51100000000E-03 0. -1.
    9900012    2    1    2    0    0 -0.16744409093E+02 -0.24641059703E+02  0.11364997916E+02  0.59301949182E+02  0.50000009400E+02 0.  0.
         12    1    1    2    0    0  0.16744409093E+02  0.24641059703E+02 -0.11364997916E+02  0.31886050818E+02  0.00000000000E+00 0. -1.
         11    1    3    3    0    0 -0.25909934855E+02 -0.18219135709E+01  0.31747570150E+00  0.25975851946E+02  0.51100000000E-03 0. -1.
        -11    1    3    3    0    0  0.10125915351E+02 -0.36972319788E+01  0.90521158167E+01  0.14076380466E+02  0.51100000000E-03 0.  1.
        -12    1    3    3    0    0 -0.96038958847E+00 -0.19121914153E+02  0.19954063979E+01  0.19249716770E+02  0.00000000000E+00 0.  1.
</event>
<event>
 7    1  0.7821043E-012  0.5930196E+02  0.7816164E-02  0.1266605E+00
        -11   -1    0    0    0    0  0.00000000000E+00  0.00000000000E+00  0.45593999997E+02  0.45594000000E+02  0.51100000000E-03 0. -1.
         11   -1    0    0    0    0 -0.00000000000E+00 -0.00000000000E+00 -0.45593999997E+02  0.45594000000E+02  0.51100000000E-03 0.  1.
    9900012    2    1    2    0    0 -0.29944746727E+02  0.10460864552E+02 -0.32560263301E+01  0.59301964637E+02  0.50000037586E+02 0.  0.
         12    1    1    2    0    0  0.29944746727E+02 -0.10460864552E+02  0.32560263301E+01  0.31886035363E+02  0.00000000000E+00 0. -1.
         11    1    3    3    0    0 -0.80131082567E+01  0.16771012244E+02 -0.99736386190E+01  0.21093843253E+02  0.51100000000E-03 0. -1.
        -11    1    3    3    0    0 -0.15531674182E+02 -0.16412690805E+02  0.11467858267E+02  0.25340108442E+02  0.51100000000E-03 0.  1.
        -12    1    3    3    0    0 -0.63999642882E+01  0.10102543113E+02 -0.47502459783E+01  0.12868012943E+02  0.00000000000E+00 0.  1.
</event>
<event>
 7    1  0.7821043E-012  0.5930194E+02  0.7816164E-02  0.1266605E+00
        -11   -1    0    0    0    0  0.00000000000E+00  0.00000000000E+00  0.45593999997E+02  0.45594000000E+02  0.51100000000E-03 0.  1.
         11   -1    0    0    0    0 -0.00000000000E+00 -0.00000000000E+00 -0.45593999997E+02  0.45594000000E+02  0.51100000000E-03 0. -1.
    9900012    2    1    2    0    0  0.15789195489E+02 -0.10948060921E+02  0.25447237596E+02  0.59301942963E+02  0.49999998058E+02 0.  0.
         12    1    1    2    0    0 -0.15789195489E+02  0.10948060921E+02 -0.25447237596E+02  0.31886057037E+02  0.00000000000E+00 0. -1.
         11    1    3    3    0    0 -0.53727659874E+01 -0.15570127954E+02  0.60880829646E+00  0.16482297979E+02  0.51100000000E-03 0. -1.
        -11    1    3    3    0    0  0.25885982061E+02  0.50810988819E+01  0.11714827567E+02  0.28864144164E+02  0.51100000000E-03 0.  1.
        -12    1    3    3    0    0 -0.47240205849E+01 -0.45903184870E+00  0.13123601732E+02  0.13955500821E+02  0.00000000000E+00 0.  1.
</event>
<event>
 7    1  0.7821043E-012  0.5930179E+02  0.7816164E-02  0.1266605E+00
        -11   -1    0    0    0    0  0.00000000000E+00  0.00000000000E+00  0.45593999997E+02  0.45594000000E+02  0.51100000000E-03 0.  1.
         11   -1    0    0    0    0 -0.00000000000E+00 -0.00000000000E+00 -0.45593999997E+02  0.45594000000E+02  0.51100000000E-03 0. -1.
    9900012    2    1    2    0    0 -0.21874356031E+02 -0.18297201795E+02  0.14263771201E+02  0.59301792729E+02  0.49999724066E+02 0.  0.
         12    1    1    2    0    0  0.21874356031E+02  0.18297201795E+02 -0.14263771201E+02  0.31886207271E+02  0.00000000000E+00 0. -1.
         11    1    3    3    0    0 -0.31921468887E+02 -0.25343225906E+02  0.17855862104E+02  0.44498214424E+02  0.51100000000E-03 0.  1.
        -11    1    3    3    0    0  0.79366967828E+01  0.30610238965E+01 -0.52533906691E+01  0.99979566362E+01  0.51100000000E-03 0. -1.
        -12    1    3    3    0    0  0.21104160730E+01  0.39850002144E+01  0.16612997662E+01  0.48056216687E+01  0.00000000000E+00 0.  1.
</event>
<event>
 7    1  0.7821043E-012  0.5930197E+02  0.7816164E-02  0.1266605E+00
        -11   -1    0    0    0    0  0.00000000000E+00  0.00000000000E+00  0.45593999997E+02  0.45594000000E+02  0.51100000000E-03 0. -1.
         11   -1    0    0    0    0 -0.00000000000E+00 -0.00000000000E+00 -0.45593999997E+02  0.45594000000E+02  0.51100000000E-03 0.  1.
    9900012    2    1    2    0    0 -0.22817434373E+02  0.45133294388E+01 -0.21810859385E+02  0.59301967932E+02  0.50000043595E+02 0.  0.
         12    1    1    2    0    0  0.22817434373E+02 -0.45133294388E+01  0.21810859385E+02  0.31886032068E+02  0.00000000000E+00 0. -1.
         11    1    3    3    0    0 -0.17695801271E+02 -0.76479592973E+01  0.39051255813E+01  0.19669333240E+02  0.51100000000E-03 0. -1.
        -11    1    3    3    0    0 -0.77978788877E+00  0.72245670016E+01 -0.30594685242E+02  0.31445781956E+02  0.51100000000E-03 0.  1.
         12    1    3    3    0    0 -0.43418452125E+01  0.49367217345E+01  0.48787002757E+01  0.81868527356E+01  0.00000000000E+00 0. -1.
</event>
<event>
 7    1  0.7821043E-012  0.5930194E+02  0.7816164E-02  0.1266605E+00
        -11   -1    0    0    0    0  0.00000000000E+00  0.00000000000E+00  0.45593999997E+02  0.45594000000E+02  0.51100000000E-03 0.  1.
         11   -1    0    0    0    0 -0.00000000000E+00 -0.00000000000E+00 -0.45593999997E+02  0.45594000000E+02  0.51100000000E-03 0. -1.
    9900012    2    1    2    0    0 -0.11954145877E+02 -0.18461961583E+01  0.29502726126E+02  0.59301938895E+02  0.49999990639E+02 0.  0.
         12    1    1    2    0    0  0.11954145877E+02  0.18461961583E+01 -0.29502726126E+02  0.31886061105E+02  0.00000000000E+00 0. -1.
         11    1    3    3    0    0  0.96427000556E+00  0.73334083429E+01 -0.56281270569E+01  0.92943267103E+01  0.51100000000E-03 0. -1.
        -11    1    3    3    0    0 -0.23022513469E+02 -0.28586023460E+01  0.19212443634E+02  0.30121847958E+02  0.51100000000E-03 0.  1.
        -12    1    3    3    0    0  0.10104097586E+02 -0.63210021551E+01  0.15918409550E+02  0.19885764226E+02  0.00000000000E+00 0.  1.
</event>
<event>
 7    1  0.7821043E-012  0.5930193E+02  0.7816164E-02  0.1266605E+00
        -11   -1    0    0    0    0  0.00000000000E+00  0.00000000000E+00  0.45593999997E+02  0.45594000000E+02  0.51100000000E-03 0.  1.
         11   -1    0    0    0    0 -0.00000000000E+00 -0.00000000000E+00 -0.45593999997E+02  0.45594000000E+02  0.51100000000E-03 0. -1.
    9900012    2    1    2    0    0  0.39323107450E+01 -0.20521013388E+02  0.24086222716E+02  0.59301934345E+02  0.49999982341E+02 0.  0.
         12    1    1    2    0    0 -0.39323107450E+01  0.20521013388E+02 -0.24086222716E+02  0.31886065655E+02  0.00000000000E+00 0. -1.
         11    1    3    3    0    0  0.52848920754E+01 -0.20590470428E+02  0.17749766573E+01  0.21331856438E+02  0.51100000000E-03 0. -1.
        -11    1    3    3    0    0 -0.89299137763E+01 -0.39693620121E+01  0.26624367823E+02  0.28361173408E+02  0.51100000000E-03 0.  1.
         12    1    3    3    0    0  0.75773324459E+01  0.40388190521E+01 -0.43131217643E+01  0.96089044997E+01  0.00000000000E+00 0. -1.
</event>
<event>
 7    1  0.7821043E-012  0.5930206E+02  0.7816164E-02  0.1266604E+00
        -11   -1    0    0    0    0  0.00000000000E+00  0.00000000000E+00  0.45593999997E+02  0.45594000000E+02  0.51100000000E-03 0.  1.
         11   -1    0    0    0    0 -0.00000000000E+00 -0.00000000000E+00 -0.45593999997E+02  0.45594000000E+02  0.51100000000E-03 0. -1.
    9900012    2    1    2    0    0  0.29203163818E+02 -0.11814487071E+02  0.49301328346E+01  0.59302061226E+02  0.50000213741E+02 0.  0.
         12    1    1    2    0    0 -0.29203163818E+02  0.11814487071E+02 -0.49301328346E+01  0.31885938774E+02  0.00000000000E+00 0. -1.
         11    1    3    3    0    0  0.77724971996E+00  0.60152738679E+01  0.96155211525E+01  0.11368635984E+02  0.51100000000E-03 0. -1.
        -11    1    3    3    0    0  0.32544400482E+02 -0.12993021678E+02 -0.13081981903E+02  0.37404476548E+02  0.51100000000E-03 0.  1.
        -12    1    3    3    0    0 -0.41184863842E+01 -0.48367392603E+01  0.83965935848E+01  0.10528948694E+02  0.00000000000E+00 0.  1.
</event>
<event>
 7    1  0.7821043E-012  0.5930202E+02  0.7816164E-02  0.1266605E+00
        -11   -1    0    0    0    0  0.00000000000E+00  0.00000000000E+00  0.45593999997E+02  0.45594000000E+02  0.51100000000E-03 0.  1.
         11   -1    0    0    0    0 -0.00000000000E+00 -0.00000000000E+00 -0.45593999997E+02  0.45594000000E+02  0.51100000000E-03 0. -1.
    9900012    2    1    2    0    0  0.28405628994E+02 -0.11355159885E+02  0.89942477039E+01  0.59302017087E+02  0.50000133243E+02 0.  0.
         12    1    1    2    0    0 -0.28405628994E+02  0.11355159885E+02 -0.89942477039E+01  0.31885982913E+02  0.00000000000E+00 0. -1.
         11    1    3    3    0    0  0.46974737147E+01 -0.15393263392E+02  0.21175867178E+01  0.16232775207E+02  0.51100000000E-03 0.  1.
        -11    1    3    3    0    0  0.19299708506E+02  0.54556091489E+01 -0.12175480225E+02  0.23462411184E+02  0.51100000000E-03 0. -1.
        -12    1    3    3    0    0  0.44084467737E+01 -0.14175056415E+01  0.19052141211E+02  0.19606830696E+02  0.00000000000E+00 0.  1.
</event>
<event>
 7    1  0.7821043E-012  0.5930194E+02  0.7816164E-02  0.1266605E+00
        -11   -1    0    0    0    0  0.00000000000E+00  0.00000000000E+00  0.45593999997E+02  0.45594000000E+02  0.51100000000E-03 0.  1.
         11   -1    0    0    0    0 -0.00000000000E+00 -0.00000000000E+00 -0.45593999997E+02  0.45594000000E+02  0.51100000000E-03 0. -1.
    9900012    2    1    2    0    0 -0.14479319804E+02 -0.58933908525E+01  0.27790969332E+02  0.59301941383E+02  0.49999995177E+02 0.  0.
         12    1    1    2    0    0  0.14479319804E+02  0.58933908525E+01 -0.27790969332E+02  0.31886058617E+02  0.00000000000E+00 0. -1.
         11    1    3    3    0    0 -0.16749587862E+02  0.11298443812E+02  0.18028310166E+02  0.27078099894E+02  0.51100000000E-03 0. -1.
        -11    1    3    3    0    0  0.11776624861E+02 -0.96271779580E+00  0.26057810265E+01  0.12099827011E+02  0.51100000000E-03 0.  1.
        -12    1    3    3    0    0 -0.95063568029E+01 -0.16229116869E+02  0.71568781391E+01  0.20124014478E+02  0.00000000000E+00 0.  1.
</event>
<event>
 7    1  0.7821043E-012  0.5930192E+02  0.7816164E-02  0.1266605E+00
        -11   -1    0    0    0    0  0.00000000000E+00  0.00000000000E+00  0.45593999997E+02  0.45594000000E+02  0.51100000000E-03 0.  1.
         11   -1    0    0    0    0 -0.00000000000E+00 -0.00000000000E+00 -0.45593999997E+02  0.45594000000E+02  0.51100000000E-03 0. -1.
    9900012    2    1    2    0    0 -0.23553946005E+02 -0.34892356587E+01  0.21207520569E+02  0.59301920489E+02  0.49999957070E+02 0.  0.
         12    1    1    2    0    0  0.23553946005E+02  0.34892356587E+01 -0.21207520569E+02  0.31886079511E+02  0.00000000000E+00 0. -1.
         11    1    3    3    0    0 -0.88565602212E+01 -0.29177699048E+01 -0.10050026486E+02  0.13709670776E+02  0.51100000000E-03 0.  1.
        -11    1    3    3    0    0  0.49827858242E+01 -0.67193138360E+01  0.20914307859E+02  0.22525221563E+02  0.51100000000E-03 0. -1.
        -12    1    3    3    0    0 -0.19680171608E+02  0.61478480821E+01  0.10343239197E+02  0.23067028149E+02  0.00000000000E+00 0.  1.
</event>
<event>
 7    1  0.7821043E-012  0.5930217E+02  0.7816164E-02  0.1266604E+00
        -11   -1    0    0    0    0  0.00000000000E+00  0.00000000000E+00  0.45593999997E+02  0.45594000000E+02  0.51100000000E-03 0.  1.
         11   -1    0    0    0    0 -0.00000000000E+00 -0.00000000000E+00 -0.45593999997E+02  0.45594000000E+02  0.51100000000E-03 0. -1.
    9900012    2    1    2    0    0  0.12602630245E+02  0.28599367443E+02  0.63210941876E+01  0.59302167112E+02  0.50000406851E+02 0.  0.
         12    1    1    2    0    0 -0.12602630245E+02 -0.28599367443E+02 -0.63210941876E+01  0.31885832888E+02  0.00000000000E+00 0. -1.
         11    1    3    3    0    0 -0.16120059144E+02  0.10296598799E+02  0.76307120497E+01  0.20593785963E+02  0.51100000000E-03 0. -1.
        -11    1    3    3    0    0  0.28664502587E+01  0.47996736449E+00  0.58201080466E+01  0.65054257118E+01  0.51100000000E-03 0.  1.
         12    1    3    3    0    0  0.25856239130E+02  0.17822801279E+02 -0.71297259086E+01  0.32202955438E+02  0.00000000000E+00 0. -1.
</event>
<event>
 7    1  0.7821043E-012  0.5930194E+02  0.7816164E-02  0.1266605E+00
        -11   -1    0    0    0    0  0.00000000000E+00  0.00000000000E+00  0.45593999997E+02  0.45594000000E+02  0.51100000000E-03 0. -1.
         11   -1    0    0    0    0 -0.00000000000E+00 -0.00000000000E+00 -0.45593999997E+02  0.45594000000E+02  0.51100000000E-03 0.  1.
    9900012    2    1    2    0    0  0.13699755781E+02 -0.80092972509E+01 -0.27656623391E+02  0.59301937710E+02  0.49999988479E+02 0.  0.
         12    1    1    2    0    0 -0.13699755781E+02  0.80092972509E+01  0.27656623391E+02  0.31886062290E+02  0.00000000000E+00 0. -1.
         11    1    3    3    0    0 -0.95248681396E+01  0.75247263000E+01  0.19731892973E+01  0.12297889869E+02  0.51100000000E-03 0. -1.
        -11    1    3    3    0    0  0.90878614106E+01 -0.91761833141E+01 -0.28704244371E+02  0.31475787686E+02  0.51100000000E-03 0.  1.
         12    1    3    3    0    0  0.14136762510E+02 -0.63578402369E+01 -0.92556831714E+00  0.15528260156E+02  0.00000000000E+00 0. -1.
</event>
<event>
 7    1  0.7821043E-012  0.5930194E+02  0.7816164E-02  0.1266605E+00
        -11   -1    0    0    0    0  0.00000000000E+00  0.00000000000E+00  0.45593999997E+02  0.45594000000E+02  0.51100000000E-03 0. -1.
         11   -1    0    0    0    0 -0.00000000000E+00 -0.00000000000E+00 -0.45593999997E+02  0.45594000000E+02  0.51100000000E-03 0.  1.
    9900012    2    1    2    0    0  0.25837890005E+01  0.33143702902E+01 -0.31607904581E+02  0.59301942733E+02  0.49999997639E+02 0.  0.
         12    1    1    2    0    0 -0.25837890005E+01 -0.33143702902E+01  0.31607904581E+02  0.31886057267E+02  0.00000000000E+00 0. -1.
         11    1    3    3    0    0  0.32093125787E+01  0.10543704601E+02 -0.36398456452E+01  0.11606802769E+02  0.51100000000E-03 0. -1.
        -11    1    3    3    0    0 -0.65856520723E+01 -0.14513056961E+02 -0.33271951848E+02  0.36892037292E+02  0.51100000000E-03 0.  1.
        -12    1    3    3    0    0  0.59601284941E+01  0.72837226502E+01  0.53038929120E+01  0.10803102672E+02  0.00000000000E+00 0.  1.
</event>
<event>
 7    1  0.7821043E-012  0.5930194E+02  0.7816164E-02  0.1266605E+00
        -11   -1    0    0    0    0  0.00000000000E+00  0.00000000000E+00  0.45593999997E+02  0.45594000000E+02  0.51100000000E-03 0. -1.
         11   -1    0    0    0    0 -0.00000000000E+00 -0.00000000000E+00 -0.45593999997E+02  0.45594000000E+02  0.51100000000E-03 0.  1.
    9900012    2    1    2    0    0  0.11983090010E+02 -0.16132459980E+02 -0.24756219605E+02  0.59301935327E+02  0.49999984132E+02 0.  0.
         12    1    1    2    0    0 -0.11983090010E+02  0.16132459980E+02  0.24756219605E+02  0.31886064673E+02  0.00000000000E+00 0. -1.
         11    1    3    3    0    0  0.20397020294E+02  0.73995792058E+01 -0.87586676760E+01  0.23398856147E+02  0.51100000000E-03 0. -1.
        -11    1    3    3    0    0 -0.22292193656E+01 -0.24615276378E+02 -0.85298307427E+01  0.26146496188E+02  0.51100000000E-03 0.  1.
         12    1    3    3    0    0 -0.61847109180E+01  0.10832371921E+01 -0.74677211865E+01  0.97565829917E+01  0.00000000000E+00 0. -1.
</event>
<event>
 7    1  0.7821043E-012  0.5930189E+02  0.7816164E-02  0.1266605E+00
        -11   -1    0    0    0    0  0.00000000000E+00  0.00000000000E+00  0.45593999997E+02  0.45594000000E+02  0.51100000000E-03 0. -1.
         11   -1    0    0    0    0 -0.00000000000E+00 -0.00000000000E+00 -0.45593999997E+02  0.45594000000E+02  0.51100000000E-03 0.  1.
    9900012    2    1    2    0    0 -0.28566457430E+02 -0.42469993657E+01 -0.13514606827E+02  0.59301888738E+02  0.49999899165E+02 0.  0.
         12    1    1    2    0    0  0.28566457430E+02  0.42469993657E+01  0.13514606827E+02  0.31886111262E+02  0.00000000000E+00 0. -1.
         11    1    3    3    0    0 -0.11273189324E+01 -0.64426473773E+01  0.15621151595E+02  0.16935138931E+02  0.51100000000E-03 0. -1.
        -11    1    3    3    0    0 -0.56666363044E+01 -0.52047465565E+01 -0.85571519917E+01  0.11507606362E+02  0.51100000000E-03 0.  1.
         12    1    3    3    0    0 -0.21772502193E+02  0.74003945682E+01 -0.20578606430E+02  0.30859143444E+02  0.00000000000E+00 0. -1.
</event>
<event>
 7    1  0.7821043E-012  0.5930195E+02  0.7816164E-02  0.1266605E+00
        -11   -1    0    0    0    0  0.00000000000E+00  0.00000000000E+00  0.45593999997E+02  0.45594000000E+02  0.51100000000E-03 0.  1.
         11   -1    0    0    0    0 -0.00000000000E+00 -0.00000000000E+00 -0.45593999997E+02  0.45594000000E+02  0.51100000000E-03 0. -1.
    9900012    2    1    2    0    0 -0.98594048139E+01 -0.30213334923E+02  0.25819728780E+01  0.59301952042E+02  0.50000014615E+02 0.  0.
         12    1    1    2    0    0  0.98594048139E+01  0.30213334923E+02 -0.25819728780E+01  0.31886047958E+02  0.00000000000E+00 0. -1.
         11    1    3    3    0    0 -0.36280607497E+01 -0.31973768337E+02 -0.10327124439E+02  0.33795475820E+02  0.51100000000E-03 0. -1.
        -11    1    3    3    0    0  0.47424586089E+01  0.76669299781E+01  0.27419922740E+01  0.94229109535E+01  0.51100000000E-03 0.  1.
        -12    1    3    3    0    0 -0.10973802673E+02 -0.59064965643E+01  0.10167105043E+02  0.16083565268E+02  0.00000000000E+00 0.  1.
</event>
<event>
 7    1  0.7821043E-012  0.5930193E+02  0.7816164E-02  0.1266605E+00
        -11   -1    0    0    0    0  0.00000000000E+00  0.00000000000E+00  0.45593999997E+02  0.45594000000E+02  0.51100000000E-03 0. -1.
         11   -1    0    0    0    0 -0.00000000000E+00 -0.00000000000E+00 -0.45593999997E+02  0.45594000000E+02  0.51100000000E-03 0.  1.
    9900012    2    1    2    0    0  0.13433377800E+02 -0.28199322627E+02 -0.64081176826E+01  0.59301930817E+02  0.49999975906E+02 0.  0.
         12    1    1    2    0    0 -0.13433377800E+02  0.28199322627E+02  0.64081176826E+01  0.31886069183E+02  0.00000000000E+00 0. -1.
         11    1    3    3    0    0 -0.84475625826E+01 -0.19279298811E+02  0.72988716317E+01  0.22278379734E+02  0.51100000000E-03 0. -1.
        -11    1    3    3    0    0  0.24590604580E+02 -0.88604572187E+01 -0.33907428289E+01  0.26357212920E+02  0.51100000000E-03 0.  1.
        -12    1    3    3    0    0 -0.27096641977E+01 -0.59566597329E-01 -0.10316246485E+02  0.10666338162E+02  0.00000000000E+00 0.  1.
</event>
<event>
 7    1  0.7821043E-012  0.5930210E+02  0.7816164E-02  0.1266604E+00
        -11   -1    0    0    0    0  0.00000000000E+00  0.00000000000E+00  0.45593999997E+02  0.45594000000E+02  0.51100000000E-03 0.  1.
         11   -1    0    0    0    0 -0.00000000000E+00 -0.00000000000E+00 -0.45593999997E+02  0.45594000000E+02  0.51100000000E-03 0. -1.
    9900012    2    1    2    0    0 -0.54092526508E+01 -0.31015882406E+02 -0.50463502617E+01  0.59302099877E+02  0.50000284231E+02 0.  0.
         12    1    1    2    0    0  0.54092526508E+01  0.31015882406E+02  0.50463502617E+01  0.31885900123E+02  0.00000000000E+00 0. -1.
         11    1    3    3    0    0 -0.11479986601E+02  0.76469974882E+01 -0.52963499134E+01  0.14775587488E+02  0.51100000000E-03 0. -1.
        -11    1    3    3    0    0  0.77475062265E+01 -0.21548602625E+02 -0.94623930617E+01  0.24777066221E+02  0.51100000000E-03 0.  1.
         12    1    3    3    0    0 -0.16767722759E+01 -0.17114277269E+02  0.97123927134E+01  0.19749446168E+02  0.00000000000E+00 0. -1.
</event>
<event>
 7    1  0.7821043E-012  0.5930189E+02  0.7816164E-02  0.1266605E+00
        -11   -1    0    0    0    0  0.00000000000E+00  0.00000000000E+00  0.45593999997E+02  0.45594000000E+02  0.51100000000E-03 0.  1.
         11   -1    0    0    0    0 -0.00000000000E+00 -0.00000000000E+00 -0.45593999997E+02  0.45594000000E+02  0.51100000000E-03 0. -1.
    9900012    2    1    2    0    0 -0.95053361384E+01  0.18047996104E+02  0.24508001167E+02  0.59301894881E+02  0.49999910368E+02 0.  0.
         12    1    1    2    0    0  0.95053361384E+01 -0.18047996104E+02 -0.24508001167E+02  0.31886105119E+02  0.00000000000E+00 0. -1.
         11    1    3    3    0    0 -0.14250083170E+02  0.11857210203E+02  0.91621778257E+01  0.20678583291E+02  0.51100000000E-03 0. -1.
        -11    1    3    3    0    0  0.36867269476E+01 -0.35032300471E+01 -0.10135442926E+02  0.11339831565E+02  0.51100000000E-03 0.  1.
        -12    1    3    3    0    0  0.10580200841E+01  0.96940159473E+01  0.25481266267E+02  0.27283480025E+02  0.00000000000E+00 0.  1.
</event>
<event>
 7    1  0.7821043E-012  0.5930198E+02  0.7816164E-02  0.1266605E+00
        -11   -1    0    0    0    0  0.00000000000E+00  0.00000000000E+00  0.45593999997E+02  0.45594000000E+02  0.51100000000E-03 0. -1.
         11   -1    0    0    0    0 -0.00000000000E+00 -0.00000000000E+00 -0.45593999997E+02  0.45594000000E+02  0.51100000000E-03 0.  1.
    9900012    2    1    2    0    0 -0.11148516566E+02  0.17322390144E+02 -0.24338523342E+02  0.59301978919E+02  0.50000063633E+02 0.  0.
         12    1    1    2    0    0  0.11148516566E+02 -0.17322390144E+02  0.24338523342E+02  0.31886021081E+02  0.00000000000E+00 0. -1.
         11    1    3    3    0    0  0.77343589101E+00 -0.23246792985E+01 -0.96748197678E+01  0.99802041421E+01  0.51100000000E-03 0. -1.
        -11    1    3    3    0    0 -0.16422729349E+02  0.30555003450E+02 -0.14286992444E+02  0.37515762400E+02  0.51100000000E-03 0.  1.
        -12    1    3    3    0    0  0.45007768919E+01 -0.10907934008E+02 -0.37671113079E+00  0.11806012376E+02  0.00000000000E+00 0.  1.
</event>
<event>
 7    1  0.7821043E-012  0.5930193E+02  0.7816164E-02  0.1266605E+00
        -11   -1    0    0    0    0  0.00000000000E+00  0.00000000000E+00  0.45593999997E+02  0.45594000000E+02  0.51100000000E-03 0.  1.
         11   -1    0    0    0    0 -0.00000000000E+00 -0.00000000000E+00 -0.45593999997E+02  0.45594000000E+02  0.51100000000E-03 0. -1.
    9900012    2    1    2    0    0 -0.61733487170E+01  0.78290975515E+01  0.30287230426E+02  0.59301932044E+02  0.49999978144E+02 0.  0.
         12    1    1    2    0    0  0.61733487170E+01 -0.78290975515E+01 -0.30287230426E+02  0.31886067956E+02  0.00000000000E+00 0. -1.
         11    1    3    3    0    0 -0.84116891111E+01  0.21563458253E+02  0.94049356162E+00  0.23165141354E+02  0.51100000000E-03 0. -1.
        -11    1    3    3    0    0 -0.50159143180E+01 -0.10458066352E+02  0.10370903585E+02  0.15559119182E+02  0.51100000000E-03 0.  1.
        -12    1    3    3    0    0  0.72542547121E+01 -0.32762943498E+01  0.18975833279E+02  0.20577671509E+02  0.00000000000E+00 0.  1.
</event>
<event>
 7    1  0.7821043E-012  0.5930195E+02  0.7816164E-02  0.1266605E+00
        -11   -1    0    0    0    0  0.00000000000E+00  0.00000000000E+00  0.45593999997E+02  0.45594000000E+02  0.51100000000E-03 0. -1.
         11   -1    0    0    0    0 -0.00000000000E+00 -0.00000000000E+00 -0.45593999997E+02  0.45594000000E+02  0.51100000000E-03 0.  1.
    9900012    2    1    2    0    0  0.97059967672E+01 -0.26295834337E+02  0.15200088992E+02  0.59301953176E+02  0.50000016684E+02 0.  0.
         12    1    1    2    0    0 -0.97059967672E+01  0.26295834337E+02 -0.15200088992E+02  0.31886046824E+02  0.00000000000E+00 0. -1.
         11    1    3    3    0    0  0.14748954203E+02 -0.11405791141E+02  0.27154710253E+02  0.32939368707E+02  0.51100000000E-03 0. -1.
        -11    1    3    3    0    0 -0.42768736300E+01 -0.11805989794E+02  0.14004523658E+01  0.12634647211E+02  0.51100000000E-03 0.  1.
         12    1    3    3    0    0 -0.76608380551E+00 -0.30840534023E+01 -0.13355073627E+02  0.13727937258E+02  0.00000000000E+00 0. -1.
</event>
<event>
 7    1  0.7821043E-012  0.5930190E+02  0.7816164E-02  0.1266605E+00
        -11   -1    0    0    0    0  0.00000000000E+00  0.00000000000E+00  0.45593999997E+02  0.45594000000E+02  0.51100000000E-03 0.  1.
         11   -1    0    0    0    0 -0.00000000000E+00 -0.00000000000E+00 -0.45593999997E+02  0.45594000000E+02  0.51100000000E-03 0. -1.
    9900012    2    1    2    0    0 -0.28504562617E+02 -0.10955158980E+02 -0.91759381477E+01  0.59301898966E+02  0.49999917818E+02 0.  0.
         12    1    1    2    0    0  0.28504562617E+02  0.10955158980E+02  0.91759381477E+01  0.31886101034E+02  0.00000000000E+00 0. -1.
         11    1    3    3    0    0 -0.16589071665E+01  0.22551372152E+01  0.44457539236E+01  0.52537933968E+01  0.51100000000E-03 0. -1.
        -11    1    3    3    0    0  0.67191415254E+00 -0.22183960772E+02 -0.32583373274E+00  0.22196525675E+02  0.51100000000E-03 0.  1.
        -12    1    3    3    0    0 -0.27517569603E+02  0.89736645760E+01 -0.13295858339E+02  0.31851579894E+02  0.00000000000E+00 0.  1.
</event>
<event>
 7    1  0.7821043E-012  0.5930184E+02  0.7816164E-02  0.1266605E+00
        -11   -1    0    0    0    0  0.00000000000E+00  0.00000000000E+00  0.45593999997E+02  0.45594000000E+02  0.51100000000E-03 0.  1.
         11   -1    0    0    0    0 -0.00000000000E+00 -0.00000000000E+00 -0.45593999997E+02  0.45594000000E+02  0.51100000000E-03 0. -1.
    9900012    2    1    2    0    0  0.51472957911E+01 -0.23506387128E+01  0.31380037198E+02  0.59301844841E+02  0.49999819106E+02 0.  0.
         12    1    1    2    0    0 -0.51472957911E+01  0.23506387128E+01 -0.31380037198E+02  0.31886155159E+02  0.00000000000E+00 0. -1.
         11    1    3    3    0    0  0.98777199952E+01  0.52443274075E+00 -0.82657376381E+01  0.12890570234E+02  0.51100000000E-03 0.  1.
        -11    1    3    3    0    0  0.50405333698E+01  0.65675175104E+01  0.25440265488E+02  0.26753436625E+02  0.51100000000E-03 0. -1.
         12    1    3    3    0    0 -0.97709575740E+01 -0.94425889639E+01  0.14205509348E+02  0.19657837981E+02  0.00000000000E+00 0. -1.
</event>
<event>
 7    1  0.7821043E-012  0.5930195E+02  0.7816164E-02  0.1266605E+00
        -11   -1    0    0    0    0  0.00000000000E+00  0.00000000000E+00  0.45593999997E+02  0.45594000000E+02  0.51100000000E-03 0. -1.
         11   -1    0    0    0    0 -0.00000000000E+00 -0.00000000000E+00 -0.45593999997E+02  0.45594000000E+02  0.51100000000E-03 0.  1.
    9900012    2    1    2    0    0 -0.14544427205E+01 -0.15765186362E+02 -0.27677856874E+02  0.59301948727E+02  0.50000008570E+02 0.  0.
         12    1    1    2    0    0  0.14544427205E+01  0.15765186362E+02  0.27677856874E+02  0.31886051273E+02  0.00000000000E+00 0. -1.
         11    1    3    3    0    0 -0.18183643709E+02 -0.76554544051E+01  0.58032188636E+01  0.20565218942E+02  0.51100000000E-03 0. -1.
        -11    1    3    3    0    0  0.45705920013E+01 -0.45185766309E+00 -0.47193543351E+01  0.65853467784E+01  0.51100000000E-03 0.  1.
         12    1    3    3    0    0  0.12158608987E+02 -0.76578742934E+01 -0.28761721403E+02  0.32151383007E+02  0.00000000000E+00 0. -1.
</event>
<event>
 7    1  0.7821043E-012  0.5930192E+02  0.7816164E-02  0.1266605E+00
        -11   -1    0    0    0    0  0.00000000000E+00  0.00000000000E+00  0.45593999997E+02  0.45594000000E+02  0.51100000000E-03 0.  1.
         11   -1    0    0    0    0 -0.00000000000E+00 -0.00000000000E+00 -0.45593999997E+02  0.45594000000E+02  0.51100000000E-03 0. -1.
    9900012    2    1    2    0    0 -0.28863210954E+02 -0.66882013703E+01  0.11785806502E+02  0.59301918099E+02  0.49999952711E+02 0.  0.
         12    1    1    2    0    0  0.28863210954E+02  0.66882013703E+01 -0.11785806502E+02  0.31886081901E+02  0.00000000000E+00 0. -1.
         11    1    3    3    0    0 -0.98909455992E+01 -0.52195229234E+01  0.70957029356E+00  0.11206146289E+02  0.51100000000E-03 0. -1.
        -11    1    3    3    0    0 -0.13740819453E+02  0.10886211848E+02 -0.12110599426E+02  0.21306955352E+02  0.51100000000E-03 0.  1.
        -12    1    3    3    0    0 -0.52314459010E+01 -0.12354890295E+02  0.23186835635E+02  0.26788816457E+02  0.00000000000E+00 0.  1.
</event>
<event>
 7    1  0.7821043E-012  0.5930183E+02  0.7816164E-02  0.1266605E+00
        -11   -1    0    0    0    0  0.00000000000E+00  0.00000000000E+00  0.45593999997E+02  0.45594000000E+02  0.51100000000E-03 0. -1.
         11   -1    0    0    0    0 -0.00000000000E+00 -0.00000000000E+00 -0.45593999997E+02  0.45594000000E+02  0.51100000000E-03 0.  1.
    9900012    2    1    2    0    0 -0.30663705668E+01  0.17353087206E+01 -0.31690909502E+02  0.59301832625E+02  0.49999796828E+02 0.  0.
         12    1    1    2    0    0  0.30663705668E+01 -0.17353087206E+01  0.31690909502E+02  0.31886167375E+02  0.00000000000E+00 0. -1.
         11    1    3    3    0    0 -0.61539871877E+01 -0.53452557580E+01  0.70786303700E+01  0.10795847609E+02  0.51100000000E-03 0. -1.
        -11    1    3    3    0    0  0.56275996755E+01  0.17457624335E+02 -0.22292305135E+02  0.28868415163E+02  0.51100000000E-03 0.  1.
         12    1    3    3    0    0 -0.25399830546E+01 -0.10377059856E+02 -0.16477234737E+02  0.19637569853E+02  0.00000000000E+00 0. -1.
</event>
<event>
 7    1  0.7821043E-012  0.5930196E+02  0.7816164E-02  0.1266605E+00
        -11   -1    0    0    0    0  0.00000000000E+00  0.00000000000E+00  0.45593999997E+02  0.45594000000E+02  0.51100000000E-03 0.  1.
         11   -1    0    0    0    0 -0.00000000000E+00 -0.00000000000E+00 -0.45593999997E+02  0.45594000000E+02  0.51100000000E-03 0. -1.
    9900012    2    1    2    0    0  0.17940882934E+02  0.11098701647E+02 -0.23909477815E+02  0.59301959354E+02  0.50000027952E+02 0.  0.
         12    1    1    2    0    0 -0.17940882934E+02 -0.11098701647E+02  0.23909477815E+02  0.31886040646E+02  0.00000000000E+00 0. -1.
         11    1    3    3    0    0  0.29890861942E+02 -0.56541793225E+01 -0.14077983289E+02  0.33520486052E+02  0.51100000000E-03 0. -1.
        -11    1    3    3    0    0 -0.85333938193E+01  0.33591029641E+01 -0.66335021734E+00  0.91946950233E+01  0.51100000000E-03 0.  1.
         12    1    3    3    0    0 -0.34165851885E+01  0.13393778005E+02 -0.91681443085E+01  0.16586778279E+02  0.00000000000E+00 0. -1.
</event>
<event>
 7    1  0.7821043E-012  0.5930192E+02  0.7816164E-02  0.1266605E+00
        -11   -1    0    0    0    0  0.00000000000E+00  0.00000000000E+00  0.45593999997E+02  0.45594000000E+02  0.51100000000E-03 0.  1.
         11   -1    0    0    0    0 -0.00000000000E+00 -0.00000000000E+00 -0.45593999997E+02  0.45594000000E+02  0.51100000000E-03 0. -1.
    9900012    2    1    2    0    0 -0.54680959852E+01  0.29300091495E+02  0.11328144655E+02  0.59301916881E+02  0.49999950492E+02 0.  0.
         12    1    1    2    0    0  0.54680959852E+01 -0.29300091495E+02 -0.11328144655E+02  0.31886083119E+02  0.00000000000E+00 0. -1.
         11    1    3    3    0    0 -0.27719307094E+02  0.14256193408E+02  0.39402996122E+01  0.31418545440E+02  0.51100000000E-03 0. -1.
        -11    1    3    3    0    0  0.11418672207E+02  0.84078576588E+01  0.36868350080E+01  0.14651651716E+02  0.51100000000E-03 0.  1.
         12    1    3    3    0    0  0.10832538902E+02  0.66360404280E+01  0.37010100350E+01  0.13231719726E+02  0.00000000000E+00 0. -1.
</event>
<event>
 7    1  0.7821043E-012  0.5930196E+02  0.7816164E-02  0.1266605E+00
        -11   -1    0    0    0    0  0.00000000000E+00  0.00000000000E+00  0.45593999997E+02  0.45594000000E+02  0.51100000000E-03 0.  1.
         11   -1    0    0    0    0 -0.00000000000E+00 -0.00000000000E+00 -0.45593999997E+02  0.45594000000E+02  0.51100000000E-03 0. -1.
    9900012    2    1    2    0    0  0.13737723270E+02  0.12045980369E+02  0.26132146692E+02  0.59301956431E+02  0.50000022621E+02 0.  0.
         12    1    1    2    0    0 -0.13737723270E+02 -0.12045980369E+02 -0.26132146692E+02  0.31886043569E+02  0.00000000000E+00 0. -1.
         11    1    3    3    0    0  0.24122319669E+02 -0.17171821315E+01 -0.27157209718E+01  0.24335368527E+02  0.51100000000E-03 0. -1.
        -11    1    3    3    0    0 -0.48286831035E+01  0.13066902784E+02  0.18021530007E+02  0.22777964635E+02  0.51100000000E-03 0.  1.
         12    1    3    3    0    0 -0.55559132950E+01  0.69625971659E+00  0.10826337658E+02  0.12188623270E+02  0.00000000000E+00 0. -1.
</event>
<event>
 7    1  0.7821043E-012  0.5930205E+02  0.7816164E-02  0.1266604E+00
        -11   -1    0    0    0    0  0.00000000000E+00  0.00000000000E+00  0.45593999997E+02  0.45594000000E+02  0.51100000000E-03 0. -1.
         11   -1    0    0    0    0 -0.00000000000E+00 -0.00000000000E+00 -0.45593999997E+02  0.45594000000E+02  0.51100000000E-03 0.  1.
    9900012    2    1    2    0    0 -0.25494051359E+02 -0.11571035069E+02 -0.15260346783E+02  0.59302051822E+02  0.50000196591E+02 0.  0.
         12    1    1    2    0    0  0.25494051359E+02  0.11571035069E+02  0.15260346783E+02  0.31885948178E+02  0.00000000000E+00 0. -1.
         11    1    3    3    0    0  0.52290560561E+01 -0.94561313334E+01  0.73518236765E+01  0.13069459004E+02  0.51100000000E-03 0. -1.
        -11    1    3    3    0    0 -0.31568386858E+02  0.20301102474E+01 -0.10385521592E+02  0.33294796222E+02  0.51100000000E-03 0.  1.
         12    1    3    3    0    0  0.84527944347E+00 -0.41450139832E+01 -0.12226648867E+02  0.12937796596E+02  0.00000000000E+00 0. -1.
</event>
<event>
 7    1  0.7821043E-012  0.5930194E+02  0.7816164E-02  0.1266605E+00
        -11   -1    0    0    0    0  0.00000000000E+00  0.00000000000E+00  0.45593999997E+02  0.45594000000E+02  0.51100000000E-03 0. -1.
         11   -1    0    0    0    0 -0.00000000000E+00 -0.00000000000E+00 -0.45593999997E+02  0.45594000000E+02  0.51100000000E-03 0.  1.
    9900012    2    1    2    0    0  0.27778858549E+02 -0.15396461272E+02 -0.28292482032E+01  0.59301942744E+02  0.49999997658E+02 0.  0.
         12    1    1    2    0    0 -0.27778858549E+02  0.15396461272E+02  0.28292482032E+01  0.31886057256E+02  0.00000000000E+00 0. -1.
         11    1    3    3    0    0  0.31529350974E+02  0.76962517638E+01  0.37144146941E+01  0.32666942631E+02  0.51100000000E-03 0. -1.
        -11    1    3    3    0    0 -0.50041769215E+00 -0.70095572216E+01 -0.73991003596E+01  0.10204459648E+02  0.51100000000E-03 0.  1.
         12    1    3    3    0    0 -0.32500747336E+01 -0.16083155814E+02  0.85543746225E+00  0.16430540465E+02  0.00000000000E+00 0. -1.
</event>
<event>
 7    1  0.7821043E-012  0.5930192E+02  0.7816164E-02  0.1266605E+00
        -11   -1    0    0    0    0  0.00000000000E+00  0.00000000000E+00  0.45593999997E+02  0.45594000000E+02  0.51100000000E-03 0.  1.
         11   -1    0    0    0    0 -0.00000000000E+00 -0.00000000000E+00 -0.45593999997E+02  0.45594000000E+02  0.51100000000E-03 0. -1.
    9900012    2    1    2    0    0 -0.26574281454E+02  0.41968249684E+01  0.17114793057E+02  0.59301922851E+02  0.49999961378E+02 0.  0.
         12    1    1    2    0    0  0.26574281454E+02 -0.41968249684E+01 -0.17114793057E+02  0.31886077149E+02  0.00000000000E+00 0. -1.
         11    1    3    3    0    0  0.79485698213E+00  0.71730344936E+01  0.30610564094E+01  0.78392785428E+01  0.51100000000E-03 0. -1.
        -11    1    3    3    0    0 -0.31851274805E+02  0.10279405269E+01 -0.42937618477E+01  0.32155819994E+02  0.51100000000E-03 0.  1.
        -12    1    3    3    0    0  0.44821363690E+01 -0.40041500521E+01  0.18347498495E+02  0.19306824314E+02  0.00000000000E+00 0.  1.
</event>
<event>
 7    1  0.7821043E-012  0.5930197E+02  0.7816164E-02  0.1266605E+00
        -11   -1    0    0    0    0  0.00000000000E+00  0.00000000000E+00  0.45593999997E+02  0.45594000000E+02  0.51100000000E-03 0.  1.
         11   -1    0    0    0    0 -0.00000000000E+00 -0.00000000000E+00 -0.45593999997E+02  0.45594000000E+02  0.51100000000E-03 0. -1.
    9900012    2    1    2    0    0 -0.19225431341E+02  0.10574597739E+02  0.23136107983E+02  0.59301971395E+02  0.50000049912E+02 0.  0.
         12    1    1    2    0    0  0.19225431341E+02 -0.10574597739E+02 -0.23136107983E+02  0.31886028605E+02  0.00000000000E+00 0. -1.
         11    1    3    3    0    0  0.71334735140E+01 -0.52612876790E+01 -0.65142591981E+01  0.11000143889E+02  0.51100000000E-03 0. -1.
        -11    1    3    3    0    0 -0.53787391206E+01 -0.15628832561E+01  0.17656585006E+02  0.18523726216E+02  0.51100000000E-03 0.  1.
         12    1    3    3    0    0 -0.20980165734E+02  0.17398768674E+02  0.11993782175E+02  0.29778101290E+02  0.00000000000E+00 0. -1.
</event>
<event>
 7    1  0.7821043E-012  0.5930194E+02  0.7816164E-02  0.1266605E+00
        -11   -1    0    0    0    0  0.00000000000E+00  0.00000000000E+00  0.45593999997E+02  0.45594000000E+02  0.51100000000E-03 0.  1.
         11   -1    0    0    0    0 -0.00000000000E+00 -0.00000000000E+00 -0.45593999997E+02  0.45594000000E+02  0.51100000000E-03 0. -1.
    9900012    2    1    2    0    0 -0.46817515173E+00  0.16675750418E+02  0.27173905516E+02  0.59301937513E+02  0.49999988118E+02 0.  0.
         12    1    1    2    0    0  0.46817515173E+00 -0.16675750418E+02 -0.27173905516E+02  0.31886062487E+02  0.00000000000E+00 0. -1.
         11    1    3    3    0    0 -0.11509895985E+02  0.10063249947E+02  0.89640895762E+01  0.17722911930E+02  0.51100000000E-03 0.  1.
        -11    1    3    3    0    0  0.13447794033E+02  0.30612845503E+01 -0.73731108947E+01  0.15638970298E+02  0.51100000000E-03 0. -1.
         12    1    3    3    0    0 -0.24060732001E+01  0.35512159202E+01  0.25582926834E+02  0.25940055284E+02  0.00000000000E+00 0. -1.
</event>
<event>
 7    1  0.7821043E-012  0.5930194E+02  0.7816164E-02  0.1266605E+00
        -11   -1    0    0    0    0  0.00000000000E+00  0.00000000000E+00  0.45593999997E+02  0.45594000000E+02  0.51100000000E-03 0. -1.
         11   -1    0    0    0    0 -0.00000000000E+00 -0.00000000000E+00 -0.45593999997E+02  0.45594000000E+02  0.51100000000E-03 0.  1.
    9900012    2    1    2    0    0  0.19826618588E+02 -0.23611466366E+02 -0.81317026094E+01  0.59301941355E+02  0.49999995125E+02 0.  0.
         12    1    1    2    0    0 -0.19826618588E+02  0.23611466366E+02  0.81317026094E+01  0.31886058645E+02  0.00000000000E+00 0. -1.
         11    1    3    3    0    0  0.84689547864E+01  0.76057659689E+01  0.44289409887E+01  0.12214188049E+02  0.51100000000E-03 0. -1.
        -11    1    3    3    0    0  0.15774910809E+02 -0.14939825882E+02 -0.19168168809E+02  0.28973520742E+02  0.51100000000E-03 0.  1.
        -12    1    3    3    0    0 -0.44172470077E+01 -0.16277406454E+02  0.66075252110E+01  0.18114232564E+02  0.00000000000E+00 0.  1.
</event>
<event>
 7    1  0.7821043E-012  0.5930201E+02  0.7816164E-02  0.1266605E+00
        -11   -1    0    0    0    0  0.00000000000E+00  0.00000000000E+00  0.45593999997E+02  0.45594000000E+02  0.51100000000E-03 0. -1.
         11   -1    0    0    0    0 -0.00000000000E+00 -0.00000000000E+00 -0.45593999997E+02  0.45594000000E+02  0.51100000000E-03 0.  1.
    9900012    2    1    2    0    0 -0.17005132270E+02  0.22675653099E+02  0.14606731416E+02  0.59302009821E+02  0.50000119992E+02 0.  0.
         12    1    1    2    0    0  0.17005132270E+02 -0.22675653099E+02 -0.14606731416E+02  0.31885990179E+02  0.00000000000E+00 0. -1.
         11    1    3    3    0    0 -0.16431531580E+02  0.25506025121E+02 -0.23946433639E+00  0.30341553866E+02  0.51100000000E-03 0. -1.
        -11    1    3    3    0    0  0.65684064947E+01 -0.64154265493E+01  0.18128741758E+02  0.20321243557E+02  0.51100000000E-03 0.  1.
        -12    1    3    3    0    0 -0.71420071849E+01  0.35850545273E+01 -0.32825460058E+01  0.86392123989E+01  0.00000000000E+00 0.  1.
</event>
<event>
 7    1  0.7821043E-012  0.5930184E+02  0.7816164E-02  0.1266605E+00
        -11   -1    0    0    0    0  0.00000000000E+00  0.00000000000E+00  0.45593999997E+02  0.45594000000E+02  0.51100000000E-03 0. -1.
         11   -1    0    0    0    0 -0.00000000000E+00 -0.00000000000E+00 -0.45593999997E+02  0.45594000000E+02  0.51100000000E-03 0.  1.
    9900012    2    1    2    0    0  0.74985767167E+00  0.31691163357E+02  0.34402480965E+01  0.59301836411E+02  0.49999803733E+02 0.  0.
         12    1    1    2    0    0 -0.74985767167E+00 -0.31691163357E+02 -0.34402480965E+01  0.31886163589E+02  0.00000000000E+00 0. -1.
         11    1    3    3    0    0  0.20216660032E+02  0.12739332612E+01 -0.26198170127E+01  0.20425466708E+02  0.51100000000E-03 0. -1.
        -11    1    3    3    0    0  0.20037963272E-01  0.89333267910E+01 -0.10993984527E+01  0.90007447632E+01  0.51100000000E-03 0.  1.
         12    1    3    3    0    0 -0.19486840324E+02  0.21483903305E+02  0.71594635619E+01  0.29875624939E+02  0.00000000000E+00 0. -1.
</event>
<event>
 7    1  0.7821043E-012  0.5930193E+02  0.7816164E-02  0.1266605E+00
        -11   -1    0    0    0    0  0.00000000000E+00  0.00000000000E+00  0.45593999997E+02  0.45594000000E+02  0.51100000000E-03 0.  1.
         11   -1    0    0    0    0 -0.00000000000E+00 -0.00000000000E+00 -0.45593999997E+02  0.45594000000E+02  0.51100000000E-03 0. -1.
    9900012    2    1    2    0    0  0.20611349184E+02 -0.25310209463E+01  0.24196858266E+02  0.59301925733E+02  0.49999966634E+02 0.  0.
         12    1    1    2    0    0 -0.20611349184E+02  0.25310209463E+01 -0.24196858266E+02  0.31886074267E+02  0.00000000000E+00 0. -1.
         11    1    3    3    0    0  0.17853089882E+02 -0.15432612944E+02  0.20653449324E+01  0.23688900577E+02  0.51100000000E-03 0. -1.
        -11    1    3    3    0    0  0.17253885728E+01  0.16514177787E+02  0.25590980397E+02  0.30505627541E+02  0.51100000000E-03 0.  1.
        -12    1    3    3    0    0  0.10328707298E+01 -0.36125857896E+01 -0.34594670634E+01  0.51073976147E+01  0.00000000000E+00 0.  1.
</event>
<event>
 7    1  0.7821043E-012  0.5930195E+02  0.7816164E-02  0.1266605E+00
        -11   -1    0    0    0    0  0.00000000000E+00  0.00000000000E+00  0.45593999997E+02  0.45594000000E+02  0.51100000000E-03 0. -1.
         11   -1    0    0    0    0 -0.00000000000E+00 -0.00000000000E+00 -0.45593999997E+02  0.45594000000E+02  0.51100000000E-03 0.  1.
    9900012    2    1    2    0    0  0.26635705058E+02 -0.94283376373E+01 -0.14777209240E+02  0.59301949015E+02  0.50000009095E+02 0.  0.
         12    1    1    2    0    0 -0.26635705058E+02  0.94283376373E+01  0.14777209240E+02  0.31886050985E+02  0.00000000000E+00 0. -1.
         11    1    3    3    0    0  0.18376345555E+00 -0.10214350442E+02 -0.28027773396E+01  0.10593502019E+02  0.51100000000E-03 0. -1.
        -11    1    3    3    0    0  0.14637386752E+02  0.18335419328E+02 -0.14219056668E+02  0.27433961902E+02  0.51100000000E-03 0.  1.
        -12    1    3    3    0    0  0.11814554850E+02 -0.17549406524E+02  0.22446247675E+01  0.21274485093E+02  0.00000000000E+00 0.  1.
</event>
<event>
 7    1  0.7821043E-012  0.5930196E+02  0.7816164E-02  0.1266605E+00
        -11   -1    0    0    0    0  0.00000000000E+00  0.00000000000E+00  0.45593999997E+02  0.45594000000E+02  0.51100000000E-03 0.  1.
         11   -1    0    0    0    0 -0.00000000000E+00 -0.00000000000E+00 -0.45593999997E+02  0.45594000000E+02  0.51100000000E-03 0. -1.
    9900012    2    1    2    0    0  0.17119735808E+02  0.42630346053E+01  0.26560515160E+02  0.59301956286E+02  0.50000022356E+02 0.  0.
         12    1    1    2    0    0 -0.17119735808E+02 -0.42630346053E+01 -0.26560515160E+02  0.31886043714E+02  0.00000000000E+00 0. -1.
         11    1    3    3    0    0 -0.14088460648E+02  0.57351688173E-01 -0.31387800390E+00  0.14092073385E+02  0.51100000000E-03 0. -1.
        -11    1    3    3    0    0  0.12252464704E+02 -0.64903865004E+01  0.61921570251E+01  0.15185217059E+02  0.51100000000E-03 0.  1.
         12    1    3    3    0    0  0.18955731751E+02  0.10696069418E+02  0.20682236138E+02  0.30024665841E+02  0.00000000000E+00 0. -1.
</event>
<event>
 7    1  0.7821043E-012  0.5930197E+02  0.7816164E-02  0.1266605E+00
        -11   -1    0    0    0    0  0.00000000000E+00  0.00000000000E+00  0.45593999997E+02  0.45594000000E+02  0.51100000000E-03 0. -1.
         11   -1    0    0    0    0 -0.00000000000E+00 -0.00000000000E+00 -0.45593999997E+02  0.45594000000E+02  0.51100000000E-03 0.  1.
    9900012    2    1    2    0    0 -0.31556795523E+02 -0.40247436565E+01 -0.21653563476E+01  0.59301973699E+02  0.50000054113E+02 0.  0.
         12    1    1    2    0    0  0.31556795523E+02  0.40247436565E+01  0.21653563476E+01  0.31886026301E+02  0.00000000000E+00 0. -1.
         11    1    3    3    0    0 -0.33684948248E+02 -0.36739893025E+01 -0.39785881381E+01  0.34117489645E+02  0.51100000000E-03 0. -1.
        -11    1    3    3    0    0  0.15393073544E+01 -0.86987403157E+01 -0.82561819562E+01  0.12091405665E+02  0.51100000000E-03 0.  1.
         12    1    3    3    0    0  0.58884537069E+00  0.83479859617E+01  0.10069413747E+02  0.13093078389E+02  0.00000000000E+00 0. -1.
</event>
<event>
 7    1  0.7821043E-012  0.5930191E+02  0.7816164E-02  0.1266605E+00
        -11   -1    0    0    0    0  0.00000000000E+00  0.00000000000E+00  0.45593999997E+02  0.45594000000E+02  0.51100000000E-03 0.  1.
         11   -1    0    0    0    0 -0.00000000000E+00 -0.00000000000E+00 -0.45593999997E+02  0.45594000000E+02  0.51100000000E-03 0. -1.
    9900012    2    1    2    0    0 -0.14207945412E+02 -0.26197234654E+02  0.11338501164E+02  0.59301914868E+02  0.49999946821E+02 0.  0.
         12    1    1    2    0    0  0.14207945412E+02  0.26197234654E+02 -0.11338501164E+02  0.31886085132E+02  0.00000000000E+00 0. -1.
         11    1    3    3    0    0  0.25956041418E+01 -0.16879498743E+02 -0.42786438203E+01  0.17605721566E+02  0.51100000000E-03 0. -1.
        -11    1    3    3    0    0 -0.23190889755E+02 -0.14244179293E+02  0.18742577467E+02  0.33045396377E+02  0.51100000000E-03 0.  1.
        -12    1    3    3    0    0  0.63873402017E+01  0.49264433814E+01 -0.31254324819E+01  0.86507969252E+01  0.00000000000E+00 0.  1.
</event>
<event>
 7    1  0.7821043E-012  0.5930217E+02  0.7816164E-02  0.1266604E+00
        -11   -1    0    0    0    0  0.00000000000E+00  0.00000000000E+00  0.45593999997E+02  0.45594000000E+02  0.51100000000E-03 0.  1.
         11   -1    0    0    0    0 -0.00000000000E+00 -0.00000000000E+00 -0.45593999997E+02  0.45594000000E+02  0.51100000000E-03 0. -1.
    9900012    2    1    2    0    0  0.11194094013E+02  0.29789904902E+02  0.19900034640E+01  0.59302167901E+02  0.50000408290E+02 0.  0.
         12    1    1    2    0    0 -0.11194094013E+02 -0.29789904902E+02 -0.19900034640E+01  0.31885832099E+02  0.00000000000E+00 0. -1.
         11    1    3    3    0    0  0.17047613416E+02 -0.69523892169E+00 -0.15386809355E+02  0.22975168829E+02  0.51100000000E-03 0. -1.
        -11    1    3    3    0    0  0.92874331483E+00  0.99065164834E+01  0.77745258213E+01  0.12627148728E+02  0.51100000000E-03 0.  1.
         12    1    3    3    0    0 -0.67822627176E+01  0.20578627340E+02  0.96022869979E+01  0.23699850345E+02  0.00000000000E+00 0. -1.
</event>
<event>
 7    1  0.7821043E-012  0.5930196E+02  0.7816164E-02  0.1266605E+00
        -11   -1    0    0    0    0  0.00000000000E+00  0.00000000000E+00  0.45593999997E+02  0.45594000000E+02  0.51100000000E-03 0.  1.
         11   -1    0    0    0    0 -0.00000000000E+00 -0.00000000000E+00 -0.45593999997E+02  0.45594000000E+02  0.51100000000E-03 0. -1.
    9900012    2    1    2    0    0  0.12254428266E+02 -0.15000384933E+02  0.25328577908E+02  0.59301962004E+02  0.50000032784E+02 0.  0.
         12    1    1    2    0    0 -0.12254428266E+02  0.15000384933E+02 -0.25328577908E+02  0.31886037996E+02  0.00000000000E+00 0. -1.
         11    1    3    3    0    0  0.87171706115E+01  0.11931722515E+02 -0.20037453853E+01  0.14912077705E+02  0.51100000000E-03 0. -1.
        -11    1    3    3    0    0 -0.62053158507E+01 -0.94829179706E+01  0.10626305976E+01  0.11382480489E+02  0.51100000000E-03 0.  1.
         12    1    3    3    0    0  0.97425735049E+01 -0.17449189477E+02  0.26269692696E+02  0.33007403809E+02  0.00000000000E+00 0. -1.
</event>
<event>
 7    1  0.7821043E-012  0.5930198E+02  0.7816164E-02  0.1266605E+00
        -11   -1    0    0    0    0  0.00000000000E+00  0.00000000000E+00  0.45593999997E+02  0.45594000000E+02  0.51100000000E-03 0.  1.
         11   -1    0    0    0    0 -0.00000000000E+00 -0.00000000000E+00 -0.45593999997E+02  0.45594000000E+02  0.51100000000E-03 0. -1.
    9900012    2    1    2    0    0 -0.28557556240E+01 -0.30531985366E+02  0.87384604430E+01  0.59301981724E+02  0.50000068749E+02 0.  0.
         12    1    1    2    0    0  0.28557556240E+01  0.30531985366E+02 -0.87384604430E+01  0.31886018276E+02  0.00000000000E+00 0. -1.
         11    1    3    3    0    0  0.10301104565E+02 -0.84824407049E+01  0.15531955126E+02  0.20476967204E+02  0.51100000000E-03 0. -1.
        -11    1    3    3    0    0 -0.11541781296E+02 -0.25423251260E+02  0.32486885479E+01  0.28108866887E+02  0.51100000000E-03 0.  1.
        -12    1    3    3    0    0 -0.16150788923E+01  0.33737065989E+01 -0.10042183231E+02  0.10716147633E+02  0.00000000000E+00 0.  1.
</event>
<event>
 7    1  0.7821043E-012  0.5930194E+02  0.7816164E-02  0.1266605E+00
        -11   -1    0    0    0    0  0.00000000000E+00  0.00000000000E+00  0.45593999997E+02  0.45594000000E+02  0.51100000000E-03 0.  1.
         11   -1    0    0    0    0 -0.00000000000E+00 -0.00000000000E+00 -0.45593999997E+02  0.45594000000E+02  0.51100000000E-03 0. -1.
    9900012    2    1    2    0    0 -0.24599880672E+02  0.10314226195E+02 -0.17469494799E+02  0.59301942865E+02  0.49999997879E+02 0.  0.
         12    1    1    2    0    0  0.24599880672E+02 -0.10314226195E+02  0.17469494799E+02  0.31886057135E+02  0.00000000000E+00 0. -1.
         11    1    3    3    0    0 -0.53789221350E+01  0.76775001646E+00 -0.22560991929E+02  0.23206046637E+02  0.51100000000E-03 0. -1.
        -11    1    3    3    0    0 -0.12055731626E+02  0.19418192879E+02  0.66370619570E+01  0.23800367044E+02  0.51100000000E-03 0.  1.
         12    1    3    3    0    0 -0.71652269103E+01 -0.98717167002E+01 -0.15455648272E+01  0.12295529184E+02  0.00000000000E+00 0. -1.
</event>
<event>
 7    1  0.7821043E-012  0.5930194E+02  0.7816164E-02  0.1266605E+00
        -11   -1    0    0    0    0  0.00000000000E+00  0.00000000000E+00  0.45593999997E+02  0.45594000000E+02  0.51100000000E-03 0. -1.
         11   -1    0    0    0    0 -0.00000000000E+00 -0.00000000000E+00 -0.45593999997E+02  0.45594000000E+02  0.51100000000E-03 0.  1.
    9900012    2    1    2    0    0  0.30838681124E+02  0.58889257558E+01 -0.55692902214E+01  0.59301942018E+02  0.49999996335E+02 0.  0.
         12    1    1    2    0    0 -0.30838681124E+02 -0.58889257558E+01  0.55692902214E+01  0.31886057982E+02  0.00000000000E+00 0. -1.
         11    1    3    3    0    0  0.19316119022E+02  0.19753368018E+02  0.10575239697E+02  0.29582827739E+02  0.51100000000E-03 0. -1.
        -11    1    3    3    0    0  0.12446075894E+02 -0.58442291884E+01 -0.16693657619E+02  0.21627251904E+02  0.51100000000E-03 0.  1.
        -12    1    3    3    0    0 -0.92351379135E+00 -0.80202130738E+01  0.54912770008E+00  0.80918623754E+01  0.00000000000E+00 0.  1.
</event>
<event>
 7    1  0.7821043E-012  0.5930194E+02  0.7816164E-02  0.1266605E+00
        -11   -1    0    0    0    0  0.00000000000E+00  0.00000000000E+00  0.45593999997E+02  0.45594000000E+02  0.51100000000E-03 0.  1.
         11   -1    0    0    0    0 -0.00000000000E+00 -0.00000000000E+00 -0.45593999997E+02  0.45594000000E+02  0.51100000000E-03 0. -1.
    9900012    2    1    2    0    0 -0.31724800633E+02 -0.59261683855E+00  0.31475123606E+01  0.59301937152E+02  0.49999987460E+02 0.  0.
         12    1    1    2    0    0  0.31724800633E+02  0.59261683855E+00 -0.31475123606E+01  0.31886062848E+02  0.00000000000E+00 0. -1.
         11    1    3    3    0    0 -0.31891268656E+02 -0.45393818405E+01  0.83473497638E+01  0.33276677303E+02  0.51100000000E-03 0. -1.
        -11    1    3    3    0    0  0.65442749621E+01  0.10323061061E+02 -0.10015090919E+02  0.15801745815E+02  0.51100000000E-03 0.  1.
        -12    1    3    3    0    0 -0.63778069382E+01 -0.63762960585E+01  0.48152535158E+01  0.10223514033E+02  0.00000000000E+00 0.  1.
</event>
<event>
 7    1  0.7821043E-012  0.5930195E+02  0.7816164E-02  0.1266605E+00
        -11   -1    0    0    0    0  0.00000000000E+00  0.00000000000E+00  0.45593999997E+02  0.45594000000E+02  0.51100000000E-03 0.  1.
         11   -1    0    0    0    0 -0.00000000000E+00 -0.00000000000E+00 -0.45593999997E+02  0.45594000000E+02  0.51100000000E-03 0. -1.
    9900012    2    1    2    0    0 -0.25551083823E+02 -0.14500286145E+02  0.12393701897E+02  0.59301952432E+02  0.50000015327E+02 0.  0.
         12    1    1    2    0    0  0.25551083823E+02  0.14500286145E+02 -0.12393701897E+02  0.31886047568E+02  0.00000000000E+00 0. -1.
         11    1    3    3    0    0 -0.81001234844E+01  0.14304183767E+02  0.30763515412E+01  0.16723803777E+02  0.51100000000E-03 0. -1.
        -11    1    3    3    0    0 -0.22298044272E+02 -0.24256597782E+02  0.12460662433E+02  0.35225749429E+02  0.51100000000E-03 0.  1.
         12    1    3    3    0    0  0.48470839336E+01 -0.45478721291E+01 -0.31433120768E+01  0.73523992257E+01  0.00000000000E+00 0. -1.
</event>
<event>
 7    1  0.7821043E-012  0.5930196E+02  0.7816164E-02  0.1266605E+00
        -11   -1    0    0    0    0  0.00000000000E+00  0.00000000000E+00  0.45593999997E+02  0.45594000000E+02  0.51100000000E-03 0.  1.
         11   -1    0    0    0    0 -0.00000000000E+00 -0.00000000000E+00 -0.45593999997E+02  0.45594000000E+02  0.51100000000E-03 0. -1.
    9900012    2    1    2    0    0  0.17298395303E+02 -0.21460718832E+02  0.16028812515E+02  0.59301956603E+02  0.50000022935E+02 0.  0.
         12    1    1    2    0    0 -0.17298395303E+02  0.21460718832E+02 -0.16028812515E+02  0.31886043397E+02  0.00000000000E+00 0. -1.
         11    1    3    3    0    0  0.23404555586E+02 -0.20187282210E+02 -0.22428848614E+01  0.30989193567E+02  0.51100000000E-03 0. -1.
        -11    1    3    3    0    0 -0.13210545103E+02  0.26405193706E+01  0.12276553195E+02  0.18226480820E+02  0.51100000000E-03 0.  1.
        -12    1    3    3    0    0  0.71043848200E+01 -0.39139559932E+01  0.59951441811E+01  0.10086282216E+02  0.00000000000E+00 0.  1.
</event>
<event>
 7    1  0.7821043E-012  0.5930191E+02  0.7816164E-02  0.1266605E+00
        -11   -1    0    0    0    0  0.00000000000E+00  0.00000000000E+00  0.45593999997E+02  0.45594000000E+02  0.51100000000E-03 0.  1.
         11   -1    0    0    0    0 -0.00000000000E+00 -0.00000000000E+00 -0.45593999997E+02  0.45594000000E+02  0.51100000000E-03 0. -1.
    9900012    2    1    2    0    0  0.24846784201E+02  0.28598651732E+01  0.19778307795E+02  0.59301906273E+02  0.49999931144E+02 0.  0.
         12    1    1    2    0    0 -0.24846784201E+02 -0.28598651732E+01 -0.19778307795E+02  0.31886093727E+02  0.00000000000E+00 0. -1.
         11    1    3    3    0    0 -0.56595171126E+01 -0.78660171404E+00 -0.72556966804E+01  0.92354756663E+01  0.51100000000E-03 0. -1.
        -11    1    3    3    0    0  0.30006015666E+02  0.74991021302E+01  0.98660424377E+01  0.32464385141E+02  0.51100000000E-03 0.  1.
        -12    1    3    3    0    0  0.50028564706E+00 -0.38526352429E+01  0.17167962038E+02  0.17602045466E+02  0.00000000000E+00 0.  1.
</event>
<event>
 7    1  0.7821043E-012  0.5930194E+02  0.7816164E-02  0.1266605E+00
        -11   -1    0    0    0    0  0.00000000000E+00  0.00000000000E+00  0.45593999997E+02  0.45594000000E+02  0.51100000000E-03 0.  1.
         11   -1    0    0    0    0 -0.00000000000E+00 -0.00000000000E+00 -0.45593999997E+02  0.45594000000E+02  0.51100000000E-03 0. -1.
    9900012    2    1    2    0    0  0.32743687438E+01  0.31144460260E+02 -0.60018459891E+01  0.59301936417E+02  0.49999986119E+02 0.  0.
         12    1    1    2    0    0 -0.32743687438E+01 -0.31144460260E+02  0.60018459891E+01  0.31886063583E+02  0.00000000000E+00 0. -1.
         11    1    3    3    0    0  0.11012833361E+02  0.10979879090E+02 -0.16071539356E+02  0.22363689790E+02  0.51100000000E-03 0. -1.
        -11    1    3    3    0    0 -0.10090100914E+02  0.23644547094E+02 -0.34366723159E+00  0.25709781235E+02  0.51100000000E-03 0.  1.
         12    1    3    3    0    0  0.23516362966E+01 -0.34799659241E+01  0.10413360598E+02  0.11228465392E+02  0.00000000000E+00 0. -1.
</event>
<event>
 7    1  0.7821043E-012  0.5930193E+02  0.7816164E-02  0.1266605E+00
        -11   -1    0    0    0    0  0.00000000000E+00  0.00000000000E+00  0.45593999997E+02  0.45594000000E+02  0.51100000000E-03 0.  1.
         11   -1    0    0    0    0 -0.00000000000E+00 -0.00000000000E+00 -0.45593999997E+02  0.45594000000E+02  0.51100000000E-03 0. -1.
    9900012    2    1    2    0    0  0.12019128279E+01 -0.31747079592E+02  0.27202048853E+01  0.59301934522E+02  0.49999982663E+02 0.  0.
         12    1    1    2    0    0 -0.12019128279E+01  0.31747079592E+02 -0.27202048853E+01  0.31886065478E+02  0.00000000000E+00 0. -1.
         11    1    3    3    0    0 -0.30482818299E+00 -0.58293975901E+01  0.17686542578E+02  0.18624945238E+02  0.51100000000E-03 0. -1.
        -11    1    3    3    0    0  0.50323346823E+01 -0.42303799500E+00 -0.14042695860E+02  0.14923158539E+02  0.51100000000E-03 0.  1.
        -12    1    3    3    0    0 -0.35255936714E+01 -0.25494644007E+02 -0.92364183323E+00  0.25753830745E+02  0.00000000000E+00 0.  1.
</event>
<event>
 7    1  0.7821043E-012  0.5930196E+02  0.7816164E-02  0.1266605E+00
        -11   -1    0    0    0    0  0.00000000000E+00  0.00000000000E+00  0.45593999997E+02  0.45594000000E+02  0.51100000000E-03 0.  1.
         11   -1    0    0    0    0 -0.00000000000E+00 -0.00000000000E+00 -0.45593999997E+02  0.45594000000E+02  0.51100000000E-03 0. -1.
    9900012    2    1    2    0    0  0.23781572007E+02  0.18712746918E+02 -0.10049361023E+02  0.59301957265E+02  0.50000024141E+02 0.  0.
         12    1    1    2    0    0 -0.23781572007E+02 -0.18712746918E+02  0.10049361023E+02  0.31886042735E+02  0.00000000000E+00 0. -1.
         11    1    3    3    0    0  0.10543632772E+02 -0.11445395357E+02 -0.10565928379E+02  0.18809681275E+02  0.51100000000E-03 0. -1.
        -11    1    3    3    0    0 -0.35095209574E+01  0.20396398032E+02  0.31323273293E+01  0.20931824210E+02  0.51100000000E-03 0.  1.
         12    1    3    3    0    0  0.16747460192E+02  0.97617442440E+01 -0.26157599730E+01  0.19560451779E+02  0.00000000000E+00 0. -1.
</event>
<event>
 7    1  0.7821043E-012  0.5930195E+02  0.7816164E-02  0.1266605E+00
        -11   -1    0    0    0    0  0.00000000000E+00  0.00000000000E+00  0.45593999997E+02  0.45594000000E+02  0.51100000000E-03 0.  1.
         11   -1    0    0    0    0 -0.00000000000E+00 -0.00000000000E+00 -0.45593999997E+02  0.45594000000E+02  0.51100000000E-03 0. -1.
    9900012    2    1    2    0    0  0.23647988457E+02  0.16960238350E+02 -0.13032377922E+02  0.59301954192E+02  0.50000018538E+02 0.  0.
         12    1    1    2    0    0 -0.23647988457E+02 -0.16960238350E+02  0.13032377922E+02  0.31886045808E+02  0.00000000000E+00 0. -1.
         11    1    3    3    0    0  0.28572108159E+02  0.24151885944E+02 -0.16464658619E+02  0.40874979425E+02  0.51100000000E-03 0. -1.
        -11    1    3    3    0    0  0.48504579345E+01 -0.53566391174E+01 -0.14144470458E+01  0.73635036168E+01  0.51100000000E-03 0.  1.
         12    1    3    3    0    0 -0.97745776362E+01 -0.18350084771E+01  0.48467277433E+01  0.11063471150E+02  0.00000000000E+00 0. -1.
</event>
<event>
 7    1  0.7821043E-012  0.5930187E+02  0.7816164E-02  0.1266605E+00
        -11   -1    0    0    0    0  0.00000000000E+00  0.00000000000E+00  0.45593999997E+02  0.45594000000E+02  0.51100000000E-03 0.  1.
         11   -1    0    0    0    0 -0.00000000000E+00 -0.00000000000E+00 -0.45593999997E+02  0.45594000000E+02  0.51100000000E-03 0. -1.
    9900012    2    1    2    0    0  0.18867872646E+02  0.19068191828E+02 -0.17237541841E+02  0.59301868117E+02  0.49999861556E+02 0.  0.
         12    1    1    2    0    0 -0.18867872646E+02 -0.19068191828E+02  0.17237541841E+02  0.31886131883E+02  0.00000000000E+00 0. -1.
         11    1    3    3    0    0  0.86943049148E+01 -0.13502557088E+01  0.11109772771E+02  0.14171844612E+02  0.51100000000E-03 0. -1.
        -11    1    3    3    0    0  0.95148158693E+01  0.26178906929E+02 -0.17688230707E+02  0.32996066354E+02  0.51100000000E-03 0.  1.
         12    1    3    3    0    0  0.65875186193E+00 -0.57604593926E+01 -0.10659083905E+02  0.12133957150E+02  0.00000000000E+00 0. -1.
</event>
<event>
 7    1  0.7821043E-012  0.5930196E+02  0.7816164E-02  0.1266605E+00
        -11   -1    0    0    0    0  0.00000000000E+00  0.00000000000E+00  0.45593999997E+02  0.45594000000E+02  0.51100000000E-03 0. -1.
         11   -1    0    0    0    0 -0.00000000000E+00 -0.00000000000E+00 -0.45593999997E+02  0.45594000000E+02  0.51100000000E-03 0.  1.
    9900012    2    1    2    0    0  0.17422854651E+02  0.14686834501E+02 -0.22303817766E+02  0.59301964518E+02  0.50000037369E+02 0.  0.
         12    1    1    2    0    0 -0.17422854651E+02 -0.14686834501E+02  0.22303817766E+02  0.31886035482E+02  0.00000000000E+00 0. -1.
         11    1    3    3    0    0 -0.44614805122E+01 -0.28272275034E+01 -0.88676706114E+00  0.53557800364E+01  0.51100000000E-03 0. -1.
        -11    1    3    3    0    0  0.28472241449E+02  0.18688486777E+01 -0.26742974191E+01  0.28658558852E+02  0.51100000000E-03 0.  1.
        -12    1    3    3    0    0 -0.65879062860E+01  0.15645213327E+02 -0.18742753286E+02  0.25287625630E+02  0.00000000000E+00 0.  1.
</event>
<event>
 7    1  0.7821043E-012  0.5930199E+02  0.7816164E-02  0.1266605E+00
        -11   -1    0    0    0    0  0.00000000000E+00  0.00000000000E+00  0.45593999997E+02  0.45594000000E+02  0.51100000000E-03 0. -1.
         11   -1    0    0    0    0 -0.00000000000E+00 -0.00000000000E+00 -0.45593999997E+02  0.45594000000E+02  0.51100000000E-03 0.  1.
    9900012    2    1    2    0    0 -0.21880274263E+02 -0.23045271128E+02  0.26242791457E+01  0.59301987954E+02  0.50000080110E+02 0.  0.
         12    1    1    2    0    0  0.21880274263E+02  0.23045271128E+02 -0.26242791457E+01  0.31886012046E+02  0.00000000000E+00 0. -1.
         11    1    3    3    0    0  0.65095637234E+01 -0.13136872996E+02 -0.47002138206E+01  0.15396228831E+02  0.51100000000E-03 0. -1.
        -11    1    3    3    0    0 -0.11248140671E+02  0.11118190446E+02  0.53879769218E+01  0.16708235183E+02  0.51100000000E-03 0.  1.
        -12    1    3    3    0    0 -0.17141697315E+02 -0.21026588578E+02  0.19365160445E+01  0.27197523940E+02  0.00000000000E+00 0.  1.
</event>
<event>
 7    1  0.7821043E-012  0.5930200E+02  0.7816164E-02  0.1266605E+00
        -11   -1    0    0    0    0  0.00000000000E+00  0.00000000000E+00  0.45593999997E+02  0.45594000000E+02  0.51100000000E-03 0.  1.
         11   -1    0    0    0    0 -0.00000000000E+00 -0.00000000000E+00 -0.45593999997E+02  0.45594000000E+02  0.51100000000E-03 0. -1.
    9900012    2    1    2    0    0 -0.44591566931E+01 -0.19942323613E+02  0.24477269716E+02  0.59301998648E+02  0.50000099613E+02 0.  0.
         12    1    1    2    0    0  0.44591566931E+01  0.19942323613E+02 -0.24477269716E+02  0.31886001352E+02  0.00000000000E+00 0. -1.
         11    1    3    3    0    0  0.13966788427E+02 -0.14229852272E+02  0.14642701499E+02  0.24737998748E+02  0.51100000000E-03 0. -1.
        -11    1    3    3    0    0 -0.84980439525E+01  0.93299273429E+01 -0.23116700316E+01  0.12829969362E+02  0.51100000000E-03 0.  1.
         12    1    3    3    0    0 -0.99279011676E+01 -0.15042398685E+02  0.12146238248E+02  0.21734030537E+02  0.00000000000E+00 0. -1.
</event>
<event>
 7    1  0.7821043E-012  0.5930193E+02  0.7816164E-02  0.1266605E+00
        -11   -1    0    0    0    0  0.00000000000E+00  0.00000000000E+00  0.45593999997E+02  0.45594000000E+02  0.51100000000E-03 0.  1.
         11   -1    0    0    0    0 -0.00000000000E+00 -0.00000000000E+00 -0.45593999997E+02  0.45594000000E+02  0.51100000000E-03 0. -1.
    9900012    2    1    2    0    0 -0.25005911553E+02 -0.53224120691E+01  0.19055127129E+02  0.59301928547E+02  0.49999971766E+02 0.  0.
         12    1    1    2    0    0  0.25005911553E+02  0.53224120691E+01 -0.19055127129E+02  0.31886071453E+02  0.00000000000E+00 0. -1.
         11    1    3    3    0    0  0.22596538793E+01  0.54036116143E+01 -0.23392474020E+01  0.63069115105E+01  0.51100000000E-03 0. -1.
        -11    1    3    3    0    0 -0.35125920422E+02 -0.16082402198E+02  0.14572004875E+02  0.41289432938E+02  0.51100000000E-03 0.  1.
        -12    1    3    3    0    0  0.78603549898E+01  0.53563785149E+01  0.68223696560E+01  0.11705584098E+02  0.00000000000E+00 0.  1.
</event>
<event>
 7    1  0.7821043E-012  0.5930195E+02  0.7816164E-02  0.1266605E+00
        -11   -1    0    0    0    0  0.00000000000E+00  0.00000000000E+00  0.45593999997E+02  0.45594000000E+02  0.51100000000E-03 0. -1.
         11   -1    0    0    0    0 -0.00000000000E+00 -0.00000000000E+00 -0.45593999997E+02  0.45594000000E+02  0.51100000000E-03 0.  1.
    9900012    2    1    2    0    0  0.16192642366E+02  0.23099893379E+02 -0.14863149487E+02  0.59301953623E+02  0.50000017499E+02 0.  0.
         12    1    1    2    0    0 -0.16192642366E+02 -0.23099893379E+02  0.14863149487E+02  0.31886046377E+02  0.00000000000E+00 0. -1.
         11    1    3    3    0    0 -0.57583740720E+01  0.29539927957E+01  0.13652173505E+02  0.15108500491E+02  0.51100000000E-03 0. -1.
        -11    1    3    3    0    0  0.20213031087E+02  0.12219097416E+02 -0.13710157909E+02  0.27310096989E+02  0.51100000000E-03 0.  1.
        -12    1    3    3    0    0  0.17379853515E+01  0.79268031675E+01 -0.14805165083E+02  0.16883356144E+02  0.00000000000E+00 0.  1.
</event>
<event>
 7    1  0.7821043E-012  0.5930195E+02  0.7816164E-02  0.1266605E+00
        -11   -1    0    0    0    0  0.00000000000E+00  0.00000000000E+00  0.45593999997E+02  0.45594000000E+02  0.51100000000E-03 0. -1.
         11   -1    0    0    0    0 -0.00000000000E+00 -0.00000000000E+00 -0.45593999997E+02  0.45594000000E+02  0.51100000000E-03 0.  1.
    9900012    2    1    2    0    0 -0.11446973588E+02  0.22323170295E+02  0.19681548083E+02  0.59301945505E+02  0.50000002693E+02 0.  0.
         12    1    1    2    0    0  0.11446973588E+02 -0.22323170295E+02 -0.19681548083E+02  0.31886054495E+02  0.00000000000E+00 0. -1.
         11    1    3    3    0    0 -0.14234134866E+02 -0.46468639443E+01  0.18352866257E+02  0.23686106476E+02  0.51100000000E-03 0. -1.
        -11    1    3    3    0    0  0.10563976261E+02  0.83153464066E+01 -0.51429649573E+01  0.14394188727E+02  0.51100000000E-03 0.  1.
         12    1    3    3    0    0 -0.77768149835E+01  0.18654687832E+02  0.64716467840E+01  0.21221650301E+02  0.00000000000E+00 0. -1.
</event>
<event>
 7    1  0.7821043E-012  0.5930179E+02  0.7816164E-02  0.1266605E+00
        -11   -1    0    0    0    0  0.00000000000E+00  0.00000000000E+00  0.45593999997E+02  0.45594000000E+02  0.51100000000E-03 0.  1.
         11   -1    0    0    0    0 -0.00000000000E+00 -0.00000000000E+00 -0.45593999997E+02  0.45594000000E+02  0.51100000000E-03 0. -1.
    9900012    2    1    2    0    0 -0.16321511422E+02 -0.14453529087E+02  0.23268731570E+02  0.59301794408E+02  0.49999727129E+02 0.  0.
         12    1    1    2    0    0  0.16321511422E+02  0.14453529087E+02 -0.23268731570E+02  0.31886205592E+02  0.00000000000E+00 0. -1.
         11    1    3    3    0    0  0.64873847490E+01 -0.20195474743E+02  0.22160690441E+02  0.30676368137E+02  0.51100000000E-03 0. -1.
        -11    1    3    3    0    0 -0.10383377053E+02  0.27581831407E+01  0.86448276034E+01  0.13789675044E+02  0.51100000000E-03 0.  1.
         12    1    3    3    0    0 -0.12425519118E+02  0.29837625156E+01 -0.75367864744E+01  0.14835751227E+02  0.00000000000E+00 0. -1.
</event>
<event>
 7    1  0.7821043E-012  0.5930202E+02  0.7816164E-02  0.1266605E+00
        -11   -1    0    0    0    0  0.00000000000E+00  0.00000000000E+00  0.45593999997E+02  0.45594000000E+02  0.51100000000E-03 0.  1.
         11   -1    0    0    0    0 -0.00000000000E+00 -0.00000000000E+00 -0.45593999997E+02  0.45594000000E+02  0.51100000000E-03 0. -1.
    9900012    2    1    2    0    0  0.48385343760E+00  0.15976924207E+02  0.27590211814E+02  0.59302015474E+02  0.50000130300E+02 0.  0.
         12    1    1    2    0    0 -0.48385343760E+00 -0.15976924207E+02 -0.27590211814E+02  0.31885984526E+02  0.00000000000E+00 0. -1.
         11    1    3    3    0    0 -0.16284907102E+01  0.33513604594E+02  0.19413992466E+02  0.38764891056E+02  0.51100000000E-03 0. -1.
        -11    1    3    3    0    0  0.10422328183E+01 -0.96802372653E+01  0.80079244326E+01  0.12606351444E+02  0.51100000000E-03 0.  1.
         12    1    3    3    0    0  0.10701113295E+01 -0.78564431213E+01  0.16829491527E+00  0.79307729733E+01  0.00000000000E+00 0. -1.
</event>
<event>
 7    1  0.7821043E-012  0.5930194E+02  0.7816164E-02  0.1266605E+00
        -11   -1    0    0    0    0  0.00000000000E+00  0.00000000000E+00  0.45593999997E+02  0.45594000000E+02  0.51100000000E-03 0.  1.
         11   -1    0    0    0    0 -0.00000000000E+00 -0.00000000000E+00 -0.45593999997E+02  0.45594000000E+02  0.51100000000E-03 0. -1.
    9900012    2    1    2    0    0  0.27552859660E+02 -0.14679259359E+02  0.64868980776E+01  0.59301943840E+02  0.49999999658E+02 0.  0.
         12    1    1    2    0    0 -0.27552859660E+02  0.14679259359E+02 -0.64868980776E+01  0.31886056160E+02  0.00000000000E+00 0. -1.
         11    1    3    3    0    0  0.21934049293E+02  0.28918470065E+01 -0.34163519444E+01  0.22386084034E+02  0.51100000000E-03 0. -1.
        -11    1    3    3    0    0 -0.41840503268E+01 -0.19342553446E+02 -0.36214023611E+01  0.20118528929E+02  0.51100000000E-03 0.  1.
        -12    1    3    3    0    0  0.98028606936E+01  0.17714470807E+01  0.13524652383E+02  0.16797330878E+02  0.00000000000E+00 0.  1.
</event>
<event>
 7    1  0.7821043E-012  0.5930194E+02  0.7816164E-02  0.1266605E+00
        -11   -1    0    0    0    0  0.00000000000E+00  0.00000000000E+00  0.45593999997E+02  0.45594000000E+02  0.51100000000E-03 0.  1.
         11   -1    0    0    0    0 -0.00000000000E+00 -0.00000000000E+00 -0.45593999997E+02  0.45594000000E+02  0.51100000000E-03 0. -1.
    9900012    2    1    2    0    0  0.14825265197E+02 -0.19681008551E+02  0.20238333862E+02  0.59301941240E+02  0.49999994916E+02 0.  0.
         12    1    1    2    0    0 -0.14825265197E+02  0.19681008551E+02 -0.20238333862E+02  0.31886058760E+02  0.00000000000E+00 0. -1.
         11    1    3    3    0    0  0.13509941059E+02  0.13774532663E+02  0.43118011927E+01  0.19769873224E+02  0.51100000000E-03 0. -1.
        -11    1    3    3    0    0 -0.12058652315E+01 -0.15803223138E+01  0.55823151504E+01  0.59256874935E+01  0.51100000000E-03 0.  1.
         12    1    3    3    0    0  0.25211893690E+01 -0.31875218900E+02  0.10344217519E+02  0.33606380523E+02  0.00000000000E+00 0. -1.
</event>
<event>
 7    1  0.7821043E-012  0.5930197E+02  0.7816164E-02  0.1266605E+00
        -11   -1    0    0    0    0  0.00000000000E+00  0.00000000000E+00  0.45593999997E+02  0.45594000000E+02  0.51100000000E-03 0.  1.
         11   -1    0    0    0    0 -0.00000000000E+00 -0.00000000000E+00 -0.45593999997E+02  0.45594000000E+02  0.51100000000E-03 0. -1.
    9900012    2    1    2    0    0 -0.27224880759E+02 -0.11587492938E+02  0.11885078648E+02  0.59301965135E+02  0.50000038494E+02 0.  0.
         12    1    1    2    0    0  0.27224880759E+02  0.11587492938E+02 -0.11885078648E+02  0.31886034865E+02  0.00000000000E+00 0. -1.
         11    1    3    3    0    0 -0.13498139142E+02 -0.63140776880E+01  0.23933838096E+02  0.28193899050E+02  0.51100000000E-03 0. -1.
        -11    1    3    3    0    0 -0.15927422476E+02 -0.53720526152E+00 -0.17424468706E+02  0.23613205758E+02  0.51100000000E-03 0.  1.
         12    1    3    3    0    0  0.22006808591E+01 -0.47362099887E+01  0.53757092580E+01  0.74948603275E+01  0.00000000000E+00 0. -1.
</event>
<event>
 7    1  0.7821043E-012  0.5930194E+02  0.7816164E-02  0.1266605E+00
        -11   -1    0    0    0    0  0.00000000000E+00  0.00000000000E+00  0.45593999997E+02  0.45594000000E+02  0.51100000000E-03 0.  1.
         11   -1    0    0    0    0 -0.00000000000E+00 -0.00000000000E+00 -0.45593999997E+02  0.45594000000E+02  0.51100000000E-03 0. -1.
    9900012    2    1    2    0    0  0.29407904751E+02  0.11784160232E+02  0.36096767405E+01  0.59301936267E+02  0.49999985846E+02 0.  0.
         12    1    1    2    0    0 -0.29407904751E+02 -0.11784160232E+02 -0.36096767405E+01  0.31886063733E+02  0.00000000000E+00 0. -1.
         11    1    3    3    0    0 -0.75978176360E+01  0.70802067856E+01 -0.11866195335E+02  0.15769044136E+02  0.51100000000E-03 0. -1.
        -11    1    3    3    0    0  0.73634021195E+01 -0.17898732690E+01  0.10240393521E+02  0.12739269870E+02  0.51100000000E-03 0.  1.
        -12    1    3    3    0    0  0.29642320268E+02  0.64938267156E+01  0.52354785544E+01  0.30793622261E+02  0.00000000000E+00 0.  1.
</event>
<event>
 7    1  0.7821043E-012  0.5930193E+02  0.7816164E-02  0.1266605E+00
        -11   -1    0    0    0    0  0.00000000000E+00  0.00000000000E+00  0.45593999997E+02  0.45594000000E+02  0.51100000000E-03 0. -1.
         11   -1    0    0    0    0 -0.00000000000E+00 -0.00000000000E+00 -0.45593999997E+02  0.45594000000E+02  0.51100000000E-03 0.  1.
    9900012    2    1    2    0    0 -0.15548029350E+02  0.14824370471E+02 -0.23563068419E+02  0.59301931414E+02  0.49999976996E+02 0.  0.
         12    1    1    2    0    0  0.15548029350E+02 -0.14824370471E+02  0.23563068419E+02  0.31886068586E+02  0.00000000000E+00 0. -1.
         11    1    3    3    0    0 -0.15997352115E+02 -0.45512322755E+01 -0.17418394228E+02  0.24083800524E+02  0.51100000000E-03 0. -1.
        -11    1    3    3    0    0  0.11173022430E+02  0.27445380136E+01 -0.97777134677E+01  0.15098761540E+02  0.51100000000E-03 0.  1.
         12    1    3    3    0    0 -0.10723699665E+02  0.16631064733E+02  0.36330392762E+01  0.20119369350E+02  0.00000000000E+00 0. -1.
</event>
<event>
 7    1  0.7821043E-012  0.5930195E+02  0.7816164E-02  0.1266605E+00
        -11   -1    0    0    0    0  0.00000000000E+00  0.00000000000E+00  0.45593999997E+02  0.45594000000E+02  0.51100000000E-03 0. -1.
         11   -1    0    0    0    0 -0.00000000000E+00 -0.00000000000E+00 -0.45593999997E+02  0.45594000000E+02  0.51100000000E-03 0.  1.
    9900012    2    1    2    0    0  0.62031649522E+01 -0.30439454148E+02 -0.71889280401E+01  0.59301948024E+02  0.50000007289E+02 0.  0.
         12    1    1    2    0    0 -0.62031649522E+01  0.30439454148E+02  0.71889280401E+01  0.31886051976E+02  0.00000000000E+00 0. -1.
         11    1    3    3    0    0 -0.20074933551E+02 -0.15400819065E+02 -0.92703302743E+01  0.26946747644E+02  0.51100000000E-03 0. -1.
        -11    1    3    3    0    0  0.88372346957E+01 -0.17992884583E+01  0.49233146506E+01  0.10274881188E+02  0.51100000000E-03 0.  1.
         12    1    3    3    0    0  0.17440863808E+02 -0.13239346625E+02 -0.28419124164E+01  0.22080319191E+02  0.00000000000E+00 0. -1.
</event>
<event>
 7    1  0.7821043E-012  0.5930182E+02  0.7816164E-02  0.1266605E+00
        -11   -1    0    0    0    0  0.00000000000E+00  0.00000000000E+00  0.45593999997E+02  0.45594000000E+02  0.51100000000E-03 0.  1.
         11   -1    0    0    0    0 -0.00000000000E+00 -0.00000000000E+00 -0.45593999997E+02  0.45594000000E+02  0.51100000000E-03 0. -1.
    9900012    2    1    2    0    0 -0.89165009902E+01 -0.18842365470E+02 -0.24128612494E+02  0.59301816984E+02  0.49999768303E+02 0.  0.
         12    1    1    2    0    0  0.89165009902E+01  0.18842365470E+02  0.24128612494E+02  0.31886183016E+02  0.00000000000E+00 0. -1.
         11    1    3    3    0    0  0.85831695461E+01 -0.15036256755E+01 -0.27953666308E+02  0.29280354335E+02  0.51100000000E-03 0. -1.
        -11    1    3    3    0    0 -0.13093957239E+02 -0.18875433522E+01 -0.94016502800E+00  0.13262671172E+02  0.51100000000E-03 0.  1.
         12    1    3    3    0    0 -0.44057132974E+01 -0.15451196442E+02  0.47652188425E+01  0.16758791477E+02  0.00000000000E+00 0. -1.
</event>
<event>
 7    1  0.7821043E-012  0.5930195E+02  0.7816164E-02  0.1266605E+00
        -11   -1    0    0    0    0  0.00000000000E+00  0.00000000000E+00  0.45593999997E+02  0.45594000000E+02  0.51100000000E-03 0.  1.
         11   -1    0    0    0    0 -0.00000000000E+00 -0.00000000000E+00 -0.45593999997E+02  0.45594000000E+02  0.51100000000E-03 0. -1.
    9900012    2    1    2    0    0 -0.55275369237E+01 -0.28988878341E+02  0.12075232040E+02  0.59301953510E+02  0.50000017294E+02 0.  0.
         12    1    1    2    0    0  0.55275369237E+01  0.28988878341E+02 -0.12075232040E+02  0.31886046490E+02  0.00000000000E+00 0. -1.
         11    1    3    3    0    0  0.12405203328E+02 -0.26471304944E+02  0.15636468706E+02  0.33152951738E+02  0.51100000000E-03 0. -1.
        -11    1    3    3    0    0 -0.18193304522E+02 -0.60385729866E+01  0.22997713921E+01  0.19306725301E+02  0.51100000000E-03 0.  1.
         12    1    3    3    0    0  0.26056427012E+00  0.35209995893E+01 -0.58610080589E+01  0.68422764715E+01  0.00000000000E+00 0. -1.
</event>
<event>
 7    1  0.7821043E-012  0.5930195E+02  0.7816164E-02  0.1266605E+00
        -11   -1    0    0    0    0  0.00000000000E+00  0.00000000000E+00  0.45593999997E+02  0.45594000000E+02  0.51100000000E-03 0.  1.
         11   -1    0    0    0    0 -0.00000000000E+00 -0.00000000000E+00 -0.45593999997E+02  0.45594000000E+02  0.51100000000E-03 0. -1.
    9900012    2    1    2    0    0 -0.72393670009E+01 -0.30760698286E+02 -0.42533393206E+01  0.59301954636E+02  0.50000019347E+02 0.  0.
         12    1    1    2    0    0  0.72393670009E+01  0.30760698286E+02  0.42533393206E+01  0.31886045364E+02  0.00000000000E+00 0. -1.
         11    1    3    3    0    0  0.10710324209E+02 -0.74452137927E+01 -0.18851815437E+02  0.22924510870E+02  0.51100000000E-03 0. -1.
        -11    1    3    3    0    0  0.31405988706E+00  0.85615795218E-01  0.52435532068E+01  0.52536477014E+01  0.51100000000E-03 0.  1.
         12    1    3    3    0    0 -0.18263751097E+02 -0.23401100288E+02  0.93549229098E+01  0.31123796065E+02  0.00000000000E+00 0. -1.
</event>
<event>
 7    1  0.7821043E-012  0.5930188E+02  0.7816164E-02  0.1266605E+00
        -11   -1    0    0    0    0  0.00000000000E+00  0.00000000000E+00  0.45593999997E+02  0.45594000000E+02  0.51100000000E-03 0.  1.
         11   -1    0    0    0    0 -0.00000000000E+00 -0.00000000000E+00 -0.45593999997E+02  0.45594000000E+02  0.51100000000E-03 0. -1.
    9900012    2    1    2    0    0  0.17947731848E+02  0.11221980106E+02  0.23846824455E+02  0.59301875234E+02  0.49999874537E+02 0.  0.
         12    1    1    2    0    0 -0.17947731848E+02 -0.11221980106E+02 -0.23846824455E+02  0.31886124766E+02  0.00000000000E+00 0. -1.
         11    1    3    3    0    0  0.78719903553E+01 -0.15002940386E+02  0.14385244845E+02  0.22225924545E+02  0.51100000000E-03 0. -1.
        -11    1    3    3    0    0  0.51223394746E+01  0.29336655654E+02  0.63492191325E+01  0.30449799844E+02  0.51100000000E-03 0.  1.
        -12    1    3    3    0    0  0.49534020182E+01 -0.31117351627E+01  0.31123604782E+01  0.66261508452E+01  0.00000000000E+00 0.  1.
</event>
<event>
 7    1  0.7821043E-012  0.5930191E+02  0.7816164E-02  0.1266605E+00
        -11   -1    0    0    0    0  0.00000000000E+00  0.00000000000E+00  0.45593999997E+02  0.45594000000E+02  0.51100000000E-03 0.  1.
         11   -1    0    0    0    0 -0.00000000000E+00 -0.00000000000E+00 -0.45593999997E+02  0.45594000000E+02  0.51100000000E-03 0. -1.
    9900012    2    1    2    0    0  0.54560143032E+01  0.83366116564E+01  0.30289526912E+02  0.59301911709E+02  0.49999941058E+02 0.  0.
         12    1    1    2    0    0 -0.54560143032E+01 -0.83366116564E+01 -0.30289526912E+02  0.31886088291E+02  0.00000000000E+00 0. -1.
         11    1    3    3    0    0 -0.60632521228E+01  0.14457496493E+02  0.22244051537E+02  0.27213600647E+02  0.51100000000E-03 0. -1.
        -11    1    3    3    0    0  0.20040934012E+02 -0.63848694507E+01  0.10494893884E+01  0.21059606412E+02  0.51100000000E-03 0.  1.
        -12    1    3    3    0    0 -0.85216675863E+01  0.26398461447E+00  0.69959859866E+01  0.11028704650E+02  0.00000000000E+00 0.  1.
</event>
<event>
 7    1  0.7821043E-012  0.5930195E+02  0.7816164E-02  0.1266605E+00
        -11   -1    0    0    0    0  0.00000000000E+00  0.00000000000E+00  0.45593999997E+02  0.45594000000E+02  0.51100000000E-03 0.  1.
         11   -1    0    0    0    0 -0.00000000000E+00 -0.00000000000E+00 -0.45593999997E+02  0.45594000000E+02  0.51100000000E-03 0. -1.
    9900012    2    1    2    0    0  0.34788064916E+01 -0.29630097862E+02 -0.11255018666E+02  0.59301949145E+02  0.50000009333E+02 0.  0.
         12    1    1    2    0    0 -0.34788064916E+01  0.29630097862E+02  0.11255018666E+02  0.31886050855E+02  0.00000000000E+00 0. -1.
         11    1    3    3    0    0  0.15372431080E+02 -0.12701824497E+02  0.15385531385E+02  0.25186555126E+02  0.51100000000E-03 0. -1.
        -11    1    3    3    0    0 -0.48369133632E+01 -0.41142179637E+01 -0.54628456927E+01  0.83764672541E+01  0.51100000000E-03 0.  1.
         12    1    3    3    0    0 -0.70567112254E+01 -0.12814055401E+02 -0.21177704358E+02  0.25738926765E+02  0.00000000000E+00 0. -1.
</event>
<event>
 7    1  0.7821043E-012  0.5930162E+02  0.7816164E-02  0.1266606E+00
        -11   -1    0    0    0    0  0.00000000000E+00  0.00000000000E+00  0.45593999997E+02  0.45594000000E+02  0.51100000000E-03 0.  1.
         11   -1    0    0    0    0 -0.00000000000E+00 -0.00000000000E+00 -0.45593999997E+02  0.45594000000E+02  0.51100000000E-03 0. -1.
    9900012    2    1    2    0    0 -0.44240177009E+01  0.45756029988E+01  0.31244733746E+02  0.59301616350E+02  0.49999402391E+02 0.  0.
         12    1    1    2    0    0  0.44240177009E+01 -0.45756029988E+01 -0.31244733746E+02  0.31886383650E+02  0.00000000000E+00 0. -1.
         11    1    3    3    0    0 -0.31884770561E+01  0.20465113655E+02  0.12946988230E+02  0.24425637501E+02  0.51100000000E-03 0. -1.
        -11    1    3    3    0    0 -0.10578083718E+02 -0.12866470730E+02  0.18707202897E+02  0.25047981250E+02  0.51100000000E-03 0.  1.
         12    1    3    3    0    0  0.93425430732E+01 -0.30230399257E+01 -0.40945738087E+00  0.98279975994E+01  0.00000000000E+00 0. -1.
</event>
<event>
 7    1  0.7821043E-012  0.5930194E+02  0.7816164E-02  0.1266605E+00
        -11   -1    0    0    0    0  0.00000000000E+00  0.00000000000E+00  0.45593999997E+02  0.45594000000E+02  0.51100000000E-03 0. -1.
         11   -1    0    0    0    0 -0.00000000000E+00 -0.00000000000E+00 -0.45593999997E+02  0.45594000000E+02  0.51100000000E-03 0.  1.
    9900012    2    1    2    0    0  0.21593488866E+02 -0.23276926711E+02  0.29370800279E+01  0.59301944778E+02  0.50000001369E+02 0.  0.
         12    1    1    2    0    0 -0.21593488866E+02  0.23276926711E+02 -0.29370800279E+01  0.31886055222E+02  0.00000000000E+00 0. -1.
         11    1    3    3    0    0  0.17580330763E+02  0.71096323647E+01 -0.14475811729E+02  0.23857158833E+02  0.51100000000E-03 0. -1.
        -11    1    3    3    0    0  0.39863278698E+00 -0.10041456346E+02  0.74188575106E+01  0.12491164905E+02  0.51100000000E-03 0.  1.
         12    1    3    3    0    0  0.36145253156E+01 -0.20345102730E+02  0.99940342467E+01  0.22953621040E+02  0.00000000000E+00 0. -1.
</event>
<event>
 7    1  0.7821043E-012  0.5930187E+02  0.7816164E-02  0.1266605E+00
        -11   -1    0    0    0    0  0.00000000000E+00  0.00000000000E+00  0.45593999997E+02  0.45594000000E+02  0.51100000000E-03 0.  1.
         11   -1    0    0    0    0 -0.00000000000E+00 -0.00000000000E+00 -0.45593999997E+02  0.45594000000E+02  0.51100000000E-03 0. -1.
    9900012    2    1    2    0    0  0.83494942448E+01 -0.11403928614E+02  0.28582540553E+02  0.59301870312E+02  0.49999865560E+02 0.  0.
         12    1    1    2    0    0 -0.83494942448E+01  0.11403928614E+02 -0.28582540553E+02  0.31886129688E+02  0.00000000000E+00 0. -1.
         11    1    3    3    0    0 -0.33857407849E+01  0.84673944999E+01  0.81233705950E+01  0.12212663934E+02  0.51100000000E-03 0. -1.
        -11    1    3    3    0    0  0.11711330468E+02 -0.25398122832E+02  0.26759846639E+02  0.38708000428E+02  0.51100000000E-03 0.  1.
        -12    1    3    3    0    0  0.23904561709E-01  0.55267997184E+01 -0.63006766801E+01  0.83812059504E+01  0.00000000000E+00 0.  1.
</event>
<event>
 7    1  0.7821043E-012  0.5930194E+02  0.7816164E-02  0.1266605E+00
        -11   -1    0    0    0    0  0.00000000000E+00  0.00000000000E+00  0.45593999997E+02  0.45594000000E+02  0.51100000000E-03 0. -1.
         11   -1    0    0    0    0 -0.00000000000E+00 -0.00000000000E+00 -0.45593999997E+02  0.45594000000E+02  0.51100000000E-03 0.  1.
    9900012    2    1    2    0    0 -0.21519674660E+02  0.15477453324E+02 -0.17722094716E+02  0.59301943486E+02  0.49999999013E+02 0.  0.
         12    1    1    2    0    0  0.21519674660E+02 -0.15477453324E+02  0.17722094716E+02  0.31886056514E+02  0.00000000000E+00 0. -1.
         11    1    3    3    0    0 -0.18535104332E+02  0.39741044457E+01 -0.60806848434E+01  0.19907745407E+02  0.51100000000E-03 0. -1.
        -11    1    3    3    0    0 -0.56589806863E+01 -0.10485715638E+02 -0.12443839120E+02  0.17228564280E+02  0.51100000000E-03 0.  1.
        -12    1    3    3    0    0  0.26744103584E+01  0.21989064516E+02  0.80242924777E+00  0.22165633800E+02  0.00000000000E+00 0.  1.
</event>
<event>
 7    1  0.7821043E-012  0.5930194E+02  0.7816164E-02  0.1266605E+00
        -11   -1    0    0    0    0  0.00000000000E+00  0.00000000000E+00  0.45593999997E+02  0.45594000000E+02  0.51100000000E-03 0.  1.
         11   -1    0    0    0    0 -0.00000000000E+00 -0.00000000000E+00 -0.45593999997E+02  0.45594000000E+02  0.51100000000E-03 0. -1.
    9900012    2    1    2    0    0 -0.14471391252E+02 -0.28197224401E+02  0.34952116066E+01  0.59301935130E+02  0.49999983774E+02 0.  0.
         12    1    1    2    0    0  0.14471391252E+02  0.28197224401E+02 -0.34952116066E+01  0.31886064870E+02  0.00000000000E+00 0. -1.
         11    1    3    3    0    0 -0.15425279684E+01 -0.77617348750E+00 -0.41353962362E+01  0.44814439757E+01  0.51100000000E-03 0. -1.
        -11    1    3    3    0    0  0.74339017820E+01 -0.47644822431E+01  0.20061995235E+02  0.21919097605E+02  0.51100000000E-03 0.  1.
        -12    1    3    3    0    0 -0.20362765065E+02 -0.22656568671E+02 -0.12431387392E+02  0.32901393550E+02  0.00000000000E+00 0.  1.
</event>
<event>
 7    1  0.7821043E-012  0.5930195E+02  0.7816164E-02  0.1266605E+00
        -11   -1    0    0    0    0  0.00000000000E+00  0.00000000000E+00  0.45593999997E+02  0.45594000000E+02  0.51100000000E-03 0. -1.
         11   -1    0    0    0    0 -0.00000000000E+00 -0.00000000000E+00 -0.45593999997E+02  0.45594000000E+02  0.51100000000E-03 0.  1.
    9900012    2    1    2    0    0 -0.28938911218E+02  0.12834600569E+02  0.38121739866E+01  0.59301949370E+02  0.50000009743E+02 0.  0.
         12    1    1    2    0    0  0.28938911218E+02 -0.12834600569E+02 -0.38121739866E+01  0.31886050630E+02  0.00000000000E+00 0. -1.
         11    1    3    3    0    0 -0.14038598122E+02 -0.89638289564E+01 -0.38531938589E+01  0.17096185831E+02  0.51100000000E-03 0. -1.
        -11    1    3    3    0    0  0.36209203236E+01  0.20616687016E+02 -0.24400557394E+01  0.21073982058E+02  0.51100000000E-03 0.  1.
        -12    1    3    3    0    0 -0.18521233420E+02  0.11817425095E+01  0.10105423585E+02  0.21131781481E+02  0.00000000000E+00 0.  1.
</event>
<event>
 7    1  0.7821043E-012  0.5930192E+02  0.7816164E-02  0.1266605E+00
        -11   -1    0    0    0    0  0.00000000000E+00  0.00000000000E+00  0.45593999997E+02  0.45594000000E+02  0.51100000000E-03 0.  1.
         11   -1    0    0    0    0 -0.00000000000E+00 -0.00000000000E+00 -0.45593999997E+02  0.45594000000E+02  0.51100000000E-03 0. -1.
    9900012    2    1    2    0    0 -0.26411642887E+02 -0.84199549820E+01  0.15755998809E+02  0.59301921214E+02  0.49999958393E+02 0.  0.
         12    1    1    2    0    0  0.26411642887E+02  0.84199549820E+01 -0.15755998809E+02  0.31886078786E+02  0.00000000000E+00 0. -1.
         11    1    3    3    0    0 -0.51738114862E+00 -0.14439066950E+01 -0.15622704314E+02  0.15697816414E+02  0.51100000000E-03 0. -1.
        -11    1    3    3    0    0 -0.11978076675E+02 -0.10113027724E+01  0.23820688930E+02  0.26681871664E+02  0.51100000000E-03 0.  1.
         12    1    3    3    0    0 -0.13916185063E+02 -0.59647455146E+01  0.75580141933E+01  0.16922233136E+02  0.00000000000E+00 0. -1.
</event>
<event>
 7    1  0.7821043E-012  0.5930195E+02  0.7816164E-02  0.1266605E+00
        -11   -1    0    0    0    0  0.00000000000E+00  0.00000000000E+00  0.45593999997E+02  0.45594000000E+02  0.51100000000E-03 0. -1.
         11   -1    0    0    0    0 -0.00000000000E+00 -0.00000000000E+00 -0.45593999997E+02  0.45594000000E+02  0.51100000000E-03 0.  1.
    9900012    2    1    2    0    0 -0.17602393086E+01  0.31770493898E+02 -0.20634189667E+01  0.59301946265E+02  0.50000004081E+02 0.  0.
         12    1    1    2    0    0  0.17602393086E+01 -0.31770493898E+02  0.20634189667E+01  0.31886053735E+02  0.00000000000E+00 0. -1.
         11    1    3    3    0    0  0.12240484035E+02 -0.38985622148E+01 -0.10110547925E+02  0.16347826044E+02  0.51100000000E-03 0. -1.
        -11    1    3    3    0    0 -0.16800706919E+02  0.23811219334E+02  0.16389226625E+01  0.29187736927E+02  0.51100000000E-03 0.  1.
         12    1    3    3    0    0  0.27999835758E+01  0.11857836778E+02  0.64082062960E+01  0.13766383295E+02  0.00000000000E+00 0. -1.
</event>
<event>
 7    1  0.7821043E-012  0.5930189E+02  0.7816164E-02  0.1266605E+00
        -11   -1    0    0    0    0  0.00000000000E+00  0.00000000000E+00  0.45593999997E+02  0.45594000000E+02  0.51100000000E-03 0.  1.
         11   -1    0    0    0    0 -0.00000000000E+00 -0.00000000000E+00 -0.45593999997E+02  0.45594000000E+02  0.51100000000E-03 0. -1.
    9900012    2    1    2    0    0 -0.31432352242E+02 -0.51103468236E+01  0.16172143054E+01  0.59301893398E+02  0.49999907663E+02 0.  0.
         12    1    1    2    0    0  0.31432352242E+02  0.51103468236E+01 -0.16172143054E+01  0.31886106602E+02  0.00000000000E+00 0. -1.
         11    1    3    3    0    0 -0.13318660859E+02 -0.18066441741E+02 -0.13314259641E+02  0.26096983625E+02  0.51100000000E-03 0. -1.
        -11    1    3    3    0    0 -0.84756467939E+01 -0.67614899926E-01  0.14738190453E+02  0.17001629876E+02  0.51100000000E-03 0.  1.
        -12    1    3    3    0    0 -0.96380445895E+01  0.13023709817E+02  0.19328349369E+00  0.16203279897E+02  0.00000000000E+00 0.  1.
</event>
<event>
 7    1  0.7821043E-012  0.5930194E+02  0.7816164E-02  0.1266605E+00
        -11   -1    0    0    0    0  0.00000000000E+00  0.00000000000E+00  0.45593999997E+02  0.45594000000E+02  0.51100000000E-03 0.  1.
         11   -1    0    0    0    0 -0.00000000000E+00 -0.00000000000E+00 -0.45593999997E+02  0.45594000000E+02  0.51100000000E-03 0. -1.
    9900012    2    1    2    0    0  0.50834366472E+01 -0.29131228585E+02 -0.11926901799E+02  0.59301940452E+02  0.49999993478E+02 0.  0.
         12    1    1    2    0    0 -0.50834366472E+01  0.29131228585E+02  0.11926901799E+02  0.31886059548E+02  0.00000000000E+00 0. -1.
         11    1    3    3    0    0  0.19766583448E+01 -0.20397407227E+02 -0.26838305568E+02  0.33767677531E+02  0.51100000000E-03 0. -1.
        -11    1    3    3    0    0  0.39723204580E+01 -0.13176917953E+02  0.15765759299E+02  0.20927724747E+02  0.51100000000E-03 0.  1.
         12    1    3    3    0    0 -0.86554215567E+00  0.44430965948E+01 -0.85435553027E+00  0.46065381737E+01  0.00000000000E+00 0. -1.
</event>
<event>
 7    1  0.7821043E-012  0.5930191E+02  0.7816164E-02  0.1266605E+00
        -11   -1    0    0    0    0  0.00000000000E+00  0.00000000000E+00  0.45593999997E+02  0.45594000000E+02  0.51100000000E-03 0. -1.
         11   -1    0    0    0    0 -0.00000000000E+00 -0.00000000000E+00 -0.45593999997E+02  0.45594000000E+02  0.51100000000E-03 0.  1.
    9900012    2    1    2    0    0 -0.21121147268E+02 -0.78792059870E+01 -0.22550786859E+02  0.59301909978E+02  0.49999937902E+02 0.  0.
         12    1    1    2    0    0  0.21121147268E+02  0.78792059870E+01  0.22550786859E+02  0.31886090022E+02  0.00000000000E+00 0. -1.
         11    1    3    3    0    0 -0.12999250915E+02  0.11292673977E+02  0.57265710120E+01  0.18146587165E+02  0.51100000000E-03 0. -1.
        -11    1    3    3    0    0 -0.12994226416E+02 -0.36079566911E+01 -0.14546669084E+02  0.19836150164E+02  0.51100000000E-03 0.  1.
         12    1    3    3    0    0  0.48723300629E+01 -0.15563923273E+02 -0.13730688787E+02  0.21319172650E+02  0.00000000000E+00 0. -1.
</event>
<event>
 7    1  0.7821043E-012  0.5930195E+02  0.7816164E-02  0.1266605E+00
        -11   -1    0    0    0    0  0.00000000000E+00  0.00000000000E+00  0.45593999997E+02  0.45594000000E+02  0.51100000000E-03 0.  1.
         11   -1    0    0    0    0 -0.00000000000E+00 -0.00000000000E+00 -0.45593999997E+02  0.45594000000E+02  0.51100000000E-03 0. -1.
    9900012    2    1    2    0    0 -0.30757657739E+02  0.79751981813E+01 -0.26614216846E+01  0.59301945666E+02  0.50000002987E+02 0.  0.
         12    1    1    2    0    0  0.30757657739E+02 -0.79751981813E+01  0.26614216846E+01  0.31886054334E+02  0.00000000000E+00 0. -1.
         11    1    3    3    0    0 -0.15032690573E+02 -0.52117107349E+01 -0.68281104138E+01  0.17313775057E+02  0.51100000000E-03 0. -1.
        -11    1    3    3    0    0 -0.10947212386E+02  0.11285355606E+02  0.19942770011E+02  0.25395172497E+02  0.51100000000E-03 0.  1.
        -12    1    3    3    0    0 -0.47777547795E+01  0.19015533102E+01 -0.15776081282E+02  0.16592998112E+02  0.00000000000E+00 0.  1.
</event>
<event>
 7    1  0.7821043E-012  0.5930187E+02  0.7816164E-02  0.1266605E+00
        -11   -1    0    0    0    0  0.00000000000E+00  0.00000000000E+00  0.45593999997E+02  0.45594000000E+02  0.51100000000E-03 0. -1.
         11   -1    0    0    0    0 -0.00000000000E+00 -0.00000000000E+00 -0.45593999997E+02  0.45594000000E+02  0.51100000000E-03 0.  1.
    9900012    2    1    2    0    0  0.14105757971E+01  0.15227930620E+02 -0.27979379094E+02  0.59301870578E+02  0.49999866045E+02 0.  0.
         12    1    1    2    0    0 -0.14105757971E+01 -0.15227930620E+02  0.27979379094E+02  0.31886129422E+02  0.00000000000E+00 0. -1.
         11    1    3    3    0    0 -0.10824121262E+01  0.24449760921E+02 -0.17797590722E+01  0.24538336694E+02  0.51100000000E-03 0. -1.
        -11    1    3    3    0    0  0.11624871212E+02 -0.60457366083E+01 -0.16478121591E+02  0.21052720804E+02  0.51100000000E-03 0.  1.
         12    1    3    3    0    0 -0.91318832890E+01 -0.31760936931E+01 -0.97214984311E+01  0.13710813079E+02  0.00000000000E+00 0. -1.
</event>
<event>
 7    1  0.7821043E-012  0.5930196E+02  0.7816164E-02  0.1266605E+00
        -11   -1    0    0    0    0  0.00000000000E+00  0.00000000000E+00  0.45593999997E+02  0.45594000000E+02  0.51100000000E-03 0.  1.
         11   -1    0    0    0    0 -0.00000000000E+00 -0.00000000000E+00 -0.45593999997E+02  0.45594000000E+02  0.51100000000E-03 0. -1.
    9900012    2    1    2    0    0  0.24186386748E+02  0.15998554002E+01  0.20716626719E+02  0.59301961302E+02  0.50000031505E+02 0.  0.
         12    1    1    2    0    0 -0.24186386748E+02 -0.15998554002E+01 -0.20716626719E+02  0.31886038698E+02  0.00000000000E+00 0. -1.
         11    1    3    3    0    0  0.38563615129E+01  0.70049600631E+01  0.22113391370E+02  0.23514741499E+02  0.51100000000E-03 0. -1.
        -11    1    3    3    0    0  0.24945702750E+02  0.32478642597E+00  0.56715990913E+01  0.25584382119E+02  0.51100000000E-03 0.  1.
         12    1    3    3    0    0 -0.46156775147E+01 -0.57298910888E+01 -0.70683637429E+01  0.10202837684E+02  0.00000000000E+00 0. -1.
</event>
<event>
 7    1  0.7821043E-012  0.5930195E+02  0.7816164E-02  0.1266605E+00
        -11   -1    0    0    0    0  0.00000000000E+00  0.00000000000E+00  0.45593999997E+02  0.45594000000E+02  0.51100000000E-03 0.  1.
         11   -1    0    0    0    0 -0.00000000000E+00 -0.00000000000E+00 -0.45593999997E+02  0.45594000000E+02  0.51100000000E-03 0. -1.
    9900012    2    1    2    0    0  0.79468057208E+01 -0.23426346193E+02  0.20119010299E+02  0.59301953012E+02  0.50000016385E+02 0.  0.
         12    1    1    2    0    0 -0.79468057208E+01  0.23426346193E+02 -0.20119010299E+02  0.31886046988E+02  0.00000000000E+00 0. -1.
         11    1    3    3    0    0 -0.54659057303E+01  0.10398950871E+01  0.68725890074E+00  0.56062315598E+01  0.51100000000E-03 0. -1.
        -11    1    3    3    0    0  0.24774920616E+02 -0.36318627621E+01  0.16006442069E+02  0.29718568382E+02  0.51100000000E-03 0.  1.
        -12    1    3    3    0    0 -0.11362209165E+02 -0.20834378518E+02  0.34253093288E+01  0.23977153070E+02  0.00000000000E+00 0.  1.
</event>
<event>
 7    1  0.7821043E-012  0.5930190E+02  0.7816164E-02  0.1266605E+00
        -11   -1    0    0    0    0  0.00000000000E+00  0.00000000000E+00  0.45593999997E+02  0.45594000000E+02  0.51100000000E-03 0.  1.
         11   -1    0    0    0    0 -0.00000000000E+00 -0.00000000000E+00 -0.45593999997E+02  0.45594000000E+02  0.51100000000E-03 0. -1.
    9900012    2    1    2    0    0  0.30005914905E+02  0.91921410370E+01  0.56456189449E+01  0.59301899589E+02  0.49999918954E+02 0.  0.
         12    1    1    2    0    0 -0.30005914905E+02 -0.91921410370E+01 -0.56456189449E+01  0.31886100411E+02  0.00000000000E+00 0. -1.
         11    1    3    3    0    0  0.18490602909E+02 -0.42112690197E+01 -0.28789773407E+01  0.19181389248E+02  0.51100000000E-03 0.  1.
        -11    1    3    3    0    0 -0.10495680175E+02  0.79473703986E+01 -0.45681896833E+01  0.13935148217E+02  0.51100000000E-03 0. -1.
        -12    1    3    3    0    0  0.22010992171E+02  0.54560396581E+01  0.13092785969E+02  0.26185362124E+02  0.00000000000E+00 0.  1.
</event>
<event>
 7    1  0.7821043E-012  0.5930198E+02  0.7816164E-02  0.1266605E+00
        -11   -1    0    0    0    0  0.00000000000E+00  0.00000000000E+00  0.45593999997E+02  0.45594000000E+02  0.51100000000E-03 0.  1.
         11   -1    0    0    0    0 -0.00000000000E+00 -0.00000000000E+00 -0.45593999997E+02  0.45594000000E+02  0.51100000000E-03 0. -1.
    9900012    2    1    2    0    0  0.26024997203E+02  0.11670096377E+02  0.14255751706E+02  0.59301982915E+02  0.50000070920E+02 0.  0.
         12    1    1    2    0    0 -0.26024997203E+02 -0.11670096377E+02 -0.14255751706E+02  0.31886017085E+02  0.00000000000E+00 0. -1.
         11    1    3    3    0    0  0.38128366617E+01  0.38571560222E+01 -0.12488825538E+02  0.13615657882E+02  0.51100000000E-03 0. -1.
        -11    1    3    3    0    0  0.20664046160E+02  0.17168352835E+02  0.15649916863E+02  0.31091398181E+02  0.51100000000E-03 0.  1.
        -12    1    3    3    0    0  0.15481143812E+01 -0.93554124802E+01  0.11094660381E+02  0.14594926851E+02  0.00000000000E+00 0.  1.
</event>
<event>
 7    1  0.7821043E-012  0.5930202E+02  0.7816164E-02  0.1266605E+00
        -11   -1    0    0    0    0  0.00000000000E+00  0.00000000000E+00  0.45593999997E+02  0.45594000000E+02  0.51100000000E-03 0. -1.
         11   -1    0    0    0    0 -0.00000000000E+00 -0.00000000000E+00 -0.45593999997E+02  0.45594000000E+02  0.51100000000E-03 0.  1.
    9900012    2    1    2    0    0  0.20634063389E+02  0.60786029584E+01 -0.23537245349E+02  0.59302017116E+02  0.50000133295E+02 0.  0.
         12    1    1    2    0    0 -0.20634063389E+02 -0.60786029584E+01  0.23537245349E+02  0.31885982884E+02  0.00000000000E+00 0. -1.
         11    1    3    3    0    0  0.61643521492E+01  0.23107156116E+02 -0.23409801769E+02  0.33465784323E+02  0.51100000000E-03 0.  1.
        -11    1    3    3    0    0  0.11976877764E+02 -0.58436728397E+01 -0.37042349022E+01  0.13831683546E+02  0.51100000000E-03 0. -1.
         12    1    3    3    0    0  0.24928334759E+01 -0.11184880318E+02  0.35767913225E+01  0.12004549248E+02  0.00000000000E+00 0. -1.
</event>
<event>
 7    1  0.7821043E-012  0.5930202E+02  0.7816164E-02  0.1266605E+00
        -11   -1    0    0    0    0  0.00000000000E+00  0.00000000000E+00  0.45593999997E+02  0.45594000000E+02  0.51100000000E-03 0.  1.
         11   -1    0    0    0    0 -0.00000000000E+00 -0.00000000000E+00 -0.45593999997E+02  0.45594000000E+02  0.51100000000E-03 0. -1.
    9900012    2    1    2    0    0  0.12493468992E+01 -0.52903322194E+00  0.31857107324E+02  0.59302015134E+02  0.50000129681E+02 0.  0.
         12    1    1    2    0    0 -0.12493468992E+01  0.52903322194E+00 -0.31857107324E+02  0.31885984866E+02  0.00000000000E+00 0. -1.
         11    1    3    3    0    0 -0.43431099507E+01 -0.54111932251E+01 -0.34798071006E+01  0.77622595861E+01  0.51100000000E-03 0. -1.
        -11    1    3    3    0    0 -0.80614710359E+01 -0.44985160806E+01  0.33644084172E+02  0.34887653435E+02  0.51100000000E-03 0.  1.
        -12    1    3    3    0    0  0.13653927886E+02  0.93806760838E+01  0.16928302524E+01  0.16652102112E+02  0.00000000000E+00 0.  1.
</event>
<event>
 7    1  0.7821043E-012  0.5930196E+02  0.7816164E-02  0.1266605E+00
        -11   -1    0    0    0    0  0.00000000000E+00  0.00000000000E+00  0.45593999997E+02  0.45594000000E+02  0.51100000000E-03 0. -1.
         11   -1    0    0    0    0 -0.00000000000E+00 -0.00000000000E+00 -0.45593999997E+02  0.45594000000E+02  0.51100000000E-03 0.  1.
    9900012    2    1    2    0    0  0.54976235450E+01  0.31288115735E+02 -0.27476399252E+01  0.59301959543E+02  0.50000028296E+02 0.  0.
         12    1    1    2    0    0 -0.54976235450E+01 -0.31288115735E+02  0.27476399252E+01  0.31886040457E+02  0.00000000000E+00 0. -1.
         11    1    3    3    0    0  0.11121869802E+02  0.11655143526E+02 -0.21749229564E+02  0.27065981330E+02  0.51100000000E-03 0. -1.
        -11    1    3    3    0    0  0.46620137320E+01  0.85515120710E+01  0.29318090300E+01  0.10171442139E+02  0.51100000000E-03 0.  1.
         12    1    3    3    0    0 -0.10286259989E+02  0.11081460138E+02  0.16069780609E+02  0.22064536074E+02  0.00000000000E+00 0. -1.
</event>
<event>
 7    1  0.7821043E-012  0.5930196E+02  0.7816164E-02  0.1266605E+00
        -11   -1    0    0    0    0  0.00000000000E+00  0.00000000000E+00  0.45593999997E+02  0.45594000000E+02  0.51100000000E-03 0. -1.
         11   -1    0    0    0    0 -0.00000000000E+00 -0.00000000000E+00 -0.45593999997E+02  0.45594000000E+02  0.51100000000E-03 0.  1.
    9900012    2    1    2    0    0  0.36266151455E+00  0.12302526621E+02 -0.29414895010E+02  0.59301957080E+02  0.50000023804E+02 0.  0.
         12    1    1    2    0    0 -0.36266151455E+00 -0.12302526621E+02  0.29414895010E+02  0.31886042920E+02  0.00000000000E+00 0. -1.
         11    1    3    3    0    0  0.10753276837E+01  0.12385921879E+02 -0.60290841473E+01  0.13817280715E+02  0.51100000000E-03 0. -1.
        -11    1    3    3    0    0 -0.12382650263E+02 -0.10491061831E+02  0.12803053614E+01  0.16279790784E+02  0.51100000000E-03 0.  1.
        -12    1    3    3    0    0  0.11669984094E+02  0.10407666572E+02 -0.24666116224E+02  0.29204885582E+02  0.00000000000E+00 0.  1.
</event>
<event>
 7    1  0.7821043E-012  0.5930196E+02  0.7816164E-02  0.1266605E+00
        -11   -1    0    0    0    0  0.00000000000E+00  0.00000000000E+00  0.45593999997E+02  0.45594000000E+02  0.51100000000E-03 0.  1.
         11   -1    0    0    0    0 -0.00000000000E+00 -0.00000000000E+00 -0.45593999997E+02  0.45594000000E+02  0.51100000000E-03 0. -1.
    9900012    2    1    2    0    0 -0.18785935063E+02  0.10722154775E+02  0.23427410920E+02  0.59301960082E+02  0.50000029280E+02 0.  0.
         12    1    1    2    0    0  0.18785935063E+02 -0.10722154775E+02 -0.23427410920E+02  0.31886039918E+02  0.00000000000E+00 0. -1.
         11    1    3    3    0    0 -0.38642185380E+01 -0.17972806547E+02  0.46780814287E+01  0.18969407113E+02  0.51100000000E-03 0. -1.
        -11    1    3    3    0    0 -0.14425407556E+02  0.29762093186E+02  0.14841106916E+02  0.36250972797E+02  0.51100000000E-03 0.  1.
         12    1    3    3    0    0 -0.49630896905E+00 -0.10671318635E+01  0.39082225756E+01  0.40815801728E+01  0.00000000000E+00 0. -1.
</event>
<event>
 7    1  0.7821043E-012  0.5930195E+02  0.7816164E-02  0.1266605E+00
        -11   -1    0    0    0    0  0.00000000000E+00  0.00000000000E+00  0.45593999997E+02  0.45594000000E+02  0.51100000000E-03 0.  1.
         11   -1    0    0    0    0 -0.00000000000E+00 -0.00000000000E+00 -0.45593999997E+02  0.45594000000E+02  0.51100000000E-03 0. -1.
    9900012    2    1    2    0    0  0.17206034679E+02  0.10956109159E+02  0.24507878676E+02  0.59301951727E+02  0.50000014043E+02 0.  0.
         12    1    1    2    0    0 -0.17206034679E+02 -0.10956109159E+02 -0.24507878676E+02  0.31886048273E+02  0.00000000000E+00 0. -1.
         11    1    3    3    0    0  0.10785526623E+01  0.20705665016E+02  0.24393311739E+02  0.32014395160E+02  0.51100000000E-03 0. -1.
        -11    1    3    3    0    0  0.59931851828E+01  0.10492640452E+01 -0.82717767482E+01  0.10268471868E+02  0.51100000000E-03 0.  1.
         12    1    3    3    0    0  0.10134296834E+02 -0.10798819903E+02  0.83863436850E+01  0.17019084700E+02  0.00000000000E+00 0. -1.
</event>
<event>
 7    1  0.7821043E-012  0.5930196E+02  0.7816164E-02  0.1266605E+00
        -11   -1    0    0    0    0  0.00000000000E+00  0.00000000000E+00  0.45593999997E+02  0.45594000000E+02  0.51100000000E-03 0.  1.
         11   -1    0    0    0    0 -0.00000000000E+00 -0.00000000000E+00 -0.45593999997E+02  0.45594000000E+02  0.51100000000E-03 0. -1.
    9900012    2    1    2    0    0 -0.19013676116E+02  0.93306249160E+01  0.23835662291E+02  0.59301964849E+02  0.50000037974E+02 0.  0.
         12    1    1    2    0    0  0.19013676116E+02 -0.93306249160E+01 -0.23835662291E+02  0.31886035151E+02  0.00000000000E+00 0. -1.
         11    1    3    3    0    0  0.40192062836E+01 -0.14314500927E+02  0.10969340977E+02  0.18476617593E+02  0.51100000000E-03 0. -1.
        -11    1    3    3    0    0 -0.17755536511E+02  0.24287625416E+02  0.16569213380E+02  0.34346566895E+02  0.51100000000E-03 0.  1.
        -12    1    3    3    0    0 -0.52773458880E+01 -0.64249957334E+00 -0.37028920662E+01  0.64787803619E+01  0.00000000000E+00 0.  1.
</event>
<event>
 7    1  0.7821043E-012  0.5930194E+02  0.7816164E-02  0.1266605E+00
        -11   -1    0    0    0    0  0.00000000000E+00  0.00000000000E+00  0.45593999997E+02  0.45594000000E+02  0.51100000000E-03 0.  1.
         11   -1    0    0    0    0 -0.00000000000E+00 -0.00000000000E+00 -0.45593999997E+02  0.45594000000E+02  0.51100000000E-03 0. -1.
    9900012    2    1    2    0    0 -0.43929889298E+01  0.18822935720E+02  0.25359802463E+02  0.59301939694E+02  0.49999992097E+02 0.  0.
         12    1    1    2    0    0  0.43929889298E+01 -0.18822935720E+02 -0.25359802463E+02  0.31886060306E+02  0.00000000000E+00 0. -1.
         11    1    3    3    0    0  0.37021815270E+01 -0.14022913752E+02  0.57202843724E+01  0.15590699526E+02  0.51100000000E-03 0. -1.
        -11    1    3    3    0    0 -0.12322655476E+02  0.31553158952E+02  0.19892866121E+02  0.39283276348E+02  0.51100000000E-03 0.  1.
        -12    1    3    3    0    0  0.42274850197E+01  0.12926905192E+01 -0.25334803032E+00  0.44279638204E+01  0.00000000000E+00 0.  1.
</event>
<event>
 7    1  0.7821043E-012  0.5930194E+02  0.7816164E-02  0.1266605E+00
        -11   -1    0    0    0    0  0.00000000000E+00  0.00000000000E+00  0.45593999997E+02  0.45594000000E+02  0.51100000000E-03 0.  1.
         11   -1    0    0    0    0 -0.00000000000E+00 -0.00000000000E+00 -0.45593999997E+02  0.45594000000E+02  0.51100000000E-03 0. -1.
    9900012    2    1    2    0    0 -0.12396850772E+02 -0.11817470155E+02  0.26895842699E+02  0.59301939340E+02  0.49999991451E+02 0.  0.
         12    1    1    2    0    0  0.12396850772E+02  0.11817470155E+02 -0.26895842699E+02  0.31886060660E+02  0.00000000000E+00 0. -1.
         11    1    3    3    0    0  0.10050640063E+02  0.10500374433E+02  0.13694247274E+02  0.19970118617E+02  0.51100000000E-03 0. -1.
        -11    1    3    3    0    0 -0.18216449870E+02 -0.52536822111E+01  0.35924166453E+01  0.19296260784E+02  0.51100000000E-03 0.  1.
        -12    1    3    3    0    0 -0.42310409654E+01 -0.17064162376E+02  0.96091787799E+01  0.20035559939E+02  0.00000000000E+00 0.  1.
</event>
<event>
 7    1  0.7821043E-012  0.5930194E+02  0.7816164E-02  0.1266605E+00
        -11   -1    0    0    0    0  0.00000000000E+00  0.00000000000E+00  0.45593999997E+02  0.45594000000E+02  0.51100000000E-03 0. -1.
         11   -1    0    0    0    0 -0.00000000000E+00 -0.00000000000E+00 -0.45593999997E+02  0.45594000000E+02  0.51100000000E-03 0.  1.
    9900012    2    1    2    0    0 -0.14294627925E+02  0.27667649596E+02 -0.68473033759E+01  0.59301940582E+02  0.49999993716E+02 0.  0.
         12    1    1    2    0    0  0.14294627925E+02 -0.27667649596E+02  0.68473033759E+01  0.31886059418E+02  0.00000000000E+00 0. -1.
         11    1    3    3    0    0  0.92665112989E+01 -0.57472163545E+01  0.52126800946E+01  0.12085973751E+02  0.51100000000E-03 0. -1.
        -11    1    3    3    0    0 -0.23213102666E+02  0.25951333457E+02 -0.22586897951E+01  0.34891568085E+02  0.51100000000E-03 0.  1.
         12    1    3    3    0    0 -0.34803655737E+00  0.74635324937E+01 -0.98012936754E+01  0.12324398746E+02  0.00000000000E+00 0. -1.
</event>
<event>
 7    1  0.7821043E-012  0.5930195E+02  0.7816164E-02  0.1266605E+00
        -11   -1    0    0    0    0  0.00000000000E+00  0.00000000000E+00  0.45593999997E+02  0.45594000000E+02  0.51100000000E-03 0.  1.
         11   -1    0    0    0    0 -0.00000000000E+00 -0.00000000000E+00 -0.45593999997E+02  0.45594000000E+02  0.51100000000E-03 0. -1.
    9900012    2    1    2    0    0  0.12243734874E+02 -0.24505383677E+02  0.16318614496E+02  0.59301952081E+02  0.50000014686E+02 0.  0.
         12    1    1    2    0    0 -0.12243734874E+02  0.24505383677E+02 -0.16318614496E+02  0.31886047919E+02  0.00000000000E+00 0. -1.
         11    1    3    3    0    0  0.11575237189E+02 -0.42079840600E+01  0.31570957318E+02  0.33888325307E+02  0.51100000000E-03 0.  1.
        -11    1    3    3    0    0 -0.66213480314E-01 -0.10129156229E+02 -0.73608372892E+01  0.12521426277E+02  0.51100000000E-03 0. -1.
        -12    1    3    3    0    0  0.73471116526E+00 -0.10168243388E+02 -0.78915055325E+01  0.12892200497E+02  0.00000000000E+00 0.  1.
</event>
<event>
 7    1  0.7821043E-012  0.5930195E+02  0.7816164E-02  0.1266605E+00
        -11   -1    0    0    0    0  0.00000000000E+00  0.00000000000E+00  0.45593999997E+02  0.45594000000E+02  0.51100000000E-03 0.  1.
         11   -1    0    0    0    0 -0.00000000000E+00 -0.00000000000E+00 -0.45593999997E+02  0.45594000000E+02  0.51100000000E-03 0. -1.
    9900012    2    1    2    0    0 -0.59284729823E+01  0.18300922422E+02  0.25429304294E+02  0.59301951793E+02  0.50000014161E+02 0.  0.
         12    1    1    2    0    0  0.59284729823E+01 -0.18300922422E+02 -0.25429304294E+02  0.31886048207E+02  0.00000000000E+00 0. -1.
         11    1    3    3    0    0  0.16130521763E+01 -0.11409531035E+02 -0.44884210494E+01  0.12366295303E+02  0.51100000000E-03 0. -1.
        -11    1    3    3    0    0  0.51133074617E+01  0.98567485931E+01  0.16343829581E+02  0.19759103513E+02  0.51100000000E-03 0.  1.
         12    1    3    3    0    0 -0.12654832620E+02  0.19853704864E+02  0.13573895763E+02  0.27176552976E+02  0.00000000000E+00 0. -1.
</event>
<event>
 7    1  0.7821043E-012  0.5930193E+02  0.7816164E-02  0.1266605E+00
        -11   -1    0    0    0    0  0.00000000000E+00  0.00000000000E+00  0.45593999997E+02  0.45594000000E+02  0.51100000000E-03 0. -1.
         11   -1    0    0    0    0 -0.00000000000E+00 -0.00000000000E+00 -0.45593999997E+02  0.45594000000E+02  0.51100000000E-03 0.  1.
    9900012    2    1    2    0    0 -0.10041286083E+02  0.29367807808E+02 -0.73092905219E+01  0.59301932672E+02  0.49999979291E+02 0.  0.
         12    1    1    2    0    0  0.10041286083E+02 -0.29367807808E+02  0.73092905219E+01  0.31886067328E+02  0.00000000000E+00 0. -1.
         11    1    3    3    0    0 -0.24061728641E+02  0.22799765316E+02  0.18685150619E+01  0.33200714337E+02  0.51100000000E-03 0. -1.
        -11    1    3    3    0    0  0.12912008317E+02  0.14099258347E+01 -0.13897530569E+02  0.19022334394E+02  0.51100000000E-03 0.  1.
         12    1    3    3    0    0  0.11084342412E+01  0.51581166575E+01  0.47197249850E+01  0.70788839412E+01  0.00000000000E+00 0. -1.
</event>
<event>
 7    1  0.7821043E-012  0.5930195E+02  0.7816164E-02  0.1266605E+00
        -11   -1    0    0    0    0  0.00000000000E+00  0.00000000000E+00  0.45593999997E+02  0.45594000000E+02  0.51100000000E-03 0.  1.
         11   -1    0    0    0    0 -0.00000000000E+00 -0.00000000000E+00 -0.45593999997E+02  0.45594000000E+02  0.51100000000E-03 0. -1.
    9900012    2    1    2    0    0  0.27293838156E+02 -0.26968163912E+01  0.16263265950E+02  0.59301949142E+02  0.50000009327E+02 0.  0.
         12    1    1    2    0    0 -0.27293838156E+02  0.26968163912E+01 -0.16263265950E+02  0.31886050858E+02  0.00000000000E+00 0. -1.
         11    1    3    3    0    0  0.27397260904E+02  0.14101327893E+02 -0.55719003056E+01  0.31312991340E+02  0.51100000000E-03 0. -1.
        -11    1    3    3    0    0 -0.16335877693E+01 -0.88914416410E+01  0.84888017821E+01  0.12401052351E+02  0.51100000000E-03 0.  1.
         12    1    3    3    0    0  0.15301650217E+01 -0.79067026434E+01  0.13346364474E+02  0.15587905451E+02  0.00000000000E+00 0. -1.
</event>
<event>
 7    1  0.7821043E-012  0.5930195E+02  0.7816164E-02  0.1266605E+00
        -11   -1    0    0    0    0  0.00000000000E+00  0.00000000000E+00  0.45593999997E+02  0.45594000000E+02  0.51100000000E-03 0.  1.
         11   -1    0    0    0    0 -0.00000000000E+00 -0.00000000000E+00 -0.45593999997E+02  0.45594000000E+02  0.51100000000E-03 0. -1.
    9900012    2    1    2    0    0  0.23065734135E+01  0.35667749116E+01  0.31601870795E+02  0.59301946593E+02  0.50000004678E+02 0.  0.
         12    1    1    2    0    0 -0.23065734135E+01 -0.35667749116E+01 -0.31601870795E+02  0.31886053407E+02  0.00000000000E+00 0. -1.
         11    1    3    3    0    0  0.93865438837E+01 -0.11519216967E+01  0.12526239202E+02  0.15695247640E+02  0.51100000000E-03 0. -1.
        -11    1    3    3    0    0 -0.21174789418E+02 -0.27781732934E+01  0.41582460916E+01  0.21757319793E+02  0.51100000000E-03 0.  1.
        -12    1    3    3    0    0  0.14094818948E+02  0.74968699018E+01  0.14917385501E+02  0.21849379160E+02  0.00000000000E+00 0.  1.
</event>
<event>
 7    1  0.7821043E-012  0.5930200E+02  0.7816164E-02  0.1266605E+00
        -11   -1    0    0    0    0  0.00000000000E+00  0.00000000000E+00  0.45593999997E+02  0.45594000000E+02  0.51100000000E-03 0. -1.
         11   -1    0    0    0    0 -0.00000000000E+00 -0.00000000000E+00 -0.45593999997E+02  0.45594000000E+02  0.51100000000E-03 0.  1.
    9900012    2    1    2    0    0  0.13593164564E+02  0.22197579358E+02 -0.18417671642E+02  0.59301995531E+02  0.50000093930E+02 0.  0.
         12    1    1    2    0    0 -0.13593164564E+02 -0.22197579358E+02  0.18417671642E+02  0.31886004469E+02  0.00000000000E+00 0. -1.
         11    1    3    3    0    0  0.94948801302E+01  0.47480006165E+01  0.11520853182E+02  0.15666088116E+02  0.51100000000E-03 0. -1.
        -11    1    3    3    0    0 -0.70447128848E+01  0.18370694098E+02 -0.23803622665E+02  0.30882403299E+02  0.51100000000E-03 0.  1.
        -12    1    3    3    0    0  0.11142997319E+02 -0.92111535628E+00 -0.61349021593E+01  0.12753504117E+02  0.00000000000E+00 0.  1.
</event>
<event>
 7    1  0.7821043E-012  0.5930193E+02  0.7816164E-02  0.1266605E+00
        -11   -1    0    0    0    0  0.00000000000E+00  0.00000000000E+00  0.45593999997E+02  0.45594000000E+02  0.51100000000E-03 0. -1.
         11   -1    0    0    0    0 -0.00000000000E+00 -0.00000000000E+00 -0.45593999997E+02  0.45594000000E+02  0.51100000000E-03 0.  1.
    9900012    2    1    2    0    0  0.29783257011E+02 -0.80245087286E+00  0.11359349559E+02  0.59301934893E+02  0.49999983340E+02 0.  0.
         12    1    1    2    0    0 -0.29783257011E+02  0.80245087286E+00 -0.11359349559E+02  0.31886065107E+02  0.00000000000E+00 0. -1.
         11    1    3    3    0    0  0.40273323825E+01 -0.18761329362E+02 -0.38864000321E+01  0.19578329628E+02  0.51100000000E-03 0. -1.
        -11    1    3    3    0    0  0.16780905934E+02  0.67734841114E+01  0.17538200425E+02  0.25200542958E+02  0.51100000000E-03 0.  1.
        -12    1    3    3    0    0  0.89750186953E+01  0.11185394377E+02 -0.22924508344E+01  0.14523062307E+02  0.00000000000E+00 0.  1.
</event>
<event>
 7    1  0.7821043E-012  0.5930194E+02  0.7816164E-02  0.1266605E+00
        -11   -1    0    0    0    0  0.00000000000E+00  0.00000000000E+00  0.45593999997E+02  0.45594000000E+02  0.51100000000E-03 0. -1.
         11   -1    0    0    0    0 -0.00000000000E+00 -0.00000000000E+00 -0.45593999997E+02  0.45594000000E+02  0.51100000000E-03 0.  1.
    9900012    2    1    2    0    0  0.94143616477E+01 -0.30462764818E+02  0.33220114451E+00  0.59301943436E+02  0.49999998921E+02 0.  0.
         12    1    1    2    0    0 -0.94143616477E+01  0.30462764818E+02 -0.33220114451E+00  0.31886056564E+02  0.00000000000E+00 0. -1.
         11    1    3    3    0    0  0.50831911020E+01  0.10403194675E+02  0.25524320918E+01  0.11856652186E+02  0.51100000000E-03 0. -1.
        -11    1    3    3    0    0 -0.61188135404E+01 -0.31060467673E+02 -0.68420489152E+01  0.32388364652E+02  0.51100000000E-03 0.  1.
        -12    1    3    3    0    0  0.10449984086E+02 -0.98054918201E+01  0.46218179679E+01  0.15056926597E+02  0.00000000000E+00 0.  1.
</event>
<event>
 7    1  0.7821043E-012  0.5930195E+02  0.7816164E-02  0.1266605E+00
        -11   -1    0    0    0    0  0.00000000000E+00  0.00000000000E+00  0.45593999997E+02  0.45594000000E+02  0.51100000000E-03 0.  1.
         11   -1    0    0    0    0 -0.00000000000E+00 -0.00000000000E+00 -0.45593999997E+02  0.45594000000E+02  0.51100000000E-03 0. -1.
    9900012    2    1    2    0    0 -0.17754074485E+02  0.26159978586E+02  0.41434828905E+01  0.59301951469E+02  0.50000013572E+02 0.  0.
         12    1    1    2    0    0  0.17754074485E+02 -0.26159978586E+02 -0.41434828905E+01  0.31886048531E+02  0.00000000000E+00 0. -1.
         11    1    3    3    0    0 -0.97228552506E+01  0.52382648707E+01 -0.10364847767E+02  0.15146068882E+02  0.51100000000E-03 0. -1.
        -11    1    3    3    0    0  0.19869135939E+01  0.14735292200E+02  0.24536378192E+02  0.28689902699E+02  0.51100000000E-03 0.  1.
        -12    1    3    3    0    0 -0.10018132828E+02  0.61864215154E+01 -0.10028047535E+02  0.15465979888E+02  0.00000000000E+00 0.  1.
</event>
<event>
 7    1  0.7821043E-012  0.5930192E+02  0.7816164E-02  0.1266605E+00
        -11   -1    0    0    0    0  0.00000000000E+00  0.00000000000E+00  0.45593999997E+02  0.45594000000E+02  0.51100000000E-03 0.  1.
         11   -1    0    0    0    0 -0.00000000000E+00 -0.00000000000E+00 -0.45593999997E+02  0.45594000000E+02  0.51100000000E-03 0. -1.
    9900012    2    1    2    0    0 -0.23459662507E+02 -0.18511336899E+02  0.11121894778E+02  0.59301923067E+02  0.49999961773E+02 0.  0.
         12    1    1    2    0    0  0.23459662507E+02  0.18511336899E+02 -0.11121894778E+02  0.31886076933E+02  0.00000000000E+00 0. -1.
         11    1    3    3    0    0 -0.20212843935E+02  0.11137427127E+02  0.37048396093E+01  0.23373642843E+02  0.51100000000E-03 0. -1.
        -11    1    3    3    0    0  0.71508288193E+01 -0.93018438138E+01  0.56162937860E+01  0.13007744128E+02  0.51100000000E-03 0.  1.
        -12    1    3    3    0    0 -0.10397647391E+02 -0.20346920212E+02  0.18007613831E+01  0.22920536096E+02  0.00000000000E+00 0.  1.
</event>
<event>
 7    1  0.7821043E-012  0.5930204E+02  0.7816164E-02  0.1266604E+00
        -11   -1    0    0    0    0  0.00000000000E+00  0.00000000000E+00  0.45593999997E+02  0.45594000000E+02  0.51100000000E-03 0.  1.
         11   -1    0    0    0    0 -0.00000000000E+00 -0.00000000000E+00 -0.45593999997E+02  0.45594000000E+02  0.51100000000E-03 0. -1.
    9900012    2    1    2    0    0  0.20835839074E+02  0.64393533008E+01  0.23261917067E+02  0.59302043115E+02  0.50000180711E+02 0.  0.
         12    1    1    2    0    0 -0.20835839074E+02 -0.64393533008E+01 -0.23261917067E+02  0.31885956885E+02  0.00000000000E+00 0. -1.
         11    1    3    3    0    0 -0.21848686589E+01 -0.69352765378E+01  0.49149269191E+01  0.87765721437E+01  0.51100000000E-03 0. -1.
        -11    1    3    3    0    0  0.20480374717E+02  0.95717719682E+01  0.30255784604E+02  0.37768731372E+02  0.51100000000E-03 0.  1.
        -12    1    3    3    0    0  0.25403330151E+01  0.38028578704E+01 -0.11908794456E+02  0.12756739600E+02  0.00000000000E+00 0.  1.
</event>
<event>
 7    1  0.7821043E-012  0.5930195E+02  0.7816164E-02  0.1266605E+00
        -11   -1    0    0    0    0  0.00000000000E+00  0.00000000000E+00  0.45593999997E+02  0.45594000000E+02  0.51100000000E-03 0. -1.
         11   -1    0    0    0    0 -0.00000000000E+00 -0.00000000000E+00 -0.45593999997E+02  0.45594000000E+02  0.51100000000E-03 0.  1.
    9900012    2    1    2    0    0  0.19974041390E+02  0.11484538271E+02 -0.22042303260E+02  0.59301951613E+02  0.50000013833E+02 0.  0.
         12    1    1    2    0    0 -0.19974041390E+02 -0.11484538271E+02  0.22042303260E+02  0.31886048387E+02  0.00000000000E+00 0. -1.
         11    1    3    3    0    0 -0.10992640121E+01 -0.71735466064E+01  0.25290669302E+01  0.76853322688E+01  0.51100000000E-03 0. -1.
        -11    1    3    3    0    0 -0.26766243383E+01  0.10952732030E+02 -0.24141085863E+02  0.26644299272E+02  0.51100000000E-03 0.  1.
        -12    1    3    3    0    0  0.23749929741E+02  0.77053528475E+01 -0.43028432702E+00  0.24972320072E+02  0.00000000000E+00 0.  1.
</event>
<event>
 7    1  0.7821043E-012  0.5930196E+02  0.7816164E-02  0.1266605E+00
        -11   -1    0    0    0    0  0.00000000000E+00  0.00000000000E+00  0.45593999997E+02  0.45594000000E+02  0.51100000000E-03 0.  1.
         11   -1    0    0    0    0 -0.00000000000E+00 -0.00000000000E+00 -0.45593999997E+02  0.45594000000E+02  0.51100000000E-03 0. -1.
    9900012    2    1    2    0    0 -0.31447383922E+02 -0.46059500671E+01  0.25625896308E+01  0.59301959211E+02  0.50000027691E+02 0.  0.
         12    1    1    2    0    0  0.31447383922E+02  0.46059500671E+01 -0.25625896308E+01  0.31886040789E+02  0.00000000000E+00 0. -1.
         11    1    3    3    0    0 -0.13773335976E+02  0.79596696343E+01 -0.17967417376E+02  0.23997691806E+02  0.51100000000E-03 0. -1.
        -11    1    3    3    0    0 -0.10748699583E+02 -0.18552549424E+01  0.19705978761E+02  0.22523368150E+02  0.51100000000E-03 0.  1.
        -12    1    3    3    0    0 -0.69253483625E+01 -0.10710364759E+02  0.82402824517E+00  0.12780899255E+02  0.00000000000E+00 0.  1.
</event>
<event>
 7    1  0.7821043E-012  0.5930199E+02  0.7816164E-02  0.1266605E+00
        -11   -1    0    0    0    0  0.00000000000E+00  0.00000000000E+00  0.45593999997E+02  0.45594000000E+02  0.51100000000E-03 0.  1.
         11   -1    0    0    0    0 -0.00000000000E+00 -0.00000000000E+00 -0.45593999997E+02  0.45594000000E+02  0.51100000000E-03 0. -1.
    9900012    2    1    2    0    0 -0.27198588258E+02  0.12873533119E+02 -0.10546404876E+02  0.59301988741E+02  0.50000081546E+02 0.  0.
         12    1    1    2    0    0  0.27198588258E+02 -0.12873533119E+02  0.10546404876E+02  0.31886011259E+02  0.00000000000E+00 0. -1.
         11    1    3    3    0    0  0.12936343108E+02  0.73518727433E+01 -0.11408654855E+02  0.18749837645E+02  0.51100000000E-03 0. -1.
        -11    1    3    3    0    0 -0.19571500578E+02  0.25847805369E+01 -0.35214587341E+00  0.19744587417E+02  0.51100000000E-03 0.  1.
         12    1    3    3    0    0 -0.20563430789E+02  0.29368798390E+01  0.12143958526E+01  0.20807563679E+02  0.00000000000E+00 0. -1.
</event>
<event>
 7    1  0.7821043E-012  0.5930197E+02  0.7816164E-02  0.1266605E+00
        -11   -1    0    0    0    0  0.00000000000E+00  0.00000000000E+00  0.45593999997E+02  0.45594000000E+02  0.51100000000E-03 0.  1.
         11   -1    0    0    0    0 -0.00000000000E+00 -0.00000000000E+00 -0.45593999997E+02  0.45594000000E+02  0.51100000000E-03 0. -1.
    9900012    2    1    2    0    0  0.46298680835E+01 -0.40415815073E+01  0.31288157589E+02  0.59301970694E+02  0.50000048634E+02 0.  0.
         12    1    1    2    0    0 -0.46298680835E+01  0.40415815073E+01 -0.31288157589E+02  0.31886029306E+02  0.00000000000E+00 0. -1.
         11    1    3    3    0    0  0.16646255548E+01  0.10579454345E+02 -0.27459761200E+01  0.11056048914E+02  0.51100000000E-03 0.  1.
        -11    1    3    3    0    0  0.95665881220E+00 -0.23181539807E+02  0.16002878286E+02  0.28184944520E+02  0.51100000000E-03 0. -1.
        -12    1    3    3    0    0  0.20085837165E+01  0.85605039540E+01  0.18031255423E+02  0.20060977260E+02  0.00000000000E+00 0.  1.
</event>
<event>
 7    1  0.7821043E-012  0.5930194E+02  0.7816164E-02  0.1266605E+00
        -11   -1    0    0    0    0  0.00000000000E+00  0.00000000000E+00  0.45593999997E+02  0.45594000000E+02  0.51100000000E-03 0. -1.
         11   -1    0    0    0    0 -0.00000000000E+00 -0.00000000000E+00 -0.45593999997E+02  0.45594000000E+02  0.51100000000E-03 0.  1.
    9900012    2    1    2    0    0  0.24653290039E+02  0.13094121826E+02 -0.15410380564E+02  0.59301944031E+02  0.50000000006E+02 0.  0.
         12    1    1    2    0    0 -0.24653290039E+02 -0.13094121826E+02  0.15410380564E+02  0.31886055969E+02  0.00000000000E+00 0. -1.
         11    1    3    3    0    0  0.18958283281E+02 -0.85495777052E+01 -0.28956653084E+00  0.20798933457E+02  0.51100000000E-03 0. -1.
        -11    1    3    3    0    0 -0.24624446616E+01  0.13997166265E+02 -0.21392550592E+02  0.25683175782E+02  0.51100000000E-03 0.  1.
        -12    1    3    3    0    0  0.81574514191E+01  0.76465332662E+01  0.62717365586E+01  0.12819834793E+02  0.00000000000E+00 0.  1.
</event>
<event>
 7    1  0.7821043E-012  0.5930195E+02  0.7816164E-02  0.1266605E+00
        -11   -1    0    0    0    0  0.00000000000E+00  0.00000000000E+00  0.45593999997E+02  0.45594000000E+02  0.51100000000E-03 0.  1.
         11   -1    0    0    0    0 -0.00000000000E+00 -0.00000000000E+00 -0.45593999997E+02  0.45594000000E+02  0.51100000000E-03 0. -1.
    9900012    2    1    2    0    0 -0.49496615019E+01 -0.18644820032E+02  0.25388815340E+02  0.59301946507E+02  0.50000004521E+02 0.  0.
         12    1    1    2    0    0  0.49496615019E+01  0.18644820032E+02 -0.25388815340E+02  0.31886053493E+02  0.00000000000E+00 0. -1.
         11    1    3    3    0    0 -0.43487432696E+01 -0.13316884268E+02  0.32675988155E+02  0.35552372309E+02  0.51100000000E-03 0. -1.
        -11    1    3    3    0    0  0.49527112694E+01  0.70575963381E+01 -0.66758356637E+00  0.86478137739E+01  0.51100000000E-03 0.  1.
         12    1    3    3    0    0 -0.55536295017E+01 -0.12385532102E+02 -0.66195892481E+01  0.15101760424E+02  0.00000000000E+00 0. -1.
</event>
<event>
 7    1  0.7821043E-012  0.5930195E+02  0.7816164E-02  0.1266605E+00
        -11   -1    0    0    0    0  0.00000000000E+00  0.00000000000E+00  0.45593999997E+02  0.45594000000E+02  0.51100000000E-03 0. -1.
         11   -1    0    0    0    0 -0.00000000000E+00 -0.00000000000E+00 -0.45593999997E+02  0.45594000000E+02  0.51100000000E-03 0.  1.
    9900012    2    1    2    0    0 -0.85311003049E+01 -0.28020986857E+02 -0.12600193502E+02  0.59301948926E+02  0.50000008933E+02 0.  0.
         12    1    1    2    0    0  0.85311003049E+01  0.28020986857E+02  0.12600193502E+02  0.31886051074E+02  0.00000000000E+00 0. -1.
         11    1    3    3    0    0 -0.11527014226E+02  0.49679041469E+01  0.11655436498E+02  0.17128961696E+02  0.51100000000E-03 0. -1.
        -11    1    3    3    0    0 -0.43589730546E+00 -0.14823586825E+02 -0.16330211940E+02  0.22059115011E+02  0.51100000000E-03 0.  1.
         12    1    3    3    0    0  0.34318112261E+01 -0.18165304178E+02 -0.79254180602E+01  0.20113872218E+02  0.00000000000E+00 0. -1.
</event>
<event>
 7    1  0.7821043E-012  0.5930194E+02  0.7816164E-02  0.1266605E+00
        -11   -1    0    0    0    0  0.00000000000E+00  0.00000000000E+00  0.45593999997E+02  0.45594000000E+02  0.51100000000E-03 0.  1.
         11   -1    0    0    0    0 -0.00000000000E+00 -0.00000000000E+00 -0.45593999997E+02  0.45594000000E+02  0.51100000000E-03 0. -1.
    9900012    2    1    2    0    0  0.24478065658E+02 -0.25185181604E+01  0.20278114008E+02  0.59301944430E+02  0.50000000734E+02 0.  0.
         12    1    1    2    0    0 -0.24478065658E+02  0.25185181604E+01 -0.20278114008E+02  0.31886055570E+02  0.00000000000E+00 0. -1.
         11    1    3    3    0    0  0.88659345878E+01  0.93276764322E+01  0.36610563717E+01  0.13379599312E+02  0.51100000000E-03 0. -1.
        -11    1    3    3    0    0  0.12081239390E+02 -0.16566852771E+02  0.27047731726E+02  0.33941077586E+02  0.51100000000E-03 0.  1.
        -12    1    3    3    0    0  0.35308916805E+01  0.47206581782E+01 -0.10430674090E+02  0.11981267532E+02  0.00000000000E+00 0.  1.
</event>
<event>
 7    1  0.7821043E-012  0.5930189E+02  0.7816164E-02  0.1266605E+00
        -11   -1    0    0    0    0  0.00000000000E+00  0.00000000000E+00  0.45593999997E+02  0.45594000000E+02  0.51100000000E-03 0.  1.
         11   -1    0    0    0    0 -0.00000000000E+00 -0.00000000000E+00 -0.45593999997E+02  0.45594000000E+02  0.51100000000E-03 0. -1.
    9900012    2    1    2    0    0 -0.27872401260E+02  0.15423887257E+01  0.15410193267E+02  0.59301893754E+02  0.49999908312E+02 0.  0.
         12    1    1    2    0    0  0.27872401260E+02 -0.15423887257E+01 -0.15410193267E+02  0.31886106246E+02  0.00000000000E+00 0. -1.
         11    1    3    3    0    0 -0.15888749799E+02  0.12632450341E+02  0.17717754691E+02  0.26943459380E+02  0.51100000000E-03 0.  1.
        -11    1    3    3    0    0 -0.16123420026E+02 -0.11448649074E+02 -0.11068809756E+02  0.22661747255E+02  0.51100000000E-03 0. -1.
        -12    1    3    3    0    0  0.41397685654E+01  0.35858745846E+00  0.87612483326E+01  0.96966871191E+01  0.00000000000E+00 0.  1.
</event>
<event>
 7    1  0.7821043E-012  0.5930198E+02  0.7816164E-02  0.1266605E+00
        -11   -1    0    0    0    0  0.00000000000E+00  0.00000000000E+00  0.45593999997E+02  0.45594000000E+02  0.51100000000E-03 0.  1.
         11   -1    0    0    0    0 -0.00000000000E+00 -0.00000000000E+00 -0.45593999997E+02  0.45594000000E+02  0.51100000000E-03 0. -1.
    9900012    2    1    2    0    0 -0.22478979218E+02 -0.21371201143E+02  0.73949729063E+01  0.59301978466E+02  0.50000062808E+02 0.  0.
         12    1    1    2    0    0  0.22478979218E+02  0.21371201143E+02 -0.73949729063E+01  0.31886021534E+02  0.00000000000E+00 0. -1.
         11    1    3    3    0    0  0.29871847850E+01  0.52877367632E+01  0.19394351280E+01  0.63753307282E+01  0.51100000000E-03 0. -1.
        -11    1    3    3    0    0 -0.21597469338E+02 -0.11885966714E+02 -0.13877519359E+02  0.28289793749E+02  0.51100000000E-03 0.  1.
        -12    1    3    3    0    0 -0.38686946649E+01 -0.14772971192E+02  0.19333057137E+02  0.24636853990E+02  0.00000000000E+00 0.  1.
</event>
<event>
 7    1  0.7821043E-012  0.5930193E+02  0.7816164E-02  0.1266605E+00
        -11   -1    0    0    0    0  0.00000000000E+00  0.00000000000E+00  0.45593999997E+02  0.45594000000E+02  0.51100000000E-03 0. -1.
         11   -1    0    0    0    0 -0.00000000000E+00 -0.00000000000E+00 -0.45593999997E+02  0.45594000000E+02  0.51100000000E-03 0.  1.
    9900012    2    1    2    0    0 -0.10896282205E+02 -0.62768826421E+01 -0.29301767013E+02  0.59301925113E+02  0.49999965505E+02 0.  0.
         12    1    1    2    0    0  0.10896282205E+02  0.62768826421E+01  0.29301767013E+02  0.31886074887E+02  0.00000000000E+00 0. -1.
         11    1    3    3    0    0  0.98390809032E+01 -0.16113060460E+02 -0.99485977287E+01  0.21340403638E+02  0.51100000000E-03 0. -1.
        -11    1    3    3    0    0 -0.25561856011E+02  0.68813329622E+01 -0.13127517093E+02  0.29548145989E+02  0.51100000000E-03 0.  1.
        -12    1    3    3    0    0  0.48264929033E+01  0.29548448561E+01 -0.62256521914E+01  0.84133754866E+01  0.00000000000E+00 0.  1.
</event>
<event>
 7    1  0.7821043E-012  0.5930199E+02  0.7816164E-02  0.1266605E+00
        -11   -1    0    0    0    0  0.00000000000E+00  0.00000000000E+00  0.45593999997E+02  0.45594000000E+02  0.51100000000E-03 0. -1.
         11   -1    0    0    0    0 -0.00000000000E+00 -0.00000000000E+00 -0.45593999997E+02  0.45594000000E+02  0.51100000000E-03 0.  1.
    9900012    2    1    2    0    0 -0.14765910964E+02 -0.14415307113E+02 -0.24308108961E+02  0.59301994182E+02  0.50000091469E+02 0.  0.
         12    1    1    2    0    0  0.14765910964E+02  0.14415307113E+02  0.24308108961E+02  0.31886005818E+02  0.00000000000E+00 0. -1.
         11    1    3    3    0    0 -0.88723715441E+01 -0.28441562964E+02 -0.74752186484E+01  0.30716776764E+02  0.51100000000E-03 0. -1.
        -11    1    3    3    0    0 -0.93484543349E+01  0.21955730011E+01 -0.30051838753E+01  0.10062070842E+02  0.51100000000E-03 0.  1.
         12    1    3    3    0    0  0.34549149150E+01  0.11830682849E+02 -0.13827706437E+02  0.18523146576E+02  0.00000000000E+00 0. -1.
</event>
<event>
 7    1  0.7821043E-012  0.5930195E+02  0.7816164E-02  0.1266605E+00
        -11   -1    0    0    0    0  0.00000000000E+00  0.00000000000E+00  0.45593999997E+02  0.45594000000E+02  0.51100000000E-03 0.  1.
         11   -1    0    0    0    0 -0.00000000000E+00 -0.00000000000E+00 -0.45593999997E+02  0.45594000000E+02  0.51100000000E-03 0. -1.
    9900012    2    1    2    0    0  0.18674034944E+01  0.54924846101E+01  0.31353874248E+02  0.59301952685E+02  0.50000015789E+02 0.  0.
         12    1    1    2    0    0 -0.18674034944E+01 -0.54924846101E+01 -0.31353874248E+02  0.31886047315E+02  0.00000000000E+00 0. -1.
         11    1    3    3    0    0 -0.60029512860E+01  0.21484477546E+02  0.73037843988E+01  0.23472610983E+02  0.51100000000E-03 0. -1.
        -11    1    3    3    0    0 -0.19564747565E+01 -0.12958183235E+02  0.21587787581E+02  0.25254205178E+02  0.51100000000E-03 0.  1.
        -12    1    3    3    0    0  0.98268295369E+01 -0.30338097007E+01  0.24623022679E+01  0.10575136524E+02  0.00000000000E+00 0.  1.
</event>
<event>
 7    1  0.7821043E-012  0.5930175E+02  0.7816164E-02  0.1266605E+00
        -11   -1    0    0    0    0  0.00000000000E+00  0.00000000000E+00  0.45593999997E+02  0.45594000000E+02  0.51100000000E-03 0.  1.
         11   -1    0    0    0    0 -0.00000000000E+00 -0.00000000000E+00 -0.45593999997E+02  0.45594000000E+02  0.51100000000E-03 0. -1.
    9900012    2    1    2    0    0  0.26592908958E+01 -0.14661876428E+02  0.28190256839E+02  0.59301748588E+02  0.49999643564E+02 0.  0.
         12    1    1    2    0    0 -0.26592908958E+01  0.14661876428E+02 -0.28190256839E+02  0.31886251412E+02  0.00000000000E+00 0. -1.
         11    1    3    3    0    0  0.18854722446E+02  0.55620397562E+01  0.22006656887E+02  0.29508130953E+02  0.51100000000E-03 0. -1.
        -11    1    3    3    0    0 -0.63857023566E+01 -0.10689061025E+02  0.95659533765E+01  0.15701614072E+02  0.51100000000E-03 0.  1.
         12    1    3    3    0    0 -0.98097291931E+01 -0.95348551587E+01 -0.33823534246E+01  0.14092003563E+02  0.00000000000E+00 0. -1.
</event>
<event>
 7    1  0.7821043E-012  0.5930191E+02  0.7816164E-02  0.1266605E+00
        -11   -1    0    0    0    0  0.00000000000E+00  0.00000000000E+00  0.45593999997E+02  0.45594000000E+02  0.51100000000E-03 0. -1.
         11   -1    0    0    0    0 -0.00000000000E+00 -0.00000000000E+00 -0.45593999997E+02  0.45594000000E+02  0.51100000000E-03 0.  1.
    9900012    2    1    2    0    0  0.12176820156E+02 -0.12953982378E+01 -0.29440951194E+02  0.59301911922E+02  0.49999941447E+02 0.  0.
         12    1    1    2    0    0 -0.12176820156E+02  0.12953982378E+01  0.29440951194E+02  0.31886088078E+02  0.00000000000E+00 0. -1.
         11    1    3    3    0    0  0.49889081655E+01 -0.57233100139E+01 -0.33503549463E+01  0.82988168269E+01  0.51100000000E-03 0. -1.
        -11    1    3    3    0    0  0.14266283478E+02  0.21234192452E+02 -0.14783913686E+02  0.29546266727E+02  0.51100000000E-03 0.  1.
        -12    1    3    3    0    0 -0.70783714875E+01 -0.16806280676E+02 -0.11306682561E+02  0.21456828368E+02  0.00000000000E+00 0.  1.
</event>
<event>
 7    1  0.7821043E-012  0.5930191E+02  0.7816164E-02  0.1266605E+00
        -11   -1    0    0    0    0  0.00000000000E+00  0.00000000000E+00  0.45593999997E+02  0.45594000000E+02  0.51100000000E-03 0. -1.
         11   -1    0    0    0    0 -0.00000000000E+00 -0.00000000000E+00 -0.45593999997E+02  0.45594000000E+02  0.51100000000E-03 0.  1.
    9900012    2    1    2    0    0  0.10135454519E+02 -0.94868581424E+01 -0.28705307159E+02  0.59301912519E+02  0.49999942536E+02 0.  0.
         12    1    1    2    0    0 -0.10135454519E+02  0.94868581424E+01  0.28705307159E+02  0.31886087481E+02  0.00000000000E+00 0. -1.
         11    1    3    3    0    0 -0.13094397597E+02 -0.28102507891E+01  0.46729981127E+01  0.14184416433E+02  0.51100000000E-03 0. -1.
        -11    1    3    3    0    0  0.94551521532E+01 -0.69550043424E+01 -0.35527531559E+01  0.12263524897E+02  0.51100000000E-03 0.  1.
         12    1    3    3    0    0  0.13774699962E+02  0.27839698901E+00 -0.29825552116E+02  0.32853971190E+02  0.00000000000E+00 0. -1.
</event>
<event>
 7    1  0.7821043E-012  0.5930193E+02  0.7816164E-02  0.1266605E+00
        -11   -1    0    0    0    0  0.00000000000E+00  0.00000000000E+00  0.45593999997E+02  0.45594000000E+02  0.51100000000E-03 0. -1.
         11   -1    0    0    0    0 -0.00000000000E+00 -0.00000000000E+00 -0.45593999997E+02  0.45594000000E+02  0.51100000000E-03 0.  1.
    9900012    2    1    2    0    0  0.34836958028E+01 -0.30930721892E+02  0.69192278337E+01  0.59301930832E+02  0.49999975933E+02 0.  0.
         12    1    1    2    0    0 -0.34836958028E+01  0.30930721892E+02 -0.69192278337E+01  0.31886069168E+02  0.00000000000E+00 0. -1.
         11    1    3    3    0    0 -0.90535206565E+01  0.12975576483E+01 -0.10162299594E+02  0.13671950316E+02  0.51100000000E-03 0. -1.
        -11    1    3    3    0    0  0.88156579056E+01 -0.20305802308E+01  0.11605700620E+02  0.14715004843E+02  0.51100000000E-03 0.  1.
        -12    1    3    3    0    0  0.37215585537E+01 -0.30197699309E+02  0.54758268079E+01  0.30914975673E+02  0.00000000000E+00 0.  1.
</event>
<event>
 7    1  0.7821043E-012  0.5930189E+02  0.7816164E-02  0.1266605E+00
        -11   -1    0    0    0    0  0.00000000000E+00  0.00000000000E+00  0.45593999997E+02  0.45594000000E+02  0.51100000000E-03 0.  1.
         11   -1    0    0    0    0 -0.00000000000E+00 -0.00000000000E+00 -0.45593999997E+02  0.45594000000E+02  0.51100000000E-03 0. -1.
    9900012    2    1    2    0    0  0.17911299279E+02  0.38764060803E+01  0.26093732223E+02  0.59301889744E+02  0.49999900999E+02 0.  0.
         12    1    1    2    0    0 -0.17911299279E+02 -0.38764060803E+01 -0.26093732223E+02  0.31886110256E+02  0.00000000000E+00 0. -1.
         11    1    3    3    0    0 -0.91943023909E+00 -0.11401112926E+01 -0.19457338904E+01  0.24353821789E+01  0.51100000000E-03 0. -1.
        -11    1    3    3    0    0  0.27839515955E+02  0.14454844032E+01  0.35138621359E+02  0.44853659662E+02  0.51100000000E-03 0.  1.
        -12    1    3    3    0    0 -0.90087864366E+01  0.35710329697E+01 -0.70991552460E+01  0.12012847903E+02  0.00000000000E+00 0.  1.
</event>
<event>
 7    1  0.7821043E-012  0.5930199E+02  0.7816164E-02  0.1266605E+00
        -11   -1    0    0    0    0  0.00000000000E+00  0.00000000000E+00  0.45593999997E+02  0.45594000000E+02  0.51100000000E-03 0.  1.
         11   -1    0    0    0    0 -0.00000000000E+00 -0.00000000000E+00 -0.45593999997E+02  0.45594000000E+02  0.51100000000E-03 0. -1.
    9900012    2    1    2    0    0 -0.14436122591E+02  0.24489469118E+02  0.14442363472E+02  0.59301990595E+02  0.50000084928E+02 0.  0.
         12    1    1    2    0    0  0.14436122591E+02 -0.24489469118E+02 -0.14442363472E+02  0.31886009405E+02  0.00000000000E+00 0. -1.
         11    1    3    3    0    0 -0.10596381308E+02  0.41605007804E+01 -0.95936775573E+00  0.11424248348E+02  0.51100000000E-03 0. -1.
        -11    1    3    3    0    0  0.52252151408E+01  0.74628268182E+01  0.26890469688E+02  0.28391794901E+02  0.51100000000E-03 0.  1.
        -12    1    3    3    0    0 -0.90649564231E+01  0.12866141519E+02 -0.11488738461E+02  0.19485947346E+02  0.00000000000E+00 0.  1.
</event>
<event>
 7    1  0.7821043E-012  0.5930184E+02  0.7816164E-02  0.1266605E+00
        -11   -1    0    0    0    0  0.00000000000E+00  0.00000000000E+00  0.45593999997E+02  0.45594000000E+02  0.51100000000E-03 0.  1.
         11   -1    0    0    0    0 -0.00000000000E+00 -0.00000000000E+00 -0.45593999997E+02  0.45594000000E+02  0.51100000000E-03 0. -1.
    9900012    2    1    2    0    0  0.16050551999E+02  0.14903288446E+02  0.23173234909E+02  0.59301842468E+02  0.49999814779E+02 0.  0.
         12    1    1    2    0    0 -0.16050551999E+02 -0.14903288446E+02 -0.23173234909E+02  0.31886157532E+02  0.00000000000E+00 0. -1.
         11    1    3    3    0    0  0.71663022101E+01 -0.11341295363E+02  0.16789277987E+02  0.21490945151E+02  0.51100000000E-03 0. -1.
        -11    1    3    3    0    0  0.14069545939E+02  0.28346083826E+02  0.59396315503E+01  0.32198320056E+02  0.51100000000E-03 0.  1.
         12    1    3    3    0    0 -0.51852961498E+01 -0.21015000164E+01  0.44432537151E+00  0.56125772614E+01  0.00000000000E+00 0. -1.
</event>
<event>
 7    1  0.7821043E-012  0.5930192E+02  0.7816164E-02  0.1266605E+00
        -11   -1    0    0    0    0  0.00000000000E+00  0.00000000000E+00  0.45593999997E+02  0.45594000000E+02  0.51100000000E-03 0. -1.
         11   -1    0    0    0    0 -0.00000000000E+00 -0.00000000000E+00 -0.45593999997E+02  0.45594000000E+02  0.51100000000E-03 0.  1.
    9900012    2    1    2    0    0  0.22112036089E+02 -0.62144820866E+01 -0.22116960568E+02  0.59301923534E+02  0.49999962624E+02 0.  0.
         12    1    1    2    0    0 -0.22112036089E+02  0.62144820866E+01  0.22116960568E+02  0.31886076466E+02  0.00000000000E+00 0. -1.
         11    1    3    3    0    0  0.22053576502E+02  0.17151755730E+01 -0.25610642307E+02  0.33840908135E+02  0.51100000000E-03 0. -1.
        -11    1    3    3    0    0 -0.46647577582E+00 -0.13780179122E+02 -0.53956661994E+01  0.14806219986E+02  0.51100000000E-03 0.  1.
         12    1    3    3    0    0  0.52493536286E+00  0.58505214624E+01  0.88893479380E+01  0.10654795412E+02  0.00000000000E+00 0. -1.
</event>
<event>
 7    1  0.7821043E-012  0.5930198E+02  0.7816164E-02  0.1266605E+00
        -11   -1    0    0    0    0  0.00000000000E+00  0.00000000000E+00  0.45593999997E+02  0.45594000000E+02  0.51100000000E-03 0.  1.
         11   -1    0    0    0    0 -0.00000000000E+00 -0.00000000000E+00 -0.45593999997E+02  0.45594000000E+02  0.51100000000E-03 0. -1.
    9900012    2    1    2    0    0  0.18116550137E+02  0.16900779087E+02  0.20071689703E+02  0.59301977198E+02  0.50000060494E+02 0.  0.
         12    1    1    2    0    0 -0.18116550137E+02 -0.16900779087E+02 -0.20071689703E+02  0.31886022802E+02  0.00000000000E+00 0. -1.
         11    1    3    3    0    0  0.13986513437E+02  0.78632362502E+01 -0.44628620827E+01  0.16654434265E+02  0.51100000000E-03 0. -1.
        -11    1    3    3    0    0 -0.20499117175E+00  0.10486685483E+02  0.32121234872E+02  0.33790328850E+02  0.51100000000E-03 0.  1.
        -12    1    3    3    0    0  0.43350278722E+01 -0.14491426464E+01 -0.75866830866E+01  0.88572140834E+01  0.00000000000E+00 0.  1.
</event>
<event>
 7    1  0.7821043E-012  0.5930193E+02  0.7816164E-02  0.1266605E+00
        -11   -1    0    0    0    0  0.00000000000E+00  0.00000000000E+00  0.45593999997E+02  0.45594000000E+02  0.51100000000E-03 0.  1.
         11   -1    0    0    0    0 -0.00000000000E+00 -0.00000000000E+00 -0.45593999997E+02  0.45594000000E+02  0.51100000000E-03 0. -1.
    9900012    2    1    2    0    0  0.74742366123E-01 -0.28002886976E+02  0.15249737765E+02  0.59301925181E+02  0.49999965629E+02 0.  0.
         12    1    1    2    0    0 -0.74742366123E-01  0.28002886976E+02 -0.15249737765E+02  0.31886074819E+02  0.00000000000E+00 0. -1.
         11    1    3    3    0    0 -0.30833666399E+01 -0.12502947101E+02 -0.11847076738E+02  0.17498115999E+02  0.51100000000E-03 0. -1.
        -11    1    3    3    0    0  0.14837895577E+02 -0.13319707622E+02  0.16425643237E+02  0.25833689483E+02  0.51100000000E-03 0.  1.
         12    1    3    3    0    0 -0.11679786571E+02 -0.21802322540E+01  0.10671171266E+02  0.15970119700E+02  0.00000000000E+00 0. -1.
</event>
<event>
 7    1  0.7821043E-012  0.5930193E+02  0.7816164E-02  0.1266605E+00
        -11   -1    0    0    0    0  0.00000000000E+00  0.00000000000E+00  0.45593999997E+02  0.45594000000E+02  0.51100000000E-03 0.  1.
         11   -1    0    0    0    0 -0.00000000000E+00 -0.00000000000E+00 -0.45593999997E+02  0.45594000000E+02  0.51100000000E-03 0. -1.
    9900012    2    1    2    0    0 -0.10913991649E+02 -0.50840069064E+01  0.29525563852E+02  0.59301933125E+02  0.49999980116E+02 0.  0.
         12    1    1    2    0    0  0.10913991649E+02  0.50840069064E+01 -0.29525563852E+02  0.31886066875E+02  0.00000000000E+00 0. -1.
         11    1    3    3    0    0  0.66995412570E+01  0.92938093482E+01 -0.38121231693E+01  0.12074395578E+02  0.51100000000E-03 0. -1.
        -11    1    3    3    0    0 -0.21732643101E+02 -0.12371427657E+02  0.34395333331E+02  0.42525274292E+02  0.51100000000E-03 0.  1.
        -12    1    3    3    0    0  0.41191101949E+01 -0.20063885974E+01 -0.10576463093E+01  0.47022632547E+01  0.00000000000E+00 0.  1.
</event>
<event>
 7    1  0.7821043E-012  0.5930196E+02  0.7816164E-02  0.1266605E+00
        -11   -1    0    0    0    0  0.00000000000E+00  0.00000000000E+00  0.45593999997E+02  0.45594000000E+02  0.51100000000E-03 0.  1.
         11   -1    0    0    0    0 -0.00000000000E+00 -0.00000000000E+00 -0.45593999997E+02  0.45594000000E+02  0.51100000000E-03 0. -1.
    9900012    2    1    2    0    0 -0.67207418324E+01  0.27549082942E+02  0.14580774142E+02  0.59301963616E+02  0.50000035724E+02 0.  0.
         12    1    1    2    0    0  0.67207418324E+01 -0.27549082942E+02 -0.14580774142E+02  0.31886036384E+02  0.00000000000E+00 0. -1.
         11    1    3    3    0    0 -0.45450157508E+01  0.20109510218E+02  0.71118100900E+01  0.21808883795E+02  0.51100000000E-03 0. -1.
        -11    1    3    3    0    0  0.76878241869E+01 -0.49070574862E+01 -0.10270546080E+02  0.13735573193E+02  0.51100000000E-03 0.  1.
        -12    1    3    3    0    0 -0.98635502685E+01  0.12346630210E+02  0.17739510131E+02  0.23757506627E+02  0.00000000000E+00 0.  1.
</event>
<event>
 7    1  0.7821043E-012  0.5930193E+02  0.7816164E-02  0.1266605E+00
        -11   -1    0    0    0    0  0.00000000000E+00  0.00000000000E+00  0.45593999997E+02  0.45594000000E+02  0.51100000000E-03 0.  1.
         11   -1    0    0    0    0 -0.00000000000E+00 -0.00000000000E+00 -0.45593999997E+02  0.45594000000E+02  0.51100000000E-03 0. -1.
    9900012    2    1    2    0    0  0.60779730233E+01 -0.24181298561E+02  0.19875732713E+02  0.59301926127E+02  0.49999967353E+02 0.  0.
         12    1    1    2    0    0 -0.60779730233E+01  0.24181298561E+02 -0.19875732713E+02  0.31886073873E+02  0.00000000000E+00 0. -1.
         11    1    3    3    0    0 -0.24423886324E+01 -0.65348722554E+01  0.47212193759E+01  0.84237598661E+01  0.51100000000E-03 0. -1.
        -11    1    3    3    0    0 -0.42314519077E+01  0.13640283806E+02  0.12259812868E+01  0.14334069831E+02  0.51100000000E-03 0.  1.
        -12    1    3    3    0    0  0.12751813563E+02 -0.31286710112E+02  0.13928532050E+02  0.36544096429E+02  0.00000000000E+00 0.  1.
</event>
<event>
 7    1  0.7821043E-012  0.5930195E+02  0.7816164E-02  0.1266605E+00
        -11   -1    0    0    0    0  0.00000000000E+00  0.00000000000E+00  0.45593999997E+02  0.45594000000E+02  0.51100000000E-03 0.  1.
         11   -1    0    0    0    0 -0.00000000000E+00 -0.00000000000E+00 -0.45593999997E+02  0.45594000000E+02  0.51100000000E-03 0. -1.
    9900012    2    1    2    0    0  0.20742920383E+01 -0.29789555189E+02 -0.11180342654E+02  0.59301947443E+02  0.50000006228E+02 0.  0.
         12    1    1    2    0    0 -0.20742920383E+01  0.29789555189E+02  0.11180342654E+02  0.31886052557E+02  0.00000000000E+00 0. -1.
         11    1    3    3    0    0  0.15573980482E+02  0.48468624353E+01  0.66930465152E+01  0.17630593167E+02  0.51100000000E-03 0. -1.
        -11    1    3    3    0    0 -0.31764206474E+01 -0.12558848394E+02 -0.36760384079E+01  0.13465792949E+02  0.51100000000E-03 0.  1.
         12    1    3    3    0    0 -0.10323267796E+02 -0.22077569230E+02 -0.14197350762E+02  0.28205561327E+02  0.00000000000E+00 0. -1.
</event>
<event>
 7    1  0.7821043E-012  0.5930194E+02  0.7816164E-02  0.1266605E+00
        -11   -1    0    0    0    0  0.00000000000E+00  0.00000000000E+00  0.45593999997E+02  0.45594000000E+02  0.51100000000E-03 0. -1.
         11   -1    0    0    0    0 -0.00000000000E+00 -0.00000000000E+00 -0.45593999997E+02  0.45594000000E+02  0.51100000000E-03 0.  1.
    9900012    2    1    2    0    0 -0.14897675290E+02 -0.25459096206E+02 -0.12108443068E+02  0.59301941884E+02  0.49999996090E+02 0.  0.
         12    1    1    2    0    0  0.14897675290E+02  0.25459096206E+02  0.12108443068E+02  0.31886058116E+02  0.00000000000E+00 0. -1.
         11    1    3    3    0    0  0.42012972661E+01  0.25151473717E+01 -0.13669201995E+02  0.14519777837E+02  0.51100000000E-03 0. -1.
        -11    1    3    3    0    0 -0.82445860074E+00 -0.13351077564E+02  0.13068821141E+02  0.18700938222E+02  0.51100000000E-03 0.  1.
        -12    1    3    3    0    0 -0.18274513955E+02 -0.14623166013E+02 -0.11508062215E+02  0.26081225824E+02  0.00000000000E+00 0.  1.
</event>
<event>
 7    1  0.7821043E-012  0.5930195E+02  0.7816164E-02  0.1266605E+00
        -11   -1    0    0    0    0  0.00000000000E+00  0.00000000000E+00  0.45593999997E+02  0.45594000000E+02  0.51100000000E-03 0. -1.
         11   -1    0    0    0    0 -0.00000000000E+00 -0.00000000000E+00 -0.45593999997E+02  0.45594000000E+02  0.51100000000E-03 0.  1.
    9900012    2    1    2    0    0  0.14103466286E+02 -0.24183821407E+02 -0.15262875455E+02  0.59301947465E+02  0.50000006268E+02 0.  0.
         12    1    1    2    0    0 -0.14103466286E+02  0.24183821407E+02  0.15262875455E+02  0.31886052535E+02  0.00000000000E+00 0. -1.
         11    1    3    3    0    0  0.19411739364E+01 -0.11654939586E+01  0.86254959191E+01  0.89177190206E+01  0.51100000000E-03 0. -1.
        -11    1    3    3    0    0  0.18973616974E+02 -0.25649487094E+02 -0.27606524199E+02  0.42190218153E+02  0.51100000000E-03 0.  1.
        -12    1    3    3    0    0 -0.68113246243E+01  0.26311596449E+01  0.37181528246E+01  0.81940102905E+01  0.00000000000E+00 0.  1.
</event>
<event>
 7    1  0.7821043E-012  0.5930194E+02  0.7816164E-02  0.1266605E+00
        -11   -1    0    0    0    0  0.00000000000E+00  0.00000000000E+00  0.45593999997E+02  0.45594000000E+02  0.51100000000E-03 0.  1.
         11   -1    0    0    0    0 -0.00000000000E+00 -0.00000000000E+00 -0.45593999997E+02  0.45594000000E+02  0.51100000000E-03 0. -1.
    9900012    2    1    2    0    0  0.19892445109E+02 -0.18582057959E+01  0.24850719143E+02  0.59301944378E+02  0.50000000639E+02 0.  0.
         12    1    1    2    0    0 -0.19892445109E+02  0.18582057959E+01 -0.24850719143E+02  0.31886055622E+02  0.00000000000E+00 0. -1.
         11    1    3    3    0    0  0.18760400689E+02 -0.65792989623E+01  0.17656014957E+02  0.26588995342E+02  0.51100000000E-03 0.  1.
        -11    1    3    3    0    0  0.55614888150E+01  0.65328095794E+01 -0.10971064817E+02  0.13927383900E+02  0.51100000000E-03 0. -1.
         12    1    3    3    0    0 -0.44294443950E+01 -0.18117164130E+01  0.18165769003E+02  0.18785565136E+02  0.00000000000E+00 0. -1.
</event>
<event>
 7    1  0.7821043E-012  0.5930185E+02  0.7816164E-02  0.1266605E+00
        -11   -1    0    0    0    0  0.00000000000E+00  0.00000000000E+00  0.45593999997E+02  0.45594000000E+02  0.51100000000E-03 0. -1.
         11   -1    0    0    0    0 -0.00000000000E+00 -0.00000000000E+00 -0.45593999997E+02  0.45594000000E+02  0.51100000000E-03 0.  1.
    9900012    2    1    2    0    0  0.23992665122E+02  0.25843523896E+00 -0.21000284856E+02  0.59301847325E+02  0.49999823637E+02 0.  0.
         12    1    1    2    0    0 -0.23992665122E+02 -0.25843523896E+00  0.21000284856E+02  0.31886152675E+02  0.00000000000E+00 0. -1.
         11    1    3    3    0    0  0.56455170416E+01  0.88017679744E+01  0.78822579279E+01  0.13094768896E+02  0.51100000000E-03 0. -1.
        -11    1    3    3    0    0  0.25703194727E+02 -0.38025906949E+01 -0.15617526344E+02  0.30315359877E+02  0.51100000000E-03 0.  1.
         12    1    3    3    0    0 -0.73560466466E+01 -0.47407420406E+01 -0.13265016440E+02  0.15891718551E+02  0.00000000000E+00 0. -1.
</event>
<event>
 7    1  0.7821043E-012  0.5930190E+02  0.7816164E-02  0.1266605E+00
        -11   -1    0    0    0    0  0.00000000000E+00  0.00000000000E+00  0.45593999997E+02  0.45594000000E+02  0.51100000000E-03 0.  1.
         11   -1    0    0    0    0 -0.00000000000E+00 -0.00000000000E+00 -0.45593999997E+02  0.45594000000E+02  0.51100000000E-03 0. -1.
    9900012    2    1    2    0    0 -0.23870434506E+02 -0.13084651668E+02  0.16604750981E+02  0.59301897888E+02  0.49999915853E+02 0.  0.
         12    1    1    2    0    0  0.23870434506E+02  0.13084651668E+02 -0.16604750981E+02  0.31886102112E+02  0.00000000000E+00 0. -1.
         11    1    3    3    0    0  0.77095296967E+01 -0.44094776689E+01 -0.39647921343E+01  0.97262489371E+01  0.51100000000E-03 0. -1.
        -11    1    3    3    0    0 -0.34693173794E+02 -0.14356337193E+02  0.21111900533E+02  0.43074738187E+02  0.51100000000E-03 0.  1.
        -12    1    3    3    0    0  0.31132095917E+01  0.56811631939E+01 -0.54235741802E+00  0.65009107644E+01  0.00000000000E+00 0.  1.
</event>
<event>
 7    1  0.7821043E-012  0.5930195E+02  0.7816164E-02  0.1266605E+00
        -11   -1    0    0    0    0  0.00000000000E+00  0.00000000000E+00  0.45593999997E+02  0.45594000000E+02  0.51100000000E-03 0. -1.
         11   -1    0    0    0    0 -0.00000000000E+00 -0.00000000000E+00 -0.45593999997E+02  0.45594000000E+02  0.51100000000E-03 0.  1.
    9900012    2    1    2    0    0  0.23877043866E+01 -0.30026390077E+02  0.10461131005E+02  0.59301945129E+02  0.50000002009E+02 0.  0.
         12    1    1    2    0    0 -0.23877043866E+01  0.30026390077E+02 -0.10461131005E+02  0.31886054871E+02  0.00000000000E+00 0. -1.
         11    1    3    3    0    0  0.18880245083E+02 -0.11015040649E+01  0.31742849625E+01  0.19176888457E+02  0.51100000000E-03 0. -1.
        -11    1    3    3    0    0 -0.16029090941E+02 -0.22018662614E+02  0.13877958734E+02  0.30567155553E+02  0.51100000000E-03 0.  1.
        -12    1    3    3    0    0 -0.46344975549E+00 -0.69062233979E+01 -0.65911126913E+01  0.95579011193E+01  0.00000000000E+00 0.  1.
</event>
<event>
 7    1  0.7821043E-012  0.5930194E+02  0.7816164E-02  0.1266605E+00
        -11   -1    0    0    0    0  0.00000000000E+00  0.00000000000E+00  0.45593999997E+02  0.45594000000E+02  0.51100000000E-03 0. -1.
         11   -1    0    0    0    0 -0.00000000000E+00 -0.00000000000E+00 -0.45593999997E+02  0.45594000000E+02  0.51100000000E-03 0.  1.
    9900012    2    1    2    0    0 -0.27509181615E+02 -0.16115592072E+02  0.50327559453E+00  0.59301942431E+02  0.49999997089E+02 0.  0.
         12    1    1    2    0    0  0.27509181615E+02  0.16115592072E+02 -0.50327559453E+00  0.31886057569E+02  0.00000000000E+00 0. -1.
         11    1    3    3    0    0 -0.21337849422E+02 -0.23940749594E+01  0.19070248681E+02  0.28717761018E+02  0.51100000000E-03 0. -1.
        -11    1    3    3    0    0 -0.93920004248E+01 -0.24411529590E+01 -0.15782419767E+02  0.18527106458E+02  0.51100000000E-03 0.  1.
         12    1    3    3    0    0  0.32206682321E+01 -0.11280364154E+02 -0.27845533194E+01  0.12057074956E+02  0.00000000000E+00 0. -1.
</event>
<event>
 7    1  0.7821043E-012  0.5930194E+02  0.7816164E-02  0.1266605E+00
        -11   -1    0    0    0    0  0.00000000000E+00  0.00000000000E+00  0.45593999997E+02  0.45594000000E+02  0.51100000000E-03 0.  1.
         11   -1    0    0    0    0 -0.00000000000E+00 -0.00000000000E+00 -0.45593999997E+02  0.45594000000E+02  0.51100000000E-03 0. -1.
    9900012    2    1    2    0    0 -0.16111174680E+02 -0.21357223439E+02  0.17349921829E+02  0.59301941447E+02  0.49999995293E+02 0.  0.
         12    1    1    2    0    0  0.16111174680E+02  0.21357223439E+02 -0.17349921829E+02  0.31886058553E+02  0.00000000000E+00 0. -1.
         11    1    3    3    0    0  0.59710769806E+01  0.12190335443E+01 -0.25273331894E+01  0.65975159266E+01  0.51100000000E-03 0. -1.
        -11    1    3    3    0    0 -0.14814479630E+02 -0.32900293854E+02  0.16218990900E+02  0.39559497070E+02  0.51100000000E-03 0.  1.
        -12    1    3    3    0    0 -0.72677720302E+01  0.10324036871E+02  0.36582641182E+01  0.13144928450E+02  0.00000000000E+00 0.  1.
</event>
<event>
 7    1  0.7821043E-012  0.5930194E+02  0.7816164E-02  0.1266605E+00
        -11   -1    0    0    0    0  0.00000000000E+00  0.00000000000E+00  0.45593999997E+02  0.45594000000E+02  0.51100000000E-03 0.  1.
         11   -1    0    0    0    0 -0.00000000000E+00 -0.00000000000E+00 -0.45593999997E+02  0.45594000000E+02  0.51100000000E-03 0. -1.
    9900012    2    1    2    0    0  0.15236253318E+02  0.14738344581E+02  0.23819288520E+02  0.59301941577E+02  0.49999995530E+02 0.  0.
         12    1    1    2    0    0 -0.15236253318E+02 -0.14738344581E+02 -0.23819288520E+02  0.31886058423E+02  0.00000000000E+00 0. -1.
         11    1    3    3    0    0 -0.96673137364E+01  0.18810619544E+02  0.25874564842E+02  0.33418400149E+02  0.51100000000E-03 0.  1.
        -11    1    3    3    0    0  0.20731817606E+02 -0.25653896859E+01 -0.35774818215E+01  0.21194052513E+02  0.51100000000E-03 0. -1.
        -12    1    3    3    0    0  0.41717494486E+01 -0.15068852773E+01  0.15222055000E+01  0.46894889151E+01  0.00000000000E+00 0.  1.
</event>
<event>
 7    1  0.7821043E-012  0.5930195E+02  0.7816164E-02  0.1266605E+00
        -11   -1    0    0    0    0  0.00000000000E+00  0.00000000000E+00  0.45593999997E+02  0.45594000000E+02  0.51100000000E-03 0. -1.
         11   -1    0    0    0    0 -0.00000000000E+00 -0.00000000000E+00 -0.45593999997E+02  0.45594000000E+02  0.51100000000E-03 0.  1.
    9900012    2    1    2    0    0  0.28032676369E+02  0.11527849960E+02  0.98994014666E+01  0.59301946332E+02  0.50000004203E+02 0.  0.
         12    1    1    2    0    0 -0.28032676369E+02 -0.11527849960E+02 -0.98994014666E+01  0.31886053668E+02  0.00000000000E+00 0. -1.
         11    1    3    3    0    0  0.20892033153E+02  0.28902166442E+02  0.12074226831E-01  0.35662479167E+02  0.51100000000E-03 0. -1.
        -11    1    3    3    0    0  0.62936419405E+01 -0.33056268817E+01  0.15909469632E+01  0.72847930964E+01  0.51100000000E-03 0.  1.
         12    1    3    3    0    0  0.84700127506E+00 -0.14068689600E+02  0.82963802766E+01  0.16354674069E+02  0.00000000000E+00 0. -1.
</event>
<event>
 7    1  0.7821043E-012  0.5930193E+02  0.7816164E-02  0.1266605E+00
        -11   -1    0    0    0    0  0.00000000000E+00  0.00000000000E+00  0.45593999997E+02  0.45594000000E+02  0.51100000000E-03 0. -1.
         11   -1    0    0    0    0 -0.00000000000E+00 -0.00000000000E+00 -0.45593999997E+02  0.45594000000E+02  0.51100000000E-03 0.  1.
    9900012    2    1    2    0    0 -0.17536433008E+02 -0.26603480446E+02 -0.12041618706E+01  0.59301926860E+02  0.49999968690E+02 0.  0.
         12    1    1    2    0    0  0.17536433008E+02  0.26603480446E+02  0.12041618706E+01  0.31886073140E+02  0.00000000000E+00 0. -1.
         11    1    3    3    0    0 -0.20983777562E+02 -0.78951119753E+00  0.11375889178E+02  0.23882066568E+02  0.51100000000E-03 0. -1.
        -11    1    3    3    0    0 -0.32676291095E+01 -0.10643301897E+02 -0.14972035688E+02  0.18657950803E+02  0.51100000000E-03 0.  1.
         12    1    3    3    0    0  0.67149736638E+01 -0.15170667352E+02  0.23919846391E+01  0.16761909489E+02  0.00000000000E+00 0. -1.
</event>
<event>
 7    1  0.7821043E-012  0.5930190E+02  0.7816164E-02  0.1266605E+00
        -11   -1    0    0    0    0  0.00000000000E+00  0.00000000000E+00  0.45593999997E+02  0.45594000000E+02  0.51100000000E-03 0.  1.
         11   -1    0    0    0    0 -0.00000000000E+00 -0.00000000000E+00 -0.45593999997E+02  0.45594000000E+02  0.51100000000E-03 0. -1.
    9900012    2    1    2    0    0 -0.29505669921E+02  0.97665072448E+00 -0.12049269252E+02  0.59301901248E+02  0.49999921979E+02 0.  0.
         12    1    1    2    0    0  0.29505669921E+02 -0.97665072448E+00  0.12049269252E+02  0.31886098752E+02  0.00000000000E+00 0. -1.
         11    1    3    3    0    0 -0.60169739117E+01  0.16508355203E+02  0.18576758542E+00  0.17571689629E+02  0.51100000000E-03 0. -1.
        -11    1    3    3    0    0 -0.11424236725E+02 -0.20474099339E+02 -0.15728454354E+02  0.28232715157E+02  0.51100000000E-03 0.  1.
        -12    1    3    3    0    0 -0.12064459285E+02  0.49423948608E+01  0.34934175167E+01  0.13497496462E+02  0.00000000000E+00 0.  1.
</event>
<event>
 7    1  0.7821043E-012  0.5930194E+02  0.7816164E-02  0.1266605E+00
        -11   -1    0    0    0    0  0.00000000000E+00  0.00000000000E+00  0.45593999997E+02  0.45594000000E+02  0.51100000000E-03 0. -1.
         11   -1    0    0    0    0 -0.00000000000E+00 -0.00000000000E+00 -0.45593999997E+02  0.45594000000E+02  0.51100000000E-03 0.  1.
    9900012    2    1    2    0    0  0.11808331771E+02 -0.18155873318E+02 -0.23401882824E+02  0.59301944194E+02  0.50000000304E+02 0.  0.
         12    1    1    2    0    0 -0.11808331771E+02  0.18155873318E+02  0.23401882824E+02  0.31886055806E+02  0.00000000000E+00 0. -1.
         11    1    3    3    0    0 -0.91126799714E+01  0.60173231258E+01 -0.24112769994E+02  0.26470262388E+02  0.51100000000E-03 0. -1.
        -11    1    3    3    0    0  0.90322709207E+01 -0.12848017181E+02 -0.30216017396E+01  0.15993234220E+02  0.51100000000E-03 0.  1.
         12    1    3    3    0    0  0.11888740822E+02 -0.11325179263E+02  0.37324889099E+01  0.16838447586E+02  0.00000000000E+00 0. -1.
</event>
<event>
 7    1  0.7821043E-012  0.5930218E+02  0.7816164E-02  0.1266604E+00
        -11   -1    0    0    0    0  0.00000000000E+00  0.00000000000E+00  0.45593999997E+02  0.45594000000E+02  0.51100000000E-03 0. -1.
         11   -1    0    0    0    0 -0.00000000000E+00 -0.00000000000E+00 -0.45593999997E+02  0.45594000000E+02  0.51100000000E-03 0.  1.
    9900012    2    1    2    0    0 -0.13971154012E+02  0.18791813546E+02 -0.21642091183E+02  0.59302180087E+02  0.50000430513E+02 0.  0.
         12    1    1    2    0    0  0.13971154012E+02 -0.18791813546E+02  0.21642091183E+02  0.31885819913E+02  0.00000000000E+00 0. -1.
         11    1    3    3    0    0 -0.18836708139E+01 -0.55444194173E+00  0.11913421538E+02  0.12074155647E+02  0.51100000000E-03 0. -1.
        -11    1    3    3    0    0  0.39941057373E+01  0.15637406247E+02 -0.12163652949E+02  0.20209794855E+02  0.51100000000E-03 0.  1.
         12    1    3    3    0    0 -0.16081588935E+02  0.37088492409E+01 -0.21391859772E+02  0.27018229584E+02  0.00000000000E+00 0. -1.
</event>
<event>
 7    1  0.7821043E-012  0.5930210E+02  0.7816164E-02  0.1266604E+00
        -11   -1    0    0    0    0  0.00000000000E+00  0.00000000000E+00  0.45593999997E+02  0.45594000000E+02  0.51100000000E-03 0. -1.
         11   -1    0    0    0    0 -0.00000000000E+00 -0.00000000000E+00 -0.45593999997E+02  0.45594000000E+02  0.51100000000E-03 0.  1.
    9900012    2    1    2    0    0 -0.17117805204E+02  0.26493376725E+02 -0.46682538227E+01  0.59302096233E+02  0.50000277585E+02 0.  0.
         12    1    1    2    0    0  0.17117805204E+02 -0.26493376725E+02  0.46682538227E+01  0.31885903767E+02  0.00000000000E+00 0. -1.
         11    1    3    3    0    0  0.94041676529E+01  0.72962774675E+00 -0.33175769696E+01  0.99988520893E+01  0.51100000000E-03 0. -1.
        -11    1    3    3    0    0 -0.31555217566E+02  0.24274324026E+02  0.60098719048E+01  0.40262800736E+02  0.51100000000E-03 0.  1.
        -12    1    3    3    0    0  0.50332447089E+01  0.14894249523E+01 -0.73605487578E+01  0.90404434075E+01  0.00000000000E+00 0.  1.
</event>
<event>
 7    1  0.7821043E-012  0.5930193E+02  0.7816164E-02  0.1266605E+00
        -11   -1    0    0    0    0  0.00000000000E+00  0.00000000000E+00  0.45593999997E+02  0.45594000000E+02  0.51100000000E-03 0.  1.
         11   -1    0    0    0    0 -0.00000000000E+00 -0.00000000000E+00 -0.45593999997E+02  0.45594000000E+02  0.51100000000E-03 0. -1.
    9900012    2    1    2    0    0 -0.25817988329E+02  0.78479639729E+01 -0.16987125344E+02  0.59301929572E+02  0.49999973637E+02 0.  0.
         12    1    1    2    0    0  0.25817988329E+02 -0.78479639729E+01  0.16987125344E+02  0.31886070428E+02  0.00000000000E+00 0. -1.
         11    1    3    3    0    0  0.83640949403E+00 -0.57609069484E+01 -0.15059851016E+02  0.16145796437E+02  0.51100000000E-03 0. -1.
        -11    1    3    3    0    0 -0.23877187670E+02  0.38920068034E+01  0.11142464044E+02  0.26634982884E+02  0.51100000000E-03 0.  1.
         12    1    3    3    0    0 -0.27772101530E+01  0.97168641179E+01 -0.13069738371E+02  0.16521150251E+02  0.00000000000E+00 0. -1.
</event>
<event>
 7    1  0.7821043E-012  0.5930201E+02  0.7816164E-02  0.1266605E+00
        -11   -1    0    0    0    0  0.00000000000E+00  0.00000000000E+00  0.45593999997E+02  0.45594000000E+02  0.51100000000E-03 0.  1.
         11   -1    0    0    0    0 -0.00000000000E+00 -0.00000000000E+00 -0.45593999997E+02  0.45594000000E+02  0.51100000000E-03 0. -1.
    9900012    2    1    2    0    0  0.29456439574E+02 -0.79884250709E+01  0.92314580471E+01  0.59302006442E+02  0.50000113829E+02 0.  0.
         12    1    1    2    0    0 -0.29456439574E+02  0.79884250709E+01 -0.92314580471E+01  0.31885993558E+02  0.00000000000E+00 0. -1.
         11    1    3    3    0    0  0.10025710297E+02 -0.20156193892E+01 -0.10028263119E+02  0.14322836658E+02  0.51100000000E-03 0. -1.
        -11    1    3    3    0    0  0.63841289934E+01  0.11977117206E+02  0.18279327051E+02  0.22767130633E+02  0.51100000000E-03 0.  1.
        -12    1    3    3    0    0  0.13046600284E+02 -0.17949922887E+02  0.98039411582E+00  0.22212039151E+02  0.00000000000E+00 0.  1.
</event>
<event>
 7    1  0.7821043E-012  0.5930193E+02  0.7816164E-02  0.1266605E+00
        -11   -1    0    0    0    0  0.00000000000E+00  0.00000000000E+00  0.45593999997E+02  0.45594000000E+02  0.51100000000E-03 0.  1.
         11   -1    0    0    0    0 -0.00000000000E+00 -0.00000000000E+00 -0.45593999997E+02  0.45594000000E+02  0.51100000000E-03 0. -1.
    9900012    2    1    2    0    0  0.18992880490E+02 -0.24344158227E+02  0.79595219555E+01  0.59301928764E+02  0.49999972163E+02 0.  0.
         12    1    1    2    0    0 -0.18992880490E+02  0.24344158227E+02 -0.79595219555E+01  0.31886071236E+02  0.00000000000E+00 0. -1.
         11    1    3    3    0    0  0.18707844602E+02 -0.58461519562E+01 -0.74460022201E+00  0.19614162539E+02  0.51100000000E-03 0. -1.
        -11    1    3    3    0    0 -0.90246061409E+01 -0.24866687161E+02  0.19156283476E+01  0.26522919873E+02  0.51100000000E-03 0.  1.
        -12    1    3    3    0    0  0.93096420287E+01  0.63686808908E+01  0.67884938300E+01  0.13164846352E+02  0.00000000000E+00 0.  1.
</event>
<event>
 7    1  0.7821043E-012  0.5930194E+02  0.7816164E-02  0.1266605E+00
        -11   -1    0    0    0    0  0.00000000000E+00  0.00000000000E+00  0.45593999997E+02  0.45594000000E+02  0.51100000000E-03 0. -1.
         11   -1    0    0    0    0 -0.00000000000E+00 -0.00000000000E+00 -0.45593999997E+02  0.45594000000E+02  0.51100000000E-03 0.  1.
    9900012    2    1    2    0    0 -0.13662965165E+02 -0.17139331394E+02 -0.23157884022E+02  0.59301938937E+02  0.49999990715E+02 0.  0.
         12    1    1    2    0    0  0.13662965165E+02  0.17139331394E+02  0.23157884022E+02  0.31886061063E+02  0.00000000000E+00 0. -1.
         11    1    3    3    0    0  0.88871940802E+01 -0.96645295305E+01 -0.42451146052E+01  0.13798780669E+02  0.51100000000E-03 0. -1.
        -11    1    3    3    0    0 -0.27053719385E+02 -0.15754169748E+02 -0.10954677621E+02  0.33167794004E+02  0.51100000000E-03 0.  1.
        -12    1    3    3    0    0  0.45035601404E+01  0.82793678844E+01 -0.79580917963E+01  0.12335364265E+02  0.00000000000E+00 0.  1.
</event>
<event>
 7    1  0.7821043E-012  0.5930193E+02  0.7816164E-02  0.1266605E+00
        -11   -1    0    0    0    0  0.00000000000E+00  0.00000000000E+00  0.45593999997E+02  0.45594000000E+02  0.51100000000E-03 0.  1.
         11   -1    0    0    0    0 -0.00000000000E+00 -0.00000000000E+00 -0.45593999997E+02  0.45594000000E+02  0.51100000000E-03 0. -1.
    9900012    2    1    2    0    0 -0.95434074589E+00  0.21405933400E+02  0.23613482920E+02  0.59301932093E+02  0.49999978234E+02 0.  0.
         12    1    1    2    0    0  0.95434074589E+00 -0.21405933400E+02 -0.23613482920E+02  0.31886067907E+02  0.00000000000E+00 0. -1.
         11    1    3    3    0    0 -0.55714953029E+01 -0.95544511835E+01  0.17888728381E+02  0.21031778353E+02  0.51100000000E-03 0. -1.
        -11    1    3    3    0    0  0.97678274348E+01  0.11786953973E+02  0.95623975598E+01  0.18049437224E+02  0.51100000000E-03 0.  1.
         12    1    3    3    0    0 -0.51506728778E+01  0.19173430610E+02 -0.38376430212E+01  0.20220716516E+02  0.00000000000E+00 0. -1.
</event>
<event>
 7    1  0.7821043E-012  0.5930195E+02  0.7816164E-02  0.1266605E+00
        -11   -1    0    0    0    0  0.00000000000E+00  0.00000000000E+00  0.45593999997E+02  0.45594000000E+02  0.51100000000E-03 0.  1.
         11   -1    0    0    0    0 -0.00000000000E+00 -0.00000000000E+00 -0.45593999997E+02  0.45594000000E+02  0.51100000000E-03 0. -1.
    9900012    2    1    2    0    0  0.25093759792E+02 -0.19240127631E+02  0.41037674071E+01  0.59301949779E+02  0.50000010489E+02 0.  0.
         12    1    1    2    0    0 -0.25093759792E+02  0.19240127631E+02 -0.41037674071E+01  0.31886050221E+02  0.00000000000E+00 0. -1.
         11    1    3    3    0    0  0.47151670370E+01 -0.75262555755E+01 -0.15632745564E+02  0.17979434287E+02  0.51100000000E-03 0. -1.
        -11    1    3    3    0    0  0.16440679330E+01  0.31753243155E+01  0.16842197126E+02  0.17217585434E+02  0.51100000000E-03 0.  1.
        -12    1    3    3    0    0  0.18734524822E+02 -0.14889196371E+02  0.28943158449E+01  0.24104930058E+02  0.00000000000E+00 0.  1.
</event>
<event>
 7    1  0.7821043E-012  0.5930196E+02  0.7816164E-02  0.1266605E+00
        -11   -1    0    0    0    0  0.00000000000E+00  0.00000000000E+00  0.45593999997E+02  0.45594000000E+02  0.51100000000E-03 0.  1.
         11   -1    0    0    0    0 -0.00000000000E+00 -0.00000000000E+00 -0.45593999997E+02  0.45594000000E+02  0.51100000000E-03 0. -1.
    9900012    2    1    2    0    0  0.42265789383E+01  0.61325695765E+01  0.31003987250E+02  0.59301959096E+02  0.50000027481E+02 0.  0.
         12    1    1    2    0    0 -0.42265789383E+01 -0.61325695765E+01 -0.31003987250E+02  0.31886040904E+02  0.00000000000E+00 0. -1.
         11    1    3    3    0    0  0.94404793641E+01  0.17432304201E+02  0.28955312660E+02  0.35091566107E+02  0.51100000000E-03 0. -1.
        -11    1    3    3    0    0 -0.16347388599E+00 -0.15317558030E+02 -0.34841834592E+01  0.15709673528E+02  0.51100000000E-03 0.  1.
        -12    1    3    3    0    0 -0.50504265398E+01  0.40178234064E+01  0.55328580490E+01  0.85007194607E+01  0.00000000000E+00 0.  1.
</event>
<event>
 7    1  0.7821043E-012  0.5930194E+02  0.7816164E-02  0.1266605E+00
        -11   -1    0    0    0    0  0.00000000000E+00  0.00000000000E+00  0.45593999997E+02  0.45594000000E+02  0.51100000000E-03 0. -1.
         11   -1    0    0    0    0 -0.00000000000E+00 -0.00000000000E+00 -0.45593999997E+02  0.45594000000E+02  0.51100000000E-03 0.  1.
    9900012    2    1    2    0    0 -0.28630713314E+02 -0.14021757564E+02 -0.62712090033E+00  0.59301941751E+02  0.49999995848E+02 0.  0.
         12    1    1    2    0    0  0.28630713314E+02  0.14021757564E+02  0.62712090033E+00  0.31886058249E+02  0.00000000000E+00 0. -1.
         11    1    3    3    0    0 -0.50036957870E+01 -0.67853157400E+01  0.83204738061E+01  0.11845157907E+02  0.51100000000E-03 0. -1.
        -11    1    3    3    0    0 -0.32869100084E+02 -0.17653870948E+01  0.83820404883E+00  0.32927145613E+02  0.51100000000E-03 0.  1.
        -12    1    3    3    0    0  0.92420825573E+01 -0.54710547288E+01 -0.97857987552E+01  0.14529638231E+02  0.00000000000E+00 0.  1.
</event>
<event>
 7    1  0.7821043E-012  0.5930193E+02  0.7816164E-02  0.1266605E+00
        -11   -1    0    0    0    0  0.00000000000E+00  0.00000000000E+00  0.45593999997E+02  0.45594000000E+02  0.51100000000E-03 0. -1.
         11   -1    0    0    0    0 -0.00000000000E+00 -0.00000000000E+00 -0.45593999997E+02  0.45594000000E+02  0.51100000000E-03 0.  1.
    9900012    2    1    2    0    0  0.11013323066E+02  0.17101605530E+02 -0.24555304935E+02  0.59301934124E+02  0.49999981937E+02 0.  0.
         12    1    1    2    0    0 -0.11013323066E+02 -0.17101605530E+02  0.24555304935E+02  0.31886065876E+02  0.00000000000E+00 0. -1.
         11    1    3    3    0    0 -0.13284359165E+02  0.12470698430E+02  0.39392166948E+01  0.18641618658E+02  0.51100000000E-03 0. -1.
        -11    1    3    3    0    0  0.16456113788E+02  0.81438423470E+01 -0.11633824159E+02  0.21736414470E+02  0.51100000000E-03 0.  1.
         12    1    3    3    0    0  0.78415684424E+01 -0.35129352478E+01 -0.16860697470E+02  0.18923900995E+02  0.00000000000E+00 0. -1.
</event>
<event>
 7    1  0.7821043E-012  0.5930198E+02  0.7816164E-02  0.1266605E+00
        -11   -1    0    0    0    0  0.00000000000E+00  0.00000000000E+00  0.45593999997E+02  0.45594000000E+02  0.51100000000E-03 0. -1.
         11   -1    0    0    0    0 -0.00000000000E+00 -0.00000000000E+00 -0.45593999997E+02  0.45594000000E+02  0.51100000000E-03 0.  1.
    9900012    2    1    2    0    0 -0.30006477076E+01  0.31734040086E+02  0.81553243938E+00  0.59301979866E+02  0.50000065360E+02 0.  0.
         12    1    1    2    0    0  0.30006477076E+01 -0.31734040086E+02 -0.81553243938E+00  0.31886020134E+02  0.00000000000E+00 0. -1.
         11    1    3    3    0    0  0.17019247984E+01  0.88809842294E+01  0.12939766246E+02  0.15786259204E+02  0.51100000000E-03 0. -1.
        -11    1    3    3    0    0 -0.55810065090E+01  0.69284532982E+01 -0.22698588650E+02  0.24379848764E+02  0.51100000000E-03 0.  1.
        -12    1    3    3    0    0  0.87843400303E+00  0.15924602558E+02  0.10574354844E+02  0.19135871898E+02  0.00000000000E+00 0.  1.
</event>
<event>
 7    1  0.7821043E-012  0.5930198E+02  0.7816164E-02  0.1266605E+00
        -11   -1    0    0    0    0  0.00000000000E+00  0.00000000000E+00  0.45593999997E+02  0.45594000000E+02  0.51100000000E-03 0. -1.
         11   -1    0    0    0    0 -0.00000000000E+00 -0.00000000000E+00 -0.45593999997E+02  0.45594000000E+02  0.51100000000E-03 0.  1.
    9900012    2    1    2    0    0  0.23433194795E+02 -0.40811181725E+01 -0.21235531755E+02  0.59301984997E+02  0.50000074718E+02 0.  0.
         12    1    1    2    0    0 -0.23433194795E+02  0.40811181725E+01  0.21235531755E+02  0.31886015003E+02  0.00000000000E+00 0. -1.
         11    1    3    3    0    0  0.43507121547E+01  0.15562318343E+02  0.84238140602E+01  0.18222927647E+02  0.51100000000E-03 0. -1.
        -11    1    3    3    0    0  0.90951808409E+01 -0.71044168137E+01 -0.17482184274E+02  0.20948074375E+02  0.51100000000E-03 0.  1.
         12    1    3    3    0    0  0.99873017997E+01 -0.12539019701E+02 -0.12177161541E+02  0.20130982974E+02  0.00000000000E+00 0. -1.
</event>
<event>
 7    1  0.7821043E-012  0.5930194E+02  0.7816164E-02  0.1266605E+00
        -11   -1    0    0    0    0  0.00000000000E+00  0.00000000000E+00  0.45593999997E+02  0.45594000000E+02  0.51100000000E-03 0. -1.
         11   -1    0    0    0    0 -0.00000000000E+00 -0.00000000000E+00 -0.45593999997E+02  0.45594000000E+02  0.51100000000E-03 0.  1.
    9900012    2    1    2    0    0 -0.19477583545E+02  0.25241777420E+02 -0.44395076470E+00  0.59301942227E+02  0.49999996715E+02 0.  0.
         12    1    1    2    0    0  0.19477583545E+02 -0.25241777420E+02  0.44395076470E+00  0.31886057773E+02  0.00000000000E+00 0. -1.
         11    1    3    3    0    0 -0.77538944838E+01  0.11278254651E+02 -0.57078439147E+01  0.14829072461E+02  0.51100000000E-03 0. -1.
        -11    1    3    3    0    0 -0.42579915849E+01 -0.41422472220E+01  0.19419702640E+02  0.20307967778E+02  0.51100000000E-03 0.  1.
        -12    1    3    3    0    0 -0.74656974759E+01  0.18105769991E+02 -0.14155809490E+02  0.24164901988E+02  0.00000000000E+00 0.  1.
</event>
<event>
 7    1  0.7821043E-012  0.5930195E+02  0.7816164E-02  0.1266605E+00
        -11   -1    0    0    0    0  0.00000000000E+00  0.00000000000E+00  0.45593999997E+02  0.45594000000E+02  0.51100000000E-03 0.  1.
         11   -1    0    0    0    0 -0.00000000000E+00 -0.00000000000E+00 -0.45593999997E+02  0.45594000000E+02  0.51100000000E-03 0. -1.
    9900012    2    1    2    0    0 -0.15262323775E+02 -0.12726608312E+02  0.24936221898E+02  0.59301948995E+02  0.50000009060E+02 0.  0.
         12    1    1    2    0    0  0.15262323775E+02  0.12726608312E+02 -0.24936221898E+02  0.31886051005E+02  0.00000000000E+00 0. -1.
         11    1    3    3    0    0 -0.10019372907E+02  0.12476984730E+02 -0.24178143172E+01  0.16183596873E+02  0.51100000000E-03 0. -1.
        -11    1    3    3    0    0  0.78996055483E+01 -0.12677767822E+02  0.98069690683E+01  0.17869141203E+02  0.51100000000E-03 0.  1.
        -12    1    3    3    0    0 -0.13142556417E+02 -0.12525825221E+02  0.17547067146E+02  0.25249210920E+02  0.00000000000E+00 0.  1.
</event>
<event>
 7    1  0.7821043E-012  0.5930193E+02  0.7816164E-02  0.1266605E+00
        -11   -1    0    0    0    0  0.00000000000E+00  0.00000000000E+00  0.45593999997E+02  0.45594000000E+02  0.51100000000E-03 0.  1.
         11   -1    0    0    0    0 -0.00000000000E+00 -0.00000000000E+00 -0.45593999997E+02  0.45594000000E+02  0.51100000000E-03 0. -1.
    9900012    2    1    2    0    0 -0.73003024401E+01  0.56877528034E+01  0.30513544298E+02  0.59301931987E+02  0.49999978041E+02 0.  0.
         12    1    1    2    0    0  0.73003024401E+01 -0.56877528034E+01 -0.30513544298E+02  0.31886068013E+02  0.00000000000E+00 0. -1.
         11    1    3    3    0    0 -0.11962018651E+02 -0.82706894561E+00  0.13608595774E+02  0.18137469847E+02  0.51100000000E-03 0. -1.
        -11    1    3    3    0    0  0.18348231229E+02 -0.56701479947E+01  0.83478833255E+01  0.20940279936E+02  0.51100000000E-03 0.  1.
        -12    1    3    3    0    0 -0.13686515019E+02  0.12184969744E+02  0.85570651993E+01  0.20224182204E+02  0.00000000000E+00 0.  1.
</event>
<event>
 7    1  0.7821043E-012  0.5930194E+02  0.7816164E-02  0.1266605E+00
        -11   -1    0    0    0    0  0.00000000000E+00  0.00000000000E+00  0.45593999997E+02  0.45594000000E+02  0.51100000000E-03 0.  1.
         11   -1    0    0    0    0 -0.00000000000E+00 -0.00000000000E+00 -0.45593999997E+02  0.45594000000E+02  0.51100000000E-03 0. -1.
    9900012    2    1    2    0    0  0.13972868620E+02  0.56907748837E+01  0.28090837120E+02  0.59301935546E+02  0.49999984532E+02 0.  0.
         12    1    1    2    0    0 -0.13972868620E+02 -0.56907748837E+01 -0.28090837120E+02  0.31886064454E+02  0.00000000000E+00 0. -1.
         11    1    3    3    0    0  0.12186828878E+02  0.94062335694E+01 -0.56759023895E+01  0.16407677967E+02  0.51100000000E-03 0. -1.
        -11    1    3    3    0    0  0.87409756282E+00  0.97527781440E+01  0.24867056625E+02  0.26725479108E+02  0.51100000000E-03 0.  1.
         12    1    3    3    0    0  0.91194217878E+00 -0.13468236830E+02  0.88996828843E+01  0.16168778472E+02  0.00000000000E+00 0. -1.
</event>
<event>
 7    1  0.7821043E-012  0.5930232E+02  0.7816164E-02  0.1266603E+00
        -11   -1    0    0    0    0  0.00000000000E+00  0.00000000000E+00  0.45593999997E+02  0.45594000000E+02  0.51100000000E-03 0.  1.
         11   -1    0    0    0    0 -0.00000000000E+00 -0.00000000000E+00 -0.45593999997E+02  0.45594000000E+02  0.51100000000E-03 0. -1.
    9900012    2    1    2    0    0 -0.21789608235E+02 -0.14974372401E+02  0.17823514851E+02  0.59302320809E+02  0.50000687154E+02 0.  0.
         12    1    1    2    0    0  0.21789608235E+02  0.14974372401E+02 -0.17823514851E+02  0.31885679191E+02  0.00000000000E+00 0. -1.
         11    1    3    3    0    0 -0.10895770059E+01  0.16168455698E+02  0.54531393327E+01  0.17098036921E+02  0.51100000000E-03 0. -1.
        -11    1    3    3    0    0 -0.30414422548E+01 -0.18211012657E+02  0.56358936161E+01  0.19304265075E+02  0.51100000000E-03 0.  1.
         12    1    3    3    0    0 -0.17658588974E+02 -0.12931815441E+02  0.67344819016E+01  0.22900018813E+02  0.00000000000E+00 0. -1.
</event>
<event>
 7    1  0.7821043E-012  0.5930190E+02  0.7816164E-02  0.1266605E+00
        -11   -1    0    0    0    0  0.00000000000E+00  0.00000000000E+00  0.45593999997E+02  0.45594000000E+02  0.51100000000E-03 0.  1.
         11   -1    0    0    0    0 -0.00000000000E+00 -0.00000000000E+00 -0.45593999997E+02  0.45594000000E+02  0.51100000000E-03 0. -1.
    9900012    2    1    2    0    0  0.29407008208E+02 -0.55002766047E+01  0.11031686395E+02  0.59301901475E+02  0.49999922394E+02 0.  0.
         12    1    1    2    0    0 -0.29407008208E+02  0.55002766047E+01 -0.11031686395E+02  0.31886098525E+02  0.00000000000E+00 0. -1.
         11    1    3    3    0    0  0.20315750667E+02  0.13437422925E+02  0.17153104690E+02  0.29791325261E+02  0.51100000000E-03 0.  1.
        -11    1    3    3    0    0  0.60082589228E+01 -0.17131891752E+02 -0.12609117266E+02  0.22104088508E+02  0.51100000000E-03 0. -1.
         12    1    3    3    0    0  0.30829986177E+01 -0.18058077773E+01  0.64876989706E+01  0.74064877059E+01  0.00000000000E+00 0. -1.
</event>
<event>
 7    1  0.7821043E-012  0.5930195E+02  0.7816164E-02  0.1266605E+00
        -11   -1    0    0    0    0  0.00000000000E+00  0.00000000000E+00  0.45593999997E+02  0.45594000000E+02  0.51100000000E-03 0. -1.
         11   -1    0    0    0    0 -0.00000000000E+00 -0.00000000000E+00 -0.45593999997E+02  0.45594000000E+02  0.51100000000E-03 0.  1.
    9900012    2    1    2    0    0  0.25003788925E+01  0.13827001120E+02 -0.28623106037E+02  0.59301952052E+02  0.50000014634E+02 0.  0.
         12    1    1    2    0    0 -0.25003788925E+01 -0.13827001120E+02  0.28623106037E+02  0.31886047948E+02  0.00000000000E+00 0. -1.
         11    1    3    3    0    0 -0.34393879805E+00 -0.45080675034E+01  0.80525992101E+01  0.92350051874E+01  0.51100000000E-03 0. -1.
        -11    1    3    3    0    0  0.11594480847E+02  0.77955620453E+01 -0.33072527659E+02  0.35902574556E+02  0.51100000000E-03 0.  1.
        -12    1    3    3    0    0 -0.87501631565E+01  0.10539506578E+02 -0.36031775878E+01  0.14164372309E+02  0.00000000000E+00 0.  1.
</event>
<event>
 7    1  0.7821043E-012  0.5930197E+02  0.7816164E-02  0.1266605E+00
        -11   -1    0    0    0    0  0.00000000000E+00  0.00000000000E+00  0.45593999997E+02  0.45594000000E+02  0.51100000000E-03 0. -1.
         11   -1    0    0    0    0 -0.00000000000E+00 -0.00000000000E+00 -0.45593999997E+02  0.45594000000E+02  0.51100000000E-03 0.  1.
    9900012    2    1    2    0    0  0.20112604890E+02 -0.24703582155E+02 -0.13910621480E+01  0.59301970133E+02  0.50000047611E+02 0.  0.
         12    1    1    2    0    0 -0.20112604890E+02  0.24703582155E+02  0.13910621480E+01  0.31886029867E+02  0.00000000000E+00 0. -1.
         11    1    3    3    0    0  0.48527586511E+01  0.28861813016E+00  0.18376220246E+02  0.19008367572E+02  0.51100000000E-03 0. -1.
        -11    1    3    3    0    0  0.15472072097E+02 -0.25916740194E+02 -0.12021052712E+02  0.32489508242E+02  0.51100000000E-03 0.  1.
        -12    1    3    3    0    0 -0.21222585770E+00  0.92453990877E+00 -0.77462296824E+01  0.78040943196E+01  0.00000000000E+00 0.  1.
</event>
<event>
 7    1  0.7821043E-012  0.5930195E+02  0.7816164E-02  0.1266605E+00
        -11   -1    0    0    0    0  0.00000000000E+00  0.00000000000E+00  0.45593999997E+02  0.45594000000E+02  0.51100000000E-03 0. -1.
         11   -1    0    0    0    0 -0.00000000000E+00 -0.00000000000E+00 -0.45593999997E+02  0.45594000000E+02  0.51100000000E-03 0.  1.
    9900012    2    1    2    0    0 -0.65809015124E+01 -0.28943731434E+02 -0.11647838866E+02  0.59301952827E+02  0.50000016049E+02 0.  0.
         12    1    1    2    0    0  0.65809015124E+01  0.28943731434E+02  0.11647838866E+02  0.31886047173E+02  0.00000000000E+00 0. -1.
         11    1    3    3    0    0  0.62765441723E+01  0.78024303499E+01  0.70259841648E+01  0.12232635851E+02  0.51100000000E-03 0. -1.
        -11    1    3    3    0    0  0.13244301940E+01 -0.23313347887E+02 -0.13012046131E+02  0.26731622656E+02  0.51100000000E-03 0.  1.
         12    1    3    3    0    0 -0.14181875879E+02 -0.13432813897E+02 -0.56617769003E+01  0.20337694321E+02  0.00000000000E+00 0. -1.
</event>
<event>
 7    1  0.7821043E-012  0.5930197E+02  0.7816164E-02  0.1266605E+00
        -11   -1    0    0    0    0  0.00000000000E+00  0.00000000000E+00  0.45593999997E+02  0.45594000000E+02  0.51100000000E-03 0. -1.
         11   -1    0    0    0    0 -0.00000000000E+00 -0.00000000000E+00 -0.45593999997E+02  0.45594000000E+02  0.51100000000E-03 0.  1.
    9900012    2    1    2    0    0 -0.39023623361E+01 -0.26355948357E+02 -0.17517263884E+02  0.59301968896E+02  0.50000045354E+02 0.  0.
         12    1    1    2    0    0  0.39023623361E+01  0.26355948357E+02  0.17517263884E+02  0.31886031104E+02  0.00000000000E+00 0. -1.
         11    1    3    3    0    0 -0.20527069299E+02 -0.11347765281E+02 -0.19333328639E+02  0.30395887014E+02  0.51100000000E-03 0. -1.
        -11    1    3    3    0    0  0.50985099836E+01  0.78248215160E+00  0.69861722293E+01  0.86841053108E+01  0.51100000000E-03 0.  1.
        -12    1    3    3    0    0  0.11526196979E+02 -0.15790665227E+02 -0.51701074748E+01  0.20221976571E+02  0.00000000000E+00 0.  1.
</event>
<event>
 7    1  0.7821043E-012  0.5930195E+02  0.7816164E-02  0.1266605E+00
        -11   -1    0    0    0    0  0.00000000000E+00  0.00000000000E+00  0.45593999997E+02  0.45594000000E+02  0.51100000000E-03 0. -1.
         11   -1    0    0    0    0 -0.00000000000E+00 -0.00000000000E+00 -0.45593999997E+02  0.45594000000E+02  0.51100000000E-03 0.  1.
    9900012    2    1    2    0    0 -0.19920527763E+02  0.13347095652E+02  0.21017802378E+02  0.59301946536E+02  0.50000004574E+02 0.  0.
         12    1    1    2    0    0  0.19920527763E+02 -0.13347095652E+02 -0.21017802378E+02  0.31886053464E+02  0.00000000000E+00 0. -1.
         11    1    3    3    0    0  0.21764269241E+01  0.46539180432E+01  0.46285100834E+01  0.69151206180E+01  0.51100000000E-03 0. -1.
        -11    1    3    3    0    0 -0.12651846933E+02 -0.17043527845E+02  0.17250172410E+01  0.21296167659E+02  0.51100000000E-03 0.  1.
        -12    1    3    3    0    0 -0.94451077539E+01  0.25736705454E+02  0.14664275054E+02  0.31090658259E+02  0.00000000000E+00 0.  1.
</event>
<event>
 7    1  0.7821043E-012  0.5930192E+02  0.7816164E-02  0.1266605E+00
        -11   -1    0    0    0    0  0.00000000000E+00  0.00000000000E+00  0.45593999997E+02  0.45594000000E+02  0.51100000000E-03 0.  1.
         11   -1    0    0    0    0 -0.00000000000E+00 -0.00000000000E+00 -0.45593999997E+02  0.45594000000E+02  0.51100000000E-03 0. -1.
    9900012    2    1    2    0    0 -0.30195015184E+02 -0.88515499016E+01 -0.51607279450E+01  0.59301921682E+02  0.49999959246E+02 0.  0.
         12    1    1    2    0    0  0.30195015184E+02  0.88515499016E+01  0.51607279450E+01  0.31886078318E+02  0.00000000000E+00 0. -1.
         11    1    3    3    0    0  0.10580860002E+01  0.28771003889E+01 -0.12156428368E+02  0.12536985426E+02  0.51100000000E-03 0. -1.
        -11    1    3    3    0    0 -0.16216203821E+02 -0.21429060768E+02  0.98954301745E+01  0.28637203955E+02  0.51100000000E-03 0.  1.
        -12    1    3    3    0    0 -0.15036897363E+02  0.97004104777E+01 -0.28997297511E+01  0.18127732301E+02  0.00000000000E+00 0.  1.
</event>
<event>
 7    1  0.7821043E-012  0.5930193E+02  0.7816164E-02  0.1266605E+00
        -11   -1    0    0    0    0  0.00000000000E+00  0.00000000000E+00  0.45593999997E+02  0.45594000000E+02  0.51100000000E-03 0. -1.
         11   -1    0    0    0    0 -0.00000000000E+00 -0.00000000000E+00 -0.45593999997E+02  0.45594000000E+02  0.51100000000E-03 0.  1.
    9900012    2    1    2    0    0 -0.29493014392E+02  0.95751006894E+01 -0.74297346243E+01  0.59301930820E+02  0.49999975913E+02 0.  0.
         12    1    1    2    0    0  0.29493014392E+02 -0.95751006894E+01  0.74297346243E+01  0.31886069180E+02  0.00000000000E+00 0. -1.
         11    1    3    3    0    0  0.43278773813E+01  0.13547179362E+02 -0.39318558323E+01  0.14755205245E+02  0.51100000000E-03 0.  1.
        -11    1    3    3    0    0 -0.32266593624E+02 -0.89654611420E+01 -0.11134101700E+02  0.35291369746E+02  0.51100000000E-03 0. -1.
         12    1    3    3    0    0 -0.15542981492E+01  0.49933824698E+01  0.76362229083E+01  0.92553558296E+01  0.00000000000E+00 0. -1.
</event>
<event>
 7    1  0.7821043E-012  0.5930193E+02  0.7816164E-02  0.1266605E+00
        -11   -1    0    0    0    0  0.00000000000E+00  0.00000000000E+00  0.45593999997E+02  0.45594000000E+02  0.51100000000E-03 0. -1.
         11   -1    0    0    0    0 -0.00000000000E+00 -0.00000000000E+00 -0.45593999997E+02  0.45594000000E+02  0.51100000000E-03 0.  1.
    9900012    2    1    2    0    0 -0.15235390774E+02  0.18041709967E+02 -0.21426637609E+02  0.59301933611E+02  0.49999981002E+02 0.  0.
         12    1    1    2    0    0  0.15235390774E+02 -0.18041709967E+02  0.21426637609E+02  0.31886066389E+02  0.00000000000E+00 0. -1.
         11    1    3    3    0    0  0.53671237054E+01  0.29606453645E+02 -0.82971206388E+01  0.31212022130E+02  0.51100000000E-03 0. -1.
        -11    1    3    3    0    0 -0.14832879958E+02 -0.70174041299E+01 -0.12666393805E+02  0.20729105646E+02  0.51100000000E-03 0.  1.
         12    1    3    3    0    0 -0.57696345208E+01 -0.45473395482E+01 -0.46312316514E+00  0.73608058347E+01  0.00000000000E+00 0. -1.
</event>
<event>
 7    1  0.7821043E-012  0.5930208E+02  0.7816164E-02  0.1266604E+00
        -11   -1    0    0    0    0  0.00000000000E+00  0.00000000000E+00  0.45593999997E+02  0.45594000000E+02  0.51100000000E-03 0. -1.
         11   -1    0    0    0    0 -0.00000000000E+00 -0.00000000000E+00 -0.45593999997E+02  0.45594000000E+02  0.51100000000E-03 0.  1.
    9900012    2    1    2    0    0 -0.20635981603E+02 -0.17741420687E+02 -0.16616561881E+02  0.59302080326E+02  0.50000248575E+02 0.  0.
         12    1    1    2    0    0  0.20635981603E+02  0.17741420687E+02  0.16616561881E+02  0.31885919674E+02  0.00000000000E+00 0. -1.
         11    1    3    3    0    0  0.74090599685E+01 -0.31460271171E+00  0.93440931970E+01  0.11929175261E+02  0.51100000000E-03 0. -1.
        -11    1    3    3    0    0 -0.85129668162E+01 -0.13458293330E+02 -0.21825065674E+02  0.27017212204E+02  0.51100000000E-03 0.  1.
        -12    1    3    3    0    0 -0.19532074755E+02 -0.39685246447E+01 -0.41355894043E+01  0.20355692860E+02  0.00000000000E+00 0.  1.
</event>
<event>
 7    1  0.7821043E-012  0.5930185E+02  0.7816164E-02  0.1266605E+00
        -11   -1    0    0    0    0  0.00000000000E+00  0.00000000000E+00  0.45593999997E+02  0.45594000000E+02  0.51100000000E-03 0.  1.
         11   -1    0    0    0    0 -0.00000000000E+00 -0.00000000000E+00 -0.45593999997E+02  0.45594000000E+02  0.51100000000E-03 0. -1.
    9900012    2    1    2    0    0 -0.13722567385E+02  0.25302541920E+02  0.13718565035E+02  0.59301850815E+02  0.49999830001E+02 0.  0.
         12    1    1    2    0    0  0.13722567385E+02 -0.25302541920E+02 -0.13718565035E+02  0.31886149185E+02  0.00000000000E+00 0. -1.
         11    1    3    3    0    0  0.16626668926E+02  0.44364299546E+01  0.12269902730E+02  0.21134770962E+02  0.51100000000E-03 0. -1.
        -11    1    3    3    0    0 -0.16556633875E+02  0.15232698889E+02 -0.28073287061E+01  0.22672413534E+02  0.51100000000E-03 0.  1.
         12    1    3    3    0    0 -0.13792602436E+02  0.56334130765E+01  0.42559910111E+01  0.15494666319E+02  0.00000000000E+00 0. -1.
</event>
<event>
 7    1  0.7821043E-012  0.5930193E+02  0.7816164E-02  0.1266605E+00
        -11   -1    0    0    0    0  0.00000000000E+00  0.00000000000E+00  0.45593999997E+02  0.45594000000E+02  0.51100000000E-03 0.  1.
         11   -1    0    0    0    0 -0.00000000000E+00 -0.00000000000E+00 -0.45593999997E+02  0.45594000000E+02  0.51100000000E-03 0. -1.
    9900012    2    1    2    0    0  0.86625365337E+01 -0.80348477062E+00  0.30676317547E+02  0.59301928037E+02  0.49999970836E+02 0.  0.
         12    1    1    2    0    0 -0.86625365337E+01  0.80348477062E+00 -0.30676317547E+02  0.31886071963E+02  0.00000000000E+00 0. -1.
         11    1    3    3    0    0  0.11185332733E+02 -0.72919991255E+00  0.14960330642E+01  0.11308470987E+02  0.51100000000E-03 0. -1.
        -11    1    3    3    0    0 -0.12812077597E+02  0.12725373777E+02  0.49531615227E+01  0.18724803856E+02  0.51100000000E-03 0.  1.
        -12    1    3    3    0    0  0.10289281397E+02 -0.12799658635E+02  0.24227122960E+02  0.29268653194E+02  0.00000000000E+00 0.  1.
</event>
<event>
 7    1  0.7821043E-012  0.5930192E+02  0.7816164E-02  0.1266605E+00
        -11   -1    0    0    0    0  0.00000000000E+00  0.00000000000E+00  0.45593999997E+02  0.45594000000E+02  0.51100000000E-03 0. -1.
         11   -1    0    0    0    0 -0.00000000000E+00 -0.00000000000E+00 -0.45593999997E+02  0.45594000000E+02  0.51100000000E-03 0.  1.
    9900012    2    1    2    0    0  0.30490248003E+02  0.92357106488E+01 -0.13297606558E+01  0.59301924075E+02  0.49999963611E+02 0.  0.
         12    1    1    2    0    0 -0.30490248003E+02 -0.92357106488E+01  0.13297606558E+01  0.31886075925E+02  0.00000000000E+00 0. -1.
         11    1    3    3    0    0  0.11871735927E+02  0.15451181158E+02  0.20553169710E+02  0.28321544776E+02  0.51100000000E-03 0. -1.
        -11    1    3    3    0    0  0.84817837562E+01 -0.73885208355E+01 -0.14660497563E+02  0.18478665668E+02  0.51100000000E-03 0.  1.
         12    1    3    3    0    0  0.10136728320E+02  0.11730503259E+01 -0.72224328032E+01  0.12501713630E+02  0.00000000000E+00 0. -1.
</event>
<event>
 7    1  0.7821043E-012  0.5930195E+02  0.7816164E-02  0.1266605E+00
        -11   -1    0    0    0    0  0.00000000000E+00  0.00000000000E+00  0.45593999997E+02  0.45594000000E+02  0.51100000000E-03 0. -1.
         11   -1    0    0    0    0 -0.00000000000E+00 -0.00000000000E+00 -0.45593999997E+02  0.45594000000E+02  0.51100000000E-03 0.  1.
    9900012    2    1    2    0    0 -0.15156178210E+02 -0.20387448959E+02 -0.19270756817E+02  0.59301954756E+02  0.50000019566E+02 0.  0.
         12    1    1    2    0    0  0.15156178210E+02  0.20387448959E+02  0.19270756817E+02  0.31886045244E+02  0.00000000000E+00 0. -1.
         11    1    3    3    0    0 -0.67432011043E+01  0.80765502930E+01 -0.22674860335E+02  0.24997014166E+02  0.51100000000E-03 0. -1.
        -11    1    3    3    0    0 -0.35372212123E+01 -0.28991930826E+02  0.33688158114E+01  0.29400559640E+02  0.51100000000E-03 0.  1.
         12    1    3    3    0    0 -0.48757558935E+01  0.52793157380E+00  0.35287706689E-01  0.49043809499E+01  0.00000000000E+00 0. -1.
</event>
<event>
 7    1  0.7821043E-012  0.5930195E+02  0.7816164E-02  0.1266605E+00
        -11   -1    0    0    0    0  0.00000000000E+00  0.00000000000E+00  0.45593999997E+02  0.45594000000E+02  0.51100000000E-03 0.  1.
         11   -1    0    0    0    0 -0.00000000000E+00 -0.00000000000E+00 -0.45593999997E+02  0.45594000000E+02  0.51100000000E-03 0. -1.
    9900012    2    1    2    0    0 -0.85118801082E+01 -0.24465614842E+02  0.18593050856E+02  0.59301953636E+02  0.50000017523E+02 0.  0.
         12    1    1    2    0    0  0.85118801082E+01  0.24465614842E+02 -0.18593050856E+02  0.31886046364E+02  0.00000000000E+00 0. -1.
         11    1    3    3    0    0 -0.15101435332E+02  0.35196594395E+01  0.15142739761E+02  0.21673576525E+02  0.51100000000E-03 0. -1.
        -11    1    3    3    0    0  0.32116299122E+01 -0.16223498178E+02  0.13847900749E+02  0.21570368917E+02  0.51100000000E-03 0.  1.
         12    1    3    3    0    0  0.33779253114E+01 -0.11761776104E+02 -0.10397589654E+02  0.16058008193E+02  0.00000000000E+00 0. -1.
</event>
<event>
 7    1  0.7821043E-012  0.5930195E+02  0.7816164E-02  0.1266605E+00
        -11   -1    0    0    0    0  0.00000000000E+00  0.00000000000E+00  0.45593999997E+02  0.45594000000E+02  0.51100000000E-03 0.  1.
         11   -1    0    0    0    0 -0.00000000000E+00 -0.00000000000E+00 -0.45593999997E+02  0.45594000000E+02  0.51100000000E-03 0. -1.
    9900012    2    1    2    0    0  0.10116850102E+01  0.15972441785E+02  0.27578580099E+02  0.59301945314E+02  0.50000002346E+02 0.  0.
         12    1    1    2    0    0 -0.10116850102E+01 -0.15972441785E+02 -0.27578580099E+02  0.31886054686E+02  0.00000000000E+00 0. -1.
         11    1    3    3    0    0 -0.14783361402E+02 -0.52906911575E+00 -0.56132278496E+01  0.15822010480E+02  0.51100000000E-03 0. -1.
        -11    1    3    3    0    0  0.13407512106E+02  0.18162538891E+02  0.20616044113E+02  0.30572217371E+02  0.51100000000E-03 0.  1.
         12    1    3    3    0    0  0.23875343061E+01 -0.16610279902E+01  0.12575763836E+02  0.12907717463E+02  0.00000000000E+00 0. -1.
</event>
<event>
 7    1  0.7821043E-012  0.5930195E+02  0.7816164E-02  0.1266605E+00
        -11   -1    0    0    0    0  0.00000000000E+00  0.00000000000E+00  0.45593999997E+02  0.45594000000E+02  0.51100000000E-03 0.  1.
         11   -1    0    0    0    0 -0.00000000000E+00 -0.00000000000E+00 -0.45593999997E+02  0.45594000000E+02  0.51100000000E-03 0. -1.
    9900012    2    1    2    0    0  0.12445063668E+02 -0.26666976454E+02  0.12276522603E+02  0.59301948973E+02  0.50000009018E+02 0.  0.
         12    1    1    2    0    0 -0.12445063668E+02  0.26666976454E+02 -0.12276522603E+02  0.31886051027E+02  0.00000000000E+00 0. -1.
         11    1    3    3    0    0  0.13230959401E+02 -0.21742741042E+02  0.18289469962E+02  0.31341821683E+02  0.51100000000E-03 0.  1.
        -11    1    3    3    0    0 -0.12024175698E+02 -0.64978913676E+01 -0.88248284371E+01  0.16269019351E+02  0.51100000000E-03 0. -1.
         12    1    3    3    0    0  0.11238279965E+02  0.15736559550E+01  0.28118810779E+01  0.11691107938E+02  0.00000000000E+00 0. -1.
</event>
<event>
 7    1  0.7821043E-012  0.5930196E+02  0.7816164E-02  0.1266605E+00
        -11   -1    0    0    0    0  0.00000000000E+00  0.00000000000E+00  0.45593999997E+02  0.45594000000E+02  0.51100000000E-03 0.  1.
         11   -1    0    0    0    0 -0.00000000000E+00 -0.00000000000E+00 -0.45593999997E+02  0.45594000000E+02  0.51100000000E-03 0. -1.
    9900012    2    1    2    0    0  0.22339352538E+02 -0.99932623564E+01  0.20440346232E+02  0.59301957310E+02  0.50000024224E+02 0.  0.
         12    1    1    2    0    0 -0.22339352538E+02  0.99932623564E+01 -0.20440346232E+02  0.31886042690E+02  0.00000000000E+00 0. -1.
         11    1    3    3    0    0 -0.40766774737E+01  0.76941513081E-01 -0.10195916383E+02  0.10980980392E+02  0.51100000000E-03 0. -1.
        -11    1    3    3    0    0  0.16942296450E+02 -0.19286075480E+01  0.21127195242E+01  0.17182098828E+02  0.51100000000E-03 0.  1.
         12    1    3    3    0    0  0.94737335611E+01 -0.81415963214E+01  0.28523543091E+02  0.31138878090E+02  0.00000000000E+00 0. -1.
</event>
<event>
 7    1  0.7821043E-012  0.5930195E+02  0.7816164E-02  0.1266605E+00
        -11   -1    0    0    0    0  0.00000000000E+00  0.00000000000E+00  0.45593999997E+02  0.45594000000E+02  0.51100000000E-03 0. -1.
         11   -1    0    0    0    0 -0.00000000000E+00 -0.00000000000E+00 -0.45593999997E+02  0.45594000000E+02  0.51100000000E-03 0.  1.
    9900012    2    1    2    0    0  0.23887771979E+02  0.20899564198E+02 -0.30500673378E+01  0.59301947492E+02  0.50000006317E+02 0.  0.
         12    1    1    2    0    0 -0.23887771979E+02 -0.20899564198E+02  0.30500673378E+01  0.31886052508E+02  0.00000000000E+00 0. -1.
         11    1    3    3    0    0 -0.90408008421E+00 -0.14229224675E+02 -0.22691275708E+01  0.14437352107E+02  0.51100000000E-03 0. -1.
        -11    1    3    3    0    0  0.64610378174E+01  0.11472806489E+02 -0.60277421726E+01  0.14481159290E+02  0.51100000000E-03 0.  1.
         12    1    3    3    0    0  0.18330814246E+02  0.23655982384E+02  0.52468024056E+01  0.30383436096E+02  0.00000000000E+00 0. -1.
</event>
<event>
 7    1  0.7821043E-012  0.5930195E+02  0.7816164E-02  0.1266605E+00
        -11   -1    0    0    0    0  0.00000000000E+00  0.00000000000E+00  0.45593999997E+02  0.45594000000E+02  0.51100000000E-03 0. -1.
         11   -1    0    0    0    0 -0.00000000000E+00 -0.00000000000E+00 -0.45593999997E+02  0.45594000000E+02  0.51100000000E-03 0.  1.
    9900012    2    1    2    0    0  0.14946149679E+02 -0.99482638528E+00 -0.28148592701E+02  0.59301947550E+02  0.50000006424E+02 0.  0.
         12    1    1    2    0    0 -0.14946149679E+02  0.99482638528E+00  0.28148592701E+02  0.31886052450E+02  0.00000000000E+00 0. -1.
         11    1    3    3    0    0  0.10091917728E+02  0.10519602610E+02  0.68001130388E+01  0.16085719757E+02  0.51100000000E-03 0. -1.
        -11    1    3    3    0    0 -0.68289914612E+01 -0.11895733532E+02 -0.19608540071E+02  0.23929865119E+02  0.51100000000E-03 0.  1.
        -12    1    3    3    0    0  0.11683223412E+02  0.38130453677E+00 -0.15340165669E+02  0.19286362674E+02  0.00000000000E+00 0.  1.
</event>
<event>
 7    1  0.7821043E-012  0.5930185E+02  0.7816164E-02  0.1266605E+00
        -11   -1    0    0    0    0  0.00000000000E+00  0.00000000000E+00  0.45593999997E+02  0.45594000000E+02  0.51100000000E-03 0.  1.
         11   -1    0    0    0    0 -0.00000000000E+00 -0.00000000000E+00 -0.45593999997E+02  0.45594000000E+02  0.51100000000E-03 0. -1.
    9900012    2    1    2    0    0  0.13735087481E+02  0.10109256233E+02  0.26942096692E+02  0.59301854672E+02  0.49999837036E+02 0.  0.
         12    1    1    2    0    0 -0.13735087481E+02 -0.10109256233E+02 -0.26942096692E+02  0.31886145328E+02  0.00000000000E+00 0. -1.
         11    1    3    3    0    0  0.76834997516E+01 -0.98191867490E+01  0.11972474415E+02  0.17285622371E+02  0.51100000000E-03 0. -1.
        -11    1    3    3    0    0  0.35823849255E+01  0.27217371904E+02  0.18944671147E+02  0.33354450681E+02  0.51100000000E-03 0.  1.
        -12    1    3    3    0    0  0.24692028044E+01 -0.72889289215E+01 -0.39750488708E+01  0.86617816203E+01  0.00000000000E+00 0.  1.
</event>
<event>
 7    1  0.7821043E-012  0.5930219E+02  0.7816164E-02  0.1266604E+00
        -11   -1    0    0    0    0  0.00000000000E+00  0.00000000000E+00  0.45593999997E+02  0.45594000000E+02  0.51100000000E-03 0. -1.
         11   -1    0    0    0    0 -0.00000000000E+00 -0.00000000000E+00 -0.45593999997E+02  0.45594000000E+02  0.51100000000E-03 0.  1.
    9900012    2    1    2    0    0  0.30100975115E+02 -0.55793160424E+01 -0.89167100878E+01  0.59302185142E+02  0.50000439732E+02 0.  0.
         12    1    1    2    0    0 -0.30100975115E+02  0.55793160424E+01  0.89167100878E+01  0.31885814858E+02  0.00000000000E+00 0. -1.
         11    1    3    3    0    0  0.22858033086E+01  0.21794988972E+01  0.40458350163E+01  0.51326302661E+01  0.51100000000E-03 0. -1.
        -11    1    3    3    0    0 -0.65026919564E+01 -0.11324473333E+02 -0.14650554359E+02  0.19625683230E+02  0.51100000000E-03 0.  1.
        -12    1    3    3    0    0  0.34317863763E+02  0.35656583930E+01  0.16880092553E+01  0.34543871646E+02  0.00000000000E+00 0.  1.
</event>
<event>
 7    1  0.7821043E-012  0.5930193E+02  0.7816164E-02  0.1266605E+00
        -11   -1    0    0    0    0  0.00000000000E+00  0.00000000000E+00  0.45593999997E+02  0.45594000000E+02  0.51100000000E-03 0.  1.
         11   -1    0    0    0    0 -0.00000000000E+00 -0.00000000000E+00 -0.45593999997E+02  0.45594000000E+02  0.51100000000E-03 0. -1.
    9900012    2    1    2    0    0 -0.84372464198E+00 -0.20845625969E+02 -0.24113684037E+02  0.59301925435E+02  0.49999966091E+02 0.  0.
         12    1    1    2    0    0  0.84372464198E+00  0.20845625969E+02  0.24113684037E+02  0.31886074565E+02  0.00000000000E+00 0. -1.
         11    1    3    3    0    0 -0.62817277887E+01  0.96698626836E+01 -0.16452164793E+02  0.20090795778E+02  0.51100000000E-03 0. -1.
        -11    1    3    3    0    0  0.48569497685E+01 -0.27913687367E+02  0.27476452008E+01  0.28466005303E+02  0.51100000000E-03 0.  1.
        -12    1    3    3    0    0  0.58105337820E+00 -0.26018012856E+01 -0.10409164445E+02  0.10745124355E+02  0.00000000000E+00 0.  1.
</event>
<event>
 7    1  0.7821043E-012  0.5930195E+02  0.7816164E-02  0.1266605E+00
        -11   -1    0    0    0    0  0.00000000000E+00  0.00000000000E+00  0.45593999997E+02  0.45594000000E+02  0.51100000000E-03 0.  1.
         11   -1    0    0    0    0 -0.00000000000E+00 -0.00000000000E+00 -0.45593999997E+02  0.45594000000E+02  0.51100000000E-03 0. -1.
    9900012    2    1    2    0    0  0.11643201840E+02  0.10645029273E+01  0.29665174921E+02  0.59301954170E+02  0.50000018497E+02 0.  0.
         12    1    1    2    0    0 -0.11643201840E+02 -0.10645029273E+01 -0.29665174921E+02  0.31886045830E+02  0.00000000000E+00 0. -1.
         11    1    3    3    0    0  0.13936784664E+02  0.71128429978E+01  0.27572312626E+02  0.31702664337E+02  0.51100000000E-03 0. -1.
        -11    1    3    3    0    0 -0.14148883450E+02 -0.16774263229E+01  0.40519386734E+01  0.14812929124E+02  0.51100000000E-03 0.  1.
         12    1    3    3    0    0  0.11855300626E+02 -0.43709137476E+01 -0.19590763783E+01  0.12786360709E+02  0.00000000000E+00 0. -1.
</event>
<event>
 7    1  0.7821043E-012  0.5930194E+02  0.7816164E-02  0.1266605E+00
        -11   -1    0    0    0    0  0.00000000000E+00  0.00000000000E+00  0.45593999997E+02  0.45594000000E+02  0.51100000000E-03 0. -1.
         11   -1    0    0    0    0 -0.00000000000E+00 -0.00000000000E+00 -0.45593999997E+02  0.45594000000E+02  0.51100000000E-03 0.  1.
    9900012    2    1    2    0    0 -0.29943817252E+02  0.16091370981E+01  0.10839709885E+02  0.59301939971E+02  0.49999992601E+02 0.  0.
         12    1    1    2    0    0  0.29943817252E+02 -0.16091370981E+01 -0.10839709885E+02  0.31886060029E+02  0.00000000000E+00 0. -1.
         11    1    3    3    0    0  0.12538699102E+02  0.59343387451E+01 -0.30716155602E+00  0.13875507198E+02  0.51100000000E-03 0. -1.
        -11    1    3    3    0    0 -0.23874630954E+02  0.12368859717E+01  0.20922432496E+01  0.23998028505E+02  0.51100000000E-03 0.  1.
         12    1    3    3    0    0 -0.18607885401E+02 -0.55620876187E+01  0.90546281912E+01  0.21428404267E+02  0.00000000000E+00 0. -1.
</event>
<event>
 7    1  0.7821043E-012  0.5930199E+02  0.7816164E-02  0.1266605E+00
        -11   -1    0    0    0    0  0.00000000000E+00  0.00000000000E+00  0.45593999997E+02  0.45594000000E+02  0.51100000000E-03 0.  1.
         11   -1    0    0    0    0 -0.00000000000E+00 -0.00000000000E+00 -0.45593999997E+02  0.45594000000E+02  0.51100000000E-03 0. -1.
    9900012    2    1    2    0    0 -0.27317242641E+02 -0.16445248288E+02 -0.19983136437E+00  0.59301986305E+02  0.50000077104E+02 0.  0.
         12    1    1    2    0    0  0.27317242641E+02  0.16445248288E+02  0.19983136437E+00  0.31886013695E+02  0.00000000000E+00 0. -1.
         11    1    3    3    0    0 -0.63533840810E+01  0.10698907740E+02 -0.45100714499E+01  0.13235288469E+02  0.51100000000E-03 0. -1.
        -11    1    3    3    0    0 -0.18194624197E+02 -0.17831836893E+02  0.16595285663E+02  0.30404313233E+02  0.51100000000E-03 0.  1.
        -12    1    3    3    0    0 -0.27692343627E+01 -0.93123191355E+01 -0.12285045577E+02  0.15662384603E+02  0.00000000000E+00 0.  1.
</event>
<event>
 7    1  0.7821043E-012  0.5930193E+02  0.7816164E-02  0.1266605E+00
        -11   -1    0    0    0    0  0.00000000000E+00  0.00000000000E+00  0.45593999997E+02  0.45594000000E+02  0.51100000000E-03 0.  1.
         11   -1    0    0    0    0 -0.00000000000E+00 -0.00000000000E+00 -0.45593999997E+02  0.45594000000E+02  0.51100000000E-03 0. -1.
    9900012    2    1    2    0    0 -0.11814381246E+02  0.39140011729E+00  0.29613994299E+02  0.59301930054E+02  0.49999974515E+02 0.  0.
         12    1    1    2    0    0  0.11814381246E+02 -0.39140011729E+00 -0.29613994299E+02  0.31886069946E+02  0.00000000000E+00 0. -1.
         11    1    3    3    0    0  0.11797965745E+02 -0.46780396945E+01  0.24748561274E+02  0.27813078515E+02  0.51100000000E-03 0. -1.
        -11    1    3    3    0    0 -0.10896091463E+02 -0.68148051201E+01  0.57103451246E+01  0.14063229348E+02  0.51100000000E-03 0.  1.
         12    1    3    3    0    0 -0.12716255529E+02  0.11884244932E+02 -0.84491209953E+00  0.17425622190E+02  0.00000000000E+00 0. -1.
</event>
<event>
 7    1  0.7821043E-012  0.5930194E+02  0.7816164E-02  0.1266605E+00
        -11   -1    0    0    0    0  0.00000000000E+00  0.00000000000E+00  0.45593999997E+02  0.45594000000E+02  0.51100000000E-03 0.  1.
         11   -1    0    0    0    0 -0.00000000000E+00 -0.00000000000E+00 -0.45593999997E+02  0.45594000000E+02  0.51100000000E-03 0. -1.
    9900012    2    1    2    0    0 -0.10269595024E+02  0.77683961487E+01  0.29170336396E+02  0.59301935863E+02  0.49999985110E+02 0.  0.
         12    1    1    2    0    0  0.10269595024E+02 -0.77683961487E+01 -0.29170336396E+02  0.31886064137E+02  0.00000000000E+00 0. -1.
         11    1    3    3    0    0 -0.13496352483E+02  0.92818605575E+01 -0.37952487808E+01  0.16813934083E+02  0.51100000000E-03 0. -1.
        -11    1    3    3    0    0  0.12000007455E+02 -0.45477041898E+01  0.30181437052E+02  0.32796355515E+02  0.51100000000E-03 0.  1.
        -12    1    3    3    0    0 -0.87732499960E+01  0.30342397810E+01  0.27841481252E+01  0.96916462649E+01  0.00000000000E+00 0.  1.
</event>
<event>
 7    1  0.7821043E-012  0.5930194E+02  0.7816164E-02  0.1266605E+00
        -11   -1    0    0    0    0  0.00000000000E+00  0.00000000000E+00  0.45593999997E+02  0.45594000000E+02  0.51100000000E-03 0.  1.
         11   -1    0    0    0    0 -0.00000000000E+00 -0.00000000000E+00 -0.45593999997E+02  0.45594000000E+02  0.51100000000E-03 0. -1.
    9900012    2    1    2    0    0  0.24722903504E+02 -0.16967359891E+02  0.10844707957E+02  0.59301937998E+02  0.49999989002E+02 0.  0.
         12    1    1    2    0    0 -0.24722903504E+02  0.16967359891E+02 -0.10844707957E+02  0.31886062002E+02  0.00000000000E+00 0. -1.
         11    1    3    3    0    0 -0.54062390837E+01  0.67086469390E+00  0.20120312805E+01  0.58073875885E+01  0.51100000000E-03 0. -1.
        -11    1    3    3    0    0  0.12355774078E+02 -0.18620393284E+02 -0.12583778249E+02  0.25646357917E+02  0.51100000000E-03 0.  1.
        -12    1    3    3    0    0  0.17773368510E+02  0.98216869937E+00  0.21416454925E+02  0.27848192492E+02  0.00000000000E+00 0.  1.
</event>
<event>
 7    1  0.7821043E-012  0.5930194E+02  0.7816164E-02  0.1266605E+00
        -11   -1    0    0    0    0  0.00000000000E+00  0.00000000000E+00  0.45593999997E+02  0.45594000000E+02  0.51100000000E-03 0.  1.
         11   -1    0    0    0    0 -0.00000000000E+00 -0.00000000000E+00 -0.45593999997E+02  0.45594000000E+02  0.51100000000E-03 0. -1.
    9900012    2    1    2    0    0 -0.16125431648E+02  0.27000714563E+02  0.52585694474E+01  0.59301942147E+02  0.49999996571E+02 0.  0.
         12    1    1    2    0    0  0.16125431648E+02 -0.27000714563E+02 -0.52585694474E+01  0.31886057853E+02  0.00000000000E+00 0. -1.
         11    1    3    3    0    0  0.11057383710E+01 -0.34877429069E+01 -0.53144699864E+00  0.36972211326E+01  0.51100000000E-03 0. -1.
        -11    1    3    3    0    0 -0.28832336542E+02  0.28685569020E+02  0.11890530631E+02  0.42373933254E+02  0.51100000000E-03 0.  1.
        -12    1    3    3    0    0  0.11601166523E+02  0.18028884499E+01 -0.61005141852E+01  0.13230787761E+02  0.00000000000E+00 0.  1.
</event>
<event>
 7    1  0.7821043E-012  0.5930200E+02  0.7816164E-02  0.1266605E+00
        -11   -1    0    0    0    0  0.00000000000E+00  0.00000000000E+00  0.45593999997E+02  0.45594000000E+02  0.51100000000E-03 0.  1.
         11   -1    0    0    0    0 -0.00000000000E+00 -0.00000000000E+00 -0.45593999997E+02  0.45594000000E+02  0.51100000000E-03 0. -1.
    9900012    2    1    2    0    0  0.31384937225E+02  0.52041016140E+01  0.21493727413E+01  0.59302003678E+02  0.50000108788E+02 0.  0.
         12    1    1    2    0    0 -0.31384937225E+02 -0.52041016140E+01 -0.21493727413E+01  0.31885996322E+02  0.00000000000E+00 0. -1.
         11    1    3    3    0    0  0.25450591939E+02  0.90535726577E+01 -0.63556474930E+01  0.27750568701E+02  0.51100000000E-03 0. -1.
        -11    1    3    3    0    0  0.64771016654E+01  0.32331329878E+00  0.19089589370E+02  0.20161096201E+02  0.51100000000E-03 0.  1.
        -12    1    3    3    0    0 -0.54275637884E+00 -0.41727843425E+01 -0.10584569136E+02  0.11390338776E+02  0.00000000000E+00 0.  1.
</event>
<event>
 7    1  0.7821043E-012  0.5930175E+02  0.7816164E-02  0.1266605E+00
        -11   -1    0    0    0    0  0.00000000000E+00  0.00000000000E+00  0.45593999997E+02  0.45594000000E+02  0.51100000000E-03 0.  1.
         11   -1    0    0    0    0 -0.00000000000E+00 -0.00000000000E+00 -0.45593999997E+02  0.45594000000E+02  0.51100000000E-03 0. -1.
    9900012    2    1    2    0    0  0.10178516729E+02  0.58975447415E+01  0.29636965046E+02  0.59301750081E+02  0.49999646287E+02 0.  0.
         12    1    1    2    0    0 -0.10178516729E+02 -0.58975447415E+01 -0.29636965046E+02  0.31886249919E+02  0.00000000000E+00 0. -1.
         11    1    3    3    0    0 -0.54330956207E+01 -0.96531701694E+01 -0.22390421990E+01  0.11301129703E+02  0.51100000000E-03 0. -1.
        -11    1    3    3    0    0  0.13436538931E+02  0.22849658975E+01  0.31755923153E+02  0.34557203347E+02  0.51100000000E-03 0.  1.
         12    1    3    3    0    0  0.21750734185E+01  0.13265749013E+02  0.12008409112E+00  0.13443417030E+02  0.00000000000E+00 0. -1.
</event>
<event>
 7    1  0.7821043E-012  0.5930197E+02  0.7816164E-02  0.1266605E+00
        -11   -1    0    0    0    0  0.00000000000E+00  0.00000000000E+00  0.45593999997E+02  0.45594000000E+02  0.51100000000E-03 0. -1.
         11   -1    0    0    0    0 -0.00000000000E+00 -0.00000000000E+00 -0.45593999997E+02  0.45594000000E+02  0.51100000000E-03 0.  1.
    9900012    2    1    2    0    0 -0.22977849975E+02  0.87277483376E+01 -0.20311658710E+02  0.59301973906E+02  0.50000054490E+02 0.  0.
         12    1    1    2    0    0  0.22977849975E+02 -0.87277483376E+01  0.20311658710E+02  0.31886026094E+02  0.00000000000E+00 0. -1.
         11    1    3    3    0    0  0.92862120941E+01 -0.82495736520E+01 -0.86869554627E+01  0.15157585427E+02  0.51100000000E-03 0. -1.
        -11    1    3    3    0    0 -0.17399818855E+02  0.20601921795E+02 -0.99901449052E+01  0.28757535940E+02  0.51100000000E-03 0.  1.
         12    1    3    3    0    0 -0.14864243214E+02 -0.36245998058E+01 -0.16345583421E+01  0.15386852539E+02  0.00000000000E+00 0. -1.
</event>
<event>
 7    1  0.7821043E-012  0.5930193E+02  0.7816164E-02  0.1266605E+00
        -11   -1    0    0    0    0  0.00000000000E+00  0.00000000000E+00  0.45593999997E+02  0.45594000000E+02  0.51100000000E-03 0. -1.
         11   -1    0    0    0    0 -0.00000000000E+00 -0.00000000000E+00 -0.45593999997E+02  0.45594000000E+02  0.51100000000E-03 0.  1.
    9900012    2    1    2    0    0 -0.17476664133E+02 -0.10832585106E+02 -0.24370938549E+02  0.59301931960E+02  0.49999977991E+02 0.  0.
         12    1    1    2    0    0  0.17476664133E+02  0.10832585106E+02  0.24370938549E+02  0.31886068040E+02  0.00000000000E+00 0. -1.
         11    1    3    3    0    0  0.13159265502E+02  0.60960034645E+01 -0.11091238456E+02  0.18257685985E+02  0.51100000000E-03 0. -1.
        -11    1    3    3    0    0 -0.62530830349E+01 -0.11530517649E+02 -0.83876365414E+00  0.13143721293E+02  0.51100000000E-03 0.  1.
         12    1    3    3    0    0 -0.24382846601E+02 -0.53980709212E+01 -0.12440936439E+02  0.27900524681E+02  0.00000000000E+00 0. -1.
</event>
<event>
 7    1  0.7821043E-012  0.5930194E+02  0.7816164E-02  0.1266605E+00
        -11   -1    0    0    0    0  0.00000000000E+00  0.00000000000E+00  0.45593999997E+02  0.45594000000E+02  0.51100000000E-03 0.  1.
         11   -1    0    0    0    0 -0.00000000000E+00 -0.00000000000E+00 -0.45593999997E+02  0.45594000000E+02  0.51100000000E-03 0. -1.
    9900012    2    1    2    0    0 -0.86047243141E+01  0.29025197574E+02 -0.10010873019E+02  0.59301937945E+02  0.49999988907E+02 0.  0.
         12    1    1    2    0    0  0.86047243141E+01 -0.29025197574E+02  0.10010873019E+02  0.31886062055E+02  0.00000000000E+00 0. -1.
         11    1    3    3    0    0 -0.73217409666E+01 -0.28467054184E+01 -0.66693224649E+01  0.10304925275E+02  0.51100000000E-03 0. -1.
        -11    1    3    3    0    0  0.12197785892E+02  0.33050515862E+02 -0.39552900338E+01  0.35450908295E+02  0.51100000000E-03 0.  1.
        -12    1    3    3    0    0 -0.13480769240E+02 -0.11786128697E+01  0.61373947944E+00  0.13546104375E+02  0.00000000000E+00 0.  1.
</event>
<event>
 7    1  0.7821043E-012  0.5930186E+02  0.7816164E-02  0.1266605E+00
        -11   -1    0    0    0    0  0.00000000000E+00  0.00000000000E+00  0.45593999997E+02  0.45594000000E+02  0.51100000000E-03 0.  1.
         11   -1    0    0    0    0 -0.00000000000E+00 -0.00000000000E+00 -0.45593999997E+02  0.45594000000E+02  0.51100000000E-03 0. -1.
    9900012    2    1    2    0    0 -0.19077710754E+02 -0.23114434712E+02  0.10885310575E+02  0.59301856834E+02  0.49999840980E+02 0.  0.
         12    1    1    2    0    0  0.19077710754E+02  0.23114434712E+02 -0.10885310575E+02  0.31886143166E+02  0.00000000000E+00 0. -1.
         11    1    3    3    0    0  0.80382238635E+01 -0.48617864117E+01  0.10691052208E+02  0.14231957264E+02  0.51100000000E-03 0.  1.
        -11    1    3    3    0    0 -0.99197844865E+01 -0.10684676536E+02 -0.14991771654E+02  0.20912141319E+02  0.51100000000E-03 0. -1.
        -12    1    3    3    0    0 -0.17196150131E+02 -0.75679717640E+01  0.15186030021E+02  0.24157758252E+02  0.00000000000E+00 0.  1.
</event>
<event>
 7    1  0.7821043E-012  0.5930195E+02  0.7816164E-02  0.1266605E+00
        -11   -1    0    0    0    0  0.00000000000E+00  0.00000000000E+00  0.45593999997E+02  0.45594000000E+02  0.51100000000E-03 0.  1.
         11   -1    0    0    0    0 -0.00000000000E+00 -0.00000000000E+00 -0.45593999997E+02  0.45594000000E+02  0.51100000000E-03 0. -1.
    9900012    2    1    2    0    0  0.46418974475E+01  0.50658961298E+01  0.31136945262E+02  0.59301954843E+02  0.50000019725E+02 0.  0.
         12    1    1    2    0    0 -0.46418974475E+01 -0.50658961298E+01 -0.31136945262E+02  0.31886045157E+02  0.00000000000E+00 0. -1.
         11    1    3    3    0    0  0.14035408173E+02  0.11696169957E+02  0.51554556652E+00  0.18277277197E+02  0.51100000000E-03 0. -1.
        -11    1    3    3    0    0 -0.12367449113E+02  0.28093183892E+01  0.28073009015E+02  0.30804868167E+02  0.51100000000E-03 0.  1.
         12    1    3    3    0    0  0.29739383878E+01 -0.94395922160E+01  0.25483906800E+01  0.10219809479E+02  0.00000000000E+00 0. -1.
</event>
<event>
 7    1  0.7821043E-012  0.5930195E+02  0.7816164E-02  0.1266605E+00
        -11   -1    0    0    0    0  0.00000000000E+00  0.00000000000E+00  0.45593999997E+02  0.45594000000E+02  0.51100000000E-03 0.  1.
         11   -1    0    0    0    0 -0.00000000000E+00 -0.00000000000E+00 -0.45593999997E+02  0.45594000000E+02  0.51100000000E-03 0. -1.
    9900012    2    1    2    0    0  0.55155318900E+01 -0.26611175117E+02  0.16677660249E+02  0.59301951569E+02  0.50000013754E+02 0.  0.
         12    1    1    2    0    0 -0.55155318900E+01  0.26611175117E+02 -0.16677660249E+02  0.31886048431E+02  0.00000000000E+00 0. -1.
         11    1    3    3    0    0 -0.70383550400E+01 -0.17900275533E+02 -0.11106038830E+02  0.22210412076E+02  0.51100000000E-03 0.  1.
        -11    1    3    3    0    0  0.14586537185E+02 -0.10609861880E+02  0.28922417892E+02  0.34085810731E+02  0.51100000000E-03 0. -1.
         12    1    3    3    0    0 -0.20326502547E+01  0.18989622960E+01 -0.11387188130E+01  0.30057287626E+01  0.00000000000E+00 0. -1.
</event>
<event>
 7    1  0.7821043E-012  0.5930196E+02  0.7816164E-02  0.1266605E+00
        -11   -1    0    0    0    0  0.00000000000E+00  0.00000000000E+00  0.45593999997E+02  0.45594000000E+02  0.51100000000E-03 0.  1.
         11   -1    0    0    0    0 -0.00000000000E+00 -0.00000000000E+00 -0.45593999997E+02  0.45594000000E+02  0.51100000000E-03 0. -1.
    9900012    2    1    2    0    0 -0.79853627787E+01 -0.20932864254E+02  0.22688520804E+02  0.59301956017E+02  0.50000021866E+02 0.  0.
         12    1    1    2    0    0  0.79853627787E+01  0.20932864254E+02 -0.22688520804E+02  0.31886043983E+02  0.00000000000E+00 0. -1.
         11    1    3    3    0    0  0.57184181121E+01 -0.76593344825E+01 -0.14786869588E+01  0.96722399579E+01  0.51100000000E-03 0. -1.
        -11    1    3    3    0    0 -0.38042614352E+01  0.13908358811E+02  0.79441827432E+01  0.16462833584E+02  0.51100000000E-03 0.  1.
        -12    1    3    3    0    0 -0.98995194555E+01 -0.27181888583E+02  0.16223025019E+02  0.33166882476E+02  0.00000000000E+00 0.  1.
</event>
<event>
 7    1  0.7821043E-012  0.5930198E+02  0.7816164E-02  0.1266605E+00
        -11   -1    0    0    0    0  0.00000000000E+00  0.00000000000E+00  0.45593999997E+02  0.45594000000E+02  0.51100000000E-03 0.  1.
         11   -1    0    0    0    0 -0.00000000000E+00 -0.00000000000E+00 -0.45593999997E+02  0.45594000000E+02  0.51100000000E-03 0. -1.
    9900012    2    1    2    0    0  0.15772064436E+02  0.19681242850E+02  0.19509208289E+02  0.59301975714E+02  0.50000057788E+02 0.  0.
         12    1    1    2    0    0 -0.15772064436E+02 -0.19681242850E+02 -0.19509208289E+02  0.31886024286E+02  0.00000000000E+00 0. -1.
         11    1    3    3    0    0 -0.76434090908E+01  0.51271766686E+01 -0.11481772422E+02  0.14715323351E+02  0.51100000000E-03 0. -1.
        -11    1    3    3    0    0  0.15049108001E+02  0.13508256674E+02  0.29883357979E+02  0.36082734574E+02  0.51100000000E-03 0.  1.
        -12    1    3    3    0    0  0.83663655257E+01  0.10458095076E+01  0.11076227323E+01  0.85039177885E+01  0.00000000000E+00 0.  1.
</event>
<event>
 7    1  0.7821043E-012  0.5930196E+02  0.7816164E-02  0.1266605E+00
        -11   -1    0    0    0    0  0.00000000000E+00  0.00000000000E+00  0.45593999997E+02  0.45594000000E+02  0.51100000000E-03 0.  1.
         11   -1    0    0    0    0 -0.00000000000E+00 -0.00000000000E+00 -0.45593999997E+02  0.45594000000E+02  0.51100000000E-03 0. -1.
    9900012    2    1    2    0    0 -0.19128976326E+02 -0.23721988259E+02  0.93845071834E+01  0.59301961718E+02  0.50000032263E+02 0.  0.
         12    1    1    2    0    0  0.19128976326E+02  0.23721988259E+02 -0.93845071834E+01  0.31886038282E+02  0.00000000000E+00 0. -1.
         11    1    3    3    0    0 -0.13907848720E+02  0.95751601526E+01 -0.62252945978E+01  0.17996284090E+02  0.51100000000E-03 0. -1.
        -11    1    3    3    0    0  0.43270756440E+01 -0.18820631466E+02  0.14074092697E+02  0.23896021383E+02  0.51100000000E-03 0.  1.
        -12    1    3    3    0    0 -0.95482032504E+01 -0.14476516945E+02  0.15357090838E+01  0.17409656245E+02  0.00000000000E+00 0.  1.
</event>
<event>
 7    1  0.7821043E-012  0.5930194E+02  0.7816164E-02  0.1266605E+00
        -11   -1    0    0    0    0  0.00000000000E+00  0.00000000000E+00  0.45593999997E+02  0.45594000000E+02  0.51100000000E-03 0.  1.
         11   -1    0    0    0    0 -0.00000000000E+00 -0.00000000000E+00 -0.45593999997E+02  0.45594000000E+02  0.51100000000E-03 0. -1.
    9900012    2    1    2    0    0 -0.29461009874E+02  0.83260293912E+01  0.89133097883E+01  0.59301937848E+02  0.49999988729E+02 0.  0.
         12    1    1    2    0    0  0.29461009874E+02 -0.83260293912E+01 -0.89133097883E+01  0.31886062152E+02  0.00000000000E+00 0. -1.
         11    1    3    3    0    0 -0.25516586438E+02  0.16890068772E+02  0.21115728191E+02  0.37178550051E+02  0.51100000000E-03 0. -1.
        -11    1    3    3    0    0 -0.40277984579E+01 -0.10267838431E+02 -0.13202347026E+01  0.11108316091E+02  0.51100000000E-03 0.  1.
         12    1    3    3    0    0  0.83375021915E-01  0.17037990497E+01 -0.10882183700E+02  0.11015071706E+02  0.00000000000E+00 0. -1.
</event>
<event>
 7    1  0.7821043E-012  0.5930194E+02  0.7816164E-02  0.1266605E+00
        -11   -1    0    0    0    0  0.00000000000E+00  0.00000000000E+00  0.45593999997E+02  0.45594000000E+02  0.51100000000E-03 0. -1.
         11   -1    0    0    0    0 -0.00000000000E+00 -0.00000000000E+00 -0.45593999997E+02  0.45594000000E+02  0.51100000000E-03 0.  1.
    9900012    2    1    2    0    0 -0.22104678773E+02 -0.17459634972E+02 -0.14942050241E+02  0.59301944389E+02  0.50000000659E+02 0.  0.
         12    1    1    2    0    0  0.22104678773E+02  0.17459634972E+02  0.14942050241E+02  0.31886055611E+02  0.00000000000E+00 0. -1.
         11    1    3    3    0    0 -0.60851070873E+01 -0.49058177923E+01  0.89511613471E+01  0.11883554443E+02  0.51100000000E-03 0.  1.
        -11    1    3    3    0    0  0.36693888882E+01  0.11291248770E+01 -0.23112370658E+02  0.23429063479E+02  0.51100000000E-03 0. -1.
        -12    1    3    3    0    0 -0.19688960574E+02 -0.13682942056E+02 -0.78084093022E+00  0.23989326467E+02  0.00000000000E+00 0.  1.
</event>
<event>
 7    1  0.7821043E-012  0.5930195E+02  0.7816164E-02  0.1266605E+00
        -11   -1    0    0    0    0  0.00000000000E+00  0.00000000000E+00  0.45593999997E+02  0.45594000000E+02  0.51100000000E-03 0.  1.
         11   -1    0    0    0    0 -0.00000000000E+00 -0.00000000000E+00 -0.45593999997E+02  0.45594000000E+02  0.51100000000E-03 0. -1.
    9900012    2    1    2    0    0 -0.15642006202E+02 -0.25471798797E+02  0.11101148849E+02  0.59301946657E+02  0.50000004796E+02 0.  0.
         12    1    1    2    0    0  0.15642006202E+02  0.25471798797E+02 -0.11101148849E+02  0.31886053343E+02  0.00000000000E+00 0. -1.
         11    1    3    3    0    0 -0.78299789550E+01 -0.27110621649E+01 -0.75784131117E+01  0.11229014830E+02  0.51100000000E-03 0. -1.
        -11    1    3    3    0    0 -0.88498837627E+01 -0.24879653606E+02  0.27982672529E+02  0.38475285162E+02  0.51100000000E-03 0.  1.
        -12    1    3    3    0    0  0.10378565153E+01  0.21189169739E+01 -0.93031105677E+01  0.95976466659E+01  0.00000000000E+00 0.  1.
</event>
<event>
 7    1  0.7821043E-012  0.5930195E+02  0.7816164E-02  0.1266605E+00
        -11   -1    0    0    0    0  0.00000000000E+00  0.00000000000E+00  0.45593999997E+02  0.45594000000E+02  0.51100000000E-03 0.  1.
         11   -1    0    0    0    0 -0.00000000000E+00 -0.00000000000E+00 -0.45593999997E+02  0.45594000000E+02  0.51100000000E-03 0. -1.
    9900012    2    1    2    0    0  0.97900929833E+01  0.30319813109E+02  0.12583298454E+01  0.59301946911E+02  0.50000005259E+02 0.  0.
         12    1    1    2    0    0 -0.97900929833E+01 -0.30319813109E+02 -0.12583298454E+01  0.31886053089E+02  0.00000000000E+00 0. -1.
         11    1    3    3    0    0 -0.18526144648E+01 -0.70655280318E+01  0.63745827738E+01  0.96948013143E+01  0.51100000000E-03 0. -1.
        -11    1    3    3    0    0  0.12006585912E+02  0.26722032239E+02 -0.16811298610E+02  0.33776395211E+02  0.51100000000E-03 0.  1.
         12    1    3    3    0    0 -0.36387846354E+00  0.10663308902E+02  0.11695045682E+02  0.15830750386E+02  0.00000000000E+00 0. -1.
</event>
<event>
 7    1  0.7821043E-012  0.5930195E+02  0.7816164E-02  0.1266605E+00
        -11   -1    0    0    0    0  0.00000000000E+00  0.00000000000E+00  0.45593999997E+02  0.45594000000E+02  0.51100000000E-03 0. -1.
         11   -1    0    0    0    0 -0.00000000000E+00 -0.00000000000E+00 -0.45593999997E+02  0.45594000000E+02  0.51100000000E-03 0.  1.
    9900012    2    1    2    0    0  0.16664527209E+02 -0.26754973180E+02 -0.48150748191E+01  0.59301952856E+02  0.50000016100E+02 0.  0.
         12    1    1    2    0    0 -0.16664527209E+02  0.26754973180E+02  0.48150748191E+01  0.31886047144E+02  0.00000000000E+00 0. -1.
         11    1    3    3    0    0  0.16117858233E+02 -0.11419785801E+01 -0.10137864123E+02  0.19075265617E+02  0.51100000000E-03 0.  1.
        -11    1    3    3    0    0 -0.50828083628E+01 -0.28152161971E+02  0.12097092417E+02  0.31059922886E+02  0.51100000000E-03 0. -1.
         12    1    3    3    0    0  0.56294773386E+01  0.25391673707E+01 -0.67743031129E+01  0.91667643533E+01  0.00000000000E+00 0. -1.
</event>
<event>
 7    1  0.7821043E-012  0.5930194E+02  0.7816164E-02  0.1266605E+00
        -11   -1    0    0    0    0  0.00000000000E+00  0.00000000000E+00  0.45593999997E+02  0.45594000000E+02  0.51100000000E-03 0.  1.
         11   -1    0    0    0    0 -0.00000000000E+00 -0.00000000000E+00 -0.45593999997E+02  0.45594000000E+02  0.51100000000E-03 0. -1.
    9900012    2    1    2    0    0  0.56667715379E+00  0.25036253703E+02  0.19737931660E+02  0.59301936137E+02  0.49999985609E+02 0.  0.
         12    1    1    2    0    0 -0.56667715379E+00 -0.25036253703E+02 -0.19737931660E+02  0.31886063863E+02  0.00000000000E+00 0. -1.
         11    1    3    3    0    0 -0.19736198407E+02  0.11406558768E+02  0.29938910097E+01  0.22991095974E+02  0.51100000000E-03 0. -1.
        -11    1    3    3    0    0  0.15473162471E+02  0.16430491800E+02  0.47255236810E+01  0.23058846285E+02  0.51100000000E-03 0.  1.
        -12    1    3    3    0    0  0.48297130890E+01 -0.28007968649E+01  0.12018516969E+02  0.13251993878E+02  0.00000000000E+00 0.  1.
</event>
<event>
 7    1  0.7821043E-012  0.5930195E+02  0.7816164E-02  0.1266605E+00
        -11   -1    0    0    0    0  0.00000000000E+00  0.00000000000E+00  0.45593999997E+02  0.45594000000E+02  0.51100000000E-03 0.  1.
         11   -1    0    0    0    0 -0.00000000000E+00 -0.00000000000E+00 -0.45593999997E+02  0.45594000000E+02  0.51100000000E-03 0. -1.
    9900012    2    1    2    0    0  0.61307727788E+01  0.53133594617E+01  0.30836700386E+02  0.59301948907E+02  0.50000008898E+02 0.  0.
         12    1    1    2    0    0 -0.61307727788E+01 -0.53133594617E+01 -0.30836700386E+02  0.31886051093E+02  0.00000000000E+00 0. -1.
         11    1    3    3    0    0 -0.17860246982E+02  0.96902137687E+01  0.10507046844E+02  0.22875460624E+02  0.51100000000E-03 0. -1.
        -11    1    3    3    0    0  0.21518919170E+02 -0.70674628772E+01  0.87451689951E+01  0.24279433576E+02  0.51100000000E-03 0.  1.
         12    1    3    3    0    0  0.24721005904E+01  0.26906085703E+01  0.11584484547E+02  0.12147054706E+02  0.00000000000E+00 0. -1.
</event>
<event>
 7    1  0.7821043E-012  0.5930195E+02  0.7816164E-02  0.1266605E+00
        -11   -1    0    0    0    0  0.00000000000E+00  0.00000000000E+00  0.45593999997E+02  0.45594000000E+02  0.51100000000E-03 0. -1.
         11   -1    0    0    0    0 -0.00000000000E+00 -0.00000000000E+00 -0.45593999997E+02  0.45594000000E+02  0.51100000000E-03 0.  1.
    9900012    2    1    2    0    0 -0.22334456813E+01  0.24956924955E+02 -0.19720142597E+02  0.59301946515E+02  0.50000004536E+02 0.  0.
         12    1    1    2    0    0  0.22334456813E+01 -0.24956924955E+02  0.19720142597E+02  0.31886053485E+02  0.00000000000E+00 0. -1.
         11    1    3    3    0    0  0.70608874560E+01 -0.41626031541E+01  0.55696726086E+01  0.99098259274E+01  0.51100000000E-03 0. -1.
        -11    1    3    3    0    0 -0.14885001641E+02  0.23968586142E+01 -0.78749423625E+01  0.17009495070E+02  0.51100000000E-03 0.  1.
         12    1    3    3    0    0  0.55906685039E+01  0.26722669495E+02 -0.17414872843E+02  0.32382625517E+02  0.00000000000E+00 0. -1.
</event>
<event>
 7    1  0.7821043E-012  0.5930194E+02  0.7816164E-02  0.1266605E+00
        -11   -1    0    0    0    0  0.00000000000E+00  0.00000000000E+00  0.45593999997E+02  0.45594000000E+02  0.51100000000E-03 0.  1.
         11   -1    0    0    0    0 -0.00000000000E+00 -0.00000000000E+00 -0.45593999997E+02  0.45594000000E+02  0.51100000000E-03 0. -1.
    9900012    2    1    2    0    0 -0.22976917231E+02  0.17710727624E+02  0.13233001587E+02  0.59301938321E+02  0.49999989592E+02 0.  0.
         12    1    1    2    0    0  0.22976917231E+02 -0.17710727624E+02 -0.13233001587E+02  0.31886061679E+02  0.00000000000E+00 0. -1.
         11    1    3    3    0    0 -0.20547248565E+02 -0.37808608335E+01 -0.27211540288E+01  0.21068673707E+02  0.51100000000E-03 0. -1.
        -11    1    3    3    0    0  0.61918681872E+01  0.18452990267E+02 -0.43291325033E+00  0.19468936684E+02  0.51100000000E-03 0.  1.
        -12    1    3    3    0    0 -0.86215368525E+01  0.30385981903E+01  0.16387068866E+02  0.18764327931E+02  0.00000000000E+00 0.  1.
</event>
<event>
 7    1  0.7821043E-012  0.5930197E+02  0.7816164E-02  0.1266605E+00
        -11   -1    0    0    0    0  0.00000000000E+00  0.00000000000E+00  0.45593999997E+02  0.45594000000E+02  0.51100000000E-03 0.  1.
         11   -1    0    0    0    0 -0.00000000000E+00 -0.00000000000E+00 -0.45593999997E+02  0.45594000000E+02  0.51100000000E-03 0. -1.
    9900012    2    1    2    0    0 -0.18209219627E+01  0.23300228489E+02  0.21691076157E+02  0.59301965608E+02  0.50000039357E+02 0.  0.
         12    1    1    2    0    0  0.18209219627E+01 -0.23300228489E+02 -0.21691076157E+02  0.31886034392E+02  0.00000000000E+00 0. -1.
         11    1    3    3    0    0 -0.53082700193E+01  0.82115978715E+01  0.32239993171E+02  0.33690135502E+02  0.51100000000E-03 0. -1.
        -11    1    3    3    0    0 -0.31572613979E-01  0.17765284065E+02 -0.48813280406E+01  0.18423725965E+02  0.51100000000E-03 0.  1.
        -12    1    3    3    0    0  0.35189206706E+01 -0.26766534481E+01 -0.56675889732E+01  0.71881041406E+01  0.00000000000E+00 0.  1.
</event>
<event>
 7    1  0.7821043E-012  0.5930193E+02  0.7816164E-02  0.1266605E+00
        -11   -1    0    0    0    0  0.00000000000E+00  0.00000000000E+00  0.45593999997E+02  0.45594000000E+02  0.51100000000E-03 0. -1.
         11   -1    0    0    0    0 -0.00000000000E+00 -0.00000000000E+00 -0.45593999997E+02  0.45594000000E+02  0.51100000000E-03 0.  1.
    9900012    2    1    2    0    0 -0.82725496826E+01  0.29545952392E+02 -0.86788712688E+01  0.59301934273E+02  0.49999982210E+02 0.  0.
         12    1    1    2    0    0  0.82725496826E+01 -0.29545952392E+02  0.86788712688E+01  0.31886065727E+02  0.00000000000E+00 0. -1.
         11    1    3    3    0    0 -0.42982713320E+01  0.55154816601E+01  0.24370200901E+01  0.74050483839E+01  0.51100000000E-03 0. -1.
        -11    1    3    3    0    0  0.12748921016E+02  0.27879108107E+02  0.13516971283E+01  0.30685611307E+02  0.51100000000E-03 0.  1.
        -12    1    3    3    0    0 -0.16723199367E+02 -0.38486373746E+01 -0.12467588487E+02  0.21211274582E+02  0.00000000000E+00 0.  1.
</event>
<event>
 7    1  0.7821043E-012  0.5930197E+02  0.7816164E-02  0.1266605E+00
        -11   -1    0    0    0    0  0.00000000000E+00  0.00000000000E+00  0.45593999997E+02  0.45594000000E+02  0.51100000000E-03 0.  1.
         11   -1    0    0    0    0 -0.00000000000E+00 -0.00000000000E+00 -0.45593999997E+02  0.45594000000E+02  0.51100000000E-03 0. -1.
    9900012    2    1    2    0    0  0.58460015701E+01 -0.45468795942E+01  0.31014015240E+02  0.59301968737E+02  0.50000045064E+02 0.  0.
         12    1    1    2    0    0 -0.58460015701E+01  0.45468795942E+01 -0.31014015240E+02  0.31886031263E+02  0.00000000000E+00 0. -1.
         11    1    3    3    0    0  0.40200862886E+01 -0.83192644494E+01 -0.11628066144E+01  0.93125385492E+01  0.51100000000E-03 0. -1.
        -11    1    3    3    0    0 -0.16018220022E+02  0.10537463868E+02  0.16150762254E+02  0.25069276796E+02  0.51100000000E-03 0.  1.
        -12    1    3    3    0    0  0.17844135304E+02 -0.67650790126E+01  0.16026059600E+02  0.24920153392E+02  0.00000000000E+00 0.  1.
</event>
<event>
 7    1  0.7821043E-012  0.5930194E+02  0.7816164E-02  0.1266605E+00
        -11   -1    0    0    0    0  0.00000000000E+00  0.00000000000E+00  0.45593999997E+02  0.45594000000E+02  0.51100000000E-03 0. -1.
         11   -1    0    0    0    0 -0.00000000000E+00 -0.00000000000E+00 -0.45593999997E+02  0.45594000000E+02  0.51100000000E-03 0.  1.
    9900012    2    1    2    0    0  0.20290323515E+02 -0.24172719968E+01 -0.24478156814E+02  0.59301943592E+02  0.49999999205E+02 0.  0.
         12    1    1    2    0    0 -0.20290323515E+02  0.24172719968E+01  0.24478156814E+02  0.31886056408E+02  0.00000000000E+00 0. -1.
         11    1    3    3    0    0 -0.19824017859E+01  0.25489844960E+01  0.12400938046E+02  0.12814464619E+02  0.51100000000E-03 0. -1.
        -11    1    3    3    0    0 -0.90655233707E+00 -0.50386173701E+01 -0.63991806503E+01  0.81950604268E+01  0.51100000000E-03 0.  1.
         12    1    3    3    0    0  0.23179277638E+02  0.72360877307E-01 -0.30479914209E+02  0.38292418546E+02  0.00000000000E+00 0. -1.
</event>
<event>
 7    1  0.7821043E-012  0.5930193E+02  0.7816164E-02  0.1266605E+00
        -11   -1    0    0    0    0  0.00000000000E+00  0.00000000000E+00  0.45593999997E+02  0.45594000000E+02  0.51100000000E-03 0. -1.
         11   -1    0    0    0    0 -0.00000000000E+00 -0.00000000000E+00 -0.45593999997E+02  0.45594000000E+02  0.51100000000E-03 0.  1.
    9900012    2    1    2    0    0  0.24207644482E+02  0.20201134362E+02 -0.47566387877E+01  0.59301929476E+02  0.49999973462E+02 0.  0.
         12    1    1    2    0    0 -0.24207644482E+02 -0.20201134362E+02  0.47566387877E+01  0.31886070524E+02  0.00000000000E+00 0. -1.
         11    1    3    3    0    0  0.16547111892E+02 -0.11939611043E+02 -0.79982403794E+01  0.21916502305E+02  0.51100000000E-03 0.  1.
        -11    1    3    3    0    0  0.62008731523E+01  0.29462534338E+02  0.85189769202E+01  0.31290009996E+02  0.51100000000E-03 0. -1.
         12    1    3    3    0    0  0.14596594374E+01  0.26782110670E+01 -0.52773753285E+01  0.60954171761E+01  0.00000000000E+00 0. -1.
</event>
<event>
 7    1  0.7821043E-012  0.5930194E+02  0.7816164E-02  0.1266605E+00
        -11   -1    0    0    0    0  0.00000000000E+00  0.00000000000E+00  0.45593999997E+02  0.45594000000E+02  0.51100000000E-03 0. -1.
         11   -1    0    0    0    0 -0.00000000000E+00 -0.00000000000E+00 -0.45593999997E+02  0.45594000000E+02  0.51100000000E-03 0.  1.
    9900012    2    1    2    0    0 -0.62295130987E+01  0.22941455503E+02 -0.21250966818E+02  0.59301940276E+02  0.49999993157E+02 0.  0.
         12    1    1    2    0    0  0.62295130987E+01 -0.22941455503E+02  0.21250966818E+02  0.31886059724E+02  0.00000000000E+00 0. -1.
         11    1    3    3    0    0  0.48307568821E+01 -0.73794282210E+01  0.30239799526E+01  0.93239813351E+01  0.51100000000E-03 0. -1.
        -11    1    3    3    0    0  0.20164197789E+01  0.29907902750E+02 -0.20655663905E+02  0.36403365878E+02  0.51100000000E-03 0.  1.
        -12    1    3    3    0    0 -0.13076689760E+02  0.41298097434E+00 -0.36192828658E+01  0.13574593063E+02  0.00000000000E+00 0.  1.
</event>
<event>
 7    1  0.7821043E-012  0.5930194E+02  0.7816164E-02  0.1266605E+00
        -11   -1    0    0    0    0  0.00000000000E+00  0.00000000000E+00  0.45593999997E+02  0.45594000000E+02  0.51100000000E-03 0.  1.
         11   -1    0    0    0    0 -0.00000000000E+00 -0.00000000000E+00 -0.45593999997E+02  0.45594000000E+02  0.51100000000E-03 0. -1.
    9900012    2    1    2    0    0 -0.25790964688E+02 -0.16693768446E+02  0.85360943468E+01  0.59301942370E+02  0.49999996976E+02 0.  0.
         12    1    1    2    0    0  0.25790964688E+02  0.16693768446E+02 -0.85360943468E+01  0.31886057630E+02  0.00000000000E+00 0. -1.
         11    1    3    3    0    0 -0.20939397661E+02 -0.83931019744E+01 -0.14152853934E+02  0.26630918307E+02  0.51100000000E-03 0. -1.
        -11    1    3    3    0    0  0.61583871166E+01  0.21592913972E+01  0.13304713006E+02  0.14819030321E+02  0.51100000000E-03 0.  1.
         12    1    3    3    0    0 -0.11009954144E+02 -0.10459957869E+02  0.93842352748E+01  0.17851993742E+02  0.00000000000E+00 0. -1.
</event>
<event>
 7    1  0.7821043E-012  0.5930195E+02  0.7816164E-02  0.1266605E+00
        -11   -1    0    0    0    0  0.00000000000E+00  0.00000000000E+00  0.45593999997E+02  0.45594000000E+02  0.51100000000E-03 0.  1.
         11   -1    0    0    0    0 -0.00000000000E+00 -0.00000000000E+00 -0.45593999997E+02  0.45594000000E+02  0.51100000000E-03 0. -1.
    9900012    2    1    2    0    0  0.26424301391E+01  0.13777693003E+02  0.28634125447E+02  0.59301946596E+02  0.50000004684E+02 0.  0.
         12    1    1    2    0    0 -0.26424301391E+01 -0.13777693003E+02 -0.28634125447E+02  0.31886053404E+02  0.00000000000E+00 0. -1.
         11    1    3    3    0    0  0.12476786439E+02 -0.18834137075E+01  0.20984810731E+02  0.24486317173E+02  0.51100000000E-03 0. -1.
        -11    1    3    3    0    0 -0.13917650936E+02  0.51424819691E+01  0.15198235883E+02  0.21239880004E+02  0.51100000000E-03 0.  1.
         12    1    3    3    0    0  0.40832946353E+01  0.10518624741E+02 -0.75489211658E+01  0.13575749419E+02  0.00000000000E+00 0. -1.
</event>
<event>
 7    1  0.7821043E-012  0.5930197E+02  0.7816164E-02  0.1266605E+00
        -11   -1    0    0    0    0  0.00000000000E+00  0.00000000000E+00  0.45593999997E+02  0.45594000000E+02  0.51100000000E-03 0. -1.
         11   -1    0    0    0    0 -0.00000000000E+00 -0.00000000000E+00 -0.45593999997E+02  0.45594000000E+02  0.51100000000E-03 0.  1.
    9900012    2    1    2    0    0  0.51064107324E+01  0.30767597743E+02 -0.66331252120E+01  0.59301970904E+02  0.50000049015E+02 0.  0.
         12    1    1    2    0    0 -0.51064107324E+01 -0.30767597743E+02  0.66331252120E+01  0.31886029096E+02  0.00000000000E+00 0. -1.
         11    1    3    3    0    0 -0.17518566905E+02  0.35326685487E+01 -0.89134568364E+01  0.19970719730E+02  0.51100000000E-03 0. -1.
        -11    1    3    3    0    0  0.16567322533E+02  0.93057226955E+01 -0.39481748537E+01  0.19407749373E+02  0.51100000000E-03 0.  1.
         12    1    3    3    0    0  0.60576551047E+01  0.17929206499E+02  0.62285064780E+01  0.19923501801E+02  0.00000000000E+00 0. -1.
</event>
<event>
 7    1  0.7821043E-012  0.5930200E+02  0.7816164E-02  0.1266605E+00
        -11   -1    0    0    0    0  0.00000000000E+00  0.00000000000E+00  0.45593999997E+02  0.45594000000E+02  0.51100000000E-03 0. -1.
         11   -1    0    0    0    0 -0.00000000000E+00 -0.00000000000E+00 -0.45593999997E+02  0.45594000000E+02  0.51100000000E-03 0.  1.
    9900012    2    1    2    0    0 -0.29551679439E+01 -0.10235510054E+02 -0.30053588303E+02  0.59302002234E+02  0.50000106154E+02 0.  0.
         12    1    1    2    0    0  0.29551679439E+01  0.10235510054E+02  0.30053588303E+02  0.31885997766E+02  0.00000000000E+00 0. -1.
         11    1    3    3    0    0 -0.72163635643E+01 -0.11208819106E+02  0.58434284605E+01  0.14555383378E+02  0.51100000000E-03 0. -1.
        -11    1    3    3    0    0 -0.19529604154E+01  0.26967404828E+01 -0.37859706700E+02  0.38005839752E+02  0.51100000000E-03 0.  1.
         12    1    3    3    0    0  0.62141560358E+01 -0.17234314309E+01  0.19626899362E+01  0.67407791033E+01  0.00000000000E+00 0. -1.
</event>
<event>
 7    1  0.7821043E-012  0.5930200E+02  0.7816164E-02  0.1266605E+00
        -11   -1    0    0    0    0  0.00000000000E+00  0.00000000000E+00  0.45593999997E+02  0.45594000000E+02  0.51100000000E-03 0.  1.
         11   -1    0    0    0    0 -0.00000000000E+00 -0.00000000000E+00 -0.45593999997E+02  0.45594000000E+02  0.51100000000E-03 0. -1.
    9900012    2    1    2    0    0 -0.14763234323E+02 -0.28063153924E+02  0.33501348763E+01  0.59301998376E+02  0.50000099119E+02 0.  0.
         12    1    1    2    0    0  0.14763234323E+02  0.28063153924E+02 -0.33501348763E+01  0.31886001624E+02  0.00000000000E+00 0. -1.
         11    1    3    3    0    0 -0.24751584365E+02 -0.26393904325E+02 -0.85034969285E+01  0.37169726584E+02  0.51100000000E-03 0. -1.
        -11    1    3    3    0    0  0.72215689452E+00 -0.32129278002E+01  0.12294646045E+02  0.12728029590E+02  0.51100000000E-03 0.  1.
         12    1    3    3    0    0  0.92661931473E+01  0.15436782010E+01 -0.44101423972E+00  0.94042422018E+01  0.00000000000E+00 0. -1.
</event>
<event>
 7    1  0.7821043E-012  0.5930207E+02  0.7816164E-02  0.1266604E+00
        -11   -1    0    0    0    0  0.00000000000E+00  0.00000000000E+00  0.45593999997E+02  0.45594000000E+02  0.51100000000E-03 0.  1.
         11   -1    0    0    0    0 -0.00000000000E+00 -0.00000000000E+00 -0.45593999997E+02  0.45594000000E+02  0.51100000000E-03 0. -1.
    9900012    2    1    2    0    0 -0.15354585350E+01 -0.31848258164E+02  0.20794371143E+00  0.59302071731E+02  0.50000232899E+02 0.  0.
         12    1    1    2    0    0  0.15354585350E+01  0.31848258164E+02 -0.20794371143E+00  0.31885928269E+02  0.00000000000E+00 0. -1.
         11    1    3    3    0    0  0.90263123660E+01 -0.15418306151E+02 -0.14249476999E+02  0.22852703877E+02  0.51100000000E-03 0. -1.
        -11    1    3    3    0    0 -0.10848876577E+02 -0.25506798273E+01  0.18841964885E+02  0.21891179309E+02  0.51100000000E-03 0.  1.
        -12    1    3    3    0    0  0.28710567572E+00 -0.13879272186E+02 -0.43845441740E+01  0.14558188545E+02  0.00000000000E+00 0.  1.
</event>
<event>
 7    1  0.7821043E-012  0.5930194E+02  0.7816164E-02  0.1266605E+00
        -11   -1    0    0    0    0  0.00000000000E+00  0.00000000000E+00  0.45593999997E+02  0.45594000000E+02  0.51100000000E-03 0. -1.
         11   -1    0    0    0    0 -0.00000000000E+00 -0.00000000000E+00 -0.45593999997E+02  0.45594000000E+02  0.51100000000E-03 0.  1.
    9900012    2    1    2    0    0 -0.10541033135E+02 -0.22948527426E+02 -0.19467214715E+02  0.59301941302E+02  0.49999995028E+02 0.  0.
         12    1    1    2    0    0  0.10541033135E+02  0.22948527426E+02  0.19467214715E+02  0.31886058698E+02  0.00000000000E+00 0. -1.
         11    1    3    3    0    0  0.71743671022E+01 -0.39345841082E+01 -0.26999556874E+01  0.86163946287E+01  0.51100000000E-03 0. -1.
        -11    1    3    3    0    0 -0.28309398379E+02 -0.23004067632E+02 -0.13600070390E+02  0.38930336231E+02  0.51100000000E-03 0.  1.
        -12    1    3    3    0    0  0.10593998142E+02  0.39901243139E+01 -0.31671886368E+01  0.11755210442E+02  0.00000000000E+00 0.  1.
</event>
<event>
 7    1  0.7821043E-012  0.5930194E+02  0.7816164E-02  0.1266605E+00
        -11   -1    0    0    0    0  0.00000000000E+00  0.00000000000E+00  0.45593999997E+02  0.45594000000E+02  0.51100000000E-03 0. -1.
         11   -1    0    0    0    0 -0.00000000000E+00 -0.00000000000E+00 -0.45593999997E+02  0.45594000000E+02  0.51100000000E-03 0.  1.
    9900012    2    1    2    0    0  0.74040134489E+01  0.17657794054E+02 -0.25497125919E+02  0.59301944488E+02  0.50000000839E+02 0.  0.
         12    1    1    2    0    0 -0.74040134489E+01 -0.17657794054E+02  0.25497125919E+02  0.31886055512E+02  0.00000000000E+00 0. -1.
         11    1    3    3    0    0  0.77605275557E+01  0.12539662815E+02  0.58168475383E+01  0.15852591176E+02  0.51100000000E-03 0. -1.
        -11    1    3    3    0    0  0.37529120579E+01 -0.63571956295E+01 -0.30335895255E+02  0.31221223973E+02  0.51100000000E-03 0.  1.
         12    1    3    3    0    0 -0.41094261647E+01  0.11475326868E+02 -0.97807820177E+00  0.12228129338E+02  0.00000000000E+00 0. -1.
</event>
<event>
 7    1  0.7821043E-012  0.5930196E+02  0.7816164E-02  0.1266605E+00
        -11   -1    0    0    0    0  0.00000000000E+00  0.00000000000E+00  0.45593999997E+02  0.45594000000E+02  0.51100000000E-03 0.  1.
         11   -1    0    0    0    0 -0.00000000000E+00 -0.00000000000E+00 -0.45593999997E+02  0.45594000000E+02  0.51100000000E-03 0. -1.
    9900012    2    1    2    0    0  0.20031940393E+02  0.14631421707E+02  0.20034034649E+02  0.59301957891E+02  0.50000025283E+02 0.  0.
         12    1    1    2    0    0 -0.20031940393E+02 -0.14631421707E+02 -0.20034034649E+02  0.31886042109E+02  0.00000000000E+00 0. -1.
         11    1    3    3    0    0  0.18114759892E+02  0.73492043580E+01  0.25455418269E+02  0.32095695196E+02  0.51100000000E-03 0. -1.
        -11    1    3    3    0    0 -0.62714635811E+01 -0.41684820584E+01  0.55531395788E+01  0.93565408973E+01  0.51100000000E-03 0.  1.
         12    1    3    3    0    0  0.81886440822E+01  0.11450699407E+02 -0.10974523199E+02  0.17849721798E+02  0.00000000000E+00 0. -1.
</event>
<event>
 7    1  0.7821043E-012  0.5930193E+02  0.7816164E-02  0.1266605E+00
        -11   -1    0    0    0    0  0.00000000000E+00  0.00000000000E+00  0.45593999997E+02  0.45594000000E+02  0.51100000000E-03 0.  1.
         11   -1    0    0    0    0 -0.00000000000E+00 -0.00000000000E+00 -0.45593999997E+02  0.45594000000E+02  0.51100000000E-03 0. -1.
    9900012    2    1    2    0    0  0.15816713188E+02 -0.24070656518E+02  0.13680507343E+02  0.59301934039E+02  0.49999981784E+02 0.  0.
         12    1    1    2    0    0 -0.15816713188E+02  0.24070656518E+02 -0.13680507343E+02  0.31886065961E+02  0.00000000000E+00 0. -1.
         11    1    3    3    0    0  0.71825928851E+01 -0.37195490810E+01 -0.15234087457E+01  0.82307630501E+01  0.51100000000E-03 0. -1.
        -11    1    3    3    0    0 -0.95094647233E+01 -0.90981799145E+01  0.24479788249E+02  0.27793287500E+02  0.51100000000E-03 0.  1.
        -12    1    3    3    0    0  0.18143585026E+02 -0.11252927523E+02 -0.92758721603E+01  0.23277883490E+02  0.00000000000E+00 0.  1.
</event>
<event>
 7    1  0.7821043E-012  0.5930194E+02  0.7816164E-02  0.1266605E+00
        -11   -1    0    0    0    0  0.00000000000E+00  0.00000000000E+00  0.45593999997E+02  0.45594000000E+02  0.51100000000E-03 0. -1.
         11   -1    0    0    0    0 -0.00000000000E+00 -0.00000000000E+00 -0.45593999997E+02  0.45594000000E+02  0.51100000000E-03 0.  1.
    9900012    2    1    2    0    0 -0.22612299140E+02  0.21297930954E+02 -0.71974103047E+01  0.59301942696E+02  0.49999997571E+02 0.  0.
         12    1    1    2    0    0  0.22612299140E+02 -0.21297930954E+02  0.71974103047E+01  0.31886057304E+02  0.00000000000E+00 0. -1.
         11    1    3    3    0    0  0.12273289956E+02  0.15381424939E+02 -0.30375534172E+01  0.19911017315E+02  0.51100000000E-03 0.  1.
        -11    1    3    3    0    0 -0.34230171520E+02  0.79873398831E+01 -0.52156601163E+00  0.35153581212E+02  0.51100000000E-03 0. -1.
        -12    1    3    3    0    0 -0.65541757579E+00 -0.20708338677E+01 -0.36382908759E+01  0.42373441687E+01  0.00000000000E+00 0.  1.
</event>
<event>
 7    1  0.7821043E-012  0.5930194E+02  0.7816164E-02  0.1266605E+00
        -11   -1    0    0    0    0  0.00000000000E+00  0.00000000000E+00  0.45593999997E+02  0.45594000000E+02  0.51100000000E-03 0. -1.
         11   -1    0    0    0    0 -0.00000000000E+00 -0.00000000000E+00 -0.45593999997E+02  0.45594000000E+02  0.51100000000E-03 0.  1.
    9900012    2    1    2    0    0  0.11358646814E+02 -0.12328422076E+02 -0.27124008971E+02  0.59301941746E+02  0.49999995838E+02 0.  0.
         12    1    1    2    0    0 -0.11358646814E+02  0.12328422076E+02  0.27124008971E+02  0.31886058254E+02  0.00000000000E+00 0. -1.
         11    1    3    3    0    0 -0.80095536272E+01 -0.64787269000E+00 -0.21137657414E+02  0.22613563398E+02  0.51100000000E-03 0. -1.
        -11    1    3    3    0    0  0.32545470874E+01 -0.18380943663E+02 -0.43012494417E+01  0.19155988977E+02  0.51100000000E-03 0.  1.
         12    1    3    3    0    0  0.16113653354E+02  0.67003942773E+01 -0.16851021151E+01  0.17532389370E+02  0.00000000000E+00 0. -1.
</event>
<event>
 7    1  0.7821043E-012  0.5930195E+02  0.7816164E-02  0.1266605E+00
        -11   -1    0    0    0    0  0.00000000000E+00  0.00000000000E+00  0.45593999997E+02  0.45594000000E+02  0.51100000000E-03 0.  1.
         11   -1    0    0    0    0 -0.00000000000E+00 -0.00000000000E+00 -0.45593999997E+02  0.45594000000E+02  0.51100000000E-03 0. -1.
    9900012    2    1    2    0    0 -0.27425055294E+02 -0.10036394953E+02  0.12800680734E+02  0.59301948052E+02  0.50000007340E+02 0.  0.
         12    1    1    2    0    0  0.27425055294E+02  0.10036394953E+02 -0.12800680734E+02  0.31886051948E+02  0.00000000000E+00 0. -1.
         11    1    3    3    0    0 -0.28283569863E+02  0.62313635498E+01  0.34837694739E+01  0.29170650763E+02  0.51100000000E-03 0. -1.
        -11    1    3    3    0    0 -0.93868360442E+01 -0.15285083306E+02  0.33914105587E+01  0.18255085002E+02  0.51100000000E-03 0.  1.
         12    1    3    3    0    0  0.10245350613E+02 -0.98267519697E+00  0.59255007015E+01  0.11876212288E+02  0.00000000000E+00 0. -1.
</event>
<event>
 7    1  0.7821043E-012  0.5930194E+02  0.7816164E-02  0.1266605E+00
        -11   -1    0    0    0    0  0.00000000000E+00  0.00000000000E+00  0.45593999997E+02  0.45594000000E+02  0.51100000000E-03 0. -1.
         11   -1    0    0    0    0 -0.00000000000E+00 -0.00000000000E+00 -0.45593999997E+02  0.45594000000E+02  0.51100000000E-03 0.  1.
    9900012    2    1    2    0    0  0.17110166657E+02 -0.24535492692E+02 -0.11044107271E+02  0.59301944896E+02  0.50000001584E+02 0.  0.
         12    1    1    2    0    0 -0.17110166657E+02  0.24535492692E+02  0.11044107271E+02  0.31886055104E+02  0.00000000000E+00 0. -1.
         11    1    3    3    0    0  0.29361659441E+01  0.56605589161E+01  0.15760821467E+01  0.65686401095E+01  0.51100000000E-03 0. -1.
        -11    1    3    3    0    0  0.22536739067E+02 -0.22896170401E+02 -0.21381650423E+02  0.38591633833E+02  0.51100000000E-03 0.  1.
        -12    1    3    3    0    0 -0.83627383544E+01 -0.72998812074E+01  0.87614610056E+01  0.14141670954E+02  0.00000000000E+00 0.  1.
</event>
<event>
 7    1  0.7821043E-012  0.5930193E+02  0.7816164E-02  0.1266605E+00
        -11   -1    0    0    0    0  0.00000000000E+00  0.00000000000E+00  0.45593999997E+02  0.45594000000E+02  0.51100000000E-03 0.  1.
         11   -1    0    0    0    0 -0.00000000000E+00 -0.00000000000E+00 -0.45593999997E+02  0.45594000000E+02  0.51100000000E-03 0. -1.
    9900012    2    1    2    0    0  0.76726941349E+01 -0.26789318150E+02 -0.15497855910E+02  0.59301931881E+02  0.49999977848E+02 0.  0.
         12    1    1    2    0    0 -0.76726941349E+01  0.26789318150E+02  0.15497855910E+02  0.31886068119E+02  0.00000000000E+00 0. -1.
         11    1    3    3    0    0 -0.23039504712E+01 -0.92187272125E+01 -0.25553254069E+02  0.27262830245E+02  0.51100000000E-03 0. -1.
        -11    1    3    3    0    0  0.10824147319E+02 -0.36244477154E+01  0.13469881026E+02  0.17656060759E+02  0.51100000000E-03 0.  1.
        -12    1    3    3    0    0 -0.84750271247E+00 -0.13946143222E+02 -0.34144828670E+01  0.14383040877E+02  0.00000000000E+00 0.  1.
</event>
<event>
 7    1  0.7821043E-012  0.5930174E+02  0.7816164E-02  0.1266605E+00
        -11   -1    0    0    0    0  0.00000000000E+00  0.00000000000E+00  0.45593999997E+02  0.45594000000E+02  0.51100000000E-03 0. -1.
         11   -1    0    0    0    0 -0.00000000000E+00 -0.00000000000E+00 -0.45593999997E+02  0.45594000000E+02  0.51100000000E-03 0.  1.
    9900012    2    1    2    0    0  0.72660774745E+01 -0.25329343818E+02 -0.17954441834E+02  0.59301740864E+02  0.49999629476E+02 0.  0.
         12    1    1    2    0    0 -0.72660774745E+01  0.25329343818E+02  0.17954441834E+02  0.31886259136E+02  0.00000000000E+00 0. -1.
         11    1    3    3    0    0  0.56200274187E+00  0.10823083987E+02 -0.95165218233E+01  0.14422870100E+02  0.51100000000E-03 0. -1.
        -11    1    3    3    0    0  0.13330834934E+01 -0.25841769436E+02  0.57791405598E+01  0.26513630930E+02  0.51100000000E-03 0.  1.
         12    1    3    3    0    0  0.53709912393E+01 -0.10310658368E+02 -0.14217060570E+02  0.18365239834E+02  0.00000000000E+00 0. -1.
</event>
<event>
 7    1  0.7821043E-012  0.5930189E+02  0.7816164E-02  0.1266605E+00
        -11   -1    0    0    0    0  0.00000000000E+00  0.00000000000E+00  0.45593999997E+02  0.45594000000E+02  0.51100000000E-03 0.  1.
         11   -1    0    0    0    0 -0.00000000000E+00 -0.00000000000E+00 -0.45593999997E+02  0.45594000000E+02  0.51100000000E-03 0. -1.
    9900012    2    1    2    0    0  0.17707315729E+02 -0.18470898037E+02  0.19026317827E+02  0.59301892137E+02  0.49999905363E+02 0.  0.
         12    1    1    2    0    0 -0.17707315729E+02  0.18470898037E+02 -0.19026317827E+02  0.31886107863E+02  0.00000000000E+00 0. -1.
         11    1    3    3    0    0  0.25741204724E+02 -0.53362598350E+01  0.81453373757E+01  0.27521479082E+02  0.51100000000E-03 0.  1.
        -11    1    3    3    0    0 -0.66338202967E+01 -0.16629421769E+02 -0.23196485611E+01  0.18053421000E+02  0.51100000000E-03 0. -1.
        -12    1    3    3    0    0 -0.14000686981E+01  0.34947835665E+01  0.13200629012E+02  0.13726992054E+02  0.00000000000E+00 0.  1.
</event>
<event>
 7    1  0.7821043E-012  0.5930194E+02  0.7816164E-02  0.1266605E+00
        -11   -1    0    0    0    0  0.00000000000E+00  0.00000000000E+00  0.45593999997E+02  0.45594000000E+02  0.51100000000E-03 0.  1.
         11   -1    0    0    0    0 -0.00000000000E+00 -0.00000000000E+00 -0.45593999997E+02  0.45594000000E+02  0.51100000000E-03 0. -1.
    9900012    2    1    2    0    0 -0.74088121373E+01  0.93276029507E+01  0.29577454962E+02  0.59301944801E+02  0.50000001410E+02 0.  0.
         12    1    1    2    0    0  0.74088121373E+01 -0.93276029507E+01 -0.29577454962E+02  0.31886055199E+02  0.00000000000E+00 0. -1.
         11    1    3    3    0    0 -0.26017412022E+01 -0.62096087559E+01  0.12950051462E+01  0.68560438136E+01  0.51100000000E-03 0. -1.
        -11    1    3    3    0    0  0.59257069804E+01  0.27260499906E+02  0.14669808456E+02  0.31519075791E+02  0.51100000000E-03 0.  1.
        -12    1    3    3    0    0 -0.10732777915E+02 -0.11723288199E+02  0.13612641361E+02  0.20926825196E+02  0.00000000000E+00 0.  1.
</event>
<event>
 7    1  0.7821043E-012  0.5930188E+02  0.7816164E-02  0.1266605E+00
        -11   -1    0    0    0    0  0.00000000000E+00  0.00000000000E+00  0.45593999997E+02  0.45594000000E+02  0.51100000000E-03 0.  1.
         11   -1    0    0    0    0 -0.00000000000E+00 -0.00000000000E+00 -0.45593999997E+02  0.45594000000E+02  0.51100000000E-03 0. -1.
    9900012    2    1    2    0    0 -0.86116383668E+01  0.15505638020E+02  0.26497918577E+02  0.59301877396E+02  0.49999878480E+02 0.  0.
         12    1    1    2    0    0  0.86116383668E+01 -0.15505638020E+02 -0.26497918577E+02  0.31886122604E+02  0.00000000000E+00 0. -1.
         11    1    3    3    0    0  0.25600557790E+01  0.84015371518E+01  0.24099396800E+02  0.25649963714E+02  0.51100000000E-03 0. -1.
        -11    1    3    3    0    0 -0.17455434765E+02 -0.52613192750E+01  0.62228890733E+01  0.19263904901E+02  0.51100000000E-03 0.  1.
         12    1    3    3    0    0  0.62837406196E+01  0.12365420143E+02 -0.38243672965E+01  0.14388008782E+02  0.00000000000E+00 0. -1.
</event>
<event>
 7    1  0.7821043E-012  0.5930188E+02  0.7816164E-02  0.1266605E+00
        -11   -1    0    0    0    0  0.00000000000E+00  0.00000000000E+00  0.45593999997E+02  0.45594000000E+02  0.51100000000E-03 0. -1.
         11   -1    0    0    0    0 -0.00000000000E+00 -0.00000000000E+00 -0.45593999997E+02  0.45594000000E+02  0.51100000000E-03 0.  1.
    9900012    2    1    2    0    0  0.20844280614E+01 -0.18595926959E+01 -0.31763527160E+02  0.59301881030E+02  0.49999885107E+02 0.  0.
         12    1    1    2    0    0 -0.20844280614E+01  0.18595926959E+01  0.31763527160E+02  0.31886118970E+02  0.00000000000E+00 0. -1.
         11    1    3    3    0    0  0.17853463119E+02  0.20284042421E+01 -0.22113071848E+00  0.17969681916E+02  0.51100000000E-03 0. -1.
        -11    1    3    3    0    0 -0.11095086901E+02 -0.63063636640E+01 -0.33397058938E+02  0.35752408618E+02  0.51100000000E-03 0.  1.
         12    1    3    3    0    0 -0.46739481573E+01  0.24183667261E+01  0.18546624965E+01  0.55797904956E+01  0.00000000000E+00 0. -1.
</event>
<event>
 7    1  0.7821043E-012  0.5930194E+02  0.7816164E-02  0.1266605E+00
        -11   -1    0    0    0    0  0.00000000000E+00  0.00000000000E+00  0.45593999997E+02  0.45594000000E+02  0.51100000000E-03 0.  1.
         11   -1    0    0    0    0 -0.00000000000E+00 -0.00000000000E+00 -0.45593999997E+02  0.45594000000E+02  0.51100000000E-03 0. -1.
    9900012    2    1    2    0    0  0.93126509795E+01  0.95030858762E+01  0.28977342921E+02  0.59301944863E+02  0.50000001524E+02 0.  0.
         12    1    1    2    0    0 -0.93126509795E+01 -0.95030858762E+01 -0.28977342921E+02  0.31886055137E+02  0.00000000000E+00 0. -1.
         11    1    3    3    0    0  0.15903759331E+02 -0.10326744639E+02  0.29251036571E+01  0.19186647632E+02  0.51100000000E-03 0. -1.
        -11    1    3    3    0    0 -0.13279543219E+02  0.15911927512E+02  0.11689994525E+02  0.23794782569E+02  0.51100000000E-03 0.  1.
         12    1    3    3    0    0  0.66884348669E+01  0.39179030033E+01  0.14362244739E+02  0.16320514662E+02  0.00000000000E+00 0. -1.
</event>
<event>
 7    1  0.7821043E-012  0.5930194E+02  0.7816164E-02  0.1266605E+00
        -11   -1    0    0    0    0  0.00000000000E+00  0.00000000000E+00  0.45593999997E+02  0.45594000000E+02  0.51100000000E-03 0.  1.
         11   -1    0    0    0    0 -0.00000000000E+00 -0.00000000000E+00 -0.45593999997E+02  0.45594000000E+02  0.51100000000E-03 0. -1.
    9900012    2    1    2    0    0  0.19067064256E+01 -0.54957520184E-01  0.31828949972E+02  0.59301943392E+02  0.49999998840E+02 0.  0.
         12    1    1    2    0    0 -0.19067064256E+01  0.54957520184E-01 -0.31828949972E+02  0.31886056608E+02  0.00000000000E+00 0. -1.
         11    1    3    3    0    0 -0.34639894993E+01 -0.70616800918E+01  0.11465883585E+02  0.13904425038E+02  0.51100000000E-03 0. -1.
        -11    1    3    3    0    0 -0.13056898885E+01  0.21652597148E+02  0.19677230959E+02  0.29287082610E+02  0.51100000000E-03 0.  1.
        -12    1    3    3    0    0  0.66763858133E+01 -0.14645874576E+02  0.68583542774E+00  0.16110435744E+02  0.00000000000E+00 0.  1.
</event>
<event>
 7    1  0.7821043E-012  0.5930194E+02  0.7816164E-02  0.1266605E+00
        -11   -1    0    0    0    0  0.00000000000E+00  0.00000000000E+00  0.45593999997E+02  0.45594000000E+02  0.51100000000E-03 0.  1.
         11   -1    0    0    0    0 -0.00000000000E+00 -0.00000000000E+00 -0.45593999997E+02  0.45594000000E+02  0.51100000000E-03 0. -1.
    9900012    2    1    2    0    0 -0.10395854746E+02  0.29109922779E+02 -0.78268277528E+01  0.59301942972E+02  0.49999998075E+02 0.  0.
         12    1    1    2    0    0  0.10395854746E+02 -0.29109922779E+02  0.78268277528E+01  0.31886057028E+02  0.00000000000E+00 0. -1.
         11    1    3    3    0    0  0.10229498113E+02 -0.28186736132E+01  0.10928227628E+02  0.15231996321E+02  0.51100000000E-03 0. -1.
        -11    1    3    3    0    0 -0.19758038460E+02  0.20990672637E+02 -0.14820992639E+02  0.32413735431E+02  0.51100000000E-03 0.  1.
        -12    1    3    3    0    0 -0.86731439921E+00  0.10937923755E+02 -0.39340627418E+01  0.11656211220E+02  0.00000000000E+00 0.  1.
</event>
<event>
 7    1  0.7821043E-012  0.5930195E+02  0.7816164E-02  0.1266605E+00
        -11   -1    0    0    0    0  0.00000000000E+00  0.00000000000E+00  0.45593999997E+02  0.45594000000E+02  0.51100000000E-03 0.  1.
         11   -1    0    0    0    0 -0.00000000000E+00 -0.00000000000E+00 -0.45593999997E+02  0.45594000000E+02  0.51100000000E-03 0. -1.
    9900012    2    1    2    0    0  0.12790843098E+02 -0.23475492735E+02  0.17378594517E+02  0.59301953307E+02  0.50000016923E+02 0.  0.
         12    1    1    2    0    0 -0.12790843098E+02  0.23475492735E+02 -0.17378594517E+02  0.31886046693E+02  0.00000000000E+00 0. -1.
         11    1    3    3    0    0 -0.48488408955E+01 -0.11792719678E+02 -0.44940400840E+01  0.13519463450E+02  0.51100000000E-03 0. -1.
        -11    1    3    3    0    0  0.11992756251E+02 -0.10478433745E+02  0.31075303120E+02  0.34918451290E+02  0.51100000000E-03 0.  1.
         12    1    3    3    0    0  0.56469277430E+01 -0.12043393115E+01 -0.92026685191E+01  0.10864038567E+02  0.00000000000E+00 0. -1.
</event>
<event>
 7    1  0.7821043E-012  0.5930195E+02  0.7816164E-02  0.1266605E+00
        -11   -1    0    0    0    0  0.00000000000E+00  0.00000000000E+00  0.45593999997E+02  0.45594000000E+02  0.51100000000E-03 0. -1.
         11   -1    0    0    0    0 -0.00000000000E+00 -0.00000000000E+00 -0.45593999997E+02  0.45594000000E+02  0.51100000000E-03 0.  1.
    9900012    2    1    2    0    0  0.23133784531E+02 -0.16750213474E+02  0.14176690628E+02  0.59301949832E+02  0.50000010586E+02 0.  0.
         12    1    1    2    0    0 -0.23133784531E+02  0.16750213474E+02 -0.14176690628E+02  0.31886050168E+02  0.00000000000E+00 0. -1.
         11    1    3    3    0    0 -0.92285704905E+01  0.13168638744E+01  0.56841672960E+01  0.10918351610E+02  0.51100000000E-03 0. -1.
        -11    1    3    3    0    0  0.35477655476E+02 -0.22047195663E+02  0.10290401517E+02  0.43019010197E+02  0.51100000000E-03 0.  1.
         12    1    3    3    0    0 -0.31153004551E+01  0.39801183139E+01 -0.17978781856E+01  0.53645880260E+01  0.00000000000E+00 0. -1.
</event>
<event>
 7    1  0.7821043E-012  0.5930194E+02  0.7816164E-02  0.1266605E+00
        -11   -1    0    0    0    0  0.00000000000E+00  0.00000000000E+00  0.45593999997E+02  0.45594000000E+02  0.51100000000E-03 0.  1.
         11   -1    0    0    0    0 -0.00000000000E+00 -0.00000000000E+00 -0.45593999997E+02  0.45594000000E+02  0.51100000000E-03 0. -1.
    9900012    2    1    2    0    0 -0.24230959679E+02 -0.11252223679E+02  0.17405997880E+02  0.59301941810E+02  0.49999995955E+02 0.  0.
         12    1    1    2    0    0  0.24230959679E+02  0.11252223679E+02 -0.17405997880E+02  0.31886058190E+02  0.00000000000E+00 0. -1.
         11    1    3    3    0    0  0.37684218529E+00 -0.23267323347E+02 -0.33415584856E+01  0.23509069720E+02  0.51100000000E-03 0. -1.
        -11    1    3    3    0    0 -0.19299406083E+02  0.10981409502E+02  0.20740672097E+02  0.30384764424E+02  0.51100000000E-03 0.  1.
         12    1    3    3    0    0 -0.53083957815E+01  0.10336901660E+01  0.68842689505E-02  0.54081076658E+01  0.00000000000E+00 0. -1.
</event>
<event>
 7    1  0.7821043E-012  0.5930196E+02  0.7816164E-02  0.1266605E+00
        -11   -1    0    0    0    0  0.00000000000E+00  0.00000000000E+00  0.45593999997E+02  0.45594000000E+02  0.51100000000E-03 0.  1.
         11   -1    0    0    0    0 -0.00000000000E+00 -0.00000000000E+00 -0.45593999997E+02  0.45594000000E+02  0.51100000000E-03 0. -1.
    9900012    2    1    2    0    0 -0.11631291692E+02  0.56224020696E+01  0.29151689460E+02  0.59301963090E+02  0.50000034765E+02 0.  0.
         12    1    1    2    0    0  0.11631291692E+02 -0.56224020696E+01 -0.29151689460E+02  0.31886036910E+02  0.00000000000E+00 0. -1.
         11    1    3    3    0    0  0.62724787986E+01  0.87540782595E+01  0.10662485482E+02  0.15154750852E+02  0.51100000000E-03 0. -1.
        -11    1    3    3    0    0 -0.27596271063E+02 -0.76610721889E+01  0.17105976519E+02  0.33359565894E+02  0.51100000000E-03 0.  1.
        -12    1    3    3    0    0  0.96925005720E+01  0.45293959990E+01  0.13832274584E+01  0.10787646345E+02  0.00000000000E+00 0.  1.
</event>
<event>
 7    1  0.7821043E-012  0.5930195E+02  0.7816164E-02  0.1266605E+00
        -11   -1    0    0    0    0  0.00000000000E+00  0.00000000000E+00  0.45593999997E+02  0.45594000000E+02  0.51100000000E-03 0.  1.
         11   -1    0    0    0    0 -0.00000000000E+00 -0.00000000000E+00 -0.45593999997E+02  0.45594000000E+02  0.51100000000E-03 0. -1.
    9900012    2    1    2    0    0  0.15091940294E+02 -0.14334225321E+02  0.24155399676E+02  0.59301952724E+02  0.50000015861E+02 0.  0.
         12    1    1    2    0    0 -0.15091940294E+02  0.14334225321E+02 -0.24155399676E+02  0.31886047276E+02  0.00000000000E+00 0. -1.
         11    1    3    3    0    0 -0.75728594036E+01 -0.19743459070E+02  0.56893835061E+00  0.21153630107E+02  0.51100000000E-03 0. -1.
        -11    1    3    3    0    0  0.22873043299E+02  0.10301582241E+02  0.19795015406E+02  0.31955302246E+02  0.51100000000E-03 0.  1.
        -12    1    3    3    0    0 -0.20824360171E+00 -0.48923484917E+01  0.37914459191E+01  0.61930203713E+01  0.00000000000E+00 0.  1.
</event>
<event>
 7    1  0.7821043E-012  0.5930195E+02  0.7816164E-02  0.1266605E+00
        -11   -1    0    0    0    0  0.00000000000E+00  0.00000000000E+00  0.45593999997E+02  0.45594000000E+02  0.51100000000E-03 0.  1.
         11   -1    0    0    0    0 -0.00000000000E+00 -0.00000000000E+00 -0.45593999997E+02  0.45594000000E+02  0.51100000000E-03 0. -1.
    9900012    2    1    2    0    0  0.94098547020E+00  0.24808757403E+02  0.20009008635E+02  0.59301947813E+02  0.50000006903E+02 0.  0.
         12    1    1    2    0    0 -0.94098547020E+00 -0.24808757403E+02 -0.20009008635E+02  0.31886052187E+02  0.00000000000E+00 0. -1.
         11    1    3    3    0    0 -0.62967970314E+01 -0.76985998872E+00 -0.26380886584E+00  0.63491678696E+01  0.51100000000E-03 0. -1.
        -11    1    3    3    0    0  0.69582934205E+01  0.27893734112E+02 -0.35939962826E+01  0.28972315399E+02  0.51100000000E-03 0.  1.
        -12    1    3    3    0    0  0.27948908111E+00 -0.23151167210E+01  0.23866813783E+02  0.23980464544E+02  0.00000000000E+00 0.  1.
</event>
<event>
 7    1  0.7821043E-012  0.5930195E+02  0.7816164E-02  0.1266605E+00
        -11   -1    0    0    0    0  0.00000000000E+00  0.00000000000E+00  0.45593999997E+02  0.45594000000E+02  0.51100000000E-03 0.  1.
         11   -1    0    0    0    0 -0.00000000000E+00 -0.00000000000E+00 -0.45593999997E+02  0.45594000000E+02  0.51100000000E-03 0. -1.
    9900012    2    1    2    0    0 -0.12103965817E+02 -0.21023684419E+02  0.20693449141E+02  0.59301950818E+02  0.50000012384E+02 0.  0.
         12    1    1    2    0    0  0.12103965817E+02  0.21023684419E+02 -0.20693449141E+02  0.31886049182E+02  0.00000000000E+00 0. -1.
         11    1    3    3    0    0  0.15370425336E+02 -0.14459505825E+02  0.14072651373E+02  0.25364676238E+02  0.51100000000E-03 0. -1.
        -11    1    3    3    0    0 -0.98543007158E+01  0.58682113504E+01  0.42973382161E+01  0.12247867694E+02  0.51100000000E-03 0.  1.
         12    1    3    3    0    0 -0.17620090438E+02 -0.12432389945E+02  0.23234595521E+01  0.21689406886E+02  0.00000000000E+00 0. -1.
</event>
<event>
 7    1  0.7821043E-012  0.5930195E+02  0.7816164E-02  0.1266605E+00
        -11   -1    0    0    0    0  0.00000000000E+00  0.00000000000E+00  0.45593999997E+02  0.45594000000E+02  0.51100000000E-03 0. -1.
         11   -1    0    0    0    0 -0.00000000000E+00 -0.00000000000E+00 -0.45593999997E+02  0.45594000000E+02  0.51100000000E-03 0.  1.
    9900012    2    1    2    0    0 -0.70049490566E+01  0.75148430618E+01 -0.30185729231E+02  0.59301946203E+02  0.50000003967E+02 0.  0.
         12    1    1    2    0    0  0.70049490566E+01 -0.75148430618E+01  0.30185729231E+02  0.31886053797E+02  0.00000000000E+00 0. -1.
         11    1    3    3    0    0 -0.14818077995E+01  0.38133289881E+01 -0.38552918864E+02  0.38769379483E+02  0.51100000000E-03 0. -1.
        -11    1    3    3    0    0 -0.11655855109E+02  0.36928915376E+01  0.35431466373E+01  0.12729897666E+02  0.51100000000E-03 0.  1.
         12    1    3    3    0    0  0.61327138523E+01  0.86225361204E-02  0.48240429951E+01  0.78026690537E+01  0.00000000000E+00 0. -1.
</event>
<event>
 7    1  0.7821043E-012  0.5930233E+02  0.7816164E-02  0.1266603E+00
        -11   -1    0    0    0    0  0.00000000000E+00  0.00000000000E+00  0.45593999997E+02  0.45594000000E+02  0.51100000000E-03 0.  1.
         11   -1    0    0    0    0 -0.00000000000E+00 -0.00000000000E+00 -0.45593999997E+02  0.45594000000E+02  0.51100000000E-03 0. -1.
    9900012    2    1    2    0    0 -0.45199989177E+01 -0.12054679941E+02  0.29171053944E+02  0.59302327875E+02  0.50000700040E+02 0.  0.
         12    1    1    2    0    0  0.45199989177E+01  0.12054679941E+02 -0.29171053944E+02  0.31885672125E+02  0.00000000000E+00 0. -1.
         11    1    3    3    0    0 -0.97846848017E+00  0.14957215270E+02  0.19559928564E+00  0.14990461918E+02  0.51100000000E-03 0. -1.
        -11    1    3    3    0    0 -0.71152704659E+01 -0.12414721736E+02  0.24936456866E+02  0.28750291666E+02  0.51100000000E-03 0.  1.
        -12    1    3    3    0    0  0.35737400283E+01 -0.14597173474E+02  0.40389977922E+01  0.15561574291E+02  0.00000000000E+00 0.  1.
</event>
<event>
 7    1  0.7821043E-012  0.5930198E+02  0.7816164E-02  0.1266605E+00
        -11   -1    0    0    0    0  0.00000000000E+00  0.00000000000E+00  0.45593999997E+02  0.45594000000E+02  0.51100000000E-03 0.  1.
         11   -1    0    0    0    0 -0.00000000000E+00 -0.00000000000E+00 -0.45593999997E+02  0.45594000000E+02  0.51100000000E-03 0. -1.
    9900012    2    1    2    0    0  0.19076094493E+02  0.19549117396E+02  0.16451522678E+02  0.59301984719E+02  0.50000074211E+02 0.  0.
         12    1    1    2    0    0 -0.19076094493E+02 -0.19549117396E+02 -0.16451522678E+02  0.31886015281E+02  0.00000000000E+00 0. -1.
         11    1    3    3    0    0  0.26134114492E+02 -0.58690754322E+01  0.15729166234E+02  0.31061948705E+02  0.51100000000E-03 0. -1.
        -11    1    3    3    0    0  0.23080401608E+01  0.64387335415E+01  0.17166274764E+01  0.70520315623E+01  0.51100000000E-03 0.  1.
         12    1    3    3    0    0 -0.93660601593E+01  0.18979459287E+02 -0.99427103295E+00  0.21188004451E+02  0.00000000000E+00 0. -1.
</event>
<event>
 7    1  0.7821043E-012  0.5930231E+02  0.7816164E-02  0.1266603E+00
        -11   -1    0    0    0    0  0.00000000000E+00  0.00000000000E+00  0.45593999997E+02  0.45594000000E+02  0.51100000000E-03 0.  1.
         11   -1    0    0    0    0 -0.00000000000E+00 -0.00000000000E+00 -0.45593999997E+02  0.45594000000E+02  0.51100000000E-03 0. -1.
    9900012    2    1    2    0    0 -0.24523145649E+02  0.11491291316E+02  0.16830416474E+02  0.59302307796E+02  0.50000663421E+02 0.  0.
         12    1    1    2    0    0  0.24523145649E+02 -0.11491291316E+02 -0.16830416474E+02  0.31885692204E+02  0.00000000000E+00 0. -1.
         11    1    3    3    0    0 -0.15164569060E+02 -0.10163187540E+02  0.27035193401E+02  0.32621407361E+02  0.51100000000E-03 0. -1.
        -11    1    3    3    0    0 -0.65722364714E+01  0.88687714883E+01 -0.19512359375E+01  0.11209670909E+02  0.51100000000E-03 0.  1.
         12    1    3    3    0    0 -0.27863401181E+01  0.12785707368E+02 -0.82535409894E+01  0.15471229525E+02  0.00000000000E+00 0. -1.
</event>
<event>
 7    1  0.7821043E-012  0.5930198E+02  0.7816164E-02  0.1266605E+00
        -11   -1    0    0    0    0  0.00000000000E+00  0.00000000000E+00  0.45593999997E+02  0.45594000000E+02  0.51100000000E-03 0. -1.
         11   -1    0    0    0    0 -0.00000000000E+00 -0.00000000000E+00 -0.45593999997E+02  0.45594000000E+02  0.51100000000E-03 0.  1.
    9900012    2    1    2    0    0  0.20346260206E+02 -0.15206862286E+02 -0.19274314252E+02  0.59301981828E+02  0.50000068939E+02 0.  0.
         12    1    1    2    0    0 -0.20346260206E+02  0.15206862286E+02  0.19274314252E+02  0.31886018172E+02  0.00000000000E+00 0. -1.
         11    1    3    3    0    0  0.19829681873E+02 -0.21587367297E+02 -0.12189641205E+02  0.31746150364E+02  0.51100000000E-03 0. -1.
        -11    1    3    3    0    0 -0.11039847127E+02  0.15001245260E+01 -0.96641327627E+01  0.14748696909E+02  0.51100000000E-03 0.  1.
        -12    1    3    3    0    0  0.11556425460E+02  0.48803804848E+01  0.25794597152E+01  0.12807134555E+02  0.00000000000E+00 0.  1.
</event>
<event>
 7    1  0.7821043E-012  0.5930195E+02  0.7816164E-02  0.1266605E+00
        -11   -1    0    0    0    0  0.00000000000E+00  0.00000000000E+00  0.45593999997E+02  0.45594000000E+02  0.51100000000E-03 0.  1.
         11   -1    0    0    0    0 -0.00000000000E+00 -0.00000000000E+00 -0.45593999997E+02  0.45594000000E+02  0.51100000000E-03 0. -1.
    9900012    2    1    2    0    0  0.28526220270E+02  0.42811586486E+01  0.13588467385E+02  0.59301952767E+02  0.50000015939E+02 0.  0.
         12    1    1    2    0    0 -0.28526220270E+02 -0.42811586486E+01 -0.13588467385E+02  0.31886047233E+02  0.00000000000E+00 0. -1.
         11    1    3    3    0    0  0.10616814909E+02 -0.55416556473E+01 -0.10238453047E+01  0.12019773941E+02  0.51100000000E-03 0. -1.
        -11    1    3    3    0    0  0.22611174807E+02  0.10988016165E+02  0.25226876159E+02  0.35614561718E+02  0.51100000000E-03 0.  1.
        -12    1    3    3    0    0 -0.47017694465E+01 -0.11652018690E+01 -0.10614563469E+02  0.11667617108E+02  0.00000000000E+00 0.  1.
</event>
<event>
 7    1  0.7821043E-012  0.5930181E+02  0.7816164E-02  0.1266605E+00
        -11   -1    0    0    0    0  0.00000000000E+00  0.00000000000E+00  0.45593999997E+02  0.45594000000E+02  0.51100000000E-03 0.  1.
         11   -1    0    0    0    0 -0.00000000000E+00 -0.00000000000E+00 -0.45593999997E+02  0.45594000000E+02  0.51100000000E-03 0. -1.
    9900012    2    1    2    0    0  0.46279592317E+01  0.18471965199E+02 -0.25575328734E+02  0.59301812633E+02  0.49999760367E+02 0.  0.
         12    1    1    2    0    0 -0.46279592317E+01 -0.18471965199E+02  0.25575328734E+02  0.31886187367E+02  0.00000000000E+00 0. -1.
         11    1    3    3    0    0 -0.16192427827E+02  0.61530919974E+01 -0.22135807975E+02  0.28107814839E+02  0.51100000000E-03 0. -1.
        -11    1    3    3    0    0  0.17737871096E+02  0.39355604494E+01  0.50637106226E+01  0.18861650845E+02  0.51100000000E-03 0.  1.
        -12    1    3    3    0    0  0.30825159626E+01  0.83833127521E+01 -0.85032313816E+01  0.12332346950E+02  0.00000000000E+00 0.  1.
</event>
<event>
 7    1  0.7821043E-012  0.5930194E+02  0.7816164E-02  0.1266605E+00
        -11   -1    0    0    0    0  0.00000000000E+00  0.00000000000E+00  0.45593999997E+02  0.45594000000E+02  0.51100000000E-03 0. -1.
         11   -1    0    0    0    0 -0.00000000000E+00 -0.00000000000E+00 -0.45593999997E+02  0.45594000000E+02  0.51100000000E-03 0.  1.
    9900012    2    1    2    0    0 -0.26739205921E+02 -0.16869202230E+02 -0.41431720792E+01  0.59301937339E+02  0.49999987801E+02 0.  0.
         12    1    1    2    0    0  0.26739205921E+02  0.16869202230E+02  0.41431720792E+01  0.31886062661E+02  0.00000000000E+00 0. -1.
         11    1    3    3    0    0  0.14655368452E+01 -0.13729567222E+02  0.57641344690E+01  0.14962421622E+02  0.51100000000E-03 0. -1.
        -11    1    3    3    0    0 -0.19667910396E+02  0.84702684185E+01 -0.17855972553E+02  0.27882035480E+02  0.51100000000E-03 0.  1.
        -12    1    3    3    0    0 -0.85368323700E+01 -0.11609903426E+02  0.79486660051E+01  0.16457480237E+02  0.00000000000E+00 0.  1.
</event>
<event>
 7    1  0.7821043E-012  0.5930204E+02  0.7816164E-02  0.1266604E+00
        -11   -1    0    0    0    0  0.00000000000E+00  0.00000000000E+00  0.45593999997E+02  0.45594000000E+02  0.51100000000E-03 0. -1.
         11   -1    0    0    0    0 -0.00000000000E+00 -0.00000000000E+00 -0.45593999997E+02  0.45594000000E+02  0.51100000000E-03 0.  1.
    9900012    2    1    2    0    0 -0.52987434355E+01  0.28913274831E+02 -0.12355573887E+02  0.59302041499E+02  0.50000177764E+02 0.  0.
         12    1    1    2    0    0  0.52987434355E+01 -0.28913274831E+02  0.12355573887E+02  0.31885958501E+02  0.00000000000E+00 0. -1.
         11    1    3    3    0    0 -0.16444200439E+02 -0.72843233552E+01 -0.25919737231E+01  0.18171170102E+02  0.51100000000E-03 0. -1.
        -11    1    3    3    0    0  0.11395553762E+02  0.17600958113E+02 -0.23107188050E+01  0.21094828601E+02  0.51100000000E-03 0.  1.
         12    1    3    3    0    0 -0.25009675784E+00  0.18596640073E+02 -0.74528813584E+01  0.20036042797E+02  0.00000000000E+00 0. -1.
</event>
<event>
 7    1  0.7821043E-012  0.5930190E+02  0.7816164E-02  0.1266605E+00
        -11   -1    0    0    0    0  0.00000000000E+00  0.00000000000E+00  0.45593999997E+02  0.45594000000E+02  0.51100000000E-03 0.  1.
         11   -1    0    0    0    0 -0.00000000000E+00 -0.00000000000E+00 -0.45593999997E+02  0.45594000000E+02  0.51100000000E-03 0. -1.
    9900012    2    1    2    0    0 -0.12170871203E+02 -0.27371539668E+02  0.10926661432E+02  0.59301902407E+02  0.49999924094E+02 0.  0.
         12    1    1    2    0    0  0.12170871203E+02  0.27371539668E+02 -0.10926661432E+02  0.31886097593E+02  0.00000000000E+00 0. -1.
         11    1    3    3    0    0 -0.15034354443E+02 -0.73753629710E+01 -0.12239858702E+02  0.20742274075E+02  0.51100000000E-03 0. -1.
        -11    1    3    3    0    0  0.13100642315E+02 -0.10117055210E+02  0.11410399389E+02  0.20104199802E+02  0.51100000000E-03 0.  1.
         12    1    3    3    0    0 -0.10237159075E+02 -0.98791214867E+01  0.11756120745E+02  0.18455428531E+02  0.00000000000E+00 0. -1.
</event>
<event>
 7    1  0.7821043E-012  0.5930192E+02  0.7816164E-02  0.1266605E+00
        -11   -1    0    0    0    0  0.00000000000E+00  0.00000000000E+00  0.45593999997E+02  0.45594000000E+02  0.51100000000E-03 0.  1.
         11   -1    0    0    0    0 -0.00000000000E+00 -0.00000000000E+00 -0.45593999997E+02  0.45594000000E+02  0.51100000000E-03 0. -1.
    9900012    2    1    2    0    0 -0.30990905073E+02  0.21073728678E+01  0.72003446516E+01  0.59301918699E+02  0.49999953806E+02 0.  0.
         12    1    1    2    0    0  0.30990905073E+02 -0.21073728678E+01 -0.72003446516E+01  0.31886081301E+02  0.00000000000E+00 0. -1.
         11    1    3    3    0    0 -0.10903126052E+02  0.12851536524E+01 -0.13483557810E+02  0.17387814960E+02  0.51100000000E-03 0. -1.
        -11    1    3    3    0    0 -0.27992888053E+02  0.23774806395E+01  0.18237620671E+02  0.33494253294E+02  0.51100000000E-03 0.  1.
        -12    1    3    3    0    0  0.79051090321E+01 -0.15552614241E+01  0.24462817903E+01  0.84198504443E+01  0.00000000000E+00 0.  1.
</event>
<event>
 7    1  0.7821043E-012  0.5930195E+02  0.7816164E-02  0.1266605E+00
        -11   -1    0    0    0    0  0.00000000000E+00  0.00000000000E+00  0.45593999997E+02  0.45594000000E+02  0.51100000000E-03 0. -1.
         11   -1    0    0    0    0 -0.00000000000E+00 -0.00000000000E+00 -0.45593999997E+02  0.45594000000E+02  0.51100000000E-03 0.  1.
    9900012    2    1    2    0    0 -0.68056039142E+01  0.92299938557E+01 -0.29752497373E+02  0.59301950839E+02  0.50000012422E+02 0.  0.
         12    1    1    2    0    0  0.68056039142E+01 -0.92299938557E+01  0.29752497373E+02  0.31886049161E+02  0.00000000000E+00 0. -1.
         11    1    3    3    0    0 -0.65385498791E+01 -0.10127537932E+02 -0.17982186533E+02  0.21648988240E+02  0.51100000000E-03 0. -1.
        -11    1    3    3    0    0  0.12516828506E+02  0.18213479308E+02 -0.34767828096E+01  0.22371630324E+02  0.51100000000E-03 0.  1.
        -12    1    3    3    0    0 -0.12783882541E+02  0.11440524790E+01 -0.82935280302E+01  0.15281332275E+02  0.00000000000E+00 0.  1.
</event>
<event>
 7    1  0.7821043E-012  0.5930195E+02  0.7816164E-02  0.1266605E+00
        -11   -1    0    0    0    0  0.00000000000E+00  0.00000000000E+00  0.45593999997E+02  0.45594000000E+02  0.51100000000E-03 0.  1.
         11   -1    0    0    0    0 -0.00000000000E+00 -0.00000000000E+00 -0.45593999997E+02  0.45594000000E+02  0.51100000000E-03 0. -1.
    9900012    2    1    2    0    0  0.18350120579E+02  0.23856707645E+02  0.10528569549E+02  0.59301949733E+02  0.50000010405E+02 0.  0.
         12    1    1    2    0    0 -0.18350120579E+02 -0.23856707645E+02 -0.10528569549E+02  0.31886050267E+02  0.00000000000E+00 0. -1.
         11    1    3    3    0    0  0.81506085487E+00 -0.16826901096E+01 -0.82970446647E+01  0.85050996838E+01  0.51100000000E-03 0. -1.
        -11    1    3    3    0    0  0.28735629567E+01  0.29098493203E+02  0.37691243477E+01  0.29481960067E+02  0.51100000000E-03 0.  1.
        -12    1    3    3    0    0  0.14661496767E+02 -0.35590954493E+01  0.15056489866E+02  0.21314889982E+02  0.00000000000E+00 0.  1.
</event>
<event>
 7    1  0.7821043E-012  0.5930196E+02  0.7816164E-02  0.1266605E+00
        -11   -1    0    0    0    0  0.00000000000E+00  0.00000000000E+00  0.45593999997E+02  0.45594000000E+02  0.51100000000E-03 0. -1.
         11   -1    0    0    0    0 -0.00000000000E+00 -0.00000000000E+00 -0.45593999997E+02  0.45594000000E+02  0.51100000000E-03 0.  1.
    9900012    2    1    2    0    0  0.22272788794E+01 -0.16860773597E+01 -0.31763434896E+02  0.59301961919E+02  0.50000032630E+02 0.  0.
         12    1    1    2    0    0 -0.22272788794E+01  0.16860773597E+01  0.31763434896E+02  0.31886038081E+02  0.00000000000E+00 0. -1.
         11    1    3    3    0    0 -0.19196114474E+01  0.28236788198E+01 -0.32497707554E+02  0.32676582850E+02  0.51100000000E-03 0. -1.
        -11    1    3    3    0    0 -0.36183863499E+01 -0.12736765121E+02  0.55154446683E+01  0.14343571231E+02  0.51100000000E-03 0.  1.
         12    1    3    3    0    0  0.77652766767E+01  0.82270089413E+01 -0.47811720104E+01  0.12281807838E+02  0.00000000000E+00 0. -1.
</event>
<event>
 7    1  0.7821043E-012  0.5930201E+02  0.7816164E-02  0.1266605E+00
        -11   -1    0    0    0    0  0.00000000000E+00  0.00000000000E+00  0.45593999997E+02  0.45594000000E+02  0.51100000000E-03 0.  1.
         11   -1    0    0    0    0 -0.00000000000E+00 -0.00000000000E+00 -0.45593999997E+02  0.45594000000E+02  0.51100000000E-03 0. -1.
    9900012    2    1    2    0    0 -0.82271875444E+01  0.28833161129E+02  0.10847978901E+02  0.59302008690E+02  0.50000117929E+02 0.  0.
         12    1    1    2    0    0  0.82271875444E+01 -0.28833161129E+02 -0.10847978901E+02  0.31885991310E+02  0.00000000000E+00 0. -1.
         11    1    3    3    0    0 -0.46567055817E+01 -0.70276143668E+01  0.18143562901E+01  0.86234656358E+01  0.51100000000E-03 0. -1.
        -11    1    3    3    0    0  0.16332998977E+01  0.31722890232E+02 -0.76894446512E+01  0.32682365161E+02  0.51100000000E-03 0.  1.
        -12    1    3    3    0    0 -0.52037818603E+01  0.41378852637E+01  0.16723067262E+02  0.17996177893E+02  0.00000000000E+00 0.  1.
</event>
<event>
 7    1  0.7821043E-012  0.5930199E+02  0.7816164E-02  0.1266605E+00
        -11   -1    0    0    0    0  0.00000000000E+00  0.00000000000E+00  0.45593999997E+02  0.45594000000E+02  0.51100000000E-03 0.  1.
         11   -1    0    0    0    0 -0.00000000000E+00 -0.00000000000E+00 -0.45593999997E+02  0.45594000000E+02  0.51100000000E-03 0. -1.
    9900012    2    1    2    0    0  0.21951185825E+02 -0.18223723357E+02  0.14239351574E+02  0.59301987622E+02  0.50000079506E+02 0.  0.
         12    1    1    2    0    0 -0.21951185825E+02  0.18223723357E+02 -0.14239351574E+02  0.31886012378E+02  0.00000000000E+00 0. -1.
         11    1    3    3    0    0  0.24050081720E+02 -0.24583348423E+02  0.95399838082E+01  0.35689756818E+02  0.51100000000E-03 0. -1.
        -11    1    3    3    0    0 -0.55161763261E+01 -0.69301012098E+01 -0.65705022136E+00  0.88817914462E+01  0.51100000000E-03 0.  1.
         12    1    3    3    0    0  0.34172804305E+01  0.13289726275E+02  0.53564179876E+01  0.14730439358E+02  0.00000000000E+00 0. -1.
</event>
<event>
 7    1  0.7821043E-012  0.5930195E+02  0.7816164E-02  0.1266605E+00
        -11   -1    0    0    0    0  0.00000000000E+00  0.00000000000E+00  0.45593999997E+02  0.45594000000E+02  0.51100000000E-03 0.  1.
         11   -1    0    0    0    0 -0.00000000000E+00 -0.00000000000E+00 -0.45593999997E+02  0.45594000000E+02  0.51100000000E-03 0. -1.
    9900012    2    1    2    0    0 -0.11026153623E+02 -0.29553470719E+02  0.46622211356E+01  0.59301952876E+02  0.50000016137E+02 0.  0.
         12    1    1    2    0    0  0.11026153623E+02  0.29553470719E+02 -0.46622211356E+01  0.31886047124E+02  0.00000000000E+00 0. -1.
         11    1    3    3    0    0 -0.22283149712E+01 -0.27881173866E+01  0.22158460055E+02  0.22444071343E+02  0.51100000000E-03 0. -1.
        -11    1    3    3    0    0 -0.74064200587E+01 -0.27257546617E+02 -0.11190694896E+02  0.30381911694E+02  0.51100000000E-03 0.  1.
         12    1    3    3    0    0 -0.13914185928E+01  0.49219328423E+00 -0.63055440235E+01  0.64759698394E+01  0.00000000000E+00 0. -1.
</event>
<event>
 7    1  0.7821043E-012  0.5930194E+02  0.7816164E-02  0.1266605E+00
        -11   -1    0    0    0    0  0.00000000000E+00  0.00000000000E+00  0.45593999997E+02  0.45594000000E+02  0.51100000000E-03 0. -1.
         11   -1    0    0    0    0 -0.00000000000E+00 -0.00000000000E+00 -0.45593999997E+02  0.45594000000E+02  0.51100000000E-03 0.  1.
    9900012    2    1    2    0    0  0.29472933034E+02 -0.11761586602E+02 -0.31196666788E+01  0.59301936881E+02  0.49999986967E+02 0.  0.
         12    1    1    2    0    0 -0.29472933034E+02  0.11761586602E+02  0.31196666788E+01  0.31886063119E+02  0.00000000000E+00 0. -1.
         11    1    3    3    0    0 -0.70974098791E+01  0.12615734078E+01  0.50376663986E+00  0.72262421454E+01  0.51100000000E-03 0. -1.
        -11    1    3    3    0    0  0.11061656994E+02 -0.21877528195E+02  0.16242205439E+01  0.24568772619E+02  0.51100000000E-03 0.  1.
        -12    1    3    3    0    0  0.25508685919E+02  0.88543681849E+01 -0.52476538626E+01  0.27506922117E+02  0.00000000000E+00 0.  1.
</event>
<event>
 7    1  0.7821043E-012  0.5930194E+02  0.7816164E-02  0.1266605E+00
        -11   -1    0    0    0    0  0.00000000000E+00  0.00000000000E+00  0.45593999997E+02  0.45594000000E+02  0.51100000000E-03 0. -1.
         11   -1    0    0    0    0 -0.00000000000E+00 -0.00000000000E+00 -0.45593999997E+02  0.45594000000E+02  0.51100000000E-03 0.  1.
    9900012    2    1    2    0    0 -0.15294085623E+02 -0.18099998052E+02 -0.21335455579E+02  0.59301942714E+02  0.49999997603E+02 0.  0.
         12    1    1    2    0    0  0.15294085623E+02  0.18099998052E+02  0.21335455579E+02  0.31886057286E+02  0.00000000000E+00 0. -1.
         11    1    3    3    0    0 -0.54942205586E+01 -0.11889218408E+02 -0.60627104574E+01  0.14432478382E+02  0.51100000000E-03 0. -1.
        -11    1    3    3    0    0  0.12360634899E+02  0.79401563841E+01 -0.10716190882E+02  0.18184282383E+02  0.51100000000E-03 0.  1.
        -12    1    3    3    0    0 -0.22160499963E+02 -0.14150936028E+02 -0.45565542398E+01  0.26685181948E+02  0.00000000000E+00 0.  1.
</event>
<event>
 7    1  0.7821043E-012  0.5930196E+02  0.7816164E-02  0.1266605E+00
        -11   -1    0    0    0    0  0.00000000000E+00  0.00000000000E+00  0.45593999997E+02  0.45594000000E+02  0.51100000000E-03 0.  1.
         11   -1    0    0    0    0 -0.00000000000E+00 -0.00000000000E+00 -0.45593999997E+02  0.45594000000E+02  0.51100000000E-03 0. -1.
    9900012    2    1    2    0    0  0.57416877822E+01  0.23017273106E+02  0.21306280854E+02  0.59301961619E+02  0.50000032083E+02 0.  0.
         12    1    1    2    0    0 -0.57416877822E+01 -0.23017273106E+02 -0.21306280854E+02  0.31886038381E+02  0.00000000000E+00 0. -1.
         11    1    3    3    0    0 -0.15109972410E+02 -0.27290726883E+01  0.54254122592E+01  0.16284784384E+02  0.51100000000E-03 0. -1.
        -11    1    3    3    0    0  0.19854365486E+02  0.29136991109E+02  0.17218548777E+02  0.39238227559E+02  0.51100000000E-03 0.  1.
        -12    1    3    3    0    0  0.99729470644E+00 -0.33906453154E+01 -0.13376801823E+01  0.37789496764E+01  0.00000000000E+00 0.  1.
</event>
<event>
 7    1  0.7821043E-012  0.5930196E+02  0.7816164E-02  0.1266605E+00
        -11   -1    0    0    0    0  0.00000000000E+00  0.00000000000E+00  0.45593999997E+02  0.45594000000E+02  0.51100000000E-03 0.  1.
         11   -1    0    0    0    0 -0.00000000000E+00 -0.00000000000E+00 -0.45593999997E+02  0.45594000000E+02  0.51100000000E-03 0. -1.
    9900012    2    1    2    0    0  0.29204583352E+02 -0.76883578742E+01 -0.10232362072E+02  0.59301956515E+02  0.50000022774E+02 0.  0.
         12    1    1    2    0    0 -0.29204583352E+02  0.76883578742E+01  0.10232362072E+02  0.31886043485E+02  0.00000000000E+00 0. -1.
         11    1    3    3    0    0  0.68514931063E+01  0.10631001325E+02 -0.84244793780E+01  0.15196479856E+02  0.51100000000E-03 0. -1.
        -11    1    3    3    0    0  0.24635155480E+02 -0.25637030814E+02 -0.47990527873E+01  0.35877278915E+02  0.51100000000E-03 0.  1.
        -12    1    3    3    0    0 -0.22820652342E+01  0.73176716146E+01  0.29911700933E+01  0.82281977443E+01  0.00000000000E+00 0.  1.
</event>
<event>
 7    1  0.7821043E-012  0.5930194E+02  0.7816164E-02  0.1266605E+00
        -11   -1    0    0    0    0  0.00000000000E+00  0.00000000000E+00  0.45593999997E+02  0.45594000000E+02  0.51100000000E-03 0.  1.
         11   -1    0    0    0    0 -0.00000000000E+00 -0.00000000000E+00 -0.45593999997E+02  0.45594000000E+02  0.51100000000E-03 0. -1.
    9900012    2    1    2    0    0  0.25951822368E+02 -0.11035239856E+02 -0.14881105030E+02  0.59301938942E+02  0.49999990724E+02 0.  0.
         12    1    1    2    0    0 -0.25951822368E+02  0.11035239856E+02  0.14881105030E+02  0.31886061058E+02  0.00000000000E+00 0. -1.
         11    1    3    3    0    0  0.20654198676E+02  0.75412789158E+01 -0.22282388111E+02  0.31304498572E+02  0.51100000000E-03 0. -1.
        -11    1    3    3    0    0  0.96885253591E+01 -0.21352015736E+01  0.36514800982E+01  0.10571656283E+02  0.51100000000E-03 0.  1.
         12    1    3    3    0    0 -0.43909016667E+01 -0.16441317198E+02  0.37498029830E+01  0.17425784087E+02  0.00000000000E+00 0. -1.
</event>
<event>
 7    1  0.7821043E-012  0.5930188E+02  0.7816164E-02  0.1266605E+00
        -11   -1    0    0    0    0  0.00000000000E+00  0.00000000000E+00  0.45593999997E+02  0.45594000000E+02  0.51100000000E-03 0.  1.
         11   -1    0    0    0    0 -0.00000000000E+00 -0.00000000000E+00 -0.45593999997E+02  0.45594000000E+02  0.51100000000E-03 0. -1.
    9900012    2    1    2    0    0 -0.24225263812E+02  0.10738540685E+02 -0.17735420127E+02  0.59301877786E+02  0.49999879190E+02 0.  0.
         12    1    1    2    0    0  0.24225263812E+02 -0.10738540685E+02  0.17735420127E+02  0.31886122214E+02  0.00000000000E+00 0. -1.
         11    1    3    3    0    0 -0.52926489847E+01 -0.16481282982E+02 -0.19389653716E+02  0.25992373756E+02  0.51100000000E-03 0. -1.
        -11    1    3    3    0    0 -0.49053762922E+01  0.52174419965E+01  0.74869143712E+00  0.72003442059E+01  0.51100000000E-03 0.  1.
         12    1    3    3    0    0 -0.14027238535E+02  0.22002381670E+02  0.90554215195E+00  0.26109159823E+02  0.00000000000E+00 0. -1.
</event>
<event>
 7    1  0.7821043E-012  0.5930195E+02  0.7816164E-02  0.1266605E+00
        -11   -1    0    0    0    0  0.00000000000E+00  0.00000000000E+00  0.45593999997E+02  0.45594000000E+02  0.51100000000E-03 0.  1.
         11   -1    0    0    0    0 -0.00000000000E+00 -0.00000000000E+00 -0.45593999997E+02  0.45594000000E+02  0.51100000000E-03 0. -1.
    9900012    2    1    2    0    0 -0.22631994288E+02  0.22317771058E+01  0.22350221703E+02  0.59301946549E+02  0.50000004598E+02 0.  0.
         12    1    1    2    0    0  0.22631994288E+02 -0.22317771058E+01 -0.22350221703E+02  0.31886053451E+02  0.00000000000E+00 0. -1.
         11    1    3    3    0    0 -0.16212792171E+02 -0.90880501068E+00 -0.53185405855E+01  0.17087054479E+02  0.51100000000E-03 0. -1.
        -11    1    3    3    0    0  0.90927293724E+01  0.10676278966E+02  0.83615962676E+01  0.16327184461E+02  0.51100000000E-03 0.  1.
         12    1    3    3    0    0 -0.15511931489E+02 -0.75356968498E+01  0.19307166021E+02  0.25887707610E+02  0.00000000000E+00 0. -1.
</event>
<event>
 7    1  0.7821043E-012  0.5930197E+02  0.7816164E-02  0.1266605E+00
        -11   -1    0    0    0    0  0.00000000000E+00  0.00000000000E+00  0.45593999997E+02  0.45594000000E+02  0.51100000000E-03 0. -1.
         11   -1    0    0    0    0 -0.00000000000E+00 -0.00000000000E+00 -0.45593999997E+02  0.45594000000E+02  0.51100000000E-03 0.  1.
    9900012    2    1    2    0    0  0.16898729280E+02 -0.17246637625E+02 -0.20825600757E+02  0.59301965321E+02  0.50000038834E+02 0.  0.
         12    1    1    2    0    0 -0.16898729280E+02  0.17246637625E+02  0.20825600757E+02  0.31886034679E+02  0.00000000000E+00 0. -1.
         11    1    3    3    0    0  0.83837419375E+01  0.10975343980E+02  0.17122343866E+01  0.13916790263E+02  0.51100000000E-03 0. -1.
        -11    1    3    3    0    0  0.16255836728E+02 -0.26226130578E+02 -0.14657324172E+02  0.34159907859E+02  0.51100000000E-03 0.  1.
         12    1    3    3    0    0 -0.77408493848E+01 -0.19958510275E+01 -0.78805109717E+01  0.11225267199E+02  0.00000000000E+00 0. -1.
</event>
<event>
 7    1  0.7821043E-012  0.5930196E+02  0.7816164E-02  0.1266605E+00
        -11   -1    0    0    0    0  0.00000000000E+00  0.00000000000E+00  0.45593999997E+02  0.45594000000E+02  0.51100000000E-03 0. -1.
         11   -1    0    0    0    0 -0.00000000000E+00 -0.00000000000E+00 -0.45593999997E+02  0.45594000000E+02  0.51100000000E-03 0.  1.
    9900012    2    1    2    0    0  0.30920109574E+02  0.71444393605E+01 -0.31021756884E+01  0.59301957852E+02  0.50000025213E+02 0.  0.
         12    1    1    2    0    0 -0.30920109574E+02 -0.71444393605E+01  0.31021756884E+01  0.31886042148E+02  0.00000000000E+00 0. -1.
         11    1    3    3    0    0  0.67817973731E+00  0.39984411371E+01  0.75818778452E+01  0.85983911986E+01  0.51100000000E-03 0. -1.
        -11    1    3    3    0    0 -0.73649279387E-01 -0.15397831253E+01 -0.18887277752E+02  0.18950082253E+02  0.51100000000E-03 0.  1.
        -12    1    3    3    0    0  0.30315579116E+02  0.46857813487E+01  0.82032242180E+01  0.31753484400E+02  0.00000000000E+00 0.  1.
</event>
<event>
 7    1  0.7821043E-012  0.5930190E+02  0.7816164E-02  0.1266605E+00
        -11   -1    0    0    0    0  0.00000000000E+00  0.00000000000E+00  0.45593999997E+02  0.45594000000E+02  0.51100000000E-03 0. -1.
         11   -1    0    0    0    0 -0.00000000000E+00 -0.00000000000E+00 -0.45593999997E+02  0.45594000000E+02  0.51100000000E-03 0.  1.
    9900012    2    1    2    0    0 -0.12803533290E+02 -0.71390193965E+01 -0.28316550377E+02  0.59301904474E+02  0.49999927864E+02 0.  0.
         12    1    1    2    0    0  0.12803533290E+02  0.71390193965E+01  0.28316550377E+02  0.31886095526E+02  0.00000000000E+00 0. -1.
         11    1    3    3    0    0  0.10663546250E+02 -0.27712700983E+00  0.56917532540E+01  0.12090660585E+02  0.51100000000E-03 0. -1.
        -11    1    3    3    0    0 -0.10494640374E+02 -0.12190132598E+02 -0.27250861639E+02  0.31644055835E+02  0.51100000000E-03 0.  1.
        -12    1    3    3    0    0 -0.12972439166E+02  0.53282402115E+01 -0.67574419917E+01  0.15567188055E+02  0.00000000000E+00 0.  1.
</event>
<event>
 7    1  0.7821043E-012  0.5930195E+02  0.7816164E-02  0.1266605E+00
        -11   -1    0    0    0    0  0.00000000000E+00  0.00000000000E+00  0.45593999997E+02  0.45594000000E+02  0.51100000000E-03 0.  1.
         11   -1    0    0    0    0 -0.00000000000E+00 -0.00000000000E+00 -0.45593999997E+02  0.45594000000E+02  0.51100000000E-03 0. -1.
    9900012    2    1    2    0    0  0.12241143528E+02  0.64215084864E+01  0.28733934449E+02  0.59301947328E+02  0.50000006018E+02 0.  0.
         12    1    1    2    0    0 -0.12241143528E+02 -0.64215084864E+01 -0.28733934449E+02  0.31886052672E+02  0.00000000000E+00 0. -1.
         11    1    3    3    0    0 -0.44458324517E+00  0.79427777362E+01 -0.40372647790E+01  0.89210357910E+01  0.51100000000E-03 0. -1.
        -11    1    3    3    0    0  0.24708561649E+02  0.98724289312E+00  0.27593118602E+02  0.37052231535E+02  0.51100000000E-03 0.  1.
        -12    1    3    3    0    0 -0.12022834876E+02 -0.25085121429E+01  0.51780806260E+01  0.13328680002E+02  0.00000000000E+00 0.  1.
</event>
<event>
 7    1  0.7821043E-012  0.5930196E+02  0.7816164E-02  0.1266605E+00
        -11   -1    0    0    0    0  0.00000000000E+00  0.00000000000E+00  0.45593999997E+02  0.45594000000E+02  0.51100000000E-03 0.  1.
         11   -1    0    0    0    0 -0.00000000000E+00 -0.00000000000E+00 -0.45593999997E+02  0.45594000000E+02  0.51100000000E-03 0. -1.
    9900012    2    1    2    0    0 -0.47399724830E+01  0.18755200298E+01  0.31475939462E+02  0.59301957919E+02  0.50000025335E+02 0.  0.
         12    1    1    2    0    0  0.47399724830E+01 -0.18755200298E+01 -0.31475939462E+02  0.31886042081E+02  0.00000000000E+00 0. -1.
         11    1    3    3    0    0 -0.16963307311E+02 -0.15493895302E+02  0.23446556356E+02  0.32826141896E+02  0.51100000000E-03 0. -1.
        -11    1    3    3    0    0 -0.17682411917E+00  0.11210316251E+02  0.51317057314E+01  0.12330322834E+02  0.51100000000E-03 0.  1.
        -12    1    3    3    0    0  0.12400158947E+02  0.61590990810E+01  0.28976773746E+01  0.14145493189E+02  0.00000000000E+00 0.  1.
</event>
<event>
 7    1  0.7821043E-012  0.5930191E+02  0.7816164E-02  0.1266605E+00
        -11   -1    0    0    0    0  0.00000000000E+00  0.00000000000E+00  0.45593999997E+02  0.45594000000E+02  0.51100000000E-03 0.  1.
         11   -1    0    0    0    0 -0.00000000000E+00 -0.00000000000E+00 -0.45593999997E+02  0.45594000000E+02  0.51100000000E-03 0. -1.
    9900012    2    1    2    0    0 -0.16337614326E+02 -0.22318606526E+01  0.27291463214E+02  0.59301908860E+02  0.49999935862E+02 0.  0.
         12    1    1    2    0    0  0.16337614326E+02  0.22318606526E+01 -0.27291463214E+02  0.31886091140E+02  0.00000000000E+00 0. -1.
         11    1    3    3    0    0 -0.12521593875E+02  0.15536478951E+02  0.22247580966E+02  0.29885236329E+02  0.51100000000E-03 0.  1.
        -11    1    3    3    0    0  0.40915827899E+01 -0.17669213339E+02 -0.27138247490E+01  0.18338674837E+02  0.51100000000E-03 0. -1.
         12    1    3    3    0    0 -0.79076032411E+01 -0.99126263908E-01  0.77577069973E+01  0.11077997693E+02  0.00000000000E+00 0. -1.
</event>
<event>
 7    1  0.7821043E-012  0.5930187E+02  0.7816164E-02  0.1266605E+00
        -11   -1    0    0    0    0  0.00000000000E+00  0.00000000000E+00  0.45593999997E+02  0.45594000000E+02  0.51100000000E-03 0.  1.
         11   -1    0    0    0    0 -0.00000000000E+00 -0.00000000000E+00 -0.45593999997E+02  0.45594000000E+02  0.51100000000E-03 0. -1.
    9900012    2    1    2    0    0  0.23905023029E+02 -0.14732649682E+02  0.15107086952E+02  0.59301871843E+02  0.49999868352E+02 0.  0.
         12    1    1    2    0    0 -0.23905023029E+02  0.14732649682E+02 -0.15107086952E+02  0.31886128157E+02  0.00000000000E+00 0. -1.
         11    1    3    3    0    0 -0.80671295965E+01  0.50358781813E+01 -0.62321875460E+01  0.11370084030E+02  0.51100000000E-03 0. -1.
        -11    1    3    3    0    0  0.52405570591E+01 -0.14817693205E+02  0.84559139294E+01  0.17847407398E+02  0.51100000000E-03 0.  1.
         12    1    3    3    0    0  0.26731595567E+02 -0.49508346589E+01  0.12883360569E+02  0.30084380414E+02  0.00000000000E+00 0. -1.
</event>
<event>
 7    1  0.7821043E-012  0.5930194E+02  0.7816164E-02  0.1266605E+00
        -11   -1    0    0    0    0  0.00000000000E+00  0.00000000000E+00  0.45593999997E+02  0.45594000000E+02  0.51100000000E-03 0.  1.
         11   -1    0    0    0    0 -0.00000000000E+00 -0.00000000000E+00 -0.45593999997E+02  0.45594000000E+02  0.51100000000E-03 0. -1.
    9900012    2    1    2    0    0 -0.14047636372E+02  0.17513832166E+02  0.22641780482E+02  0.59301943045E+02  0.49999998207E+02 0.  0.
         12    1    1    2    0    0  0.14047636372E+02 -0.17513832166E+02 -0.22641780482E+02  0.31886056955E+02  0.00000000000E+00 0. -1.
         11    1    3    3    0    0 -0.72493114870E+01 -0.87143887397E+00 -0.10085186791E+02  0.12450819877E+02  0.51100000000E-03 0. -1.
        -11    1    3    3    0    0  0.85258795083E+01  0.68756862115E+01  0.22739257532E+02  0.25239641750E+02  0.51100000000E-03 0.  1.
         12    1    3    3    0    0 -0.15324204393E+02  0.11509584828E+02  0.99877097406E+01  0.21611481418E+02  0.00000000000E+00 0. -1.
</event>
<event>
 7    1  0.7821043E-012  0.5930194E+02  0.7816164E-02  0.1266605E+00
        -11   -1    0    0    0    0  0.00000000000E+00  0.00000000000E+00  0.45593999997E+02  0.45594000000E+02  0.51100000000E-03 0.  1.
         11   -1    0    0    0    0 -0.00000000000E+00 -0.00000000000E+00 -0.45593999997E+02  0.45594000000E+02  0.51100000000E-03 0. -1.
    9900012    2    1    2    0    0 -0.24906223802E+02  0.16277863298E+02  0.11464393158E+02  0.59301935205E+02  0.49999983909E+02 0.  0.
         12    1    1    2    0    0  0.24906223802E+02 -0.16277863298E+02 -0.11464393158E+02  0.31886064795E+02  0.00000000000E+00 0. -1.
         11    1    3    3    0    0 -0.15811515478E+02 -0.48328002059E+01 -0.97106924407E+01  0.19174397709E+02  0.51100000000E-03 0. -1.
        -11    1    3    3    0    0 -0.32213747180E+01  0.28844787093E+01  0.20516340664E+02  0.20967062432E+02  0.51100000000E-03 0.  1.
         12    1    3    3    0    0 -0.58733336060E+01  0.18226184795E+02  0.65874493423E+00  0.19160475065E+02  0.00000000000E+00 0. -1.
</event>
<event>
 7    1  0.7821043E-012  0.5930196E+02  0.7816164E-02  0.1266605E+00
        -11   -1    0    0    0    0  0.00000000000E+00  0.00000000000E+00  0.45593999997E+02  0.45594000000E+02  0.51100000000E-03 0. -1.
         11   -1    0    0    0    0 -0.00000000000E+00 -0.00000000000E+00 -0.45593999997E+02  0.45594000000E+02  0.51100000000E-03 0.  1.
    9900012    2    1    2    0    0 -0.27621578884E+02 -0.47763764772E+01 -0.15197170609E+02  0.59301962510E+02  0.50000033707E+02 0.  0.
         12    1    1    2    0    0  0.27621578884E+02  0.47763764772E+01  0.15197170609E+02  0.31886037490E+02  0.00000000000E+00 0. -1.
         11    1    3    3    0    0 -0.12944752908E+02  0.13000918941E+02 -0.12645916041E+02  0.22282497929E+02  0.51100000000E-03 0.  1.
        -11    1    3    3    0    0 -0.19115307761E+02 -0.16195107544E+02  0.73033291836E+01  0.26096266334E+02  0.51100000000E-03 0. -1.
         12    1    3    3    0    0  0.44384817850E+01 -0.15821878747E+01 -0.98545837519E+01  0.10923198247E+02  0.00000000000E+00 0. -1.
</event>
<event>
 7    1  0.7821043E-012  0.5930190E+02  0.7816164E-02  0.1266605E+00
        -11   -1    0    0    0    0  0.00000000000E+00  0.00000000000E+00  0.45593999997E+02  0.45594000000E+02  0.51100000000E-03 0. -1.
         11   -1    0    0    0    0 -0.00000000000E+00 -0.00000000000E+00 -0.45593999997E+02  0.45594000000E+02  0.51100000000E-03 0.  1.
    9900012    2    1    2    0    0  0.80645890427E+01 -0.12024127925E+01 -0.30825963598E+02  0.59301899193E+02  0.49999918232E+02 0.  0.
         12    1    1    2    0    0 -0.80645890427E+01  0.12024127925E+01  0.30825963598E+02  0.31886100807E+02  0.00000000000E+00 0. -1.
         11    1    3    3    0    0  0.16603208150E+02 -0.37449397796E+01  0.31518443579E+01  0.17309685668E+02  0.51100000000E-03 0. -1.
        -11    1    3    3    0    0 -0.34217801376E+01 -0.91742257078E+01 -0.23512696778E+02  0.25470019762E+02  0.51100000000E-03 0.  1.
         12    1    3    3    0    0 -0.51168389695E+01  0.11716752695E+02 -0.10465111177E+02  0.16522193762E+02  0.00000000000E+00 0. -1.
</event>
<event>
 7    1  0.7821043E-012  0.5930195E+02  0.7816164E-02  0.1266605E+00
        -11   -1    0    0    0    0  0.00000000000E+00  0.00000000000E+00  0.45593999997E+02  0.45594000000E+02  0.51100000000E-03 0.  1.
         11   -1    0    0    0    0 -0.00000000000E+00 -0.00000000000E+00 -0.45593999997E+02  0.45594000000E+02  0.51100000000E-03 0. -1.
    9900012    2    1    2    0    0  0.10728571710E+01  0.24997077905E+02  0.19766525311E+02  0.59301945851E+02  0.50000003326E+02 0.  0.
         12    1    1    2    0    0 -0.10728571710E+01 -0.24997077905E+02 -0.19766525311E+02  0.31886054149E+02  0.00000000000E+00 0. -1.
         11    1    3    3    0    0 -0.43702453445E-01 -0.30127419122E+01 -0.10211958845E+02  0.10647188711E+02  0.51100000000E-03 0. -1.
        -11    1    3    3    0    0 -0.91474617183E+01  0.90764689595E+01  0.22365467347E+02  0.25812254349E+02  0.51100000000E-03 0.  1.
         12    1    3    3    0    0  0.10264021343E+02  0.18933350858E+02  0.76130168096E+01  0.22842502791E+02  0.00000000000E+00 0. -1.
</event>
<event>
 7    1  0.7821043E-012  0.5930194E+02  0.7816164E-02  0.1266605E+00
        -11   -1    0    0    0    0  0.00000000000E+00  0.00000000000E+00  0.45593999997E+02  0.45594000000E+02  0.51100000000E-03 0.  1.
         11   -1    0    0    0    0 -0.00000000000E+00 -0.00000000000E+00 -0.45593999997E+02  0.45594000000E+02  0.51100000000E-03 0. -1.
    9900012    2    1    2    0    0  0.29947721048E+02 -0.51561668125E+01  0.96575622473E+01  0.59301944102E+02  0.50000000136E+02 0.  0.
         12    1    1    2    0    0 -0.29947721048E+02  0.51561668125E+01 -0.96575622473E+01  0.31886055898E+02  0.00000000000E+00 0. -1.
         11    1    3    3    0    0  0.16407497609E+02 -0.11929726598E+02 -0.34174805261E+00  0.20288941482E+02  0.51100000000E-03 0. -1.
        -11    1    3    3    0    0  0.16664844432E+01  0.19622788975E+02  0.85128277915E+01  0.21454585870E+02  0.51100000000E-03 0.  1.
        -12    1    3    3    0    0  0.11873738996E+02 -0.12849229190E+02  0.14864825085E+01  0.17558416750E+02  0.00000000000E+00 0.  1.
</event>
<event>
 7    1  0.7821043E-012  0.5930196E+02  0.7816164E-02  0.1266605E+00
        -11   -1    0    0    0    0  0.00000000000E+00  0.00000000000E+00  0.45593999997E+02  0.45594000000E+02  0.51100000000E-03 0.  1.
         11   -1    0    0    0    0 -0.00000000000E+00 -0.00000000000E+00 -0.45593999997E+02  0.45594000000E+02  0.51100000000E-03 0. -1.
    9900012    2    1    2    0    0 -0.34259879562E+00 -0.80023078244E+01  0.30863657154E+02  0.59301958581E+02  0.50000026542E+02 0.  0.
         12    1    1    2    0    0  0.34259879562E+00  0.80023078244E+01 -0.30863657154E+02  0.31886041419E+02  0.00000000000E+00 0. -1.
         11    1    3    3    0    0  0.19553138074E+02  0.28457645574E+01  0.24773011724E+02  0.31687942416E+02  0.51100000000E-03 0. -1.
        -11    1    3    3    0    0 -0.54461805677E+01 -0.78730597076E+01  0.83330171475E+01  0.12691931570E+02  0.51100000000E-03 0.  1.
         12    1    3    3    0    0 -0.14449556302E+02 -0.29750126741E+01 -0.22423717173E+01  0.14922084595E+02  0.00000000000E+00 0. -1.
</event>
<event>
 7    1  0.7821043E-012  0.5930196E+02  0.7816164E-02  0.1266605E+00
        -11   -1    0    0    0    0  0.00000000000E+00  0.00000000000E+00  0.45593999997E+02  0.45594000000E+02  0.51100000000E-03 0. -1.
         11   -1    0    0    0    0 -0.00000000000E+00 -0.00000000000E+00 -0.45593999997E+02  0.45594000000E+02  0.51100000000E-03 0.  1.
    9900012    2    1    2    0    0  0.82799693209E+01 -0.17952607838E+02 -0.25017304047E+02  0.59301960392E+02  0.50000029844E+02 0.  0.
         12    1    1    2    0    0 -0.82799693209E+01  0.17952607838E+02  0.25017304047E+02  0.31886039608E+02  0.00000000000E+00 0. -1.
         11    1    3    3    0    0  0.20480335222E+02 -0.67742280046E+01  0.72378504088E+01  0.22753478299E+02  0.51100000000E-03 0. -1.
        -11    1    3    3    0    0 -0.10460730433E+02 -0.88423660986E+01 -0.22250764364E+02  0.26128735799E+02  0.51100000000E-03 0.  1.
         12    1    3    3    0    0 -0.17396354688E+01 -0.23360137347E+01 -0.10004390092E+02  0.10419746294E+02  0.00000000000E+00 0. -1.
</event>
<event>
 7    1  0.7821043E-012  0.5930215E+02  0.7816164E-02  0.1266604E+00
        -11   -1    0    0    0    0  0.00000000000E+00  0.00000000000E+00  0.45593999997E+02  0.45594000000E+02  0.51100000000E-03 0. -1.
         11   -1    0    0    0    0 -0.00000000000E+00 -0.00000000000E+00 -0.45593999997E+02  0.45594000000E+02  0.51100000000E-03 0.  1.
    9900012    2    1    2    0    0 -0.12326112248E+02 -0.26474330792E+02 -0.12801737660E+02  0.59302145438E+02  0.50000367322E+02 0.  0.
         12    1    1    2    0    0  0.12326112248E+02  0.26474330792E+02  0.12801737660E+02  0.31885854562E+02  0.00000000000E+00 0. -1.
         11    1    3    3    0    0  0.27227092991E+01 -0.19143663967E+02  0.96495790001E-02  0.19336315817E+02  0.51100000000E-03 0. -1.
        -11    1    3    3    0    0 -0.36605556804E+01  0.12836088615E+02  0.30141547789E+00  0.13351243027E+02  0.51100000000E-03 0.  1.
        -12    1    3    3    0    0 -0.11388265867E+02 -0.20166755441E+02 -0.13112802717E+02  0.26614586594E+02  0.00000000000E+00 0.  1.
</event>
<event>
 7    1  0.7821043E-012  0.5930195E+02  0.7816164E-02  0.1266605E+00
        -11   -1    0    0    0    0  0.00000000000E+00  0.00000000000E+00  0.45593999997E+02  0.45594000000E+02  0.51100000000E-03 0. -1.
         11   -1    0    0    0    0 -0.00000000000E+00 -0.00000000000E+00 -0.45593999997E+02  0.45594000000E+02  0.51100000000E-03 0.  1.
    9900012    2    1    2    0    0 -0.22682234899E+02  0.11922353274E+02 -0.18976136890E+02  0.59301951971E+02  0.50000014487E+02 0.  0.
         12    1    1    2    0    0  0.22682234899E+02 -0.11922353274E+02  0.18976136890E+02  0.31886048029E+02  0.00000000000E+00 0. -1.
         11    1    3    3    0    0  0.14995438712E+02  0.15529992734E+01 -0.82272231869E+01  0.17174463326E+02  0.51100000000E-03 0. -1.
        -11    1    3    3    0    0 -0.26240045242E+02  0.79735110125E+01 -0.19397626260E+01  0.27493263383E+02  0.51100000000E-03 0.  1.
         12    1    3    3    0    0 -0.11437628369E+02  0.23958429882E+01 -0.88091510771E+01  0.14634225263E+02  0.00000000000E+00 0. -1.
</event>
<event>
 7    1  0.7821043E-012  0.5930194E+02  0.7816164E-02  0.1266605E+00
        -11   -1    0    0    0    0  0.00000000000E+00  0.00000000000E+00  0.45593999997E+02  0.45594000000E+02  0.51100000000E-03 0.  1.
         11   -1    0    0    0    0 -0.00000000000E+00 -0.00000000000E+00 -0.45593999997E+02  0.45594000000E+02  0.51100000000E-03 0. -1.
    9900012    2    1    2    0    0 -0.27895537386E+02  0.14853139078E+02  0.42360378783E+01  0.59301940924E+02  0.49999994339E+02 0.  0.
         12    1    1    2    0    0  0.27895537386E+02 -0.14853139078E+02 -0.42360378783E+01  0.31886059076E+02  0.00000000000E+00 0. -1.
         11    1    3    3    0    0 -0.73770011182E+01  0.21015831564E+02  0.75677890984E+01  0.23523536169E+02  0.51100000000E-03 0. -1.
        -11    1    3    3    0    0  0.25074169746E+01 -0.63559118825E+01  0.76584665750E+01  0.10263374995E+02  0.51100000000E-03 0.  1.
         12    1    3    3    0    0 -0.23025953242E+02  0.19321939708E+00 -0.10990217795E+02  0.25515029760E+02  0.00000000000E+00 0. -1.
</event>
<event>
 7    1  0.7821043E-012  0.5930217E+02  0.7816164E-02  0.1266604E+00
        -11   -1    0    0    0    0  0.00000000000E+00  0.00000000000E+00  0.45593999997E+02  0.45594000000E+02  0.51100000000E-03 0. -1.
         11   -1    0    0    0    0 -0.00000000000E+00 -0.00000000000E+00 -0.45593999997E+02  0.45594000000E+02  0.51100000000E-03 0.  1.
    9900012    2    1    2    0    0  0.25046978410E+02 -0.15656070422E+02  0.12010112134E+02  0.59302165182E+02  0.50000403331E+02 0.  0.
         12    1    1    2    0    0 -0.25046978410E+02  0.15656070422E+02 -0.12010112134E+02  0.31885834818E+02  0.00000000000E+00 0. -1.
         11    1    3    3    0    0  0.56900252722E+01  0.16707479282E+02  0.80041117960E+01  0.19379939563E+02  0.51100000000E-03 0. -1.
        -11    1    3    3    0    0  0.77666173260E+01 -0.60801878027E+01 -0.30846147626E+01  0.10334596117E+02  0.51100000000E-03 0.  1.
         12    1    3    3    0    0  0.11590335812E+02 -0.26283361901E+02  0.70906151011E+01  0.29587629502E+02  0.00000000000E+00 0. -1.
</event>
<event>
 7    1  0.7821043E-012  0.5930194E+02  0.7816164E-02  0.1266605E+00
        -11   -1    0    0    0    0  0.00000000000E+00  0.00000000000E+00  0.45593999997E+02  0.45594000000E+02  0.51100000000E-03 0.  1.
         11   -1    0    0    0    0 -0.00000000000E+00 -0.00000000000E+00 -0.45593999997E+02  0.45594000000E+02  0.51100000000E-03 0. -1.
    9900012    2    1    2    0    0  0.31394507293E+02  0.33295533546E+01  0.44743572678E+01  0.59301938991E+02  0.49999990814E+02 0.  0.
         12    1    1    2    0    0 -0.31394507293E+02 -0.33295533546E+01 -0.44743572678E+01  0.31886061009E+02  0.00000000000E+00 0. -1.
         11    1    3    3    0    0  0.27176416658E+02 -0.44292388418E+01 -0.14967527704E+02  0.31340112713E+02  0.51100000000E-03 0. -1.
        -11    1    3    3    0    0  0.34784820065E+01  0.13635289959E+02  0.14927712694E+02  0.20514813572E+02  0.51100000000E-03 0.  1.
         12    1    3    3    0    0  0.73960862923E+00 -0.58764977629E+01  0.45141722775E+01  0.74470127053E+01  0.00000000000E+00 0. -1.
</event>
<event>
 7    1  0.7821043E-012  0.5930194E+02  0.7816164E-02  0.1266605E+00
        -11   -1    0    0    0    0  0.00000000000E+00  0.00000000000E+00  0.45593999997E+02  0.45594000000E+02  0.51100000000E-03 0.  1.
         11   -1    0    0    0    0 -0.00000000000E+00 -0.00000000000E+00 -0.45593999997E+02  0.45594000000E+02  0.51100000000E-03 0. -1.
    9900012    2    1    2    0    0  0.84008174000E+01  0.27847108260E+02  0.13064664468E+02  0.59301943030E+02  0.49999998181E+02 0.  0.
         12    1    1    2    0    0 -0.84008174000E+01 -0.27847108260E+02 -0.13064664468E+02  0.31886056970E+02  0.00000000000E+00 0. -1.
         11    1    3    3    0    0 -0.45547368855E+01  0.20622242751E+02 -0.82701415239E+01  0.22680779644E+02  0.51100000000E-03 0. -1.
        -11    1    3    3    0    0 -0.21047159449E+01 -0.37151808511E+01  0.16973917879E+02  0.17502750824E+02  0.51100000000E-03 0.  1.
        -12    1    3    3    0    0  0.15060270230E+02  0.10940046360E+02  0.43608881123E+01  0.19118412562E+02  0.00000000000E+00 0.  1.
</event>
<event>
 7    1  0.7821043E-012  0.5930195E+02  0.7816164E-02  0.1266605E+00
        -11   -1    0    0    0    0  0.00000000000E+00  0.00000000000E+00  0.45593999997E+02  0.45594000000E+02  0.51100000000E-03 0. -1.
         11   -1    0    0    0    0 -0.00000000000E+00 -0.00000000000E+00 -0.45593999997E+02  0.45594000000E+02  0.51100000000E-03 0.  1.
    9900012    2    1    2    0    0 -0.17712139704E+02  0.26462799273E+02 -0.16494268308E+01  0.59301949019E+02  0.50000009104E+02 0.  0.
         12    1    1    2    0    0  0.17712139704E+02 -0.26462799273E+02  0.16494268308E+01  0.31886050981E+02  0.00000000000E+00 0. -1.
         11    1    3    3    0    0  0.10913627079E+02 -0.19875910648E+01  0.89280642560E+01  0.14239666635E+02  0.51100000000E-03 0. -1.
        -11    1    3    3    0    0 -0.16191654790E+02  0.26703146960E+02 -0.69523145539E+01  0.31993162087E+02  0.51100000000E-03 0.  1.
         12    1    3    3    0    0 -0.12434111992E+02  0.17472433782E+01 -0.36251765330E+01  0.13069120297E+02  0.00000000000E+00 0. -1.
</event>
<event>
 7    1  0.7821043E-012  0.5930198E+02  0.7816164E-02  0.1266605E+00
        -11   -1    0    0    0    0  0.00000000000E+00  0.00000000000E+00  0.45593999997E+02  0.45594000000E+02  0.51100000000E-03 0.  1.
         11   -1    0    0    0    0 -0.00000000000E+00 -0.00000000000E+00 -0.45593999997E+02  0.45594000000E+02  0.51100000000E-03 0. -1.
    9900012    2    1    2    0    0 -0.25698778853E+02 -0.18009350763E+02  0.56528145434E+01  0.59301980153E+02  0.50000065884E+02 0.  0.
         12    1    1    2    0    0  0.25698778853E+02  0.18009350763E+02 -0.56528145434E+01  0.31886019847E+02  0.00000000000E+00 0. -1.
         11    1    3    3    0    0 -0.80534565591E+01 -0.27361564892E+01 -0.19983784376E+02  0.21718571618E+02  0.51100000000E-03 0. -1.
        -11    1    3    3    0    0 -0.13324448524E+02 -0.13084972406E+02  0.99381105851E+01  0.21154750615E+02  0.51100000000E-03 0.  1.
         12    1    3    3    0    0 -0.43208737703E+01 -0.21882218676E+01  0.15698488334E+02  0.16428657920E+02  0.00000000000E+00 0. -1.
</event>
<event>
 7    1  0.7821043E-012  0.5930193E+02  0.7816164E-02  0.1266605E+00
        -11   -1    0    0    0    0  0.00000000000E+00  0.00000000000E+00  0.45593999997E+02  0.45594000000E+02  0.51100000000E-03 0.  1.
         11   -1    0    0    0    0 -0.00000000000E+00 -0.00000000000E+00 -0.45593999997E+02  0.45594000000E+02  0.51100000000E-03 0. -1.
    9900012    2    1    2    0    0  0.75146133201E+01  0.11434625889E+02  0.28801065957E+02  0.59301929643E+02  0.49999973765E+02 0.  0.
         12    1    1    2    0    0 -0.75146133201E+01 -0.11434625889E+02 -0.28801065957E+02  0.31886070357E+02  0.00000000000E+00 0. -1.
         11    1    3    3    0    0 -0.35616813008E+01 -0.31745237511E+01 -0.11161530327E+02  0.12138489784E+02  0.51100000000E-03 0. -1.
        -11    1    3    3    0    0  0.14094192951E+02  0.88694226876E+01  0.35728557029E+02  0.39418811770E+02  0.51100000000E-03 0.  1.
         12    1    3    3    0    0 -0.30178983298E+01  0.57397269524E+01  0.42340392546E+01  0.77446280883E+01  0.00000000000E+00 0. -1.
</event>
<event>
 7    1  0.7821043E-012  0.5930194E+02  0.7816164E-02  0.1266605E+00
        -11   -1    0    0    0    0  0.00000000000E+00  0.00000000000E+00  0.45593999997E+02  0.45594000000E+02  0.51100000000E-03 0. -1.
         11   -1    0    0    0    0 -0.00000000000E+00 -0.00000000000E+00 -0.45593999997E+02  0.45594000000E+02  0.51100000000E-03 0.  1.
    9900012    2    1    2    0    0 -0.19912762409E+02  0.23793863037E+02  0.73521962569E+01  0.59301940119E+02  0.49999992871E+02 0.  0.
         12    1    1    2    0    0  0.19912762409E+02 -0.23793863037E+02 -0.73521962569E+01  0.31886059881E+02  0.00000000000E+00 0. -1.
         11    1    3    3    0    0  0.67526037775E+01  0.19056741516E+02  0.12825236667E+02  0.23942509284E+02  0.51100000000E-03 0. -1.
        -11    1    3    3    0    0 -0.22490160294E+02  0.57758952270E+01 -0.13057524702E+02  0.26639580089E+02  0.51100000000E-03 0.  1.
        -12    1    3    3    0    0 -0.41752058930E+01 -0.10387737067E+01  0.75844842912E+01  0.87198507457E+01  0.00000000000E+00 0.  1.
</event>
<event>
 7    1  0.7821043E-012  0.5930194E+02  0.7816164E-02  0.1266605E+00
        -11   -1    0    0    0    0  0.00000000000E+00  0.00000000000E+00  0.45593999997E+02  0.45594000000E+02  0.51100000000E-03 0. -1.
         11   -1    0    0    0    0 -0.00000000000E+00 -0.00000000000E+00 -0.45593999997E+02  0.45594000000E+02  0.51100000000E-03 0.  1.
    9900012    2    1    2    0    0 -0.10141175150E+02 -0.87306765929E+01 -0.28942225057E+02  0.59301944452E+02  0.50000000774E+02 0.  0.
         12    1    1    2    0    0  0.10141175150E+02  0.87306765929E+01  0.28942225057E+02  0.31886055548E+02  0.00000000000E+00 0. -1.
         11    1    3    3    0    0  0.35892184578E+01  0.76895352131E+01  0.14312973777E+01  0.86058150908E+01  0.51100000000E-03 0. -1.
        -11    1    3    3    0    0 -0.17125081862E+02 -0.20501776342E+02 -0.82699400052E+01  0.27963961985E+02  0.51100000000E-03 0.  1.
        -12    1    3    3    0    0  0.33946882542E+01  0.40815645365E+01 -0.22103582429E+02  0.22732167376E+02  0.00000000000E+00 0.  1.
</event>
<event>
 7    1  0.7821043E-012  0.5930193E+02  0.7816164E-02  0.1266605E+00
        -11   -1    0    0    0    0  0.00000000000E+00  0.00000000000E+00  0.45593999997E+02  0.45594000000E+02  0.51100000000E-03 0.  1.
         11   -1    0    0    0    0 -0.00000000000E+00 -0.00000000000E+00 -0.45593999997E+02  0.45594000000E+02  0.51100000000E-03 0. -1.
    9900012    2    1    2    0    0 -0.16602655149E+02  0.25888239210E+02 -0.84185806394E+01  0.59301928003E+02  0.49999970776E+02 0.  0.
         12    1    1    2    0    0  0.16602655149E+02 -0.25888239210E+02  0.84185806394E+01  0.31886071997E+02  0.00000000000E+00 0. -1.
         11    1    3    3    0    0  0.14052747524E+01 -0.11769961270E+02 -0.47384275600E+01  0.12765558406E+02  0.51100000000E-03 0. -1.
        -11    1    3    3    0    0 -0.20016516212E+02  0.19409554577E+02 -0.38659547691E+00  0.27884425518E+02  0.51100000000E-03 0.  1.
         12    1    3    3    0    0  0.20085863100E+01  0.18248645903E+02 -0.32935576025E+01  0.18651944079E+02  0.00000000000E+00 0. -1.
</event>
<event>
 7    1  0.7821043E-012  0.5930196E+02  0.7816164E-02  0.1266605E+00
        -11   -1    0    0    0    0  0.00000000000E+00  0.00000000000E+00  0.45593999997E+02  0.45594000000E+02  0.51100000000E-03 0.  1.
         11   -1    0    0    0    0 -0.00000000000E+00 -0.00000000000E+00 -0.45593999997E+02  0.45594000000E+02  0.51100000000E-03 0. -1.
    9900012    2    1    2    0    0  0.94797478705E+01  0.23448191172E+02  0.19417425380E+02  0.59301957641E+02  0.50000024827E+02 0.  0.
         12    1    1    2    0    0 -0.94797478705E+01 -0.23448191172E+02 -0.19417425380E+02  0.31886042359E+02  0.00000000000E+00 0. -1.
         11    1    3    3    0    0 -0.12025867981E+02  0.42581405967E+01 -0.34057949090E+01  0.13204268297E+02  0.51100000000E-03 0. -1.
        -11    1    3    3    0    0  0.65200946707E+01 -0.53247021921E+01  0.13465039678E+02  0.15879904966E+02  0.51100000000E-03 0.  1.
         12    1    3    3    0    0  0.14985521181E+02  0.24514752768E+02  0.93581806109E+01  0.30217784378E+02  0.00000000000E+00 0. -1.
</event>
<event>
 7    1  0.7821043E-012  0.5930194E+02  0.7816164E-02  0.1266605E+00
        -11   -1    0    0    0    0  0.00000000000E+00  0.00000000000E+00  0.45593999997E+02  0.45594000000E+02  0.51100000000E-03 0.  1.
         11   -1    0    0    0    0 -0.00000000000E+00 -0.00000000000E+00 -0.45593999997E+02  0.45594000000E+02  0.51100000000E-03 0. -1.
    9900012    2    1    2    0    0 -0.25040263753E+02 -0.19624810049E+02 -0.21384243313E+01  0.59301939771E+02  0.49999992237E+02 0.  0.
         12    1    1    2    0    0  0.25040263753E+02  0.19624810049E+02  0.21384243313E+01  0.31886060229E+02  0.00000000000E+00 0. -1.
         11    1    3    3    0    0 -0.21248733092E+02 -0.89786231479E+01 -0.11434347875E+02  0.25746235516E+02  0.51100000000E-03 0. -1.
        -11    1    3    3    0    0  0.44009055231E+01  0.55638378826E+01  0.13193359707E+02  0.14979619556E+02  0.51100000000E-03 0.  1.
        -12    1    3    3    0    0 -0.81924361849E+01 -0.16210024784E+02 -0.38974361632E+01  0.18576084700E+02  0.00000000000E+00 0.  1.
</event>
<event>
 7    1  0.7821043E-012  0.5930194E+02  0.7816164E-02  0.1266605E+00
        -11   -1    0    0    0    0  0.00000000000E+00  0.00000000000E+00  0.45593999997E+02  0.45594000000E+02  0.51100000000E-03 0. -1.
         11   -1    0    0    0    0 -0.00000000000E+00 -0.00000000000E+00 -0.45593999997E+02  0.45594000000E+02  0.51100000000E-03 0.  1.
    9900012    2    1    2    0    0 -0.21923059959E+02 -0.16173015143E+02 -0.16569054454E+02  0.59301944391E+02  0.50000000663E+02 0.  0.
         12    1    1    2    0    0  0.21923059959E+02  0.16173015143E+02  0.16569054454E+02  0.31886055609E+02  0.00000000000E+00 0. -1.
         11    1    3    3    0    0 -0.17626991118E+02 -0.22645955795E+02  0.15408195066E+01  0.28738897940E+02  0.51100000000E-03 0. -1.
        -11    1    3    3    0    0  0.32318459704E+01  0.30977181379E+01 -0.21264438295E+02  0.21730555039E+02  0.51100000000E-03 0.  1.
         12    1    3    3    0    0 -0.75279148111E+01  0.33752225140E+01  0.31545643342E+01  0.88324914131E+01  0.00000000000E+00 0. -1.
</event>
<event>
 7    1  0.7821043E-012  0.5930196E+02  0.7816164E-02  0.1266605E+00
        -11   -1    0    0    0    0  0.00000000000E+00  0.00000000000E+00  0.45593999997E+02  0.45594000000E+02  0.51100000000E-03 0.  1.
         11   -1    0    0    0    0 -0.00000000000E+00 -0.00000000000E+00 -0.45593999997E+02  0.45594000000E+02  0.51100000000E-03 0. -1.
    9900012    2    1    2    0    0  0.23626245321E+02  0.14661181143E+02 -0.15606715198E+02  0.59301964502E+02  0.50000037341E+02 0.  0.
         12    1    1    2    0    0 -0.23626245321E+02 -0.14661181143E+02  0.15606715198E+02  0.31886035498E+02  0.00000000000E+00 0. -1.
         11    1    3    3    0    0  0.82577740247E+01 -0.16425026136E+02 -0.11264245255E+02  0.21560508734E+02  0.51100000000E-03 0. -1.
        -11    1    3    3    0    0  0.30655886573E+01  0.16233102031E+02  0.35588764322E+01  0.16899024738E+02  0.51100000000E-03 0.  1.
        -12    1    3    3    0    0  0.12302882639E+02  0.14853105248E+02 -0.79013463750E+01  0.20842431031E+02  0.00000000000E+00 0.  1.
</event>
<event>
 7    1  0.7821043E-012  0.5930192E+02  0.7816164E-02  0.1266605E+00
        -11   -1    0    0    0    0  0.00000000000E+00  0.00000000000E+00  0.45593999997E+02  0.45594000000E+02  0.51100000000E-03 0. -1.
         11   -1    0    0    0    0 -0.00000000000E+00 -0.00000000000E+00 -0.45593999997E+02  0.45594000000E+02  0.51100000000E-03 0.  1.
    9900012    2    1    2    0    0  0.23350148433E+02 -0.10276813953E+01 -0.21689544638E+02  0.59301922984E+02  0.49999961621E+02 0.  0.
         12    1    1    2    0    0 -0.23350148433E+02  0.10276813953E+01  0.21689544638E+02  0.31886077016E+02  0.00000000000E+00 0. -1.
         11    1    3    3    0    0  0.27477966770E+02 -0.11674571597E+02 -0.23339206996E+02  0.37895288140E+02  0.51100000000E-03 0. -1.
        -11    1    3    3    0    0 -0.47381176053E+01  0.69470494371E+01 -0.76570717493E+01  0.11372862540E+02  0.51100000000E-03 0.  1.
        -12    1    3    3    0    0  0.61029926874E+00  0.36998407642E+01  0.93067341079E+01  0.10033772303E+02  0.00000000000E+00 0.  1.
</event>
<event>
 7    1  0.7821043E-012  0.5930197E+02  0.7816164E-02  0.1266605E+00
        -11   -1    0    0    0    0  0.00000000000E+00  0.00000000000E+00  0.45593999997E+02  0.45594000000E+02  0.51100000000E-03 0.  1.
         11   -1    0    0    0    0 -0.00000000000E+00 -0.00000000000E+00 -0.45593999997E+02  0.45594000000E+02  0.51100000000E-03 0. -1.
    9900012    2    1    2    0    0 -0.25061714214E+02  0.15878309142E+02  0.11683705829E+02  0.59301965401E+02  0.50000038980E+02 0.  0.
         12    1    1    2    0    0  0.25061714214E+02 -0.15878309142E+02 -0.11683705829E+02  0.31886034599E+02  0.00000000000E+00 0. -1.
         11    1    3    3    0    0  0.45656739010E+01 -0.49882982829E+01  0.13334212677E+02  0.14950910538E+02  0.51100000000E-03 0. -1.
        -11    1    3    3    0    0 -0.23590344896E+02  0.66320351794E+01 -0.10360118391E+02  0.26604892713E+02  0.51100000000E-03 0.  1.
        -12    1    3    3    0    0 -0.60370432191E+01  0.14234572246E+02  0.87096115431E+01  0.17746162151E+02  0.00000000000E+00 0.  1.
</event>
<event>
 7    1  0.7821043E-012  0.5930195E+02  0.7816164E-02  0.1266605E+00
        -11   -1    0    0    0    0  0.00000000000E+00  0.00000000000E+00  0.45593999997E+02  0.45594000000E+02  0.51100000000E-03 0.  1.
         11   -1    0    0    0    0 -0.00000000000E+00 -0.00000000000E+00 -0.45593999997E+02  0.45594000000E+02  0.51100000000E-03 0. -1.
    9900012    2    1    2    0    0 -0.34284602456E+01  0.19866288202E+02  0.24704183785E+02  0.59301945947E+02  0.50000003501E+02 0.  0.
         12    1    1    2    0    0  0.34284602456E+01 -0.19866288202E+02 -0.24704183785E+02  0.31886054053E+02  0.00000000000E+00 0. -1.
         11    1    3    3    0    0 -0.41733066682E+01  0.29591457546E+02  0.10631680905E+02  0.31719134405E+02  0.51100000000E-03 0. -1.
        -11    1    3    3    0    0 -0.65955902696E+01 -0.96114172309E+01 -0.60355617834E-01  0.11656963380E+02  0.51100000000E-03 0.  1.
        -12    1    3    3    0    0  0.73404366922E+01 -0.11375211331E+00  0.14132858497E+02  0.15925848162E+02  0.00000000000E+00 0.  1.
</event>
<event>
 7    1  0.7821043E-012  0.5930195E+02  0.7816164E-02  0.1266605E+00
        -11   -1    0    0    0    0  0.00000000000E+00  0.00000000000E+00  0.45593999997E+02  0.45594000000E+02  0.51100000000E-03 0. -1.
         11   -1    0    0    0    0 -0.00000000000E+00 -0.00000000000E+00 -0.45593999997E+02  0.45594000000E+02  0.51100000000E-03 0.  1.
    9900012    2    1    2    0    0 -0.16615719580E+02  0.27969417952E+00 -0.27213233788E+02  0.59301945694E+02  0.50000003039E+02 0.  0.
         12    1    1    2    0    0  0.16615719580E+02 -0.27969417952E+00  0.27213233788E+02  0.31886054306E+02  0.00000000000E+00 0. -1.
         11    1    3    3    0    0 -0.25454899172E+00 -0.20955154821E+02 -0.11590753870E+02  0.23948463088E+02  0.51100000000E-03 0. -1.
        -11    1    3    3    0    0 -0.10736025697E+02  0.79697726980E+01 -0.16111066452E+02  0.20936713856E+02  0.51100000000E-03 0.  1.
         12    1    3    3    0    0 -0.56251448913E+01  0.13265076303E+02  0.48858653351E+00  0.14416768749E+02  0.00000000000E+00 0. -1.
</event>
<event>
 7    1  0.7821043E-012  0.5930196E+02  0.7816164E-02  0.1266605E+00
        -11   -1    0    0    0    0  0.00000000000E+00  0.00000000000E+00  0.45593999997E+02  0.45594000000E+02  0.51100000000E-03 0.  1.
         11   -1    0    0    0    0 -0.00000000000E+00 -0.00000000000E+00 -0.45593999997E+02  0.45594000000E+02  0.51100000000E-03 0. -1.
    9900012    2    1    2    0    0  0.20344326534E+02 -0.24392420800E+02  0.27996054395E+01  0.59301959085E+02  0.50000027461E+02 0.  0.
         12    1    1    2    0    0 -0.20344326534E+02  0.24392420800E+02 -0.27996054395E+01  0.31886040915E+02  0.00000000000E+00 0. -1.
         11    1    3    3    0    0  0.18242191479E+02 -0.10624282289E+01 -0.58183537386E+01  0.19177057756E+02  0.51100000000E-03 0. -1.
        -11    1    3    3    0    0 -0.11956036878E+02 -0.21462719656E+02  0.25518141271E+01  0.24700342274E+02  0.51100000000E-03 0.  1.
         12    1    3    3    0    0  0.14058171934E+02 -0.18672729146E+01  0.60661450510E+01  0.15424559055E+02  0.00000000000E+00 0. -1.
</event>
<event>
 7    1  0.7821043E-012  0.5930193E+02  0.7816164E-02  0.1266605E+00
        -11   -1    0    0    0    0  0.00000000000E+00  0.00000000000E+00  0.45593999997E+02  0.45594000000E+02  0.51100000000E-03 0.  1.
         11   -1    0    0    0    0 -0.00000000000E+00 -0.00000000000E+00 -0.45593999997E+02  0.45594000000E+02  0.51100000000E-03 0. -1.
    9900012    2    1    2    0    0  0.20528167721E+02  0.12066714262E+02  0.21206374401E+02  0.59301928146E+02  0.49999971036E+02 0.  0.
         12    1    1    2    0    0 -0.20528167721E+02 -0.12066714262E+02 -0.21206374401E+02  0.31886071854E+02  0.00000000000E+00 0. -1.
         11    1    3    3    0    0  0.27681946738E+01 -0.14818208529E+02  0.37157257452E+01  0.15525747127E+02  0.51100000000E-03 0. -1.
        -11    1    3    3    0    0 -0.30070808407E+01  0.14817978999E+02  0.21383402007E+01  0.15270479229E+02  0.51100000000E-03 0.  1.
         12    1    3    3    0    0  0.20767053888E+02  0.12066943792E+02  0.15352308455E+02  0.28505701790E+02  0.00000000000E+00 0. -1.
</event>
<event>
 7    1  0.7821043E-012  0.5930195E+02  0.7816164E-02  0.1266605E+00
        -11   -1    0    0    0    0  0.00000000000E+00  0.00000000000E+00  0.45593999997E+02  0.45594000000E+02  0.51100000000E-03 0.  1.
         11   -1    0    0    0    0 -0.00000000000E+00 -0.00000000000E+00 -0.45593999997E+02  0.45594000000E+02  0.51100000000E-03 0. -1.
    9900012    2    1    2    0    0 -0.21202848708E+02  0.36209001001E+01  0.23538235553E+02  0.59301949071E+02  0.50000009198E+02 0.  0.
         12    1    1    2    0    0  0.21202848708E+02 -0.36209001001E+01 -0.23538235553E+02  0.31886050929E+02  0.00000000000E+00 0. -1.
         11    1    3    3    0    0 -0.54593731025E+01 -0.14695264818E+02  0.10620523978E+02  0.18935445402E+02  0.51100000000E-03 0. -1.
        -11    1    3    3    0    0 -0.18234146770E+02  0.24929182382E+02  0.85060104213E+01  0.32035924463E+02  0.51100000000E-03 0.  1.
        -12    1    3    3    0    0  0.24906711642E+01 -0.66130174644E+01  0.44117011538E+01  0.83305792057E+01  0.00000000000E+00 0.  1.
</event>
<event>
 7    1  0.7821043E-012  0.5930192E+02  0.7816164E-02  0.1266605E+00
        -11   -1    0    0    0    0  0.00000000000E+00  0.00000000000E+00  0.45593999997E+02  0.45594000000E+02  0.51100000000E-03 0.  1.
         11   -1    0    0    0    0 -0.00000000000E+00 -0.00000000000E+00 -0.45593999997E+02  0.45594000000E+02  0.51100000000E-03 0. -1.
    9900012    2    1    2    0    0  0.11954174624E+02 -0.11087878308E+02  0.27402171705E+02  0.59301916038E+02  0.49999948953E+02 0.  0.
         12    1    1    2    0    0 -0.11954174624E+02  0.11087878308E+02 -0.27402171705E+02  0.31886083962E+02  0.00000000000E+00 0. -1.
         11    1    3    3    0    0 -0.65900979672E+00 -0.59613821977E+01 -0.13591842391E+02  0.14856330350E+02  0.51100000000E-03 0. -1.
        -11    1    3    3    0    0 -0.42039312762E+00 -0.36387875390E+01  0.13407158322E+02  0.13898539480E+02  0.51100000000E-03 0.  1.
         12    1    3    3    0    0  0.13033577548E+02 -0.14877085712E+01  0.27586855774E+02  0.30547046208E+02  0.00000000000E+00 0. -1.
</event>
<event>
 7    1  0.7821043E-012  0.5930195E+02  0.7816164E-02  0.1266605E+00
        -11   -1    0    0    0    0  0.00000000000E+00  0.00000000000E+00  0.45593999997E+02  0.45594000000E+02  0.51100000000E-03 0.  1.
         11   -1    0    0    0    0 -0.00000000000E+00 -0.00000000000E+00 -0.45593999997E+02  0.45594000000E+02  0.51100000000E-03 0. -1.
    9900012    2    1    2    0    0  0.29447430207E+02  0.18201460420E+01  0.12093651190E+02  0.59301945423E+02  0.50000002544E+02 0.  0.
         12    1    1    2    0    0 -0.29447430207E+02 -0.18201460420E+01 -0.12093651190E+02  0.31886054577E+02  0.00000000000E+00 0. -1.
         11    1    3    3    0    0 -0.35710471380E+01  0.10815223483E+02 -0.56417743539E+01  0.12710273592E+02  0.51100000000E-03 0. -1.
        -11    1    3    3    0    0  0.32320958214E+02 -0.12701689076E+02  0.21834814541E+02  0.41021169798E+02  0.51100000000E-03 0.  1.
        -12    1    3    3    0    0  0.69751913059E+00  0.37066116351E+01 -0.40993889973E+01  0.55705020332E+01  0.00000000000E+00 0.  1.
</event>
<event>
 7    1  0.7821043E-012  0.5930195E+02  0.7816164E-02  0.1266605E+00
        -11   -1    0    0    0    0  0.00000000000E+00  0.00000000000E+00  0.45593999997E+02  0.45594000000E+02  0.51100000000E-03 0.  1.
         11   -1    0    0    0    0 -0.00000000000E+00 -0.00000000000E+00 -0.45593999997E+02  0.45594000000E+02  0.51100000000E-03 0. -1.
    9900012    2    1    2    0    0  0.56687479993E+01 -0.30316211259E+02  0.80939909928E+01  0.59301951967E+02  0.50000014479E+02 0.  0.
         12    1    1    2    0    0 -0.56687479993E+01  0.30316211259E+02 -0.80939909928E+01  0.31886048033E+02  0.00000000000E+00 0. -1.
         11    1    3    3    0    0  0.49742976238E+01 -0.13912437780E+02  0.23193791623E+02  0.27500027853E+02  0.51100000000E-03 0. -1.
        -11    1    3    3    0    0 -0.93588754022E+00 -0.21472472664E+02 -0.80133799951E+01  0.22938117338E+02  0.51100000000E-03 0.  1.
         12    1    3    3    0    0  0.16303379157E+01  0.50686991841E+01 -0.70864206351E+01  0.88638067757E+01  0.00000000000E+00 0. -1.
</event>
<event>
 7    1  0.7821043E-012  0.5930195E+02  0.7816164E-02  0.1266605E+00
        -11   -1    0    0    0    0  0.00000000000E+00  0.00000000000E+00  0.45593999997E+02  0.45594000000E+02  0.51100000000E-03 0.  1.
         11   -1    0    0    0    0 -0.00000000000E+00 -0.00000000000E+00 -0.45593999997E+02  0.45594000000E+02  0.51100000000E-03 0. -1.
    9900012    2    1    2    0    0  0.15438021406E+02  0.23955336474E+01  0.27796564289E+02  0.59301951755E+02  0.50000014093E+02 0.  0.
         12    1    1    2    0    0 -0.15438021406E+02 -0.23955336474E+01 -0.27796564289E+02  0.31886048245E+02  0.00000000000E+00 0. -1.
         11    1    3    3    0    0  0.52170973129E+01  0.26196842875E+01 -0.11855193398E+01  0.59570384005E+01  0.51100000000E-03 0. -1.
        -11    1    3    3    0    0  0.12680801040E+01 -0.11405844805E+02  0.35717702130E+02  0.37516070804E+02  0.51100000000E-03 0.  1.
        -12    1    3    3    0    0  0.89528439891E+01  0.11181694165E+02 -0.67356185013E+01  0.15828842551E+02  0.00000000000E+00 0.  1.
</event>
<event>
 7    1  0.8142159E-012  0.5930190E+02  0.7816164E-02  0.1266605E+00
        -11   -1    0    0    0    0  0.00000000000E+00  0.00000000000E+00  0.45593999997E+02  0.45594000000E+02  0.51100000000E-03 0. -1.
         11   -1    0    0    0    0 -0.00000000000E+00 -0.00000000000E+00 -0.45593999997E+02  0.45594000000E+02  0.51100000000E-03 0.  1.
    9900012    2    1    2    0    0 -0.22244174366E+02  0.13257268391E+02 -0.18605499620E+02  0.59301904684E+02  0.49999928246E+02 0.  0.
         12    1    1    2    0    0  0.22244174366E+02 -0.13257268391E+02  0.18605499620E+02  0.31886095316E+02  0.00000000000E+00 0. -1.
         11    1    3    3    0    0 -0.72422246403E+01 -0.29445919114E+01  0.11555520866E+02  0.13951720396E+02  0.51100000000E-03 0. -1.
        -11    1    3    3    0    0 -0.91581384782E+01 -0.44315663153E+01 -0.18054676303E+02  0.20723938261E+02  0.51100000000E-03 0.  1.
         12    1    3    3    0    0 -0.58438112474E+01  0.20633426618E+02 -0.12106344183E+02  0.24626246026E+02  0.00000000000E+00 0. -1.
</event>
<event>
 7    1  0.7821043E-012  0.5930195E+02  0.7816164E-02  0.1266605E+00
        -11   -1    0    0    0    0  0.00000000000E+00  0.00000000000E+00  0.45593999997E+02  0.45594000000E+02  0.51100000000E-03 0.  1.
         11   -1    0    0    0    0 -0.00000000000E+00 -0.00000000000E+00 -0.45593999997E+02  0.45594000000E+02  0.51100000000E-03 0. -1.
    9900012    2    1    2    0    0 -0.15013273485E+02 -0.16691283769E+01  0.28080883705E+02  0.59301946623E+02  0.50000004734E+02 0.  0.
         12    1    1    2    0    0  0.15013273485E+02  0.16691283769E+01 -0.28080883705E+02  0.31886053377E+02  0.00000000000E+00 0. -1.
         11    1    3    3    0    0 -0.22561589867E+02 -0.10910797552E+01 -0.62683781482E+01  0.23441594597E+02  0.51100000000E-03 0. -1.
        -11    1    3    3    0    0  0.46776935186E+01  0.20247314604E+00  0.74637064772E+01  0.88107165809E+01  0.51100000000E-03 0.  1.
         12    1    3    3    0    0  0.28706228635E+01 -0.78052176769E+00  0.26885555376E+02  0.27049635446E+02  0.00000000000E+00 0. -1.
</event>
<event>
 7    1  0.7821043E-012  0.5930191E+02  0.7816164E-02  0.1266605E+00
        -11   -1    0    0    0    0  0.00000000000E+00  0.00000000000E+00  0.45593999997E+02  0.45594000000E+02  0.51100000000E-03 0.  1.
         11   -1    0    0    0    0 -0.00000000000E+00 -0.00000000000E+00 -0.45593999997E+02  0.45594000000E+02  0.51100000000E-03 0. -1.
    9900012    2    1    2    0    0 -0.20858402172E+02  0.41545865275E+01  0.23756877336E+02  0.59301909754E+02  0.49999937493E+02 0.  0.
         12    1    1    2    0    0  0.20858402172E+02 -0.41545865275E+01 -0.23756877336E+02  0.31886090246E+02  0.00000000000E+00 0. -1.
         11    1    3    3    0    0  0.22588100802E+01 -0.10126913554E+02 -0.10205551016E+01  0.10425839730E+02  0.51100000000E-03 0. -1.
        -11    1    3    3    0    0 -0.24760008134E+02  0.22439938210E+02  0.17026479761E+02  0.37503464413E+02  0.51100000000E-03 0.  1.
        -12    1    3    3    0    0  0.16427958808E+01 -0.81584381282E+01  0.77509526765E+01  0.11372605611E+02  0.00000000000E+00 0.  1.
</event>
<event>
 7    1  0.7821043E-012  0.5930194E+02  0.7816164E-02  0.1266605E+00
        -11   -1    0    0    0    0  0.00000000000E+00  0.00000000000E+00  0.45593999997E+02  0.45594000000E+02  0.51100000000E-03 0.  1.
         11   -1    0    0    0    0 -0.00000000000E+00 -0.00000000000E+00 -0.45593999997E+02  0.45594000000E+02  0.51100000000E-03 0. -1.
    9900012    2    1    2    0    0 -0.90468310557E+01 -0.29344417650E+02  0.85895793491E+01  0.59301939209E+02  0.49999991212E+02 0.  0.
         12    1    1    2    0    0  0.90468310557E+01  0.29344417650E+02 -0.85895793491E+01  0.31886060791E+02  0.00000000000E+00 0. -1.
         11    1    3    3    0    0  0.66039836538E+01 -0.76262740884E+00 -0.84680237143E+01  0.10765761773E+02  0.51100000000E-03 0. -1.
        -11    1    3    3    0    0 -0.19893782049E+02 -0.19813809481E+02  0.23702808582E+02  0.36744696832E+02  0.51100000000E-03 0.  1.
        -12    1    3    3    0    0  0.42429673393E+01 -0.87679807602E+01 -0.66452055188E+01  0.11791480604E+02  0.00000000000E+00 0.  1.
</event>
<event>
 7    1  0.7821043E-012  0.5930208E+02  0.7816164E-02  0.1266604E+00
        -11   -1    0    0    0    0  0.00000000000E+00  0.00000000000E+00  0.45593999997E+02  0.45594000000E+02  0.51100000000E-03 0.  1.
         11   -1    0    0    0    0 -0.00000000000E+00 -0.00000000000E+00 -0.45593999997E+02  0.45594000000E+02  0.51100000000E-03 0. -1.
    9900012    2    1    2    0    0 -0.13156208826E+02 -0.25352106915E+02  0.14173809099E+02  0.59302078027E+02  0.50000244382E+02 0.  0.
         12    1    1    2    0    0  0.13156208826E+02  0.25352106915E+02 -0.14173809099E+02  0.31885921973E+02  0.00000000000E+00 0. -1.
         11    1    3    3    0    0 -0.70355717195E+01  0.26518644585E+01 -0.14348724534E+02  0.16199307100E+02  0.51100000000E-03 0. -1.
        -11    1    3    3    0    0 -0.70502800843E+01 -0.23927243479E+02  0.15364990037E+02  0.29296797587E+02  0.51100000000E-03 0.  1.
         12    1    3    3    0    0  0.92964297814E+00 -0.40767278944E+01  0.13157543596E+02  0.13805973340E+02  0.00000000000E+00 0. -1.
</event>
<event>
 7    1  0.7821043E-012  0.5930199E+02  0.7816164E-02  0.1266605E+00
        -11   -1    0    0    0    0  0.00000000000E+00  0.00000000000E+00  0.45593999997E+02  0.45594000000E+02  0.51100000000E-03 0. -1.
         11   -1    0    0    0    0 -0.00000000000E+00 -0.00000000000E+00 -0.45593999997E+02  0.45594000000E+02  0.51100000000E-03 0.  1.
    9900012    2    1    2    0    0 -0.33417177064E+01  0.31605497116E+02  0.25774007638E+01  0.59301991785E+02  0.50000087099E+02 0.  0.
         12    1    1    2    0    0  0.33417177064E+01 -0.31605497116E+02 -0.25774007638E+01  0.31886008215E+02  0.00000000000E+00 0. -1.
         11    1    3    3    0    0 -0.89120060894E+01  0.12736744356E+02  0.18942882910E+02  0.24504720413E+02  0.51100000000E-03 0. -1.
        -11    1    3    3    0    0  0.61112302696E+01  0.90709044619E+01 -0.21202297112E+02  0.23857196948E+02  0.51100000000E-03 0.  1.
        -12    1    3    3    0    0 -0.54094188661E+00  0.97978482975E+01  0.48368149657E+01  0.10940074424E+02  0.00000000000E+00 0.  1.
</event>
<event>
 7    1  0.7821043E-012  0.5930199E+02  0.7816164E-02  0.1266605E+00
        -11   -1    0    0    0    0  0.00000000000E+00  0.00000000000E+00  0.45593999997E+02  0.45594000000E+02  0.51100000000E-03 0.  1.
         11   -1    0    0    0    0 -0.00000000000E+00 -0.00000000000E+00 -0.45593999997E+02  0.45594000000E+02  0.51100000000E-03 0. -1.
    9900012    2    1    2    0    0  0.15748574945E+02 -0.25196800241E+02  0.11568102658E+02  0.59301994382E+02  0.50000091833E+02 0.  0.
         12    1    1    2    0    0 -0.15748574945E+02  0.25196800241E+02 -0.11568102658E+02  0.31886005618E+02  0.00000000000E+00 0. -1.
         11    1    3    3    0    0  0.10454412734E+02 -0.23785307666E+02 -0.64649934752E+01  0.26773713737E+02  0.51100000000E-03 0. -1.
        -11    1    3    3    0    0 -0.95028996296E+01 -0.63989078358E+01  0.77386285481E+01  0.13825248458E+02  0.51100000000E-03 0.  1.
         12    1    3    3    0    0  0.14797061840E+02  0.49874152611E+01  0.10294467585E+02  0.18703032186E+02  0.00000000000E+00 0. -1.
</event>
<event>
 7    1  0.7821043E-012  0.5930195E+02  0.7816164E-02  0.1266605E+00
        -11   -1    0    0    0    0  0.00000000000E+00  0.00000000000E+00  0.45593999997E+02  0.45594000000E+02  0.51100000000E-03 0.  1.
         11   -1    0    0    0    0 -0.00000000000E+00 -0.00000000000E+00 -0.45593999997E+02  0.45594000000E+02  0.51100000000E-03 0. -1.
    9900012    2    1    2    0    0  0.17360828486E+02  0.26549374648E+02 -0.32330170412E+01  0.59301951967E+02  0.50000014480E+02 0.  0.
         12    1    1    2    0    0 -0.17360828486E+02 -0.26549374648E+02  0.32330170412E+01  0.31886048033E+02  0.00000000000E+00 0. -1.
         11    1    3    3    0    0  0.74899481555E+01  0.14354659723E+01 -0.28377685596E+01  0.81371258186E+01  0.51100000000E-03 0. -1.
        -11    1    3    3    0    0 -0.15084207189E+02  0.20814303132E+02 -0.20569623485E+01  0.25787586466E+02  0.51100000000E-03 0.  1.
        -12    1    3    3    0    0  0.24955087520E+02  0.42996055445E+01  0.16617138669E+01  0.25377239683E+02  0.00000000000E+00 0.  1.
</event>
<event>
 7    1  0.7821043E-012  0.5930194E+02  0.7816164E-02  0.1266605E+00
        -11   -1    0    0    0    0  0.00000000000E+00  0.00000000000E+00  0.45593999997E+02  0.45594000000E+02  0.51100000000E-03 0.  1.
         11   -1    0    0    0    0 -0.00000000000E+00 -0.00000000000E+00 -0.45593999997E+02  0.45594000000E+02  0.51100000000E-03 0. -1.
    9900012    2    1    2    0    0  0.31554390291E+02 -0.97805896196E+00 -0.44816070190E+01  0.59301938038E+02  0.49999989076E+02 0.  0.
         12    1    1    2    0    0 -0.31554390291E+02  0.97805896196E+00  0.44816070190E+01  0.31886061962E+02  0.00000000000E+00 0. -1.
         11    1    3    3    0    0  0.30132409360E+02  0.99052196818E+01  0.78730771537E+01  0.32681199717E+02  0.51100000000E-03 0. -1.
        -11    1    3    3    0    0  0.24237280144E+01 -0.16735240480E+02 -0.60473021656E+01  0.17958635670E+02  0.51100000000E-03 0.  1.
         12    1    3    3    0    0 -0.10017470835E+01  0.58519618358E+01 -0.63073820071E+01  0.86621026506E+01  0.00000000000E+00 0. -1.
</event>
<event>
 7    1  0.1235338E-011  0.5930197E+02  0.7816164E-02  0.1266605E+00
        -11   -1    0    0    0    0  0.00000000000E+00  0.00000000000E+00  0.45593999997E+02  0.45594000000E+02  0.51100000000E-03 0. -1.
         11   -1    0    0    0    0 -0.00000000000E+00 -0.00000000000E+00 -0.45593999997E+02  0.45594000000E+02  0.51100000000E-03 0.  1.
    9900012    2    1    2    0    0  0.89946642487E+01  0.13222698819E+02 -0.27585776278E+02  0.59301971682E+02  0.50000050435E+02 0.  0.
         12    1    1    2    0    0 -0.89946642487E+01 -0.13222698819E+02  0.27585776278E+02  0.31886028318E+02  0.00000000000E+00 0. -1.
         11    1    3    3    0    0 -0.17775458476E+02  0.46056053353E+01 -0.10960306945E+02  0.21384734114E+02  0.51100000000E-03 0. -1.
        -11    1    3    3    0    0  0.16267646462E+02  0.13917333309E+02 -0.14766199012E+02  0.26007097519E+02  0.51100000000E-03 0.  1.
         12    1    3    3    0    0  0.10502476263E+02 -0.53002398256E+01 -0.18592703217E+01  0.11910140049E+02  0.00000000000E+00 0. -1.
</event>
<event>
 7    1  0.7821043E-012  0.5930190E+02  0.7816164E-02  0.1266605E+00
        -11   -1    0    0    0    0  0.00000000000E+00  0.00000000000E+00  0.45593999997E+02  0.45594000000E+02  0.51100000000E-03 0.  1.
         11   -1    0    0    0    0 -0.00000000000E+00 -0.00000000000E+00 -0.45593999997E+02  0.45594000000E+02  0.51100000000E-03 0. -1.
    9900012    2    1    2    0    0 -0.24892462496E+02 -0.11219712520E+02  0.16468364903E+02  0.59301895178E+02  0.49999910910E+02 0.  0.
         12    1    1    2    0    0  0.24892462496E+02  0.11219712520E+02 -0.16468364903E+02  0.31886104822E+02  0.00000000000E+00 0. -1.
         11    1    3    3    0    0 -0.15613612451E+02 -0.19087854859E+02 -0.56518613394E+01  0.25299696317E+02  0.51100000000E-03 0. -1.
        -11    1    3    3    0    0 -0.93309239056E+01  0.15283331755E+02  0.12419931768E+02  0.21792225124E+02  0.51100000000E-03 0.  1.
         12    1    3    3    0    0  0.52073860573E-01 -0.74151894156E+01  0.97002944745E+01  0.12209973737E+02  0.00000000000E+00 0. -1.
</event>
<event>
 7    1  0.7821043E-012  0.5930193E+02  0.7816164E-02  0.1266605E+00
        -11   -1    0    0    0    0  0.00000000000E+00  0.00000000000E+00  0.45593999997E+02  0.45594000000E+02  0.51100000000E-03 0. -1.
         11   -1    0    0    0    0 -0.00000000000E+00 -0.00000000000E+00 -0.45593999997E+02  0.45594000000E+02  0.51100000000E-03 0.  1.
    9900012    2    1    2    0    0 -0.24363193840E+02 -0.19291568226E+02 -0.71408516637E+01  0.59301928101E+02  0.49999970953E+02 0.  0.
         12    1    1    2    0    0  0.24363193840E+02  0.19291568226E+02  0.71408516637E+01  0.31886071899E+02  0.00000000000E+00 0. -1.
         11    1    3    3    0    0 -0.29419398164E+01 -0.14078994667E+02  0.11477036644E+02  0.18400963863E+02  0.51100000000E-03 0. -1.
        -11    1    3    3    0    0 -0.15973380144E+02 -0.16941621193E+02 -0.98838628844E+01  0.25295417523E+02  0.51100000000E-03 0.  1.
         12    1    3    3    0    0 -0.54478738790E+01  0.11729047634E+02 -0.87340254230E+01  0.15605546715E+02  0.00000000000E+00 0. -1.
</event>
<event>
 7    1  0.7821043E-012  0.5930206E+02  0.7816164E-02  0.1266604E+00
        -11   -1    0    0    0    0  0.00000000000E+00  0.00000000000E+00  0.45593999997E+02  0.45594000000E+02  0.51100000000E-03 0.  1.
         11   -1    0    0    0    0 -0.00000000000E+00 -0.00000000000E+00 -0.45593999997E+02  0.45594000000E+02  0.51100000000E-03 0. -1.
    9900012    2    1    2    0    0 -0.29812992902E+02 -0.11028171094E+02  0.25055622637E+01  0.59302063512E+02  0.50000217911E+02 0.  0.
         12    1    1    2    0    0  0.29812992902E+02  0.11028171094E+02 -0.25055622637E+01  0.31885936488E+02  0.00000000000E+00 0. -1.
         11    1    3    3    0    0  0.36696668076E+01  0.16807874117E+01 -0.12522503222E+02  0.13156921677E+02  0.51100000000E-03 0. -1.
        -11    1    3    3    0    0 -0.16550525368E+02  0.30149299273E+01  0.15724459063E+02  0.23027555352E+02  0.51100000000E-03 0.  1.
         12    1    3    3    0    0 -0.16932134341E+02 -0.15723888433E+02 -0.69639357684E+00  0.23117586484E+02  0.00000000000E+00 0. -1.
</event>
<event>
 7    1  0.7821043E-012  0.5930193E+02  0.7816164E-02  0.1266605E+00
        -11   -1    0    0    0    0  0.00000000000E+00  0.00000000000E+00  0.45593999997E+02  0.45594000000E+02  0.51100000000E-03 0.  1.
         11   -1    0    0    0    0 -0.00000000000E+00 -0.00000000000E+00 -0.45593999997E+02  0.45594000000E+02  0.51100000000E-03 0. -1.
    9900012    2    1    2    0    0  0.12980522462E+02  0.26151183311E+02  0.12819634957E+02  0.59301931061E+02  0.49999976351E+02 0.  0.
         12    1    1    2    0    0 -0.12980522462E+02 -0.26151183311E+02 -0.12819634957E+02  0.31886068939E+02  0.00000000000E+00 0. -1.
         11    1    3    3    0    0  0.13430816824E+02 -0.70330563093E+01 -0.10085796819E+02  0.18209174044E+02  0.51100000000E-03 0. -1.
        -11    1    3    3    0    0  0.39543239890E+00  0.27086170388E+02  0.21943459656E+02  0.34861618077E+02  0.51100000000E-03 0.  1.
         12    1    3    3    0    0 -0.84572676173E+00  0.60980692333E+01  0.96197212008E+00  0.62311389400E+01  0.00000000000E+00 0. -1.
</event>
<event>
 7    1  0.7821043E-012  0.5930191E+02  0.7816164E-02  0.1266605E+00
        -11   -1    0    0    0    0  0.00000000000E+00  0.00000000000E+00  0.45593999997E+02  0.45594000000E+02  0.51100000000E-03 0. -1.
         11   -1    0    0    0    0 -0.00000000000E+00 -0.00000000000E+00 -0.45593999997E+02  0.45594000000E+02  0.51100000000E-03 0.  1.
    9900012    2    1    2    0    0  0.26967292231E+02 -0.12962611617E+00 -0.17013840912E+02  0.59301914699E+02  0.49999946512E+02 0.  0.
         12    1    1    2    0    0 -0.26967292231E+02  0.12962611617E+00  0.17013840912E+02  0.31886085301E+02  0.00000000000E+00 0. -1.
         11    1    3    3    0    0  0.32852747210E+02  0.64670005920E+01 -0.21565386845E+02  0.39827013520E+02  0.51100000000E-03 0. -1.
        -11    1    3    3    0    0 -0.65585507720E+01 -0.11840148222E+02  0.42204027752E+01  0.14177993440E+02  0.51100000000E-03 0.  1.
         12    1    3    3    0    0  0.67309579384E+00  0.52435215136E+01  0.33114315766E+00  0.52969077396E+01  0.00000000000E+00 0. -1.
</event>
<event>
 7    1  0.7821043E-012  0.5930220E+02  0.7816164E-02  0.1266604E+00
        -11   -1    0    0    0    0  0.00000000000E+00  0.00000000000E+00  0.45593999997E+02  0.45594000000E+02  0.51100000000E-03 0. -1.
         11   -1    0    0    0    0 -0.00000000000E+00 -0.00000000000E+00 -0.45593999997E+02  0.45594000000E+02  0.51100000000E-03 0.  1.
    9900012    2    1    2    0    0  0.11322734683E+02 -0.29745224681E+02  0.19291712981E+01  0.59302197298E+02  0.50000461903E+02 0.  0.
         12    1    1    2    0    0 -0.11322734683E+02  0.29745224681E+02 -0.19291712981E+01  0.31885802702E+02  0.00000000000E+00 0. -1.
         11    1    3    3    0    0 -0.94637700588E+01 -0.43788527502E+00  0.14251554010E+02  0.17113196055E+02  0.51100000000E-03 0. -1.
        -11    1    3    3    0    0  0.21643655420E+02 -0.24939183088E+02 -0.46891901432E+01  0.33352648732E+02  0.51100000000E-03 0.  1.
         12    1    3    3    0    0 -0.85715067773E+00 -0.43681563186E+01 -0.76331925689E+01  0.88363525112E+01  0.00000000000E+00 0. -1.
</event>
<event>
 7    1  0.7821043E-012  0.5930200E+02  0.7816164E-02  0.1266605E+00
        -11   -1    0    0    0    0  0.00000000000E+00  0.00000000000E+00  0.45593999997E+02  0.45594000000E+02  0.51100000000E-03 0. -1.
         11   -1    0    0    0    0 -0.00000000000E+00 -0.00000000000E+00 -0.45593999997E+02  0.45594000000E+02  0.51100000000E-03 0.  1.
    9900012    2    1    2    0    0 -0.44242639297E+01 -0.24987055043E+02 -0.19307774646E+02  0.59301996914E+02  0.50000096452E+02 0.  0.
         12    1    1    2    0    0  0.44242639297E+01  0.24987055043E+02  0.19307774646E+02  0.31886003086E+02  0.00000000000E+00 0. -1.
         11    1    3    3    0    0  0.13819340113E+02  0.86595859867E+00  0.51348788262E+01  0.14767905278E+02  0.51100000000E-03 0. -1.
        -11    1    3    3    0    0 -0.30332736009E+01 -0.15854572727E+02 -0.20175506197E+02  0.25838329583E+02  0.51100000000E-03 0.  1.
         12    1    3    3    0    0 -0.15210330442E+02 -0.99984409146E+01 -0.42671472750E+01  0.18695762053E+02  0.00000000000E+00 0. -1.
</event>
<event>
 7    1  0.7821043E-012  0.5930193E+02  0.7816164E-02  0.1266605E+00
        -11   -1    0    0    0    0  0.00000000000E+00  0.00000000000E+00  0.45593999997E+02  0.45594000000E+02  0.51100000000E-03 0. -1.
         11   -1    0    0    0    0 -0.00000000000E+00 -0.00000000000E+00 -0.45593999997E+02  0.45594000000E+02  0.51100000000E-03 0.  1.
    9900012    2    1    2    0    0  0.22982811546E+02 -0.21892611073E+02  0.30373390688E+01  0.59301929769E+02  0.49999973996E+02 0.  0.
         12    1    1    2    0    0 -0.22982811546E+02  0.21892611073E+02 -0.30373390688E+01  0.31886070231E+02  0.00000000000E+00 0. -1.
         11    1    3    3    0    0  0.14552889172E+02 -0.28487225054E+02  0.19224455712E+02  0.37321418411E+02  0.51100000000E-03 0. -1.
        -11    1    3    3    0    0  0.74570908081E+01  0.71406686854E+00 -0.41876715743E+01  0.85822309622E+01  0.51100000000E-03 0.  1.
         12    1    3    3    0    0  0.97283156588E+00  0.58805471131E+01 -0.11999445069E+02  0.13398280396E+02  0.00000000000E+00 0. -1.
</event>
<event>
 7    1  0.7821043E-012  0.5930195E+02  0.7816164E-02  0.1266605E+00
        -11   -1    0    0    0    0  0.00000000000E+00  0.00000000000E+00  0.45593999997E+02  0.45594000000E+02  0.51100000000E-03 0. -1.
         11   -1    0    0    0    0 -0.00000000000E+00 -0.00000000000E+00 -0.45593999997E+02  0.45594000000E+02  0.51100000000E-03 0.  1.
    9900012    2    1    2    0    0  0.22733718952E+02  0.11305843612E+02 -0.19289274783E+02  0.59301949777E+02  0.50000010485E+02 0.  0.
         12    1    1    2    0    0 -0.22733718952E+02 -0.11305843612E+02  0.19289274783E+02  0.31886050223E+02  0.00000000000E+00 0. -1.
         11    1    3    3    0    0 -0.87515701971E+01  0.10865383393E+02  0.57343800521E+01  0.15084086052E+02  0.51100000000E-03 0. -1.
        -11    1    3    3    0    0  0.27464158927E+02  0.70948392217E+01 -0.21911565022E+02  0.35843178585E+02  0.51100000000E-03 0.  1.
        -12    1    3    3    0    0  0.40211302227E+01 -0.66543790028E+01 -0.31120898130E+01  0.83746851394E+01  0.00000000000E+00 0.  1.
</event>
<event>
 7    1  0.7821043E-012  0.5930187E+02  0.7816164E-02  0.1266605E+00
        -11   -1    0    0    0    0  0.00000000000E+00  0.00000000000E+00  0.45593999997E+02  0.45594000000E+02  0.51100000000E-03 0.  1.
         11   -1    0    0    0    0 -0.00000000000E+00 -0.00000000000E+00 -0.45593999997E+02  0.45594000000E+02  0.51100000000E-03 0. -1.
    9900012    2    1    2    0    0  0.28030017214E+02 -0.12775399570E+02  0.82360527699E+01  0.59301870345E+02  0.49999865620E+02 0.  0.
         12    1    1    2    0    0 -0.28030017214E+02  0.12775399570E+02 -0.82360527699E+01  0.31886129655E+02  0.00000000000E+00 0. -1.
         11    1    3    3    0    0 -0.22103458802E+01 -0.47268677224E+01  0.21384829759E+00  0.52225126836E+01  0.51100000000E-03 0. -1.
        -11    1    3    3    0    0  0.30338178819E+02 -0.59867142838E+01  0.23264883007E+02  0.38697553199E+02  0.51100000000E-03 0.  1.
        -12    1    3    3    0    0 -0.97815725501E-01 -0.20618175637E+01 -0.15242678535E+02  0.15381804462E+02  0.00000000000E+00 0.  1.
</event>
<event>
 7    1  0.7821043E-012  0.5930194E+02  0.7816164E-02  0.1266605E+00
        -11   -1    0    0    0    0  0.00000000000E+00  0.00000000000E+00  0.45593999997E+02  0.45594000000E+02  0.51100000000E-03 0. -1.
         11   -1    0    0    0    0 -0.00000000000E+00 -0.00000000000E+00 -0.45593999997E+02  0.45594000000E+02  0.51100000000E-03 0.  1.
    9900012    2    1    2    0    0  0.70966266696E+01 -0.24977707428E+02 -0.18506027670E+02  0.59301936609E+02  0.49999986471E+02 0.  0.
         12    1    1    2    0    0 -0.70966266696E+01  0.24977707428E+02  0.18506027670E+02  0.31886063391E+02  0.00000000000E+00 0. -1.
         11    1    3    3    0    0 -0.11803439221E+02 -0.59631544527E+01 -0.25219847615E+02  0.28476676464E+02  0.51100000000E-03 0. -1.
        -11    1    3    3    0    0  0.20267751744E+02 -0.19417159987E+02  0.76840502848E+01  0.29100730090E+02  0.51100000000E-03 0.  1.
        -12    1    3    3    0    0 -0.13676858531E+01  0.40260701185E+00 -0.97023034032E+00  0.17245300555E+01  0.00000000000E+00 0.  1.
</event>
<event>
 7    1  0.7821043E-012  0.5930192E+02  0.7816164E-02  0.1266605E+00
        -11   -1    0    0    0    0  0.00000000000E+00  0.00000000000E+00  0.45593999997E+02  0.45594000000E+02  0.51100000000E-03 0. -1.
         11   -1    0    0    0    0 -0.00000000000E+00 -0.00000000000E+00 -0.45593999997E+02  0.45594000000E+02  0.51100000000E-03 0.  1.
    9900012    2    1    2    0    0 -0.11178086231E+02  0.28871123621E+02 -0.76309175594E+01  0.59301916927E+02  0.49999950575E+02 0.  0.
         12    1    1    2    0    0  0.11178086231E+02 -0.28871123621E+02  0.76309175594E+01  0.31886083073E+02  0.00000000000E+00 0. -1.
         11    1    3    3    0    0 -0.14708630150E+02  0.14002896170E+02 -0.13410350210E+01  0.20352475948E+02  0.51100000000E-03 0. -1.
        -11    1    3    3    0    0  0.11282855908E+02  0.10891563422E+02  0.11293747493E+02  0.19325571762E+02  0.51100000000E-03 0.  1.
        -12    1    3    3    0    0 -0.77523119892E+01  0.39766640294E+01 -0.17583630031E+02  0.19623869217E+02  0.00000000000E+00 0.  1.
</event>
<event>
 7    1  0.7821043E-012  0.5930196E+02  0.7816164E-02  0.1266605E+00
        -11   -1    0    0    0    0  0.00000000000E+00  0.00000000000E+00  0.45593999997E+02  0.45594000000E+02  0.51100000000E-03 0. -1.
         11   -1    0    0    0    0 -0.00000000000E+00 -0.00000000000E+00 -0.45593999997E+02  0.45594000000E+02  0.51100000000E-03 0.  1.
    9900012    2    1    2    0    0  0.65578973886E+01  0.17044935558E+02 -0.26137785288E+02  0.59301958130E+02  0.50000025720E+02 0.  0.
         12    1    1    2    0    0 -0.65578973886E+01 -0.17044935558E+02  0.26137785288E+02  0.31886041870E+02  0.00000000000E+00 0. -1.
         11    1    3    3    0    0  0.71854916393E+01  0.30869239486E+02 -0.23606643473E+01  0.31782290241E+02  0.51100000000E-03 0. -1.
        -11    1    3    3    0    0  0.38338648947E-01 -0.19722869637E+01 -0.38095802999E+01  0.42900219162E+01  0.51100000000E-03 0.  1.
         12    1    3    3    0    0 -0.66593289965E+00 -0.11852016965E+02 -0.19967540641E+02  0.23229645973E+02  0.00000000000E+00 0. -1.
</event>
<event>
 7    1  0.7821043E-012  0.5930195E+02  0.7816164E-02  0.1266605E+00
        -11   -1    0    0    0    0  0.00000000000E+00  0.00000000000E+00  0.45593999997E+02  0.45594000000E+02  0.51100000000E-03 0. -1.
         11   -1    0    0    0    0 -0.00000000000E+00 -0.00000000000E+00 -0.45593999997E+02  0.45594000000E+02  0.51100000000E-03 0.  1.
    9900012    2    1    2    0    0 -0.18695196998E+02  0.42980588486E+01 -0.25470309712E+02  0.59301946976E+02  0.50000005377E+02 0.  0.
         12    1    1    2    0    0  0.18695196998E+02 -0.42980588486E+01  0.25470309712E+02  0.31886053024E+02  0.00000000000E+00 0. -1.
         11    1    3    3    0    0 -0.14060715293E+02 -0.10415271723E+02  0.26888065295E+01  0.17703425670E+02  0.51100000000E-03 0. -1.
        -11    1    3    3    0    0  0.29023092535E+01  0.10243220755E+02 -0.30684634026E+02  0.32479127697E+02  0.51100000000E-03 0.  1.
         12    1    3    3    0    0 -0.75367909579E+01  0.44701098168E+01  0.25255177844E+01  0.91193936090E+01  0.00000000000E+00 0. -1.
</event>
<event>
 7    1  0.7821043E-012  0.5930191E+02  0.7816164E-02  0.1266605E+00
        -11   -1    0    0    0    0  0.00000000000E+00  0.00000000000E+00  0.45593999997E+02  0.45594000000E+02  0.51100000000E-03 0. -1.
         11   -1    0    0    0    0 -0.00000000000E+00 -0.00000000000E+00 -0.45593999997E+02  0.45594000000E+02  0.51100000000E-03 0.  1.
    9900012    2    1    2    0    0  0.28523509487E+02 -0.10887235561E+02  0.91978245050E+01  0.59301914206E+02  0.49999945613E+02 0.  0.
         12    1    1    2    0    0 -0.28523509487E+02  0.10887235561E+02 -0.91978245050E+01  0.31886085794E+02  0.00000000000E+00 0. -1.
         11    1    3    3    0    0  0.28624838798E+02  0.13462491160E+02  0.76464016771E+01  0.32543624926E+02  0.51100000000E-03 0. -1.
        -11    1    3    3    0    0 -0.38326470285E+01 -0.45587232205E+01 -0.20508737739E+01  0.62989859615E+01  0.51100000000E-03 0.  1.
         12    1    3    3    0    0  0.37313177170E+01 -0.19791003501E+02  0.36022966019E+01  0.20459303319E+02  0.00000000000E+00 0. -1.
</event>
<event>
 7    1  0.7821043E-012  0.5930194E+02  0.7816164E-02  0.1266605E+00
        -11   -1    0    0    0    0  0.00000000000E+00  0.00000000000E+00  0.45593999997E+02  0.45594000000E+02  0.51100000000E-03 0. -1.
         11   -1    0    0    0    0 -0.00000000000E+00 -0.00000000000E+00 -0.45593999997E+02  0.45594000000E+02  0.51100000000E-03 0.  1.
    9900012    2    1    2    0    0  0.15774187377E+02  0.17538909067E+02 -0.21454201227E+02  0.59301936133E+02  0.49999985601E+02 0.  0.
         12    1    1    2    0    0 -0.15774187377E+02 -0.17538909067E+02  0.21454201227E+02  0.31886063867E+02  0.00000000000E+00 0. -1.
         11    1    3    3    0    0  0.30766402429E+02  0.71087439865E+01 -0.12529678760E+02  0.33972026869E+02  0.51100000000E-03 0.  1.
        -11    1    3    3    0    0 -0.12505554150E+02  0.47601155655E+00 -0.83684880101E+01  0.15054802006E+02  0.51100000000E-03 0. -1.
        -12    1    3    3    0    0 -0.24866609026E+01  0.99541535243E+01 -0.55603445673E+00  0.10275107257E+02  0.00000000000E+00 0.  1.
</event>
<event>
 7    1  0.7821043E-012  0.5930192E+02  0.7816164E-02  0.1266605E+00
        -11   -1    0    0    0    0  0.00000000000E+00  0.00000000000E+00  0.45593999997E+02  0.45594000000E+02  0.51100000000E-03 0. -1.
         11   -1    0    0    0    0 -0.00000000000E+00 -0.00000000000E+00 -0.45593999997E+02  0.45594000000E+02  0.51100000000E-03 0.  1.
    9900012    2    1    2    0    0  0.27362327838E+02 -0.16120024446E+02 -0.28582744353E+01  0.59301923014E+02  0.49999961675E+02 0.  0.
         12    1    1    2    0    0 -0.27362327838E+02  0.16120024446E+02  0.28582744353E+01  0.31886076986E+02  0.00000000000E+00 0. -1.
         11    1    3    3    0    0  0.19992244656E+02  0.54308088318E+01 -0.50184719955E+01  0.21315923446E+02  0.51100000000E-03 0. -1.
        -11    1    3    3    0    0 -0.14842505549E+01 -0.20775791742E+02  0.12546587928E+02  0.24315702563E+02  0.51100000000E-03 0.  1.
        -12    1    3    3    0    0  0.88543337370E+01 -0.77504153519E+00 -0.10386390368E+02  0.13670297004E+02  0.00000000000E+00 0.  1.
</event>
<event>
 7    1  0.7821043E-012  0.5930197E+02  0.7816164E-02  0.1266605E+00
        -11   -1    0    0    0    0  0.00000000000E+00  0.00000000000E+00  0.45593999997E+02  0.45594000000E+02  0.51100000000E-03 0. -1.
         11   -1    0    0    0    0 -0.00000000000E+00 -0.00000000000E+00 -0.45593999997E+02  0.45594000000E+02  0.51100000000E-03 0.  1.
    9900012    2    1    2    0    0 -0.68243094005E+00  0.23554159237E+02 -0.21481493020E+02  0.59301973724E+02  0.50000054158E+02 0.  0.
         12    1    1    2    0    0  0.68243094005E+00 -0.23554159237E+02  0.21481493020E+02  0.31886026276E+02  0.00000000000E+00 0. -1.
         11    1    3    3    0    0 -0.67253667607E+01 -0.11208099836E+02 -0.36128533327E+01  0.13561149267E+02  0.51100000000E-03 0. -1.
        -11    1    3    3    0    0  0.11175783706E+02  0.20582919199E+02 -0.19628530315E+02  0.30558696092E+02  0.51100000000E-03 0.  1.
        -12    1    3    3    0    0 -0.51328478858E+01  0.14179339873E+02  0.17598906280E+01  0.15182128364E+02  0.00000000000E+00 0.  1.
</event>
<event>
 7    1  0.7821043E-012  0.5930198E+02  0.7816164E-02  0.1266605E+00
        -11   -1    0    0    0    0  0.00000000000E+00  0.00000000000E+00  0.45593999997E+02  0.45594000000E+02  0.51100000000E-03 0.  1.
         11   -1    0    0    0    0 -0.00000000000E+00 -0.00000000000E+00 -0.45593999997E+02  0.45594000000E+02  0.51100000000E-03 0. -1.
    9900012    2    1    2    0    0  0.24765830576E+01 -0.99082395417E+01  0.30206153932E+02  0.59301977831E+02  0.50000061648E+02 0.  0.
         12    1    1    2    0    0 -0.24765830576E+01  0.99082395417E+01 -0.30206153932E+02  0.31886022169E+02  0.00000000000E+00 0. -1.
         11    1    3    3    0    0  0.14459512860E+02  0.19445185039E+01  0.15487036745E+02  0.21276911707E+02  0.51100000000E-03 0. -1.
        -11    1    3    3    0    0 -0.11806516963E+02 -0.20800924313E+02  0.43201989709E+01  0.24305069728E+02  0.51100000000E-03 0.  1.
        -12    1    3    3    0    0 -0.17641283935E+00  0.89481662675E+01  0.10398918215E+02  0.13719996395E+02  0.00000000000E+00 0.  1.
</event>
<event>
 7    1  0.7821043E-012  0.5930194E+02  0.7816164E-02  0.1266605E+00
        -11   -1    0    0    0    0  0.00000000000E+00  0.00000000000E+00  0.45593999997E+02  0.45594000000E+02  0.51100000000E-03 0. -1.
         11   -1    0    0    0    0 -0.00000000000E+00 -0.00000000000E+00 -0.45593999997E+02  0.45594000000E+02  0.51100000000E-03 0.  1.
    9900012    2    1    2    0    0 -0.19156167489E+02 -0.23420952925E+02  0.10060881505E+02  0.59301935247E+02  0.49999983985E+02 0.  0.
         12    1    1    2    0    0  0.19156167489E+02  0.23420952925E+02 -0.10060881505E+02  0.31886064753E+02  0.00000000000E+00 0. -1.
         11    1    3    3    0    0  0.69708318026E+00  0.50970365830E+01  0.17240815532E+02  0.17991982308E+02  0.51100000000E-03 0. -1.
        -11    1    3    3    0    0 -0.21310957121E+02 -0.13338785186E+02 -0.68486246883E+01  0.26057316516E+02  0.51100000000E-03 0.  1.
         12    1    3    3    0    0  0.14577064514E+01 -0.15179204322E+02 -0.33130933920E+00  0.15252636422E+02  0.00000000000E+00 0. -1.
</event>
<event>
 7    1  0.7821043E-012  0.5930190E+02  0.7816164E-02  0.1266605E+00
        -11   -1    0    0    0    0  0.00000000000E+00  0.00000000000E+00  0.45593999997E+02  0.45594000000E+02  0.51100000000E-03 0.  1.
         11   -1    0    0    0    0 -0.00000000000E+00 -0.00000000000E+00 -0.45593999997E+02  0.45594000000E+02  0.51100000000E-03 0. -1.
    9900012    2    1    2    0    0 -0.50484282810E+01  0.20294443135E+02  0.24070158743E+02  0.59301896567E+02  0.49999913442E+02 0.  0.
         12    1    1    2    0    0  0.50484282810E+01 -0.20294443135E+02 -0.24070158743E+02  0.31886103433E+02  0.00000000000E+00 0. -1.
         11    1    3    3    0    0 -0.63048696814E+01  0.28478611486E+02  0.61467116665E+01  0.29808803372E+02  0.51100000000E-03 0. -1.
        -11    1    3    3    0    0  0.36623441527E+00 -0.56942613412E+01  0.23038704381E+02  0.23734798075E+02  0.51100000000E-03 0.  1.
         12    1    3    3    0    0  0.89020698516E+00 -0.24899070098E+01 -0.51152573047E+01  0.57582951198E+01  0.00000000000E+00 0. -1.
</event>
<event>
 7    1  0.7821043E-012  0.5930195E+02  0.7816164E-02  0.1266605E+00
        -11   -1    0    0    0    0  0.00000000000E+00  0.00000000000E+00  0.45593999997E+02  0.45594000000E+02  0.51100000000E-03 0. -1.
         11   -1    0    0    0    0 -0.00000000000E+00 -0.00000000000E+00 -0.45593999997E+02  0.45594000000E+02  0.51100000000E-03 0.  1.
    9900012    2    1    2    0    0 -0.30711141420E+02 -0.11763769868E+01  0.84948136517E+01  0.59301954007E+02  0.50000018199E+02 0.  0.
         12    1    1    2    0    0  0.30711141420E+02  0.11763769868E+01 -0.84948136517E+01  0.31886045993E+02  0.00000000000E+00 0. -1.
         11    1    3    3    0    0 -0.75034430151E+01 -0.18765699112E+02 -0.19906886958E+01  0.20308027034E+02  0.51100000000E-03 0. -1.
        -11    1    3    3    0    0 -0.26052605682E+02  0.13942744862E+02  0.23583168350E+01  0.29642875294E+02  0.51100000000E-03 0.  1.
         12    1    3    3    0    0  0.28449072776E+01  0.36465772631E+01  0.81271855125E+01  0.93510516793E+01  0.00000000000E+00 0. -1.
</event>
<event>
 7    1  0.7821043E-012  0.5930195E+02  0.7816164E-02  0.1266605E+00
        -11   -1    0    0    0    0  0.00000000000E+00  0.00000000000E+00  0.45593999997E+02  0.45594000000E+02  0.51100000000E-03 0. -1.
         11   -1    0    0    0    0 -0.00000000000E+00 -0.00000000000E+00 -0.45593999997E+02  0.45594000000E+02  0.51100000000E-03 0.  1.
    9900012    2    1    2    0    0  0.13728852222E+02 -0.23835188476E+02 -0.16128309607E+02  0.59301953462E+02  0.50000017206E+02 0.  0.
         12    1    1    2    0    0 -0.13728852222E+02  0.23835188476E+02  0.16128309607E+02  0.31886046538E+02  0.00000000000E+00 0. -1.
         11    1    3    3    0    0  0.36156984032E+00  0.14271278105E+02  0.10563132290E+01  0.14314884191E+02  0.51100000000E-03 0. -1.
        -11    1    3    3    0    0  0.11614879189E+01 -0.40582529622E+01 -0.55888983148E+01  0.70038743510E+01  0.51100000000E-03 0.  1.
         12    1    3    3    0    0  0.12205794463E+02 -0.34048213620E+02 -0.11595724521E+02  0.37983194920E+02  0.00000000000E+00 0. -1.
</event>
<event>
 7    1  0.7821043E-012  0.5930194E+02  0.7816164E-02  0.1266605E+00
        -11   -1    0    0    0    0  0.00000000000E+00  0.00000000000E+00  0.45593999997E+02  0.45594000000E+02  0.51100000000E-03 0. -1.
         11   -1    0    0    0    0 -0.00000000000E+00 -0.00000000000E+00 -0.45593999997E+02  0.45594000000E+02  0.51100000000E-03 0.  1.
    9900012    2    1    2    0    0  0.25529146037E+02  0.12454391461E+02 -0.14486940847E+02  0.59301943186E+02  0.49999998465E+02 0.  0.
         12    1    1    2    0    0 -0.25529146037E+02 -0.12454391461E+02  0.14486940847E+02  0.31886056814E+02  0.00000000000E+00 0. -1.
         11    1    3    3    0    0  0.14219926872E+02  0.18753061463E+02  0.11717797620E+02  0.26290500486E+02  0.51100000000E-03 0. -1.
        -11    1    3    3    0    0  0.37537036820E+01 -0.98818402013E+01 -0.19919673062E+02  0.22550708021E+02  0.51100000000E-03 0.  1.
        -12    1    3    3    0    0  0.75555154829E+01  0.35831701993E+01 -0.62850654043E+01  0.10460734679E+02  0.00000000000E+00 0.  1.
</event>
<event>
 7    1  0.7821043E-012  0.5930195E+02  0.7816164E-02  0.1266605E+00
        -11   -1    0    0    0    0  0.00000000000E+00  0.00000000000E+00  0.45593999997E+02  0.45594000000E+02  0.51100000000E-03 0. -1.
         11   -1    0    0    0    0 -0.00000000000E+00 -0.00000000000E+00 -0.45593999997E+02  0.45594000000E+02  0.51100000000E-03 0.  1.
    9900012    2    1    2    0    0  0.15664797338E+02  0.22476512239E+02 -0.16313826158E+02  0.59301946591E+02  0.50000004675E+02 0.  0.
         12    1    1    2    0    0 -0.15664797338E+02 -0.22476512239E+02  0.16313826158E+02  0.31886053409E+02  0.00000000000E+00 0. -1.
         11    1    3    3    0    0 -0.14240492051E+00  0.13789390391E+02  0.11732543954E+02  0.18105804440E+02  0.51100000000E-03 0. -1.
        -11    1    3    3    0    0  0.71500464424E+01 -0.82325292432E+01 -0.76670480091E+01  0.13329715950E+02  0.51100000000E-03 0.  1.
         12    1    3    3    0    0  0.86571558162E+01  0.16919651091E+02 -0.20379322102E+02  0.27866426201E+02  0.00000000000E+00 0. -1.
</event>
<event>
 7    1  0.7821043E-012  0.5930195E+02  0.7816164E-02  0.1266605E+00
        -11   -1    0    0    0    0  0.00000000000E+00  0.00000000000E+00  0.45593999997E+02  0.45594000000E+02  0.51100000000E-03 0.  1.
         11   -1    0    0    0    0 -0.00000000000E+00 -0.00000000000E+00 -0.45593999997E+02  0.45594000000E+02  0.51100000000E-03 0. -1.
    9900012    2    1    2    0    0 -0.86259163878E+01 -0.22381982070E+01  0.30615428469E+02  0.59301946229E+02  0.50000004014E+02 0.  0.
         12    1    1    2    0    0  0.86259163878E+01  0.22381982070E+01 -0.30615428469E+02  0.31886053771E+02  0.00000000000E+00 0. -1.
         11    1    3    3    0    0 -0.10506538896E+01 -0.18500329027E+02  0.19498528071E+02  0.26899045428E+02  0.51100000000E-03 0. -1.
        -11    1    3    3    0    0 -0.11262552909E+02  0.21340957037E+02  0.93935228006E+01  0.25894397389E+02  0.51100000000E-03 0.  1.
        -12    1    3    3    0    0  0.36872904107E+01 -0.50788262171E+01  0.17233775974E+01  0.65085034116E+01  0.00000000000E+00 0.  1.
</event>
<event>
 7    1  0.7821043E-012  0.5930196E+02  0.7816164E-02  0.1266605E+00
        -11   -1    0    0    0    0  0.00000000000E+00  0.00000000000E+00  0.45593999997E+02  0.45594000000E+02  0.51100000000E-03 0.  1.
         11   -1    0    0    0    0 -0.00000000000E+00 -0.00000000000E+00 -0.45593999997E+02  0.45594000000E+02  0.51100000000E-03 0. -1.
    9900012    2    1    2    0    0 -0.12861114745E+02 -0.26942006383E+02  0.11199972751E+02  0.59301962773E+02  0.50000034186E+02 0.  0.
         12    1    1    2    0    0  0.12861114745E+02  0.26942006383E+02 -0.11199972751E+02  0.31886037227E+02  0.00000000000E+00 0. -1.
         11    1    3    3    0    0 -0.83679447907E+01 -0.25067576452E+02 -0.11750876424E+02  0.28922119324E+02  0.51100000000E-03 0.  1.
        -11    1    3    3    0    0  0.78743195729E+00  0.81089755101E+01  0.64853541930E+01  0.10413229671E+02  0.51100000000E-03 0. -1.
        -12    1    3    3    0    0 -0.52806019112E+01 -0.99834054418E+01  0.16465494982E+02  0.19966613778E+02  0.00000000000E+00 0.  1.
</event>
<event>
 7    1  0.7821043E-012  0.5930197E+02  0.7816164E-02  0.1266605E+00
        -11   -1    0    0    0    0  0.00000000000E+00  0.00000000000E+00  0.45593999997E+02  0.45594000000E+02  0.51100000000E-03 0.  1.
         11   -1    0    0    0    0 -0.00000000000E+00 -0.00000000000E+00 -0.45593999997E+02  0.45594000000E+02  0.51100000000E-03 0. -1.
    9900012    2    1    2    0    0 -0.13813742333E+02 -0.23963421900E+02  0.15863600395E+02  0.59301970397E+02  0.50000048091E+02 0.  0.
         12    1    1    2    0    0  0.13813742333E+02  0.23963421900E+02 -0.15863600395E+02  0.31886029603E+02  0.00000000000E+00 0. -1.
         11    1    3    3    0    0  0.45014270905E+01 -0.26325158988E+02 -0.56871412468E+01  0.27306050931E+02  0.51100000000E-03 0. -1.
        -11    1    3    3    0    0 -0.12558649318E+02  0.85417866903E+01  0.13287369402E+02  0.20180088662E+02  0.51100000000E-03 0.  1.
         12    1    3    3    0    0 -0.57565201057E+01 -0.61800496016E+01  0.82633722398E+01  0.11815830804E+02  0.00000000000E+00 0. -1.
</event>
<event>
 7    1  0.7821043E-012  0.5930192E+02  0.7816164E-02  0.1266605E+00
        -11   -1    0    0    0    0  0.00000000000E+00  0.00000000000E+00  0.45593999997E+02  0.45594000000E+02  0.51100000000E-03 0. -1.
         11   -1    0    0    0    0 -0.00000000000E+00 -0.00000000000E+00 -0.45593999997E+02  0.45594000000E+02  0.51100000000E-03 0.  1.
    9900012    2    1    2    0    0  0.19614792689E+02 -0.16932269118E+02 -0.18581718126E+02  0.59301920307E+02  0.49999956738E+02 0.  0.
         12    1    1    2    0    0 -0.19614792689E+02  0.16932269118E+02  0.18581718126E+02  0.31886079693E+02  0.00000000000E+00 0. -1.
         11    1    3    3    0    0  0.10953592290E+02  0.51448034913E+01  0.10833283729E+02  0.16242235795E+02  0.51100000000E-03 0. -1.
        -11    1    3    3    0    0  0.96537833574E+01 -0.31431760019E+00 -0.87905530431E+01  0.13060174261E+02  0.51100000000E-03 0.  1.
         12    1    3    3    0    0 -0.99258295806E+00 -0.21762755009E+02 -0.20624448811E+02  0.29999510251E+02  0.00000000000E+00 0. -1.
</event>
<event>
 7    1  0.7821043E-012  0.5930193E+02  0.7816164E-02  0.1266605E+00
        -11   -1    0    0    0    0  0.00000000000E+00  0.00000000000E+00  0.45593999997E+02  0.45594000000E+02  0.51100000000E-03 0.  1.
         11   -1    0    0    0    0 -0.00000000000E+00 -0.00000000000E+00 -0.45593999997E+02  0.45594000000E+02  0.51100000000E-03 0. -1.
    9900012    2    1    2    0    0 -0.19296529622E+02 -0.12591863828E+02  0.22041108151E+02  0.59301928767E+02  0.49999972169E+02 0.  0.
         12    1    1    2    0    0  0.19296529622E+02  0.12591863828E+02 -0.22041108151E+02  0.31886071233E+02  0.00000000000E+00 0. -1.
         11    1    3    3    0    0  0.64008008207E+00  0.15812516039E+02  0.24288793857E+01  0.16010772041E+02  0.51100000000E-03 0. -1.
        -11    1    3    3    0    0 -0.86025031262E+01 -0.11080681033E+02 -0.10179196105E+01  0.14064875143E+02  0.51100000000E-03 0.  1.
         12    1    3    3    0    0 -0.11334106578E+02 -0.17323698834E+02  0.20630148376E+02  0.29226281584E+02  0.00000000000E+00 0. -1.
</event>
<event>
 7    1  0.7821043E-012  0.5930201E+02  0.7816164E-02  0.1266605E+00
        -11   -1    0    0    0    0  0.00000000000E+00  0.00000000000E+00  0.45593999997E+02  0.45594000000E+02  0.51100000000E-03 0.  1.
         11   -1    0    0    0    0 -0.00000000000E+00 -0.00000000000E+00 -0.45593999997E+02  0.45594000000E+02  0.51100000000E-03 0. -1.
    9900012    2    1    2    0    0  0.30635787907E+02  0.71277237402E+01  0.52307358454E+01  0.59302007089E+02  0.50000115009E+02 0.  0.
         12    1    1    2    0    0 -0.30635787907E+02 -0.71277237402E+01 -0.52307358454E+01  0.31885992911E+02  0.00000000000E+00 0. -1.
         11    1    3    3    0    0  0.15757928321E+01  0.16598190685E+02  0.41592263795E+01  0.17183777856E+02  0.51100000000E-03 0. -1.
        -11    1    3    3    0    0  0.33492800082E+02 -0.69273316815E+01  0.63332935446E+01  0.34783130810E+02  0.51100000000E-03 0.  1.
        -12    1    3    3    0    0 -0.44328050066E+01 -0.25431352633E+01 -0.52617840787E+01  0.73350984237E+01  0.00000000000E+00 0.  1.
</event>
<event>
 7    1  0.7821043E-012  0.5930187E+02  0.7816164E-02  0.1266605E+00
        -11   -1    0    0    0    0  0.00000000000E+00  0.00000000000E+00  0.45593999997E+02  0.45594000000E+02  0.51100000000E-03 0.  1.
         11   -1    0    0    0    0 -0.00000000000E+00 -0.00000000000E+00 -0.45593999997E+02  0.45594000000E+02  0.51100000000E-03 0. -1.
    9900012    2    1    2    0    0 -0.88804640912E+01 -0.22180572630E+02  0.21115981675E+02  0.59301872503E+02  0.49999869556E+02 0.  0.
         12    1    1    2    0    0  0.88804640912E+01  0.22180572630E+02 -0.21115981675E+02  0.31886127497E+02  0.00000000000E+00 0. -1.
         11    1    3    3    0    0 -0.35359444394E+01 -0.23064550714E+01 -0.13357254810E+02  0.14008529345E+02  0.51100000000E-03 0. -1.
        -11    1    3    3    0    0 -0.10225849256E+02 -0.15718820148E+02  0.12831525888E+02  0.22722177640E+02  0.51100000000E-03 0.  1.
         12    1    3    3    0    0  0.48813296045E+01 -0.41552974111E+01  0.21641710597E+02  0.22571165518E+02  0.00000000000E+00 0. -1.
</event>
<event>
 7    1  0.7821043E-012  0.5930189E+02  0.7816164E-02  0.1266605E+00
        -11   -1    0    0    0    0  0.00000000000E+00  0.00000000000E+00  0.45593999997E+02  0.45594000000E+02  0.51100000000E-03 0. -1.
         11   -1    0    0    0    0 -0.00000000000E+00 -0.00000000000E+00 -0.45593999997E+02  0.45594000000E+02  0.51100000000E-03 0.  1.
    9900012    2    1    2    0    0 -0.14405948257E+02  0.24291638096E+02 -0.14802337056E+02  0.59301886896E+02  0.49999895805E+02 0.  0.
         12    1    1    2    0    0  0.14405948257E+02 -0.24291638096E+02  0.14802337056E+02  0.31886113104E+02  0.00000000000E+00 0. -1.
         11    1    3    3    0    0  0.99660859263E+01 -0.95911665034E+01 -0.87008781221E+01  0.16340704512E+02  0.51100000000E-03 0. -1.
        -11    1    3    3    0    0 -0.81620504070E+01  0.14380744085E+02  0.11788604138E+01  0.16577532368E+02  0.51100000000E-03 0.  1.
         12    1    3    3    0    0 -0.16209983776E+02  0.19502060515E+02 -0.72803193476E+01  0.26383650015E+02  0.00000000000E+00 0. -1.
</event>
<event>
 7    1  0.7821043E-012  0.5930194E+02  0.7816164E-02  0.1266605E+00
        -11   -1    0    0    0    0  0.00000000000E+00  0.00000000000E+00  0.45593999997E+02  0.45594000000E+02  0.51100000000E-03 0.  1.
         11   -1    0    0    0    0 -0.00000000000E+00 -0.00000000000E+00 -0.45593999997E+02  0.45594000000E+02  0.51100000000E-03 0. -1.
    9900012    2    1    2    0    0  0.94540793908E+01  0.15573304485E+02  0.26168938915E+02  0.59301940450E+02  0.49999993475E+02 0.  0.
         12    1    1    2    0    0 -0.94540793908E+01 -0.15573304485E+02 -0.26168938915E+02  0.31886059550E+02  0.00000000000E+00 0. -1.
         11    1    3    3    0    0  0.11216738296E+02 -0.78723307073E+01  0.27666490693E+02  0.30874318070E+02  0.51100000000E-03 0.  1.
        -11    1    3    3    0    0 -0.39754581520E+01  0.25229662371E+02 -0.11904008003E+01  0.25568675860E+02  0.51100000000E-03 0. -1.
         12    1    3    3    0    0  0.22127992464E+01 -0.17840271788E+01 -0.30715097798E+00  0.28589465198E+01  0.00000000000E+00 0. -1.
</event>
<event>
 7    1  0.7821043E-012  0.5930192E+02  0.7816164E-02  0.1266605E+00
        -11   -1    0    0    0    0  0.00000000000E+00  0.00000000000E+00  0.45593999997E+02  0.45594000000E+02  0.51100000000E-03 0. -1.
         11   -1    0    0    0    0 -0.00000000000E+00 -0.00000000000E+00 -0.45593999997E+02  0.45594000000E+02  0.51100000000E-03 0.  1.
    9900012    2    1    2    0    0 -0.13028415975E+02 -0.12808288458E+02 -0.26132935852E+02  0.59301918204E+02  0.49999952904E+02 0.  0.
         12    1    1    2    0    0  0.13028415975E+02  0.12808288458E+02  0.26132935852E+02  0.31886081796E+02  0.00000000000E+00 0. -1.
         11    1    3    3    0    0 -0.17978973952E+02  0.91442324976E+00  0.43769439494E+01  0.18526664914E+02  0.51100000000E-03 0. -1.
        -11    1    3    3    0    0  0.10229259588E+02 -0.77883382392E+01 -0.45669727790E+01  0.13643797304E+02  0.51100000000E-03 0.  1.
         12    1    3    3    0    0 -0.52787016123E+01 -0.59343734680E+01 -0.25942907022E+02  0.27131455986E+02  0.00000000000E+00 0. -1.
</event>
<event>
 7    1  0.7821043E-012  0.5930193E+02  0.7816164E-02  0.1266605E+00
        -11   -1    0    0    0    0  0.00000000000E+00  0.00000000000E+00  0.45593999997E+02  0.45594000000E+02  0.51100000000E-03 0. -1.
         11   -1    0    0    0    0 -0.00000000000E+00 -0.00000000000E+00 -0.45593999997E+02  0.45594000000E+02  0.51100000000E-03 0.  1.
    9900012    2    1    2    0    0 -0.22597019230E+02  0.19381300757E+02 -0.11421973178E+02  0.59301928301E+02  0.49999971318E+02 0.  0.
         12    1    1    2    0    0  0.22597019230E+02 -0.19381300757E+02  0.11421973178E+02  0.31886071699E+02  0.00000000000E+00 0. -1.
         11    1    3    3    0    0 -0.37241348753E+01 -0.93137044547E+01  0.53037775857E+01  0.11346555785E+02  0.51100000000E-03 0. -1.
        -11    1    3    3    0    0 -0.39530575017E+01  0.29217446799E+02 -0.14517324640E+02  0.32863940361E+02  0.51100000000E-03 0.  1.
         12    1    3    3    0    0 -0.14919826853E+02 -0.52244158763E+00 -0.22084261233E+01  0.15091432155E+02  0.00000000000E+00 0. -1.
</event>
<event>
 7    1  0.7821043E-012  0.5930193E+02  0.7816164E-02  0.1266605E+00
        -11   -1    0    0    0    0  0.00000000000E+00  0.00000000000E+00  0.45593999997E+02  0.45594000000E+02  0.51100000000E-03 0.  1.
         11   -1    0    0    0    0 -0.00000000000E+00 -0.00000000000E+00 -0.45593999997E+02  0.45594000000E+02  0.51100000000E-03 0. -1.
    9900012    2    1    2    0    0  0.30141909208E+02  0.10202839990E+02 -0.20220098341E+01  0.59301934731E+02  0.49999983046E+02 0.  0.
         12    1    1    2    0    0 -0.30141909208E+02 -0.10202839990E+02  0.20220098341E+01  0.31886065269E+02  0.00000000000E+00 0. -1.
         11    1    3    3    0    0  0.19576790818E+02 -0.89253964522E+01  0.17076372864E+02  0.27468453743E+02  0.51100000000E-03 0. -1.
        -11    1    3    3    0    0  0.88767532612E+01  0.37728996114E+01 -0.10054964172E+02  0.13933191475E+02  0.51100000000E-03 0.  1.
         12    1    3    3    0    0  0.16883651284E+01  0.15355336831E+02 -0.90434185269E+01  0.17900289513E+02  0.00000000000E+00 0. -1.
</event>
<event>
 7    1  0.7821043E-012  0.5930195E+02  0.7816164E-02  0.1266605E+00
        -11   -1    0    0    0    0  0.00000000000E+00  0.00000000000E+00  0.45593999997E+02  0.45594000000E+02  0.51100000000E-03 0.  1.
         11   -1    0    0    0    0 -0.00000000000E+00 -0.00000000000E+00 -0.45593999997E+02  0.45594000000E+02  0.51100000000E-03 0. -1.
    9900012    2    1    2    0    0  0.27306611729E+02 -0.16345931577E+02  0.19697230008E+01  0.59301947690E+02  0.50000006679E+02 0.  0.
         12    1    1    2    0    0 -0.27306611729E+02  0.16345931577E+02 -0.19697230008E+01  0.31886052310E+02  0.00000000000E+00 0. -1.
         11    1    3    3    0    0 -0.59167658753E+01 -0.88115594475E+01 -0.69136021048E+01  0.12666869884E+02  0.51100000000E-03 0. -1.
        -11    1    3    3    0    0  0.26605291590E+02 -0.14602274245E+02 -0.38999667287E+01  0.30598655109E+02  0.51100000000E-03 0.  1.
        -12    1    3    3    0    0  0.66180860140E+01  0.70679021158E+01  0.12783291834E+02  0.16036422697E+02  0.00000000000E+00 0.  1.
</event>
<event>
 7    1  0.7821043E-012  0.5930195E+02  0.7816164E-02  0.1266605E+00
        -11   -1    0    0    0    0  0.00000000000E+00  0.00000000000E+00  0.45593999997E+02  0.45594000000E+02  0.51100000000E-03 0.  1.
         11   -1    0    0    0    0 -0.00000000000E+00 -0.00000000000E+00 -0.45593999997E+02  0.45594000000E+02  0.51100000000E-03 0. -1.
    9900012    2    1    2    0    0  0.47267053007E+01 -0.30837279553E+02  0.65909269407E+01  0.59301954915E+02  0.50000019855E+02 0.  0.
         12    1    1    2    0    0 -0.47267053007E+01  0.30837279553E+02 -0.65909269407E+01  0.31886045085E+02  0.00000000000E+00 0. -1.
         11    1    3    3    0    0 -0.77560504263E+01 -0.36133829521E+01  0.10936029321E+02  0.13885589370E+02  0.51100000000E-03 0. -1.
        -11    1    3    3    0    0 -0.42429096393E+01 -0.27929487489E+02 -0.57116847668E+00  0.28255703624E+02  0.51100000000E-03 0.  1.
        -12    1    3    3    0    0  0.16725665366E+02  0.70559088759E+00 -0.37739339038E+01  0.17160661921E+02  0.00000000000E+00 0.  1.
</event>
<event>
 7    1  0.7821043E-012  0.5930197E+02  0.7816164E-02  0.1266605E+00
        -11   -1    0    0    0    0  0.00000000000E+00  0.00000000000E+00  0.45593999997E+02  0.45594000000E+02  0.51100000000E-03 0.  1.
         11   -1    0    0    0    0 -0.00000000000E+00 -0.00000000000E+00 -0.45593999997E+02  0.45594000000E+02  0.51100000000E-03 0. -1.
    9900012    2    1    2    0    0  0.23252296922E+02  0.21743256354E+02  0.18111678616E+01  0.59301971116E+02  0.50000049402E+02 0.  0.
         12    1    1    2    0    0 -0.23252296922E+02 -0.21743256354E+02 -0.18111678616E+01  0.31886028884E+02  0.00000000000E+00 0. -1.
         11    1    3    3    0    0  0.18292414011E+02  0.23864163183E+02 -0.15950524929E+02  0.34037184674E+02  0.51100000000E-03 0. -1.
        -11    1    3    3    0    0  0.10572896512E+02  0.16539553756E+01  0.78801165651E+01  0.13289768485E+02  0.51100000000E-03 0.  1.
         12    1    3    3    0    0 -0.56130136015E+01 -0.37748622049E+01  0.98815762255E+01  0.11975017956E+02  0.00000000000E+00 0. -1.
</event>
<event>
 7    1  0.7821043E-012  0.5930199E+02  0.7816164E-02  0.1266605E+00
        -11   -1    0    0    0    0  0.00000000000E+00  0.00000000000E+00  0.45593999997E+02  0.45594000000E+02  0.51100000000E-03 0.  1.
         11   -1    0    0    0    0 -0.00000000000E+00 -0.00000000000E+00 -0.45593999997E+02  0.45594000000E+02  0.51100000000E-03 0. -1.
    9900012    2    1    2    0    0  0.14698579446E+02  0.28285664398E+02  0.76833394594E+00  0.59301993897E+02  0.50000090950E+02 0.  0.
         12    1    1    2    0    0 -0.14698579446E+02 -0.28285664398E+02 -0.76833394594E+00  0.31886006103E+02  0.00000000000E+00 0. -1.
         11    1    3    3    0    0 -0.42063587159E+01  0.23274895561E+02 -0.57246721304E+01  0.24334873911E+02  0.51100000000E-03 0. -1.
        -11    1    3    3    0    0  0.11968248305E+02 -0.89283221182E+00  0.17159842708E+02  0.20940303696E+02  0.51100000000E-03 0.  1.
        -12    1    3    3    0    0  0.69366898563E+01  0.59036010485E+01 -0.10666836632E+02  0.14026816290E+02  0.00000000000E+00 0.  1.
</event>
<event>
 7    1  0.7821043E-012  0.5930194E+02  0.7816164E-02  0.1266605E+00
        -11   -1    0    0    0    0  0.00000000000E+00  0.00000000000E+00  0.45593999997E+02  0.45594000000E+02  0.51100000000E-03 0.  1.
         11   -1    0    0    0    0 -0.00000000000E+00 -0.00000000000E+00 -0.45593999997E+02  0.45594000000E+02  0.51100000000E-03 0. -1.
    9900012    2    1    2    0    0  0.11429320987E+01  0.18089492689E+02  0.26233279644E+02  0.59301937207E+02  0.49999987561E+02 0.  0.
         12    1    1    2    0    0 -0.11429320987E+01 -0.18089492689E+02 -0.26233279644E+02  0.31886062793E+02  0.00000000000E+00 0. -1.
         11    1    3    3    0    0 -0.92562534260E-01 -0.28372364957E+01 -0.10048333413E+02  0.10441622642E+02  0.51100000000E-03 0. -1.
        -11    1    3    3    0    0 -0.67260916107E+01  0.23432780541E+02  0.27072152248E+02  0.36431263221E+02  0.51100000000E-03 0.  1.
         12    1    3    3    0    0  0.79615862436E+01 -0.25060513563E+01  0.92094608096E+01  0.12429051344E+02  0.00000000000E+00 0. -1.
</event>
<event>
 7    1  0.7821043E-012  0.5930185E+02  0.7816164E-02  0.1266605E+00
        -11   -1    0    0    0    0  0.00000000000E+00  0.00000000000E+00  0.45593999997E+02  0.45594000000E+02  0.51100000000E-03 0.  1.
         11   -1    0    0    0    0 -0.00000000000E+00 -0.00000000000E+00 -0.45593999997E+02  0.45594000000E+02  0.51100000000E-03 0. -1.
    9900012    2    1    2    0    0  0.24355109304E+02 -0.18509895032E+02  0.89966107001E+01  0.59301849913E+02  0.49999828356E+02 0.  0.
         12    1    1    2    0    0 -0.24355109304E+02  0.18509895032E+02 -0.89966107001E+01  0.31886150087E+02  0.00000000000E+00 0. -1.
         11    1    3    3    0    0  0.14729488385E+02  0.15383377482E+02 -0.26894130755E+01  0.21467162686E+02  0.51100000000E-03 0. -1.
        -11    1    3    3    0    0  0.22742025388E+01 -0.20114831928E+02  0.81526517434E+01  0.21823019759E+02  0.51100000000E-03 0.  1.
         12    1    3    3    0    0  0.73514183809E+01 -0.13778440586E+02  0.35333720322E+01  0.16011667468E+02  0.00000000000E+00 0. -1.
</event>
<event>
 7    1  0.7821043E-012  0.5930189E+02  0.7816164E-02  0.1266605E+00
        -11   -1    0    0    0    0  0.00000000000E+00  0.00000000000E+00  0.45593999997E+02  0.45594000000E+02  0.51100000000E-03 0.  1.
         11   -1    0    0    0    0 -0.00000000000E+00 -0.00000000000E+00 -0.45593999997E+02  0.45594000000E+02  0.51100000000E-03 0. -1.
    9900012    2    1    2    0    0 -0.26029915215E+02 -0.18413444119E+02  0.33562295440E+00  0.59301889337E+02  0.49999900257E+02 0.  0.
         12    1    1    2    0    0  0.26029915215E+02  0.18413444119E+02 -0.33562295440E+00  0.31886110663E+02  0.00000000000E+00 0. -1.
         11    1    3    3    0    0 -0.30586553384E+01 -0.23739912220E+01 -0.19857690144E+01  0.43513774418E+01  0.51100000000E-03 0. -1.
        -11    1    3    3    0    0 -0.30889335849E+02 -0.33163238434E+01  0.15747464748E+02  0.34830040472E+02  0.51100000000E-03 0.  1.
        -12    1    3    3    0    0  0.79180759721E+01 -0.12723129054E+02 -0.13426072779E+02  0.20120471423E+02  0.00000000000E+00 0.  1.
</event>
<event>
 7    1  0.7821043E-012  0.5930205E+02  0.7816164E-02  0.1266604E+00
        -11   -1    0    0    0    0  0.00000000000E+00  0.00000000000E+00  0.45593999997E+02  0.45594000000E+02  0.51100000000E-03 0. -1.
         11   -1    0    0    0    0 -0.00000000000E+00 -0.00000000000E+00 -0.45593999997E+02  0.45594000000E+02  0.51100000000E-03 0.  1.
    9900012    2    1    2    0    0 -0.31614785940E+02  0.40908526133E+01 -0.69583065048E+00  0.59302047836E+02  0.50000189321E+02 0.  0.
         12    1    1    2    0    0  0.31614785940E+02 -0.40908526133E+01  0.69583065048E+00  0.31885952164E+02  0.00000000000E+00 0. -1.
         11    1    3    3    0    0 -0.40321176912E+02  0.59018948625E+00 -0.67836139508E+01  0.40892090307E+02  0.51100000000E-03 0.  1.
        -11    1    3    3    0    0 -0.14913337873E+01  0.62917496351E+01  0.58933262666E+00  0.64928809585E+01  0.51100000000E-03 0. -1.
         12    1    3    3    0    0  0.10197724760E+02 -0.27910865080E+01  0.54984506737E+01  0.11917076570E+02  0.00000000000E+00 0. -1.
</event>
<event>
 7    1  0.7821043E-012  0.5930187E+02  0.7816164E-02  0.1266605E+00
        -11   -1    0    0    0    0  0.00000000000E+00  0.00000000000E+00  0.45593999997E+02  0.45594000000E+02  0.51100000000E-03 0. -1.
         11   -1    0    0    0    0 -0.00000000000E+00 -0.00000000000E+00 -0.45593999997E+02  0.45594000000E+02  0.51100000000E-03 0.  1.
    9900012    2    1    2    0    0  0.30464440517E+02  0.91280377937E+01 -0.23069482565E+01  0.59301871037E+02  0.49999866882E+02 0.  0.
         12    1    1    2    0    0 -0.30464440517E+02 -0.91280377937E+01  0.23069482565E+01  0.31886128963E+02  0.00000000000E+00 0. -1.
         11    1    3    3    0    0 -0.79570777382E+01 -0.52377888475E+01  0.13880634241E+01  0.96268498727E+01  0.51100000000E-03 0. -1.
        -11    1    3    3    0    0  0.27435162656E+02  0.14973332771E+02  0.93361416078E+01  0.32619815828E+02  0.51100000000E-03 0.  1.
        -12    1    3    3    0    0  0.10986355599E+02 -0.60750612967E+00 -0.13031153288E+02  0.17055205336E+02  0.00000000000E+00 0.  1.
</event>
<event>
 7    1  0.7821043E-012  0.5930195E+02  0.7816164E-02  0.1266605E+00
        -11   -1    0    0    0    0  0.00000000000E+00  0.00000000000E+00  0.45593999997E+02  0.45594000000E+02  0.51100000000E-03 0. -1.
         11   -1    0    0    0    0 -0.00000000000E+00 -0.00000000000E+00 -0.45593999997E+02  0.45594000000E+02  0.51100000000E-03 0.  1.
    9900012    2    1    2    0    0  0.14869749600E+01  0.28929590752E+02 -0.13326198246E+02  0.59301954850E+02  0.50000019737E+02 0.  0.
         12    1    1    2    0    0 -0.14869749600E+01 -0.28929590752E+02  0.13326198246E+02  0.31886045150E+02  0.00000000000E+00 0. -1.
         11    1    3    3    0    0 -0.73536849702E+01  0.23565545082E+01 -0.23114495333E+02  0.24370267265E+02  0.51100000000E-03 0. -1.
        -11    1    3    3    0    0  0.92889453702E+01  0.22172249788E+02  0.14813333841E+02  0.28236997477E+02  0.51100000000E-03 0.  1.
        -12    1    3    3    0    0 -0.44828544008E+00  0.44007864556E+01 -0.50250367539E+01  0.66946901079E+01  0.00000000000E+00 0.  1.
</event>
<event>
 7    1  0.7821043E-012  0.5930193E+02  0.7816164E-02  0.1266605E+00
        -11   -1    0    0    0    0  0.00000000000E+00  0.00000000000E+00  0.45593999997E+02  0.45594000000E+02  0.51100000000E-03 0. -1.
         11   -1    0    0    0    0 -0.00000000000E+00 -0.00000000000E+00 -0.45593999997E+02  0.45594000000E+02  0.51100000000E-03 0.  1.
    9900012    2    1    2    0    0 -0.21311447542E+02  0.21858781193E+02 -0.92052742335E+01  0.59301934308E+02  0.49999982274E+02 0.  0.
         12    1    1    2    0    0  0.21311447542E+02 -0.21858781193E+02  0.92052742335E+01  0.31886065692E+02  0.00000000000E+00 0. -1.
         11    1    3    3    0    0 -0.78489132234E+01  0.30382041958E+02  0.60568675029E+01  0.31958716440E+02  0.51100000000E-03 0. -1.
        -11    1    3    3    0    0 -0.96564394309E+00 -0.94184567725E+01 -0.33157119234E+01  0.10031637056E+02  0.51100000000E-03 0.  1.
        -12    1    3    3    0    0 -0.12496890375E+02  0.89519600782E+00 -0.11946429813E+02  0.17311580812E+02  0.00000000000E+00 0.  1.
</event>
<event>
 7    1  0.7821043E-012  0.5930193E+02  0.7816164E-02  0.1266605E+00
        -11   -1    0    0    0    0  0.00000000000E+00  0.00000000000E+00  0.45593999997E+02  0.45594000000E+02  0.51100000000E-03 0.  1.
         11   -1    0    0    0    0 -0.00000000000E+00 -0.00000000000E+00 -0.45593999997E+02  0.45594000000E+02  0.51100000000E-03 0. -1.
    9900012    2    1    2    0    0 -0.18858047348E+02 -0.29519407238E+01  0.25541761229E+02  0.59301929836E+02  0.49999974118E+02 0.  0.
         12    1    1    2    0    0  0.18858047348E+02  0.29519407238E+01 -0.25541761229E+02  0.31886070164E+02  0.00000000000E+00 0. -1.
         11    1    3    3    0    0 -0.56467706244E+00 -0.14767449067E+02 -0.13010982470E+01  0.14835405928E+02  0.51100000000E-03 0. -1.
        -11    1    3    3    0    0 -0.23926038411E+02  0.66978300656E+01  0.11580775684E+02  0.27412234629E+02  0.51100000000E-03 0.  1.
         12    1    3    3    0    0  0.56326681254E+01  0.51176782774E+01  0.15262083792E+02  0.17054289280E+02  0.00000000000E+00 0. -1.
</event>
<event>
 7    1  0.7821043E-012  0.5930198E+02  0.7816164E-02  0.1266605E+00
        -11   -1    0    0    0    0  0.00000000000E+00  0.00000000000E+00  0.45593999997E+02  0.45594000000E+02  0.51100000000E-03 0. -1.
         11   -1    0    0    0    0 -0.00000000000E+00 -0.00000000000E+00 -0.45593999997E+02  0.45594000000E+02  0.51100000000E-03 0.  1.
    9900012    2    1    2    0    0  0.25485369491E+02  0.15093526814E+02 -0.11806761646E+02  0.59301980645E+02  0.50000066780E+02 0.  0.
         12    1    1    2    0    0 -0.25485369491E+02 -0.15093526814E+02  0.11806761646E+02  0.31886019355E+02  0.00000000000E+00 0. -1.
         11    1    3    3    0    0  0.13179429796E+02 -0.14726175197E+01  0.73019514537E+01  0.15138839698E+02  0.51100000000E-03 0. -1.
        -11    1    3    3    0    0 -0.10036576853E+01 -0.83337525568E+01 -0.12680049539E+02  0.15206656996E+02  0.51100000000E-03 0.  1.
        -12    1    3    3    0    0  0.13309597380E+02  0.24899896891E+02 -0.64286635607E+01  0.28956483950E+02  0.00000000000E+00 0.  1.
</event>
<event>
 7    1  0.7821043E-012  0.5930201E+02  0.7816164E-02  0.1266605E+00
        -11   -1    0    0    0    0  0.00000000000E+00  0.00000000000E+00  0.45593999997E+02  0.45594000000E+02  0.51100000000E-03 0.  1.
         11   -1    0    0    0    0 -0.00000000000E+00 -0.00000000000E+00 -0.45593999997E+02  0.45594000000E+02  0.51100000000E-03 0. -1.
    9900012    2    1    2    0    0  0.15189587764E+02  0.27338363215E+02 -0.62134483781E+01  0.59302005889E+02  0.50000112820E+02 0.  0.
         12    1    1    2    0    0 -0.15189587764E+02 -0.27338363215E+02  0.62134483781E+01  0.31885994111E+02  0.00000000000E+00 0. -1.
         11    1    3    3    0    0  0.31792422065E+01 -0.42606254466E+01 -0.58213236446E+01  0.78834205419E+01  0.51100000000E-03 0. -1.
        -11    1    3    3    0    0  0.24829552848E+02  0.27136862761E+02 -0.49202150049E+01  0.37109628550E+02  0.51100000000E-03 0.  1.
        -12    1    3    3    0    0 -0.12819207291E+02  0.44621258997E+01  0.45280902713E+01  0.14308956797E+02  0.00000000000E+00 0.  1.
</event>
<event>
 7    1  0.7821043E-012  0.5930185E+02  0.7816164E-02  0.1266605E+00
        -11   -1    0    0    0    0  0.00000000000E+00  0.00000000000E+00  0.45593999997E+02  0.45594000000E+02  0.51100000000E-03 0. -1.
         11   -1    0    0    0    0 -0.00000000000E+00 -0.00000000000E+00 -0.45593999997E+02  0.45594000000E+02  0.51100000000E-03 0.  1.
    9900012    2    1    2    0    0 -0.77348810958E+00 -0.25827588528E+02 -0.18683252753E+02  0.59301850241E+02  0.49999828956E+02 0.  0.
         12    1    1    2    0    0  0.77348810958E+00  0.25827588528E+02  0.18683252753E+02  0.31886149759E+02  0.00000000000E+00 0. -1.
         11    1    3    3    0    0 -0.15585550772E+01 -0.37876131182E+01  0.11604972588E+02  0.12306522502E+02  0.51100000000E-03 0. -1.
        -11    1    3    3    0    0  0.29546792533E+01 -0.26817879979E+02 -0.15082690915E+02  0.30909810442E+02  0.51100000000E-03 0.  1.
        -12    1    3    3    0    0 -0.21696122857E+01  0.47779045696E+01 -0.15205534426E+02  0.16085517297E+02  0.00000000000E+00 0.  1.
</event>
<event>
 7    1  0.7821043E-012  0.5930199E+02  0.7816164E-02  0.1266605E+00
        -11   -1    0    0    0    0  0.00000000000E+00  0.00000000000E+00  0.45593999997E+02  0.45594000000E+02  0.51100000000E-03 0. -1.
         11   -1    0    0    0    0 -0.00000000000E+00 -0.00000000000E+00 -0.45593999997E+02  0.45594000000E+02  0.51100000000E-03 0.  1.
    9900012    2    1    2    0    0 -0.31494730388E+02  0.40358184243E+01 -0.29174955473E+01  0.59301989700E+02  0.50000083296E+02 0.  0.
         12    1    1    2    0    0  0.31494730388E+02 -0.40358184243E+01  0.29174955473E+01  0.31886010300E+02  0.00000000000E+00 0. -1.
         11    1    3    3    0    0 -0.16900005809E+02  0.16698188575E+02 -0.88471812018E+01  0.25351771408E+02  0.51100000000E-03 0.  1.
        -11    1    3    3    0    0  0.53211355705E+01 -0.77389826256E+01  0.92334287063E+01  0.13170517901E+02  0.51100000000E-03 0. -1.
         12    1    3    3    0    0 -0.19915860150E+02 -0.49233875251E+01 -0.33037430519E+01  0.20779700392E+02  0.00000000000E+00 0. -1.
</event>
<event>
 7    1  0.7821043E-012  0.5930195E+02  0.7816164E-02  0.1266605E+00
        -11   -1    0    0    0    0  0.00000000000E+00  0.00000000000E+00  0.45593999997E+02  0.45594000000E+02  0.51100000000E-03 0.  1.
         11   -1    0    0    0    0 -0.00000000000E+00 -0.00000000000E+00 -0.45593999997E+02  0.45594000000E+02  0.51100000000E-03 0. -1.
    9900012    2    1    2    0    0 -0.10850247593E+02  0.23367391042E+02  0.18787156848E+02  0.59301951337E+02  0.50000013330E+02 0.  0.
         12    1    1    2    0    0  0.10850247593E+02 -0.23367391042E+02 -0.18787156848E+02  0.31886048663E+02  0.00000000000E+00 0. -1.
         11    1    3    3    0    0 -0.19829049175E+02  0.18984496994E+02 -0.52797901792E+01  0.27954936986E+02  0.51100000000E-03 0. -1.
        -11    1    3    3    0    0 -0.59425458749E+00 -0.59117244901E+01  0.58670539979E+01  0.83500866964E+01  0.51100000000E-03 0.  1.
         12    1    3    3    0    0  0.95730561696E+01  0.10294618538E+02  0.18199893029E+02  0.22996927654E+02  0.00000000000E+00 0. -1.
</event>
<event>
 7    1  0.7844224E-012  0.5930194E+02  0.7816164E-02  0.1266605E+00
        -11   -1    0    0    0    0  0.00000000000E+00  0.00000000000E+00  0.45593999997E+02  0.45594000000E+02  0.51100000000E-03 0.  1.
         11   -1    0    0    0    0 -0.00000000000E+00 -0.00000000000E+00 -0.45593999997E+02  0.45594000000E+02  0.51100000000E-03 0. -1.
    9900012    2    1    2    0    0 -0.30115654770E+02  0.10334173282E+02  0.17242624236E+01  0.59301939087E+02  0.49999990990E+02 0.  0.
         12    1    1    2    0    0  0.30115654770E+02 -0.10334173282E+02 -0.17242624236E+01  0.31886060913E+02  0.00000000000E+00 0. -1.
         11    1    3    3    0    0 -0.82633588545E+01  0.10713189964E+02 -0.17592685841E+02  0.22193650761E+02  0.51100000000E-03 0. -1.
        -11    1    3    3    0    0 -0.90158084866E+01 -0.11426481566E+02  0.10977304308E+02  0.18230482543E+02  0.51100000000E-03 0.  1.
         12    1    3    3    0    0 -0.12836487428E+02  0.11047464884E+02  0.83396439564E+01  0.18877805783E+02  0.00000000000E+00 0. -1.
</event>
<event>
 7    1  0.7821043E-012  0.5930196E+02  0.7816164E-02  0.1266605E+00
        -11   -1    0    0    0    0  0.00000000000E+00  0.00000000000E+00  0.45593999997E+02  0.45594000000E+02  0.51100000000E-03 0. -1.
         11   -1    0    0    0    0 -0.00000000000E+00 -0.00000000000E+00 -0.45593999997E+02  0.45594000000E+02  0.51100000000E-03 0.  1.
    9900012    2    1    2    0    0  0.22440434076E+01  0.37746086383E+01 -0.31582207659E+02  0.59301964784E+02  0.50000037854E+02 0.  0.
         12    1    1    2    0    0 -0.22440434076E+01 -0.37746086383E+01  0.31582207659E+02  0.31886035216E+02  0.00000000000E+00 0. -1.
         11    1    3    3    0    0 -0.20595088265E+02  0.80706754850E+01 -0.26883472783E+02  0.34813999664E+02  0.51100000000E-03 0. -1.
        -11    1    3    3    0    0  0.18122027264E+02 -0.57060895364E+01 -0.27686048365E+01  0.19199804764E+02  0.51100000000E-03 0.  1.
         12    1    3    3    0    0  0.47171044085E+01  0.14100226897E+01 -0.19301300394E+01  0.52881603564E+01  0.00000000000E+00 0. -1.
</event>
<event>
 7    1  0.7821043E-012  0.5930194E+02  0.7816164E-02  0.1266605E+00
        -11   -1    0    0    0    0  0.00000000000E+00  0.00000000000E+00  0.45593999997E+02  0.45594000000E+02  0.51100000000E-03 0. -1.
         11   -1    0    0    0    0 -0.00000000000E+00 -0.00000000000E+00 -0.45593999997E+02  0.45594000000E+02  0.51100000000E-03 0.  1.
    9900012    2    1    2    0    0 -0.31108922836E+02  0.69404294338E+01 -0.88683319031E+00  0.59301935429E+02  0.49999984317E+02 0.  0.
         12    1    1    2    0    0  0.31108922836E+02 -0.69404294338E+01  0.88683319031E+00  0.31886064571E+02  0.00000000000E+00 0. -1.
         11    1    3    3    0    0  0.11683754949E+02  0.10020825846E+02  0.27914793799E+01  0.15643511042E+02  0.51100000000E-03 0. -1.
        -11    1    3    3    0    0 -0.25724337027E+02 -0.41515918180E+01  0.46663899227E+00  0.26061369540E+02  0.51100000000E-03 0.  1.
         12    1    3    3    0    0 -0.17068340758E+02  0.10711954060E+01 -0.41449515625E+01  0.17597054847E+02  0.00000000000E+00 0. -1.
</event>
<event>
 7    1  0.7821043E-012  0.5930194E+02  0.7816164E-02  0.1266605E+00
        -11   -1    0    0    0    0  0.00000000000E+00  0.00000000000E+00  0.45593999997E+02  0.45594000000E+02  0.51100000000E-03 0. -1.
         11   -1    0    0    0    0 -0.00000000000E+00 -0.00000000000E+00 -0.45593999997E+02  0.45594000000E+02  0.51100000000E-03 0.  1.
    9900012    2    1    2    0    0  0.18318150186E+02 -0.41626929105E+01  0.25765053821E+02  0.59301942907E+02  0.49999997957E+02 0.  0.
         12    1    1    2    0    0 -0.18318150186E+02  0.41626929105E+01 -0.25765053821E+02  0.31886057093E+02  0.00000000000E+00 0. -1.
         11    1    3    3    0    0  0.17119802624E+02 -0.18628398234E+02  0.22758049820E+02  0.34029894130E+02  0.51100000000E-03 0. -1.
        -11    1    3    3    0    0 -0.88432242162E+01  0.82304832668E+01  0.53662826957E+01  0.13218943209E+02  0.51100000000E-03 0.  1.
         12    1    3    3    0    0  0.10041571778E+02  0.62352220566E+01 -0.23592786941E+01  0.12053105568E+02  0.00000000000E+00 0. -1.
</event>
<event>
 7    1  0.7821043E-012  0.5930196E+02  0.7816164E-02  0.1266605E+00
        -11   -1    0    0    0    0  0.00000000000E+00  0.00000000000E+00  0.45593999997E+02  0.45594000000E+02  0.51100000000E-03 0. -1.
         11   -1    0    0    0    0 -0.00000000000E+00 -0.00000000000E+00 -0.45593999997E+02  0.45594000000E+02  0.51100000000E-03 0.  1.
    9900012    2    1    2    0    0  0.59808113782E+01 -0.23752213406E+02 -0.20415234151E+02  0.59301960235E+02  0.50000029558E+02 0.  0.
         12    1    1    2    0    0 -0.59808113782E+01  0.23752213406E+02  0.20415234151E+02  0.31886039765E+02  0.00000000000E+00 0. -1.
         11    1    3    3    0    0  0.56393126393E+01 -0.33037650957E+02  0.33515490765E+01  0.33682652943E+02  0.51100000000E-03 0. -1.
        -11    1    3    3    0    0  0.11050151662E+01  0.27251294554E+01 -0.65807554820E+01  0.72078937313E+01  0.51100000000E-03 0.  1.
         12    1    3    3    0    0 -0.76351642729E+00  0.65603080950E+01 -0.17186027746E+02  0.18411413561E+02  0.00000000000E+00 0. -1.
</event>
<event>
 7    1  0.7821043E-012  0.5930194E+02  0.7816164E-02  0.1266605E+00
        -11   -1    0    0    0    0  0.00000000000E+00  0.00000000000E+00  0.45593999997E+02  0.45594000000E+02  0.51100000000E-03 0.  1.
         11   -1    0    0    0    0 -0.00000000000E+00 -0.00000000000E+00 -0.45593999997E+02  0.45594000000E+02  0.51100000000E-03 0. -1.
    9900012    2    1    2    0    0 -0.30321261214E+02 -0.47679484337E+01  0.86376189507E+01  0.59301942310E+02  0.49999996867E+02 0.  0.
         12    1    1    2    0    0  0.30321261214E+02  0.47679484337E+01 -0.86376189507E+01  0.31886057690E+02  0.00000000000E+00 0. -1.
         11    1    3    3    0    0 -0.37604910159E+02  0.61230389609E+01  0.16901476959E+02  0.41680700544E+02  0.51100000000E-03 0.  1.
        -11    1    3    3    0    0  0.40407013609E+01 -0.11211220553E+02 -0.47500360939E+01  0.12828935144E+02  0.51100000000E-03 0. -1.
        -12    1    3    3    0    0  0.32429475843E+01  0.32023315785E+00 -0.35138219146E+01  0.47923066219E+01  0.00000000000E+00 0.  1.
</event>
<event>
 7    1  0.7821043E-012  0.5930192E+02  0.7816164E-02  0.1266605E+00
        -11   -1    0    0    0    0  0.00000000000E+00  0.00000000000E+00  0.45593999997E+02  0.45594000000E+02  0.51100000000E-03 0.  1.
         11   -1    0    0    0    0 -0.00000000000E+00 -0.00000000000E+00 -0.45593999997E+02  0.45594000000E+02  0.51100000000E-03 0. -1.
    9900012    2    1    2    0    0  0.30747681773E+02  0.35478909166E+01  0.76625485366E+01  0.59301919738E+02  0.49999955702E+02 0.  0.
         12    1    1    2    0    0 -0.30747681773E+02 -0.35478909166E+01 -0.76625485366E+01  0.31886080262E+02  0.00000000000E+00 0. -1.
         11    1    3    3    0    0  0.23121296829E+02 -0.19705177789E+02  0.86602014358E+01  0.31589357194E+02  0.51100000000E-03 0. -1.
        -11    1    3    3    0    0  0.10507265406E+01  0.18150100539E+02  0.30872938588E+01  0.18440758105E+02  0.51100000000E-03 0.  1.
        -12    1    3    3    0    0  0.65756584040E+01  0.51029681664E+01 -0.40849467580E+01  0.92718044398E+01  0.00000000000E+00 0.  1.
</event>
<event>
 7    1  0.7821043E-012  0.5930189E+02  0.7816164E-02  0.1266605E+00
        -11   -1    0    0    0    0  0.00000000000E+00  0.00000000000E+00  0.45593999997E+02  0.45594000000E+02  0.51100000000E-03 0. -1.
         11   -1    0    0    0    0 -0.00000000000E+00 -0.00000000000E+00 -0.45593999997E+02  0.45594000000E+02  0.51100000000E-03 0.  1.
    9900012    2    1    2    0    0  0.12241016210E+02  0.12537871954E+02 -0.26639884485E+02  0.59301887719E+02  0.49999897307E+02 0.  0.
         12    1    1    2    0    0 -0.12241016210E+02 -0.12537871954E+02  0.26639884485E+02  0.31886112281E+02  0.00000000000E+00 0. -1.
         11    1    3    3    0    0  0.50212217680E+01 -0.43474368691E+01  0.17072317864E+01  0.68576611179E+01  0.51100000000E-03 0. -1.
        -11    1    3    3    0    0 -0.16708048904E+02  0.57286924869E+01 -0.12700713883E+02  0.21755113174E+02  0.51100000000E-03 0.  1.
        -12    1    3    3    0    0  0.23927843347E+02  0.11156616336E+02 -0.15646402388E+02  0.30689113428E+02  0.00000000000E+00 0.  1.
</event>
<event>
 7    1  0.7821043E-012  0.5930195E+02  0.7816164E-02  0.1266605E+00
        -11   -1    0    0    0    0  0.00000000000E+00  0.00000000000E+00  0.45593999997E+02  0.45594000000E+02  0.51100000000E-03 0.  1.
         11   -1    0    0    0    0 -0.00000000000E+00 -0.00000000000E+00 -0.45593999997E+02  0.45594000000E+02  0.51100000000E-03 0. -1.
    9900012    2    1    2    0    0 -0.55550081777E+01  0.27160518189E+01  0.31280745541E+02  0.59301951406E+02  0.50000013456E+02 0.  0.
         12    1    1    2    0    0  0.55550081777E+01 -0.27160518189E+01 -0.31280745541E+02  0.31886048594E+02  0.00000000000E+00 0. -1.
         11    1    3    3    0    0  0.65341559894E-01 -0.91821340568E+01 -0.10337843850E+02  0.13827034066E+02  0.51100000000E-03 0. -1.
        -11    1    3    3    0    0 -0.88125177542E+01  0.37979781822E+01  0.20658448214E+02  0.22778423789E+02  0.51100000000E-03 0.  1.
         12    1    3    3    0    0  0.31921680165E+01  0.81002076935E+01  0.20960141176E+02  0.22696493550E+02  0.00000000000E+00 0. -1.
</event>
<event>
 7    1  0.7821043E-012  0.5930198E+02  0.7816164E-02  0.1266605E+00
        -11   -1    0    0    0    0  0.00000000000E+00  0.00000000000E+00  0.45593999997E+02  0.45594000000E+02  0.51100000000E-03 0.  1.
         11   -1    0    0    0    0 -0.00000000000E+00 -0.00000000000E+00 -0.45593999997E+02  0.45594000000E+02  0.51100000000E-03 0. -1.
    9900012    2    1    2    0    0 -0.11346028550E+02 -0.19032497493E+01  0.29738246810E+02  0.59301983523E+02  0.50000072029E+02 0.  0.
         12    1    1    2    0    0  0.11346028550E+02  0.19032497493E+01 -0.29738246810E+02  0.31886016477E+02  0.00000000000E+00 0. -1.
         11    1    3    3    0    0 -0.18599505682E+02 -0.23717367611E+01  0.71334448226E+00  0.18763677878E+02  0.51100000000E-03 0. -1.
        -11    1    3    3    0    0  0.44111835373E+00 -0.60936725088E+01  0.30375196870E+02  0.30983544264E+02  0.51100000000E-03 0.  1.
         12    1    3    3    0    0  0.68123587780E+01  0.65621595205E+01 -0.13502945421E+01  0.95547613808E+01  0.00000000000E+00 0. -1.
</event>
<event>
 7    1  0.7821043E-012  0.5930195E+02  0.7816164E-02  0.1266605E+00
        -11   -1    0    0    0    0  0.00000000000E+00  0.00000000000E+00  0.45593999997E+02  0.45594000000E+02  0.51100000000E-03 0. -1.
         11   -1    0    0    0    0 -0.00000000000E+00 -0.00000000000E+00 -0.45593999997E+02  0.45594000000E+02  0.51100000000E-03 0.  1.
    9900012    2    1    2    0    0 -0.17657847228E+02 -0.20986013770E+01 -0.26467275966E+02  0.59301946724E+02  0.50000004917E+02 0.  0.
         12    1    1    2    0    0  0.17657847228E+02  0.20986013770E+01  0.26467275966E+02  0.31886053276E+02  0.00000000000E+00 0. -1.
         11    1    3    3    0    0 -0.11262672988E+02 -0.63810261438E+01 -0.29926994780E+02  0.32606599245E+02  0.51100000000E-03 0. -1.
        -11    1    3    3    0    0 -0.14858313209E+02 -0.31701825646E+01  0.20795844098E+01  0.15334412297E+02  0.51100000000E-03 0.  1.
         12    1    3    3    0    0  0.84631389689E+01  0.74526073314E+01  0.13801344043E+01  0.11360935182E+02  0.00000000000E+00 0. -1.
</event>
<event>
 7    1  0.7821043E-012  0.5930195E+02  0.7816164E-02  0.1266605E+00
        -11   -1    0    0    0    0  0.00000000000E+00  0.00000000000E+00  0.45593999997E+02  0.45594000000E+02  0.51100000000E-03 0.  1.
         11   -1    0    0    0    0 -0.00000000000E+00 -0.00000000000E+00 -0.45593999997E+02  0.45594000000E+02  0.51100000000E-03 0. -1.
    9900012    2    1    2    0    0  0.20961630090E+02  0.16297477924E+02  0.17655661410E+02  0.59301951287E+02  0.50000013238E+02 0.  0.
         12    1    1    2    0    0 -0.20961630090E+02 -0.16297477924E+02 -0.17655661410E+02  0.31886048713E+02  0.00000000000E+00 0. -1.
         11    1    3    3    0    0  0.59650943306E+01 -0.14317573764E+02 -0.25282055294E+00  0.15512549351E+02  0.51100000000E-03 0. -1.
        -11    1    3    3    0    0  0.99204653690E+01  0.30070014310E+02  0.80250835301E+01  0.32665323505E+02  0.51100000000E-03 0.  1.
         12    1    3    3    0    0  0.50760703906E+01  0.54503737881E+00  0.98833984328E+01  0.11124078431E+02  0.00000000000E+00 0. -1.
</event>
<event>
 7    1  0.7821043E-012  0.5930194E+02  0.7816164E-02  0.1266605E+00
        -11   -1    0    0    0    0  0.00000000000E+00  0.00000000000E+00  0.45593999997E+02  0.45594000000E+02  0.51100000000E-03 0. -1.
         11   -1    0    0    0    0 -0.00000000000E+00 -0.00000000000E+00 -0.45593999997E+02  0.45594000000E+02  0.51100000000E-03 0.  1.
    9900012    2    1    2    0    0  0.21160128745E+02  0.21696154277E+02  0.99119402309E+01  0.59301941635E+02  0.49999995635E+02 0.  0.
         12    1    1    2    0    0 -0.21160128745E+02 -0.21696154277E+02 -0.99119402309E+01  0.31886058365E+02  0.00000000000E+00 0. -1.
         11    1    3    3    0    0  0.16787849479E+02  0.17504543123E+02  0.26602742795E+02  0.35999261722E+02  0.51100000000E-03 0. -1.
        -11    1    3    3    0    0 -0.46274624644E+01 -0.22826735209E+01 -0.48412286728E+01  0.70754153649E+01  0.51100000000E-03 0.  1.
         12    1    3    3    0    0  0.89997417305E+01  0.64742846754E+01 -0.11849573891E+02  0.16227264547E+02  0.00000000000E+00 0. -1.
</event>
<event>
 7    1  0.7821043E-012  0.5930196E+02  0.7816164E-02  0.1266605E+00
        -11   -1    0    0    0    0  0.00000000000E+00  0.00000000000E+00  0.45593999997E+02  0.45594000000E+02  0.51100000000E-03 0. -1.
         11   -1    0    0    0    0 -0.00000000000E+00 -0.00000000000E+00 -0.45593999997E+02  0.45594000000E+02  0.51100000000E-03 0.  1.
    9900012    2    1    2    0    0 -0.28841100972E+02  0.10669507374E+02 -0.84304104787E+01  0.59301963656E+02  0.50000035797E+02 0.  0.
         12    1    1    2    0    0  0.28841100972E+02 -0.10669507374E+02  0.84304104787E+01  0.31886036344E+02  0.00000000000E+00 0. -1.
         11    1    3    3    0    0 -0.32621941606E+01  0.40722927670E+01 -0.16360225757E+02  0.17172142156E+02  0.51100000000E-03 0.  1.
        -11    1    3    3    0    0 -0.15987635311E+02  0.13179750855E+02  0.17457045890E+02  0.27093518910E+02  0.51100000000E-03 0. -1.
         12    1    3    3    0    0 -0.95912715006E+01 -0.65825362486E+01 -0.95272306117E+01  0.15036302590E+02  0.00000000000E+00 0. -1.
</event>
<event>
 7    1  0.7821043E-012  0.5930199E+02  0.7816164E-02  0.1266605E+00
        -11   -1    0    0    0    0  0.00000000000E+00  0.00000000000E+00  0.45593999997E+02  0.45594000000E+02  0.51100000000E-03 0.  1.
         11   -1    0    0    0    0 -0.00000000000E+00 -0.00000000000E+00 -0.45593999997E+02  0.45594000000E+02  0.51100000000E-03 0. -1.
    9900012    2    1    2    0    0 -0.12504307682E+02 -0.14490684690E+02  0.25502547825E+02  0.59301990545E+02  0.50000084837E+02 0.  0.
         12    1    1    2    0    0  0.12504307682E+02  0.14490684690E+02 -0.25502547825E+02  0.31886009455E+02  0.00000000000E+00 0. -1.
         11    1    3    3    0    0  0.93631486390E+01 -0.12244951915E+02  0.26575166961E+02  0.30722091386E+02  0.51100000000E-03 0. -1.
        -11    1    3    3    0    0 -0.67841733204E+01 -0.89122078449E+01 -0.38764823782E+01  0.11852407865E+02  0.51100000000E-03 0.  1.
         12    1    3    3    0    0 -0.15083283000E+02  0.66664750696E+01  0.28038632415E+01  0.16727491294E+02  0.00000000000E+00 0. -1.
</event>
<event>
 7    1  0.7821043E-012  0.5930194E+02  0.7816164E-02  0.1266605E+00
        -11   -1    0    0    0    0  0.00000000000E+00  0.00000000000E+00  0.45593999997E+02  0.45594000000E+02  0.51100000000E-03 0.  1.
         11   -1    0    0    0    0 -0.00000000000E+00 -0.00000000000E+00 -0.45593999997E+02  0.45594000000E+02  0.51100000000E-03 0. -1.
    9900012    2    1    2    0    0  0.43549027446E+01 -0.22140175411E+02  0.22529272608E+02  0.59301942399E+02  0.49999997029E+02 0.  0.
         12    1    1    2    0    0 -0.43549027446E+01  0.22140175411E+02 -0.22529272608E+02  0.31886057601E+02  0.00000000000E+00 0. -1.
         11    1    3    3    0    0 -0.18883700459E+01 -0.10419311609E+01  0.30958187082E+02  0.31033222676E+02  0.51100000000E-03 0. -1.
        -11    1    3    3    0    0  0.65380306436E+01 -0.92343018702E+01  0.30913033901E+01  0.11729208526E+02  0.51100000000E-03 0.  1.
         12    1    3    3    0    0 -0.29475785321E+00 -0.11863942379E+02 -0.11520217865E+02  0.16539511197E+02  0.00000000000E+00 0. -1.
</event>
<event>
 7    1  0.7821043E-012  0.5930192E+02  0.7816164E-02  0.1266605E+00
        -11   -1    0    0    0    0  0.00000000000E+00  0.00000000000E+00  0.45593999997E+02  0.45594000000E+02  0.51100000000E-03 0.  1.
         11   -1    0    0    0    0 -0.00000000000E+00 -0.00000000000E+00 -0.45593999997E+02  0.45594000000E+02  0.51100000000E-03 0. -1.
    9900012    2    1    2    0    0 -0.31107668322E+02  0.10690157103E+01  0.69204305580E+01  0.59301918677E+02  0.49999953766E+02 0.  0.
         12    1    1    2    0    0  0.31107668322E+02 -0.10690157103E+01 -0.69204305580E+01  0.31886081323E+02  0.00000000000E+00 0. -1.
         11    1    3    3    0    0 -0.16557561683E+02  0.20433046811E+01 -0.21295095953E+02  0.27051969518E+02  0.51100000000E-03 0. -1.
        -11    1    3    3    0    0 -0.12937296456E+02 -0.26533737767E+01  0.22683326538E+02  0.26247806291E+02  0.51100000000E-03 0.  1.
         12    1    3    3    0    0 -0.16128101824E+01  0.16790848059E+01  0.55321999728E+01  0.60021428680E+01  0.00000000000E+00 0. -1.
</event>
<event>
 7    1  0.7821043E-012  0.5930194E+02  0.7816164E-02  0.1266605E+00
        -11   -1    0    0    0    0  0.00000000000E+00  0.00000000000E+00  0.45593999997E+02  0.45594000000E+02  0.51100000000E-03 0. -1.
         11   -1    0    0    0    0 -0.00000000000E+00 -0.00000000000E+00 -0.45593999997E+02  0.45594000000E+02  0.51100000000E-03 0.  1.
    9900012    2    1    2    0    0 -0.59912630599E+01  0.14742375536E+02 -0.27631282541E+02  0.59301942791E+02  0.49999997744E+02 0.  0.
         12    1    1    2    0    0  0.59912630599E+01 -0.14742375536E+02  0.27631282541E+02  0.31886057209E+02  0.00000000000E+00 0. -1.
         11    1    3    3    0    0 -0.18201373714E+02  0.69033711638E+01 -0.21857183393E+02  0.29269147658E+02  0.51100000000E-03 0.  1.
        -11    1    3    3    0    0  0.16169438757E+02  0.14360861607E+02 -0.26478123083E+01  0.21787519503E+02  0.51100000000E-03 0. -1.
         12    1    3    3    0    0 -0.39593281029E+01 -0.65218572345E+01 -0.31262868390E+01  0.82452756299E+01  0.00000000000E+00 0. -1.
</event>
<event>
 7    1  0.7821043E-012  0.5930195E+02  0.7816164E-02  0.1266605E+00
        -11   -1    0    0    0    0  0.00000000000E+00  0.00000000000E+00  0.45593999997E+02  0.45594000000E+02  0.51100000000E-03 0.  1.
         11   -1    0    0    0    0 -0.00000000000E+00 -0.00000000000E+00 -0.45593999997E+02  0.45594000000E+02  0.51100000000E-03 0. -1.
    9900012    2    1    2    0    0 -0.28239608178E+02 -0.14612255095E+02  0.23931205126E+01  0.59301945136E+02  0.50000002021E+02 0.  0.
         12    1    1    2    0    0  0.28239608178E+02  0.14612255095E+02 -0.23931205126E+01  0.31886054864E+02  0.00000000000E+00 0. -1.
         11    1    3    3    0    0  0.84048276140E+01 -0.47364031611E+01 -0.13659774741E+02  0.16723160238E+02  0.51100000000E-03 0. -1.
        -11    1    3    3    0    0 -0.10215539246E+02 -0.11414292780E+01  0.94693220806E+01  0.13975985254E+02  0.51100000000E-03 0.  1.
         12    1    3    3    0    0 -0.26428896546E+02 -0.87344226562E+01  0.65835731729E+01  0.28602799644E+02  0.00000000000E+00 0. -1.
</event>
<event>
 7    1  0.7821043E-012  0.5930194E+02  0.7816164E-02  0.1266605E+00
        -11   -1    0    0    0    0  0.00000000000E+00  0.00000000000E+00  0.45593999997E+02  0.45594000000E+02  0.51100000000E-03 0.  1.
         11   -1    0    0    0    0 -0.00000000000E+00 -0.00000000000E+00 -0.45593999997E+02  0.45594000000E+02  0.51100000000E-03 0. -1.
    9900012    2    1    2    0    0 -0.20540320140E+02  0.10387084292E+02  0.22066363600E+02  0.59301942325E+02  0.49999996894E+02 0.  0.
         12    1    1    2    0    0  0.20540320140E+02 -0.10387084292E+02 -0.22066363600E+02  0.31886057675E+02  0.00000000000E+00 0. -1.
         11    1    3    3    0    0 -0.35880467291E+01 -0.16783735469E+02  0.15917711903E+02  0.23408148327E+02  0.51100000000E-03 0. -1.
        -11    1    3    3    0    0 -0.11054144297E+02  0.64047871259E+01  0.64345330425E+01  0.14304496496E+02  0.51100000000E-03 0.  1.
         12    1    3    3    0    0 -0.58981291134E+01  0.20766032635E+02 -0.28588134570E+00  0.21589297501E+02  0.00000000000E+00 0. -1.
</event>
<event>
 7    1  0.7821043E-012  0.5930194E+02  0.7816164E-02  0.1266605E+00
        -11   -1    0    0    0    0  0.00000000000E+00  0.00000000000E+00  0.45593999997E+02  0.45594000000E+02  0.51100000000E-03 0.  1.
         11   -1    0    0    0    0 -0.00000000000E+00 -0.00000000000E+00 -0.45593999997E+02  0.45594000000E+02  0.51100000000E-03 0. -1.
    9900012    2    1    2    0    0 -0.29414841656E+02 -0.11586146530E+02 -0.41531689432E+01  0.59301944846E+02  0.50000001492E+02 0.  0.
         12    1    1    2    0    0  0.29414841656E+02  0.11586146530E+02  0.41531689432E+01  0.31886055154E+02  0.00000000000E+00 0. -1.
         11    1    3    3    0    0  0.38443408237E+01  0.68830659371E+01 -0.10584343021E+02  0.13197873712E+02  0.51100000000E-03 0. -1.
        -11    1    3    3    0    0 -0.31369042172E+02 -0.16035517078E+02  0.14017120399E+02  0.37916148002E+02  0.51100000000E-03 0.  1.
         12    1    3    3    0    0 -0.18901403079E+01 -0.24336953884E+01 -0.75859463211E+01  0.81879231319E+01  0.00000000000E+00 0. -1.
</event>
<event>
 7    1  0.7821043E-012  0.5930194E+02  0.7816164E-02  0.1266605E+00
        -11   -1    0    0    0    0  0.00000000000E+00  0.00000000000E+00  0.45593999997E+02  0.45594000000E+02  0.51100000000E-03 0.  1.
         11   -1    0    0    0    0 -0.00000000000E+00 -0.00000000000E+00 -0.45593999997E+02  0.45594000000E+02  0.51100000000E-03 0. -1.
    9900012    2    1    2    0    0  0.15644737638E+02  0.78603914137E+01  0.26649154453E+02  0.59301937182E+02  0.49999987515E+02 0.  0.
         12    1    1    2    0    0 -0.15644737638E+02 -0.78603914137E+01 -0.26649154453E+02  0.31886062818E+02  0.00000000000E+00 0. -1.
         11    1    3    3    0    0 -0.30135047495E+01  0.76166011638E+01 -0.81989764352E+01  0.11589522812E+02  0.51100000000E-03 0. -1.
        -11    1    3    3    0    0  0.24108697613E+02  0.46736507661E+01  0.31472283562E+02  0.39919631072E+02  0.51100000000E-03 0.  1.
         12    1    3    3    0    0 -0.54504552255E+01 -0.44298605162E+01  0.33758473268E+01  0.77927832982E+01  0.00000000000E+00 0. -1.
</event>
<event>
 7    1  0.7821043E-012  0.5930186E+02  0.7816164E-02  0.1266605E+00
        -11   -1    0    0    0    0  0.00000000000E+00  0.00000000000E+00  0.45593999997E+02  0.45594000000E+02  0.51100000000E-03 0. -1.
         11   -1    0    0    0    0 -0.00000000000E+00 -0.00000000000E+00 -0.45593999997E+02  0.45594000000E+02  0.51100000000E-03 0.  1.
    9900012    2    1    2    0    0 -0.27258378161E+02  0.66977730503E+01 -0.15127665774E+02  0.59301864838E+02  0.49999855577E+02 0.  0.
         12    1    1    2    0    0  0.27258378161E+02 -0.66977730503E+01  0.15127665774E+02  0.31886135162E+02  0.00000000000E+00 0. -1.
         11    1    3    3    0    0  0.44439352431E+01 -0.20932165004E+01  0.19786427808E+01  0.52957665430E+01  0.51100000000E-03 0. -1.
        -11    1    3    3    0    0 -0.35404157106E+02 -0.46452505437E+01 -0.60505259493E+01  0.36216592296E+02  0.51100000000E-03 0.  1.
        -12    1    3    3    0    0  0.37018437020E+01  0.13436240094E+02 -0.11055782606E+02  0.17789505999E+02  0.00000000000E+00 0.  1.
</event>
<event>
 7    1  0.7821043E-012  0.5930193E+02  0.7816164E-02  0.1266605E+00
        -11   -1    0    0    0    0  0.00000000000E+00  0.00000000000E+00  0.45593999997E+02  0.45594000000E+02  0.51100000000E-03 0. -1.
         11   -1    0    0    0    0 -0.00000000000E+00 -0.00000000000E+00 -0.45593999997E+02  0.45594000000E+02  0.51100000000E-03 0.  1.
    9900012    2    1    2    0    0  0.23239530789E+02  0.13051920611E+02 -0.17501236814E+02  0.59301926034E+02  0.49999967184E+02 0.  0.
         12    1    1    2    0    0 -0.23239530789E+02 -0.13051920611E+02  0.17501236814E+02  0.31886073966E+02  0.00000000000E+00 0. -1.
         11    1    3    3    0    0  0.30082090974E+01  0.81433276458E+01  0.77431765520E+01  0.11632707789E+02  0.51100000000E-03 0. -1.
        -11    1    3    3    0    0 -0.16891935381E+01 -0.11414582631E+02 -0.13932292223E+02  0.18090186243E+02  0.51100000000E-03 0.  1.
        -12    1    3    3    0    0  0.21920515230E+02  0.16323175596E+02 -0.11312121143E+02  0.29579032003E+02  0.00000000000E+00 0.  1.
</event>
<event>
 7    1  0.7821043E-012  0.5930194E+02  0.7816164E-02  0.1266605E+00
        -11   -1    0    0    0    0  0.00000000000E+00  0.00000000000E+00  0.45593999997E+02  0.45594000000E+02  0.51100000000E-03 0. -1.
         11   -1    0    0    0    0 -0.00000000000E+00 -0.00000000000E+00 -0.45593999997E+02  0.45594000000E+02  0.51100000000E-03 0.  1.
    9900012    2    1    2    0    0 -0.28911955667E+02 -0.13052620961E+02 -0.32324585772E+01  0.59301939051E+02  0.49999990923E+02 0.  0.
         12    1    1    2    0    0  0.28911955667E+02  0.13052620961E+02  0.32324585772E+01  0.31886060949E+02  0.00000000000E+00 0. -1.
         11    1    3    3    0    0  0.85943071431E+01  0.50443019073E+00  0.27077741523E+01  0.90248881549E+01  0.51100000000E-03 0. -1.
        -11    1    3    3    0    0 -0.52846664889E+01 -0.54638433976E+01 -0.14143535454E+02  0.16056801674E+02  0.51100000000E-03 0.  1.
        -12    1    3    3    0    0 -0.32221596321E+02 -0.80932077538E+01  0.82033027250E+01  0.34220249222E+02  0.00000000000E+00 0.  1.
</event>
<event>
 7    1  0.7821043E-012  0.5930195E+02  0.7816164E-02  0.1266605E+00
        -11   -1    0    0    0    0  0.00000000000E+00  0.00000000000E+00  0.45593999997E+02  0.45594000000E+02  0.51100000000E-03 0.  1.
         11   -1    0    0    0    0 -0.00000000000E+00 -0.00000000000E+00 -0.45593999997E+02  0.45594000000E+02  0.51100000000E-03 0. -1.
    9900012    2    1    2    0    0  0.54487501304E+01  0.12123972640E+00  0.31416818543E+02  0.59301951885E+02  0.50000014329E+02 0.  0.
         12    1    1    2    0    0 -0.54487501304E+01 -0.12123972640E+00 -0.31416818543E+02  0.31886048115E+02  0.00000000000E+00 0. -1.
         11    1    3    3    0    0 -0.18849296317E+02 -0.83470299098E+01  0.14329934056E+02  0.25106092693E+02  0.51100000000E-03 0. -1.
        -11    1    3    3    0    0  0.49168463169E+01  0.32556139422E+00 -0.24446004879E+01  0.55006762976E+01  0.51100000000E-03 0.  1.
         12    1    3    3    0    0  0.19381200131E+02  0.81427082420E+01  0.19531484975E+02  0.28695182894E+02  0.00000000000E+00 0. -1.
</event>
<event>
 7    1  0.7821043E-012  0.5930196E+02  0.7816164E-02  0.1266605E+00
        -11   -1    0    0    0    0  0.00000000000E+00  0.00000000000E+00  0.45593999997E+02  0.45594000000E+02  0.51100000000E-03 0. -1.
         11   -1    0    0    0    0 -0.00000000000E+00 -0.00000000000E+00 -0.45593999997E+02  0.45594000000E+02  0.51100000000E-03 0.  1.
    9900012    2    1    2    0    0  0.11187579486E+02  0.20213110508E+02 -0.21976985612E+02  0.59301958105E+02  0.50000025674E+02 0.  0.
         12    1    1    2    0    0 -0.11187579486E+02 -0.20213110508E+02  0.21976985612E+02  0.31886041895E+02  0.00000000000E+00 0. -1.
         11    1    3    3    0    0  0.15932565705E+02 -0.11319562286E+02 -0.81855026112E+01  0.21189185769E+02  0.51100000000E-03 0. -1.
        -11    1    3    3    0    0 -0.96916780217E+01  0.18421484141E+02 -0.11887624343E+02  0.23970717836E+02  0.51100000000E-03 0.  1.
        -12    1    3    3    0    0  0.49466918021E+01  0.13111188653E+02 -0.19038586578E+01  0.14142054500E+02  0.00000000000E+00 0.  1.
</event>
<event>
 7    1  0.7821043E-012  0.5930194E+02  0.7816164E-02  0.1266605E+00
        -11   -1    0    0    0    0  0.00000000000E+00  0.00000000000E+00  0.45593999997E+02  0.45594000000E+02  0.51100000000E-03 0. -1.
         11   -1    0    0    0    0 -0.00000000000E+00 -0.00000000000E+00 -0.45593999997E+02  0.45594000000E+02  0.51100000000E-03 0.  1.
    9900012    2    1    2    0    0 -0.58792807938E+01  0.86832081726E+01 -0.30112401287E+02  0.59301941007E+02  0.49999994491E+02 0.  0.
         12    1    1    2    0    0  0.58792807938E+01 -0.86832081726E+01  0.30112401287E+02  0.31886058993E+02  0.00000000000E+00 0. -1.
         11    1    3    3    0    0  0.49648764920E+01 -0.15244887089E+02  0.20864650556E+01  0.16168176076E+02  0.51100000000E-03 0. -1.
        -11    1    3    3    0    0 -0.40300864785E+01  0.19103205424E+02 -0.17449131906E+02  0.26184847890E+02  0.51100000000E-03 0.  1.
         12    1    3    3    0    0 -0.68140708073E+01  0.48248898372E+01 -0.14749734437E+02  0.16948917041E+02  0.00000000000E+00 0. -1.
</event>
<event>
 7    1  0.7821043E-012  0.5930194E+02  0.7816164E-02  0.1266605E+00
        -11   -1    0    0    0    0  0.00000000000E+00  0.00000000000E+00  0.45593999997E+02  0.45594000000E+02  0.51100000000E-03 0.  1.
         11   -1    0    0    0    0 -0.00000000000E+00 -0.00000000000E+00 -0.45593999997E+02  0.45594000000E+02  0.51100000000E-03 0. -1.
    9900012    2    1    2    0    0 -0.74437633261E+01 -0.36593972108E+01  0.30788313223E+02  0.59301936719E+02  0.49999986671E+02 0.  0.
         12    1    1    2    0    0  0.74437633261E+01  0.36593972108E+01 -0.30788313223E+02  0.31886063281E+02  0.00000000000E+00 0. -1.
         11    1    3    3    0    0 -0.86132836033E+00 -0.88650664510E+01 -0.10710447858E+02  0.13930002990E+02  0.51100000000E-03 0. -1.
        -11    1    3    3    0    0 -0.99313356016E+01 -0.97597730725E-01  0.34824305105E+02  0.36212886911E+02  0.51100000000E-03 0.  1.
        -12    1    3    3    0    0  0.33489006358E+01  0.53032669709E+01  0.66744559763E+01  0.91590468179E+01  0.00000000000E+00 0.  1.
</event>
<event>
 7    1  0.7821043E-012  0.5930195E+02  0.7816164E-02  0.1266605E+00
        -11   -1    0    0    0    0  0.00000000000E+00  0.00000000000E+00  0.45593999997E+02  0.45594000000E+02  0.51100000000E-03 0. -1.
         11   -1    0    0    0    0 -0.00000000000E+00 -0.00000000000E+00 -0.45593999997E+02  0.45594000000E+02  0.51100000000E-03 0.  1.
    9900012    2    1    2    0    0  0.30187543575E+02 -0.61786918025E+01 -0.82009791568E+01  0.59301951662E+02  0.50000013923E+02 0.  0.
         12    1    1    2    0    0 -0.30187543575E+02  0.61786918025E+01  0.82009791568E+01  0.31886048338E+02  0.00000000000E+00 0. -1.
         11    1    3    3    0    0  0.12180514806E+02 -0.18386811934E+02 -0.13697436517E+01  0.22097873019E+02  0.51100000000E-03 0.  1.
        -11    1    3    3    0    0  0.14720363210E+02  0.82149816006E+01  0.99971384511E+01  0.19598923266E+02  0.51100000000E-03 0. -1.
        -12    1    3    3    0    0  0.32866655587E+01  0.39931385307E+01 -0.16828373956E+02  0.17605155376E+02  0.00000000000E+00 0.  1.
</event>
<event>
 7    1  0.7821043E-012  0.5930185E+02  0.7816164E-02  0.1266605E+00
        -11   -1    0    0    0    0  0.00000000000E+00  0.00000000000E+00  0.45593999997E+02  0.45594000000E+02  0.51100000000E-03 0. -1.
         11   -1    0    0    0    0 -0.00000000000E+00 -0.00000000000E+00 -0.45593999997E+02  0.45594000000E+02  0.51100000000E-03 0.  1.
    9900012    2    1    2    0    0 -0.17420854293E+02 -0.21275170324E+02 -0.16143342296E+02  0.59301850388E+02  0.49999829223E+02 0.  0.
         12    1    1    2    0    0  0.17420854293E+02  0.21275170324E+02  0.16143342296E+02  0.31886149612E+02  0.00000000000E+00 0. -1.
         11    1    3    3    0    0 -0.24253521786E+01  0.60508152983E+01  0.13913014764E+02  0.15364461561E+02  0.51100000000E-03 0. -1.
        -11    1    3    3    0    0 -0.91272937669E+01 -0.10599378181E+02 -0.10147988062E+02  0.17281087098E+02  0.51100000000E-03 0.  1.
         12    1    3    3    0    0 -0.58682083470E+01 -0.16726607442E+02 -0.19908368998E+02  0.26656301729E+02  0.00000000000E+00 0. -1.
</event>
<event>
 7    1  0.7821043E-012  0.5930198E+02  0.7816164E-02  0.1266605E+00
        -11   -1    0    0    0    0  0.00000000000E+00  0.00000000000E+00  0.45593999997E+02  0.45594000000E+02  0.51100000000E-03 0.  1.
         11   -1    0    0    0    0 -0.00000000000E+00 -0.00000000000E+00 -0.45593999997E+02  0.45594000000E+02  0.51100000000E-03 0. -1.
    9900012    2    1    2    0    0  0.19759656801E+02 -0.35237676729E+01  0.24776143671E+02  0.59301980011E+02  0.50000065625E+02 0.  0.
         12    1    1    2    0    0 -0.19759656801E+02  0.35237676729E+01 -0.24776143671E+02  0.31886019989E+02  0.00000000000E+00 0. -1.
         11    1    3    3    0    0  0.10567556421E+02 -0.30591026126E+01 -0.49948817305E-01  0.11001538649E+02  0.51100000000E-03 0. -1.
        -11    1    3    3    0    0 -0.69254129998E+01 -0.16919827052E+02  0.91998196430E+01  0.20466523262E+02  0.51100000000E-03 0.  1.
        -12    1    3    3    0    0  0.16117513380E+02  0.16455161992E+02  0.15626272846E+02  0.27833918100E+02  0.00000000000E+00 0.  1.
</event>
<event>
 7    1  0.7821043E-012  0.5930193E+02  0.7816164E-02  0.1266605E+00
        -11   -1    0    0    0    0  0.00000000000E+00  0.00000000000E+00  0.45593999997E+02  0.45594000000E+02  0.51100000000E-03 0. -1.
         11   -1    0    0    0    0 -0.00000000000E+00 -0.00000000000E+00 -0.45593999997E+02  0.45594000000E+02  0.51100000000E-03 0.  1.
    9900012    2    1    2    0    0  0.26491232434E+02 -0.29681135460E+01 -0.17496464476E+02  0.59301931521E+02  0.49999977190E+02 0.  0.
         12    1    1    2    0    0 -0.26491232434E+02  0.29681135460E+01  0.17496464476E+02  0.31886068479E+02  0.00000000000E+00 0. -1.
         11    1    3    3    0    0 -0.13202161154E+01  0.14090442823E+02 -0.98652954291E+01  0.17251307304E+02  0.51100000000E-03 0.  1.
        -11    1    3    3    0    0  0.32016998745E+02 -0.11706634162E+02 -0.86444512305E+01  0.35169020876E+02  0.51100000000E-03 0. -1.
        -12    1    3    3    0    0 -0.42055501962E+01 -0.53519222063E+01  0.10132821832E+01  0.68816033406E+01  0.00000000000E+00 0.  1.
</event>
<event>
 7    1  0.7821043E-012  0.5930195E+02  0.7816164E-02  0.1266605E+00
        -11   -1    0    0    0    0  0.00000000000E+00  0.00000000000E+00  0.45593999997E+02  0.45594000000E+02  0.51100000000E-03 0.  1.
         11   -1    0    0    0    0 -0.00000000000E+00 -0.00000000000E+00 -0.45593999997E+02  0.45594000000E+02  0.51100000000E-03 0. -1.
    9900012    2    1    2    0    0  0.26531788410E+02 -0.17325524387E+02  0.35511088742E+01  0.59301953432E+02  0.50000017150E+02 0.  0.
         12    1    1    2    0    0 -0.26531788410E+02  0.17325524387E+02 -0.35511088742E+01  0.31886046568E+02  0.00000000000E+00 0. -1.
         11    1    3    3    0    0  0.64940052449E+01 -0.28208311528E+01 -0.52244479858E+01  0.87990936766E+01  0.51100000000E-03 0. -1.
        -11    1    3    3    0    0  0.25394001899E+01  0.14927297415E+02  0.54836560428E+01  0.16104137521E+02  0.51100000000E-03 0.  1.
        -12    1    3    3    0    0  0.17498382976E+02 -0.29431990649E+02  0.32919008172E+01  0.34398722234E+02  0.00000000000E+00 0.  1.
</event>
<event>
 7    1  0.7821043E-012  0.5930196E+02  0.7816164E-02  0.1266605E+00
        -11   -1    0    0    0    0  0.00000000000E+00  0.00000000000E+00  0.45593999997E+02  0.45594000000E+02  0.51100000000E-03 0.  1.
         11   -1    0    0    0    0 -0.00000000000E+00 -0.00000000000E+00 -0.45593999997E+02  0.45594000000E+02  0.51100000000E-03 0. -1.
    9900012    2    1    2    0    0 -0.10794724279E+02 -0.13770236395E+02  0.26656600816E+02  0.59301955251E+02  0.50000020469E+02 0.  0.
         12    1    1    2    0    0  0.10794724279E+02  0.13770236395E+02 -0.26656600816E+02  0.31886044749E+02  0.00000000000E+00 0. -1.
         11    1    3    3    0    0 -0.12273728533E+02 -0.21317410554E+02  0.55432310773E+01  0.25215150523E+02  0.51100000000E-03 0. -1.
        -11    1    3    3    0    0  0.21455694328E+01  0.48655255016E+01  0.27034566100E+02  0.27552578302E+02  0.51100000000E-03 0.  1.
        -12    1    3    3    0    0 -0.66656517866E+00  0.26816486578E+01 -0.59211963608E+01  0.65342264274E+01  0.00000000000E+00 0.  1.
</event>
<event>
 7    1  0.7821043E-012  0.5930197E+02  0.7816164E-02  0.1266605E+00
        -11   -1    0    0    0    0  0.00000000000E+00  0.00000000000E+00  0.45593999997E+02  0.45594000000E+02  0.51100000000E-03 0.  1.
         11   -1    0    0    0    0 -0.00000000000E+00 -0.00000000000E+00 -0.45593999997E+02  0.45594000000E+02  0.51100000000E-03 0. -1.
    9900012    2    1    2    0    0  0.12973472250E+02 -0.45850951476E+01  0.28764293375E+02  0.59301974016E+02  0.50000054691E+02 0.  0.
         12    1    1    2    0    0 -0.12973472250E+02  0.45850951476E+01 -0.28764293375E+02  0.31886025984E+02  0.00000000000E+00 0. -1.
         11    1    3    3    0    0 -0.28003680139E+01 -0.14715718016E+02  0.90800805924E+01  0.17516914156E+02  0.51100000000E-03 0. -1.
        -11    1    3    3    0    0  0.21289816402E+02  0.77705421081E+01  0.25018168368E+02  0.33757167474E+02  0.51100000000E-03 0.  1.
        -12    1    3    3    0    0 -0.55159761387E+01  0.23600807603E+01 -0.53339555858E+01  0.80278923852E+01  0.00000000000E+00 0.  1.
</event>
<event>
 7    1  0.7821043E-012  0.5930195E+02  0.7816164E-02  0.1266605E+00
        -11   -1    0    0    0    0  0.00000000000E+00  0.00000000000E+00  0.45593999997E+02  0.45594000000E+02  0.51100000000E-03 0.  1.
         11   -1    0    0    0    0 -0.00000000000E+00 -0.00000000000E+00 -0.45593999997E+02  0.45594000000E+02  0.51100000000E-03 0. -1.
    9900012    2    1    2    0    0  0.16068051985E+02 -0.26701407155E+02  0.67507395392E+01  0.59301954103E+02  0.50000018375E+02 0.  0.
         12    1    1    2    0    0 -0.16068051985E+02  0.26701407155E+02 -0.67507395392E+01  0.31886045897E+02  0.00000000000E+00 0. -1.
         11    1    3    3    0    0 -0.63535437097E+01 -0.14614808999E+01 -0.15978449865E+02  0.17257297136E+02  0.51100000000E-03 0. -1.
        -11    1    3    3    0    0  0.55411014878E+01 -0.13920895908E+02  0.84012144181E+01  0.17177763316E+02  0.51100000000E-03 0.  1.
         12    1    3    3    0    0  0.16880494207E+02 -0.11319030347E+02  0.14327974986E+02  0.24866893651E+02  0.00000000000E+00 0. -1.
</event>
<event>
 7    1  0.7821043E-012  0.5930185E+02  0.7816164E-02  0.1266605E+00
        -11   -1    0    0    0    0  0.00000000000E+00  0.00000000000E+00  0.45593999997E+02  0.45594000000E+02  0.51100000000E-03 0.  1.
         11   -1    0    0    0    0 -0.00000000000E+00 -0.00000000000E+00 -0.45593999997E+02  0.45594000000E+02  0.51100000000E-03 0. -1.
    9900012    2    1    2    0    0 -0.24674697685E+02 -0.36558089294E+01  0.19862554918E+02  0.59301847321E+02  0.49999823631E+02 0.  0.
         12    1    1    2    0    0  0.24674697685E+02  0.36558089294E+01 -0.19862554918E+02  0.31886152679E+02  0.00000000000E+00 0. -1.
         11    1    3    3    0    0 -0.23271570703E+02  0.23229223209E+01  0.25268352406E+01  0.23523326034E+02  0.51100000000E-03 0. -1.
        -11    1    3    3    0    0  0.51534810415E+01 -0.67255683715E+01  0.24568022939E+02  0.25988062416E+02  0.51100000000E-03 0.  1.
        -12    1    3    3    0    0 -0.65566080233E+01  0.74683712126E+00 -0.72323032611E+01  0.97904588716E+01  0.00000000000E+00 0.  1.
</event>
<event>
 7    1  0.7821043E-012  0.5930191E+02  0.7816164E-02  0.1266605E+00
        -11   -1    0    0    0    0  0.00000000000E+00  0.00000000000E+00  0.45593999997E+02  0.45594000000E+02  0.51100000000E-03 0. -1.
         11   -1    0    0    0    0 -0.00000000000E+00 -0.00000000000E+00 -0.45593999997E+02  0.45594000000E+02  0.51100000000E-03 0.  1.
    9900012    2    1    2    0    0  0.84861948082E+01 -0.62259796789E+01 -0.30098914971E+02  0.59301905731E+02  0.49999930157E+02 0.  0.
         12    1    1    2    0    0 -0.84861948082E+01  0.62259796789E+01  0.30098914971E+02  0.31886094269E+02  0.00000000000E+00 0. -1.
         11    1    3    3    0    0  0.17903887131E+01 -0.14769275821E+02 -0.28561807042E+01  0.15149084741E+02  0.51100000000E-03 0. -1.
        -11    1    3    3    0    0  0.17041585705E+01  0.17096320479E+02 -0.23229043053E+01  0.17337364708E+02  0.51100000000E-03 0.  1.
        -12    1    3    3    0    0  0.49916475246E+01 -0.85530243370E+01 -0.24919829961E+02  0.26815456282E+02  0.00000000000E+00 0.  1.
</event>
<event>
 7    1  0.7821043E-012  0.5930187E+02  0.7816164E-02  0.1266605E+00
        -11   -1    0    0    0    0  0.00000000000E+00  0.00000000000E+00  0.45593999997E+02  0.45594000000E+02  0.51100000000E-03 0. -1.
         11   -1    0    0    0    0 -0.00000000000E+00 -0.00000000000E+00 -0.45593999997E+02  0.45594000000E+02  0.51100000000E-03 0.  1.
    9900012    2    1    2    0    0  0.19119530321E+02  0.25139098971E+02 -0.43811826137E+01  0.59301866684E+02  0.49999858944E+02 0.  0.
         12    1    1    2    0    0 -0.19119530321E+02 -0.25139098971E+02  0.43811826137E+01  0.31886133316E+02  0.00000000000E+00 0. -1.
         11    1    3    3    0    0 -0.14847336246E+02 -0.15718610339E+01  0.24791013391E+01  0.15134731065E+02  0.51100000000E-03 0. -1.
        -11    1    3    3    0    0  0.60668464053E+01  0.56584817376E+01 -0.36654852153E+01  0.90697752455E+01  0.51100000000E-03 0.  1.
         12    1    3    3    0    0  0.27900020161E+02  0.21052478267E+02 -0.31947987376E+01  0.35097360373E+02  0.00000000000E+00 0. -1.
</event>
<event>
 7    1  0.7821043E-012  0.5930194E+02  0.7816164E-02  0.1266605E+00
        -11   -1    0    0    0    0  0.00000000000E+00  0.00000000000E+00  0.45593999997E+02  0.45594000000E+02  0.51100000000E-03 0.  1.
         11   -1    0    0    0    0 -0.00000000000E+00 -0.00000000000E+00 -0.45593999997E+02  0.45594000000E+02  0.51100000000E-03 0. -1.
    9900012    2    1    2    0    0  0.13755146832E+02 -0.27707582805E+02 -0.77334734651E+01  0.59301940019E+02  0.49999992690E+02 0.  0.
         12    1    1    2    0    0 -0.13755146832E+02  0.27707582805E+02  0.77334734651E+01  0.31886059981E+02  0.00000000000E+00 0. -1.
         11    1    3    3    0    0 -0.32763801046E+01  0.41916690428E+01 -0.79525541215E+01  0.95680652835E+01  0.51100000000E-03 0. -1.
        -11    1    3    3    0    0  0.35839485918E+01 -0.83617234494E+01  0.15971816273E+02  0.18381023417E+02  0.51100000000E-03 0.  1.
        -12    1    3    3    0    0  0.13447578344E+02 -0.23537528398E+02 -0.15752735616E+02  0.31352851319E+02  0.00000000000E+00 0.  1.
</event>
<event>
 7    1  0.7821043E-012  0.5930218E+02  0.7816164E-02  0.1266604E+00
        -11   -1    0    0    0    0  0.00000000000E+00  0.00000000000E+00  0.45593999997E+02  0.45594000000E+02  0.51100000000E-03 0. -1.
         11   -1    0    0    0    0 -0.00000000000E+00 -0.00000000000E+00 -0.45593999997E+02  0.45594000000E+02  0.51100000000E-03 0.  1.
    9900012    2    1    2    0    0 -0.15394837860E+02  0.27504675664E+02 -0.48163818641E+01  0.59302176341E+02  0.50000423682E+02 0.  0.
         12    1    1    2    0    0  0.15394837860E+02 -0.27504675664E+02  0.48163818641E+01  0.31885823659E+02  0.00000000000E+00 0. -1.
         11    1    3    3    0    0 -0.61979945117E+01  0.21876559635E+02  0.45562371960E+01  0.23189616104E+02  0.51100000000E-03 0. -1.
        -11    1    3    3    0    0  0.35190115303E+00 -0.10120517257E+02  0.63024958483E+01  0.11927705485E+02  0.51100000000E-03 0.  1.
        -12    1    3    3    0    0 -0.95487445018E+01  0.15748633287E+02 -0.15675114908E+02  0.24184854751E+02  0.00000000000E+00 0.  1.
</event>
<event>
 7    1  0.7821043E-012  0.5930193E+02  0.7816164E-02  0.1266605E+00
        -11   -1    0    0    0    0  0.00000000000E+00  0.00000000000E+00  0.45593999997E+02  0.45594000000E+02  0.51100000000E-03 0.  1.
         11   -1    0    0    0    0 -0.00000000000E+00 -0.00000000000E+00 -0.45593999997E+02  0.45594000000E+02  0.51100000000E-03 0. -1.
    9900012    2    1    2    0    0 -0.25238376491E+02  0.18394475384E+02  0.64334184801E+01  0.59301933358E+02  0.49999980541E+02 0.  0.
         12    1    1    2    0    0  0.25238376491E+02 -0.18394475384E+02 -0.64334184801E+01  0.31886066642E+02  0.00000000000E+00 0. -1.
         11    1    3    3    0    0 -0.15792864965E+02  0.20282407276E+02 -0.41870021036E+01  0.26044608187E+02  0.51100000000E-03 0.  1.
        -11    1    3    3    0    0 -0.63940838557E+01 -0.23285390867E+00  0.21188619530E+02  0.22133597248E+02  0.51100000000E-03 0. -1.
         12    1    3    3    0    0 -0.30514276697E+01 -0.16550779837E+01 -0.10568198946E+02  0.11123727923E+02  0.00000000000E+00 0. -1.
</event>
<event>
 7    1  0.7821043E-012  0.5930184E+02  0.7816164E-02  0.1266605E+00
        -11   -1    0    0    0    0  0.00000000000E+00  0.00000000000E+00  0.45593999997E+02  0.45594000000E+02  0.51100000000E-03 0.  1.
         11   -1    0    0    0    0 -0.00000000000E+00 -0.00000000000E+00 -0.45593999997E+02  0.45594000000E+02  0.51100000000E-03 0. -1.
    9900012    2    1    2    0    0  0.17832004218E+02 -0.25773343542E+02 -0.58720795303E+01  0.59301844231E+02  0.49999817994E+02 0.  0.
         12    1    1    2    0    0 -0.17832004218E+02  0.25773343542E+02  0.58720795303E+01  0.31886155769E+02  0.00000000000E+00 0. -1.
         11    1    3    3    0    0  0.71322861195E+01 -0.28857502112E+00  0.16348687752E+02  0.17839068707E+02  0.51100000000E-03 0. -1.
        -11    1    3    3    0    0  0.12156879083E+02 -0.75688704761E+01 -0.20857287430E+01  0.14471619605E+02  0.51100000000E-03 0.  1.
         12    1    3    3    0    0 -0.14571609851E+01 -0.17915898045E+02 -0.20135038540E+02  0.26991155919E+02  0.00000000000E+00 0. -1.
</event>
<event>
 7    1  0.7821043E-012  0.5930167E+02  0.7816164E-02  0.1266606E+00
        -11   -1    0    0    0    0  0.00000000000E+00  0.00000000000E+00  0.45593999997E+02  0.45594000000E+02  0.51100000000E-03 0.  1.
         11   -1    0    0    0    0 -0.00000000000E+00 -0.00000000000E+00 -0.45593999997E+02  0.45594000000E+02  0.51100000000E-03 0. -1.
    9900012    2    1    2    0    0  0.22130596531E+02 -0.20716154833E+02  0.98901713112E+01  0.59301672798E+02  0.49999505340E+02 0.  0.
         12    1    1    2    0    0 -0.22130596531E+02  0.20716154833E+02 -0.98901713112E+01  0.31886327202E+02  0.00000000000E+00 0. -1.
         11    1    3    3    0    0 -0.90264650309E+01 -0.41977489686E-01  0.59821082853E+00  0.90463633312E+01  0.51100000000E-03 0. -1.
        -11    1    3    3    0    0  0.37590377856E+02 -0.15572092028E+02  0.10330184260E+02  0.41979033631E+02  0.51100000000E-03 0.  1.
        -12    1    3    3    0    0 -0.64333162940E+01 -0.51020853152E+01 -0.10382237776E+01  0.82762758360E+01  0.00000000000E+00 0.  1.
</event>
<event>
 7    1  0.7821043E-012  0.5930194E+02  0.7816164E-02  0.1266605E+00
        -11   -1    0    0    0    0  0.00000000000E+00  0.00000000000E+00  0.45593999997E+02  0.45594000000E+02  0.51100000000E-03 0. -1.
         11   -1    0    0    0    0 -0.00000000000E+00 -0.00000000000E+00 -0.45593999997E+02  0.45594000000E+02  0.51100000000E-03 0.  1.
    9900012    2    1    2    0    0  0.17526241675E+02 -0.10891464956E+02 -0.24309005080E+02  0.59301939031E+02  0.49999990888E+02 0.  0.
         12    1    1    2    0    0 -0.17526241675E+02  0.10891464956E+02  0.24309005080E+02  0.31886060969E+02  0.00000000000E+00 0. -1.
         11    1    3    3    0    0  0.73787099861E+01 -0.21476120638E+02 -0.47586821247E+01  0.23201598534E+02  0.51100000000E-03 0. -1.
        -11    1    3    3    0    0  0.14065481216E+02  0.10629071495E+02 -0.24250185519E+02  0.29981434600E+02  0.51100000000E-03 0.  1.
        -12    1    3    3    0    0 -0.39179495280E+01 -0.44415813339E-01  0.46998625634E+01  0.61189058976E+01  0.00000000000E+00 0.  1.
</event>
<event>
 7    1  0.7821043E-012  0.5930194E+02  0.7816164E-02  0.1266605E+00
        -11   -1    0    0    0    0  0.00000000000E+00  0.00000000000E+00  0.45593999997E+02  0.45594000000E+02  0.51100000000E-03 0. -1.
         11   -1    0    0    0    0 -0.00000000000E+00 -0.00000000000E+00 -0.45593999997E+02  0.45594000000E+02  0.51100000000E-03 0.  1.
    9900012    2    1    2    0    0 -0.30388180452E+02  0.96321407889E+01  0.70806106697E+00  0.59301937248E+02  0.49999987636E+02 0.  0.
         12    1    1    2    0    0  0.30388180452E+02 -0.96321407889E+01 -0.70806106697E+00  0.31886062752E+02  0.00000000000E+00 0. -1.
         11    1    3    3    0    0 -0.28525373077E+02  0.10217878251E+02  0.11088450701E+02  0.32265394533E+02  0.51100000000E-03 0. -1.
        -11    1    3    3    0    0 -0.65742402509E+01  0.52347277829E+01 -0.15729658376E+02  0.17833820755E+02  0.51100000000E-03 0.  1.
         12    1    3    3    0    0  0.47114328761E+01 -0.58204652449E+01  0.53492687414E+01  0.92027219604E+01  0.00000000000E+00 0. -1.
</event>
<event>
 7    1  0.7821043E-012  0.5930196E+02  0.7816164E-02  0.1266605E+00
        -11   -1    0    0    0    0  0.00000000000E+00  0.00000000000E+00  0.45593999997E+02  0.45594000000E+02  0.51100000000E-03 0. -1.
         11   -1    0    0    0    0 -0.00000000000E+00 -0.00000000000E+00 -0.45593999997E+02  0.45594000000E+02  0.51100000000E-03 0.  1.
    9900012    2    1    2    0    0  0.15526163244E+02 -0.27034446370E+02  0.66930362118E+01  0.59301956512E+02  0.50000022768E+02 0.  0.
         12    1    1    2    0    0 -0.15526163244E+02  0.27034446370E+02 -0.66930362118E+01  0.31886043488E+02  0.00000000000E+00 0. -1.
         11    1    3    3    0    0  0.33414116619E+01  0.69225427965E+00 -0.11164491304E+02  0.11674335708E+02  0.51100000000E-03 0.  1.
        -11    1    3    3    0    0  0.19669569927E+02 -0.26165364018E+02  0.21494928104E+02  0.39160569323E+02  0.51100000000E-03 0. -1.
         12    1    3    3    0    0 -0.74848183449E+01 -0.15613366316E+01 -0.36374005874E+01  0.84670514800E+01  0.00000000000E+00 0. -1.
</event>
<event>
 7    1  0.7821043E-012  0.5930194E+02  0.7816164E-02  0.1266605E+00
        -11   -1    0    0    0    0  0.00000000000E+00  0.00000000000E+00  0.45593999997E+02  0.45594000000E+02  0.51100000000E-03 0.  1.
         11   -1    0    0    0    0 -0.00000000000E+00 -0.00000000000E+00 -0.45593999997E+02  0.45594000000E+02  0.51100000000E-03 0. -1.
    9900012    2    1    2    0    0 -0.65838604827E+00 -0.13890423864E+01  0.31848987563E+02  0.59301938472E+02  0.49999989868E+02 0.  0.
         12    1    1    2    0    0  0.65838604827E+00  0.13890423864E+01 -0.31848987563E+02  0.31886061528E+02  0.00000000000E+00 0. -1.
         11    1    3    3    0    0  0.83335982908E+01  0.14265897788E+02  0.76313190228E+01  0.18198948609E+02  0.51100000000E-03 0. -1.
        -11    1    3    3    0    0 -0.12804867899E+02 -0.67151992218E+00  0.22027382354E+02  0.25487666714E+02  0.51100000000E-03 0.  1.
        -12    1    3    3    0    0  0.38128835596E+01 -0.14983420252E+02  0.21902861869E+01  0.15615323150E+02  0.00000000000E+00 0.  1.
</event>
<event>
 7    1  0.7821043E-012  0.5930198E+02  0.7816164E-02  0.1266605E+00
        -11   -1    0    0    0    0  0.00000000000E+00  0.00000000000E+00  0.45593999997E+02  0.45594000000E+02  0.51100000000E-03 0.  1.
         11   -1    0    0    0    0 -0.00000000000E+00 -0.00000000000E+00 -0.45593999997E+02  0.45594000000E+02  0.51100000000E-03 0. -1.
    9900012    2    1    2    0    0  0.30004572110E+02  0.11071295429E+01  0.10733982986E+02  0.59301976822E+02  0.50000059810E+02 0.  0.
         12    1    1    2    0    0 -0.30004572110E+02 -0.11071295429E+01 -0.10733982986E+02  0.31886023178E+02  0.00000000000E+00 0. -1.
         11    1    3    3    0    0  0.27454898927E+00 -0.89649923947E+01  0.52323821511E+01  0.10383847506E+02  0.51100000000E-03 0. -1.
        -11    1    3    3    0    0  0.36083619015E+02  0.13353680134E+02 -0.20347098909E+01  0.38529058890E+02  0.51100000000E-03 0.  1.
        -12    1    3    3    0    0 -0.63535958939E+01 -0.32815581963E+01  0.75363107259E+01  0.10389070427E+02  0.00000000000E+00 0.  1.
</event>
<event>
 7    1  0.7821043E-012  0.5930196E+02  0.7816164E-02  0.1266605E+00
        -11   -1    0    0    0    0  0.00000000000E+00  0.00000000000E+00  0.45593999997E+02  0.45594000000E+02  0.51100000000E-03 0. -1.
         11   -1    0    0    0    0 -0.00000000000E+00 -0.00000000000E+00 -0.45593999997E+02  0.45594000000E+02  0.51100000000E-03 0.  1.
    9900012    2    1    2    0    0  0.24215439520E+02 -0.12416343468E+02 -0.16618252631E+02  0.59301962040E+02  0.50000032850E+02 0.  0.
         12    1    1    2    0    0 -0.24215439520E+02  0.12416343468E+02  0.16618252631E+02  0.31886037960E+02  0.00000000000E+00 0. -1.
         11    1    3    3    0    0  0.56415527023E+01 -0.14260381742E+02  0.11621491595E+02  0.19241742943E+02  0.51100000000E-03 0. -1.
        -11    1    3    3    0    0  0.22340308711E+02  0.15945616125E+01 -0.16754046648E+02  0.27970164451E+02  0.51100000000E-03 0.  1.
         12    1    3    3    0    0 -0.37664218933E+01  0.24947666100E+00 -0.11485697579E+02  0.12090054646E+02  0.00000000000E+00 0. -1.
</event>
<event>
 7    1  0.7821043E-012  0.5930196E+02  0.7816164E-02  0.1266605E+00
        -11   -1    0    0    0    0  0.00000000000E+00  0.00000000000E+00  0.45593999997E+02  0.45594000000E+02  0.51100000000E-03 0.  1.
         11   -1    0    0    0    0 -0.00000000000E+00 -0.00000000000E+00 -0.45593999997E+02  0.45594000000E+02  0.51100000000E-03 0. -1.
    9900012    2    1    2    0    0  0.13988708240E+02  0.10720884376E+02  0.26572504024E+02  0.59301964026E+02  0.50000036472E+02 0.  0.
         12    1    1    2    0    0 -0.13988708240E+02 -0.10720884376E+02 -0.26572504024E+02  0.31886035974E+02  0.00000000000E+00 0. -1.
         11    1    3    3    0    0  0.12353052115E+02 -0.11831872366E+02  0.23465084334E+02  0.29037928358E+02  0.51100000000E-03 0. -1.
        -11    1    3    3    0    0  0.10600916636E+02  0.13868462949E+02  0.33756820435E+01  0.17779452399E+02  0.51100000000E-03 0.  1.
         12    1    3    3    0    0 -0.89652605112E+01  0.86842937929E+01 -0.26826235382E+00  0.12484583269E+02  0.00000000000E+00 0. -1.
</event>
<event>
 7    1  0.7821043E-012  0.5930197E+02  0.7816164E-02  0.1266605E+00
        -11   -1    0    0    0    0  0.00000000000E+00  0.00000000000E+00  0.45593999997E+02  0.45594000000E+02  0.51100000000E-03 0. -1.
         11   -1    0    0    0    0 -0.00000000000E+00 -0.00000000000E+00 -0.45593999997E+02  0.45594000000E+02  0.51100000000E-03 0.  1.
    9900012    2    1    2    0    0  0.10851214541E+02  0.29793619058E+02 -0.33630965963E+01  0.59301968383E+02  0.50000044418E+02 0.  0.
         12    1    1    2    0    0 -0.10851214541E+02 -0.29793619058E+02  0.33630965963E+01  0.31886031617E+02  0.00000000000E+00 0. -1.
         11    1    3    3    0    0 -0.51133516011E+01  0.33765867588E+02 -0.36144599852E+01  0.34341585575E+02  0.51100000000E-03 0. -1.
        -11    1    3    3    0    0  0.58265626124E+01 -0.98986631316E+01  0.46894373524E+01  0.12406578360E+02  0.51100000000E-03 0.  1.
        -12    1    3    3    0    0  0.10138003530E+02  0.59264146018E+01 -0.44380739634E+01  0.12553804448E+02  0.00000000000E+00 0.  1.
</event>
<event>
 7    1  0.7821043E-012  0.5930196E+02  0.7816164E-02  0.1266605E+00
        -11   -1    0    0    0    0  0.00000000000E+00  0.00000000000E+00  0.45593999997E+02  0.45594000000E+02  0.51100000000E-03 0. -1.
         11   -1    0    0    0    0 -0.00000000000E+00 -0.00000000000E+00 -0.45593999997E+02  0.45594000000E+02  0.51100000000E-03 0.  1.
    9900012    2    1    2    0    0 -0.30366802344E+02 -0.75510844877E+01 -0.61284579473E+01  0.59301959820E+02  0.50000028801E+02 0.  0.
         12    1    1    2    0    0  0.30366802344E+02  0.75510844877E+01  0.61284579473E+01  0.31886040180E+02  0.00000000000E+00 0. -1.
         11    1    3    3    0    0  0.65432750921E+01 -0.10128616866E+01 -0.61151737369E+01  0.90130842568E+01  0.51100000000E-03 0. -1.
        -11    1    3    3    0    0 -0.12169188829E+02  0.71078142591E+01  0.13007563944E+02  0.19178292424E+02  0.51100000000E-03 0.  1.
        -12    1    3    3    0    0 -0.24740888608E+02 -0.13646037060E+02 -0.13020848155E+02  0.31110583138E+02  0.00000000000E+00 0.  1.
</event>
<event>
 7    1  0.7821043E-012  0.5930195E+02  0.7816164E-02  0.1266605E+00
        -11   -1    0    0    0    0  0.00000000000E+00  0.00000000000E+00  0.45593999997E+02  0.45594000000E+02  0.51100000000E-03 0.  1.
         11   -1    0    0    0    0 -0.00000000000E+00 -0.00000000000E+00 -0.45593999997E+02  0.45594000000E+02  0.51100000000E-03 0. -1.
    9900012    2    1    2    0    0 -0.13567638691E+02 -0.28002223161E+02  0.69652471867E+01  0.59301953052E+02  0.50000016457E+02 0.  0.
         12    1    1    2    0    0  0.13567638691E+02  0.28002223161E+02 -0.69652471867E+01  0.31886046948E+02  0.00000000000E+00 0. -1.
         11    1    3    3    0    0 -0.24849747291E+01 -0.11148514377E+01 -0.54305091281E+01  0.60752302659E+01  0.51100000000E-03 0. -1.
        -11    1    3    3    0    0  0.98848359780E+01 -0.19782494439E+02  0.20001554313E+02  0.29818102618E+02  0.51100000000E-03 0.  1.
        -12    1    3    3    0    0 -0.20967499940E+02 -0.71048772841E+01 -0.76057979982E+01  0.23408620168E+02  0.00000000000E+00 0.  1.
</event>
<event>
 7    1  0.7821043E-012  0.5930196E+02  0.7816164E-02  0.1266605E+00
        -11   -1    0    0    0    0  0.00000000000E+00  0.00000000000E+00  0.45593999997E+02  0.45594000000E+02  0.51100000000E-03 0.  1.
         11   -1    0    0    0    0 -0.00000000000E+00 -0.00000000000E+00 -0.45593999997E+02  0.45594000000E+02  0.51100000000E-03 0. -1.
    9900012    2    1    2    0    0 -0.12588726879E+02  0.48847659622E+01  0.28885681060E+02  0.59301959900E+02  0.50000028948E+02 0.  0.
         12    1    1    2    0    0  0.12588726879E+02 -0.48847659622E+01 -0.28885681060E+02  0.31886040100E+02  0.00000000000E+00 0. -1.
         11    1    3    3    0    0 -0.64092636119E+01 -0.86730477709E+01 -0.62927898847E+01  0.12485977033E+02  0.51100000000E-03 0. -1.
        -11    1    3    3    0    0  0.31087056616E+01  0.18955847240E+02  0.16756961710E+02  0.25490860352E+02  0.51100000000E-03 0.  1.
        -12    1    3    3    0    0 -0.92881689286E+01 -0.53980335069E+01  0.18421509234E+02  0.21325122515E+02  0.00000000000E+00 0.  1.
</event>
<event>
 7    1  0.7821043E-012  0.5930194E+02  0.7816164E-02  0.1266605E+00
        -11   -1    0    0    0    0  0.00000000000E+00  0.00000000000E+00  0.45593999997E+02  0.45594000000E+02  0.51100000000E-03 0.  1.
         11   -1    0    0    0    0 -0.00000000000E+00 -0.00000000000E+00 -0.45593999997E+02  0.45594000000E+02  0.51100000000E-03 0. -1.
    9900012    2    1    2    0    0  0.12805127484E+02  0.24194514627E+02  0.16351600514E+02  0.59301942431E+02  0.49999997087E+02 0.  0.
         12    1    1    2    0    0 -0.12805127484E+02 -0.24194514627E+02 -0.16351600514E+02  0.31886057569E+02  0.00000000000E+00 0. -1.
         11    1    3    3    0    0  0.13333130394E+02  0.54878720607E+01 -0.13989989446E+02  0.20090020179E+02  0.51100000000E-03 0. -1.
        -11    1    3    3    0    0  0.91184129082E+00  0.21593403113E+02  0.26351819977E+02  0.34081152106E+02  0.51100000000E-03 0.  1.
        -12    1    3    3    0    0 -0.14398442001E+01 -0.28867605459E+01  0.39897699830E+01  0.51307701456E+01  0.00000000000E+00 0.  1.
</event>
<event>
 7    1  0.7821043E-012  0.5930193E+02  0.7816164E-02  0.1266605E+00
        -11   -1    0    0    0    0  0.00000000000E+00  0.00000000000E+00  0.45593999997E+02  0.45594000000E+02  0.51100000000E-03 0. -1.
         11   -1    0    0    0    0 -0.00000000000E+00 -0.00000000000E+00 -0.45593999997E+02  0.45594000000E+02  0.51100000000E-03 0.  1.
    9900012    2    1    2    0    0  0.34596856127E+01  0.19796740001E+02 -0.24755628958E+02  0.59301929306E+02  0.49999973151E+02 0.  0.
         12    1    1    2    0    0 -0.34596856127E+01 -0.19796740001E+02  0.24755628958E+02  0.31886070694E+02  0.00000000000E+00 0. -1.
         11    1    3    3    0    0 -0.75579887133E+01  0.23808275759E+00  0.65615001482E+01  0.10011651275E+02  0.51100000000E-03 0. -1.
        -11    1    3    3    0    0  0.95742220785E+01  0.25664439491E+02 -0.13776637009E+02  0.30661456429E+02  0.51100000000E-03 0.  1.
        -12    1    3    3    0    0  0.14434522475E+01 -0.61057822483E+01 -0.17540492098E+02  0.18628821602E+02  0.00000000000E+00 0.  1.
</event>
<event>
 7    1  0.7821043E-012  0.5930196E+02  0.7816164E-02  0.1266605E+00
        -11   -1    0    0    0    0  0.00000000000E+00  0.00000000000E+00  0.45593999997E+02  0.45594000000E+02  0.51100000000E-03 0. -1.
         11   -1    0    0    0    0 -0.00000000000E+00 -0.00000000000E+00 -0.45593999997E+02  0.45594000000E+02  0.51100000000E-03 0.  1.
    9900012    2    1    2    0    0  0.77038163735E+01 -0.10208607839E+02 -0.29208822563E+02  0.59301956403E+02  0.50000022570E+02 0.  0.
         12    1    1    2    0    0 -0.77038163735E+01  0.10208607839E+02  0.29208822563E+02  0.31886043597E+02  0.00000000000E+00 0. -1.
         11    1    3    3    0    0 -0.53298646368E+01  0.80285491065E+01  0.26441446529E+01  0.99928253767E+01  0.51100000000E-03 0. -1.
        -11    1    3    3    0    0  0.15673224281E+02 -0.47104187813E+01 -0.20753225251E+01  0.16496816915E+02  0.51100000000E-03 0.  1.
        -12    1    3    3    0    0 -0.26395432711E+01 -0.13526738164E+02 -0.29777644691E+02  0.32812314112E+02  0.00000000000E+00 0.  1.
</event>
<event>
 7    1  0.7821043E-012  0.5930195E+02  0.7816164E-02  0.1266605E+00
        -11   -1    0    0    0    0  0.00000000000E+00  0.00000000000E+00  0.45593999997E+02  0.45594000000E+02  0.51100000000E-03 0.  1.
         11   -1    0    0    0    0 -0.00000000000E+00 -0.00000000000E+00 -0.45593999997E+02  0.45594000000E+02  0.51100000000E-03 0. -1.
    9900012    2    1    2    0    0  0.13670834825E+02 -0.21863365894E+02  0.18756904180E+02  0.59301953719E+02  0.50000017674E+02 0.  0.
         12    1    1    2    0    0 -0.13670834825E+02  0.21863365894E+02 -0.18756904180E+02  0.31886046281E+02  0.00000000000E+00 0. -1.
         11    1    3    3    0    0  0.15343650720E+02 -0.37395088251E+01 -0.59143815089E+01  0.16863909765E+02  0.51100000000E-03 0. -1.
        -11    1    3    3    0    0 -0.87960077333E+01 -0.16341593073E+02  0.20696080255E+01  0.18673529229E+02  0.51100000000E-03 0.  1.
         12    1    3    3    0    0  0.71231918380E+01 -0.17822639959E+01  0.22601677663E+02  0.23764514725E+02  0.00000000000E+00 0. -1.
</event>
<event>
 7    1  0.7821043E-012  0.5930196E+02  0.7816164E-02  0.1266605E+00
        -11   -1    0    0    0    0  0.00000000000E+00  0.00000000000E+00  0.45593999997E+02  0.45594000000E+02  0.51100000000E-03 0.  1.
         11   -1    0    0    0    0 -0.00000000000E+00 -0.00000000000E+00 -0.45593999997E+02  0.45594000000E+02  0.51100000000E-03 0. -1.
    9900012    2    1    2    0    0 -0.18404847039E+02  0.21972618572E+02 -0.13970880542E+02  0.59301955019E+02  0.50000020045E+02 0.  0.
         12    1    1    2    0    0  0.18404847039E+02 -0.21972618572E+02  0.13970880542E+02  0.31886044981E+02  0.00000000000E+00 0. -1.
         11    1    3    3    0    0  0.11415475439E+02 -0.26954820763E+01 -0.43278971790E+01  0.12502375669E+02  0.51100000000E-03 0. -1.
        -11    1    3    3    0    0 -0.22612436980E+02  0.28484272121E+02 -0.33971414580E+01  0.36526930268E+02  0.51100000000E-03 0.  1.
        -12    1    3    3    0    0 -0.72078854980E+01 -0.38161714734E+01 -0.62458419048E+01  0.10272649082E+02  0.00000000000E+00 0.  1.
</event>
<event>
 7    1  0.7821043E-012  0.5930196E+02  0.7816164E-02  0.1266605E+00
        -11   -1    0    0    0    0  0.00000000000E+00  0.00000000000E+00  0.45593999997E+02  0.45594000000E+02  0.51100000000E-03 0.  1.
         11   -1    0    0    0    0 -0.00000000000E+00 -0.00000000000E+00 -0.45593999997E+02  0.45594000000E+02  0.51100000000E-03 0. -1.
    9900012    2    1    2    0    0 -0.25620252864E+02 -0.13720637051E+02  0.13117397544E+02  0.59301962990E+02  0.50000034582E+02 0.  0.
         12    1    1    2    0    0  0.25620252864E+02  0.13720637051E+02 -0.13117397544E+02  0.31886037010E+02  0.00000000000E+00 0. -1.
         11    1    3    3    0    0  0.68709238590E+01  0.92077980727E+01 -0.18603247590E+00  0.11490332822E+02  0.51100000000E-03 0. -1.
        -11    1    3    3    0    0 -0.24093490884E+02 -0.20752706476E+02 -0.15539228090E+00  0.31799296786E+02  0.51100000000E-03 0.  1.
         12    1    3    3    0    0 -0.83976858388E+01 -0.21757286472E+01  0.13458822300E+02  0.16012333381E+02  0.00000000000E+00 0. -1.
</event>
<event>
 7    1  0.7821043E-012  0.5930195E+02  0.7816164E-02  0.1266605E+00
        -11   -1    0    0    0    0  0.00000000000E+00  0.00000000000E+00  0.45593999997E+02  0.45594000000E+02  0.51100000000E-03 0.  1.
         11   -1    0    0    0    0 -0.00000000000E+00 -0.00000000000E+00 -0.45593999997E+02  0.45594000000E+02  0.51100000000E-03 0. -1.
    9900012    2    1    2    0    0 -0.10524185447E+02 -0.15575073675E+02  0.25756144826E+02  0.59301946691E+02  0.50000004857E+02 0.  0.
         12    1    1    2    0    0  0.10524185447E+02  0.15575073675E+02 -0.25756144826E+02  0.31886053309E+02  0.00000000000E+00 0. -1.
         11    1    3    3    0    0  0.50772818585E+01  0.97283011548E+01 -0.24769134659E+01  0.11249610438E+02  0.51100000000E-03 0. -1.
        -11    1    3    3    0    0 -0.93680153927E+01 -0.21340146608E+02  0.52205517671E+01  0.23883377706E+02  0.51100000000E-03 0.  1.
         12    1    3    3    0    0 -0.62334519123E+01 -0.39632282226E+01  0.23012506525E+02  0.24168958547E+02  0.00000000000E+00 0. -1.
</event>
<event>
 7    1  0.7821043E-012  0.5930195E+02  0.7816164E-02  0.1266605E+00
        -11   -1    0    0    0    0  0.00000000000E+00  0.00000000000E+00  0.45593999997E+02  0.45594000000E+02  0.51100000000E-03 0.  1.
         11   -1    0    0    0    0 -0.00000000000E+00 -0.00000000000E+00 -0.45593999997E+02  0.45594000000E+02  0.51100000000E-03 0. -1.
    9900012    2    1    2    0    0  0.20842015653E+01 -0.30726229286E+02  0.82628768440E+01  0.59301949821E+02  0.50000010566E+02 0.  0.
         12    1    1    2    0    0 -0.20842015653E+01  0.30726229286E+02 -0.82628768440E+01  0.31886050179E+02  0.00000000000E+00 0. -1.
         11    1    3    3    0    0 -0.62209803763E+01 -0.29298713287E+01 -0.62519417986E+01  0.92936278901E+01  0.51100000000E-03 0. -1.
        -11    1    3    3    0    0  0.12761939911E+02 -0.34375479997E+02  0.18553155577E+02  0.41094529045E+02  0.51100000000E-03 0.  1.
        -12    1    3    3    0    0 -0.44567579694E+01  0.65791220404E+01 -0.40383369340E+01  0.89137928859E+01  0.00000000000E+00 0.  1.
</event>
<event>
 7    1  0.7821043E-012  0.5930195E+02  0.7816164E-02  0.1266605E+00
        -11   -1    0    0    0    0  0.00000000000E+00  0.00000000000E+00  0.45593999997E+02  0.45594000000E+02  0.51100000000E-03 0.  1.
         11   -1    0    0    0    0 -0.00000000000E+00 -0.00000000000E+00 -0.45593999997E+02  0.45594000000E+02  0.51100000000E-03 0. -1.
    9900012    2    1    2    0    0 -0.78791691277E+01  0.25614537561E+02  0.17278148450E+02  0.59301948904E+02  0.50000008894E+02 0.  0.
         12    1    1    2    0    0  0.78791691277E+01 -0.25614537561E+02 -0.17278148450E+02  0.31886051096E+02  0.00000000000E+00 0. -1.
         11    1    3    3    0    0 -0.10079448143E+02  0.86798238710E+01 -0.12552541513E+02  0.18289366200E+02  0.51100000000E-03 0. -1.
        -11    1    3    3    0    0  0.67383246312E+01  0.20363015504E+02  0.18460414020E+02  0.28299192661E+02  0.51100000000E-03 0.  1.
        -12    1    3    3    0    0 -0.45380456163E+01 -0.34283018141E+01  0.11370275944E+02  0.12713390043E+02  0.00000000000E+00 0.  1.
</event>
<event>
 7    1  0.7821043E-012  0.5930195E+02  0.7816164E-02  0.1266605E+00
        -11   -1    0    0    0    0  0.00000000000E+00  0.00000000000E+00  0.45593999997E+02  0.45594000000E+02  0.51100000000E-03 0.  1.
         11   -1    0    0    0    0 -0.00000000000E+00 -0.00000000000E+00 -0.45593999997E+02  0.45594000000E+02  0.51100000000E-03 0. -1.
    9900012    2    1    2    0    0 -0.10961829960E+02 -0.20940051753E+02 -0.21402632202E+02  0.59301950564E+02  0.50000011920E+02 0.  0.
         12    1    1    2    0    0  0.10961829960E+02  0.20940051753E+02  0.21402632202E+02  0.31886049436E+02  0.00000000000E+00 0. -1.
         11    1    3    3    0    0 -0.25549575719E+00 -0.47238676612E+01 -0.92534969313E+01  0.10392661328E+02  0.51100000000E-03 0. -1.
        -11    1    3    3    0    0 -0.25610930599E+02 -0.19401030671E+02 -0.85888740685E+01  0.33257909064E+02  0.51100000000E-03 0.  1.
        -12    1    3    3    0    0  0.14904596396E+02  0.31848465801E+01 -0.35602612024E+01  0.15651380172E+02  0.00000000000E+00 0.  1.
</event>
<event>
 7    1  0.7821043E-012  0.5930195E+02  0.7816164E-02  0.1266605E+00
        -11   -1    0    0    0    0  0.00000000000E+00  0.00000000000E+00  0.45593999997E+02  0.45594000000E+02  0.51100000000E-03 0. -1.
         11   -1    0    0    0    0 -0.00000000000E+00 -0.00000000000E+00 -0.45593999997E+02  0.45594000000E+02  0.51100000000E-03 0.  1.
    9900012    2    1    2    0    0 -0.20599822697E+02  0.11771449944E+02  0.21302595187E+02  0.59301948337E+02  0.50000007859E+02 0.  0.
         12    1    1    2    0    0  0.20599822697E+02 -0.11771449944E+02 -0.21302595187E+02  0.31886051663E+02  0.00000000000E+00 0. -1.
         11    1    3    3    0    0 -0.16241756015E+02 -0.56837426651E+00 -0.16581024943E+01  0.16336064149E+02  0.51100000000E-03 0. -1.
        -11    1    3    3    0    0  0.91985119593E+01  0.17322826766E+02  0.56299674993E+01  0.20405623826E+02  0.51100000000E-03 0.  1.
        -12    1    3    3    0    0 -0.13556578642E+02 -0.49830025554E+01  0.17330730182E+02  0.22560260362E+02  0.00000000000E+00 0.  1.
</event>
<event>
 7    1  0.7821043E-012  0.5930194E+02  0.7816164E-02  0.1266605E+00
        -11   -1    0    0    0    0  0.00000000000E+00  0.00000000000E+00  0.45593999997E+02  0.45594000000E+02  0.51100000000E-03 0.  1.
         11   -1    0    0    0    0 -0.00000000000E+00 -0.00000000000E+00 -0.45593999997E+02  0.45594000000E+02  0.51100000000E-03 0. -1.
    9900012    2    1    2    0    0  0.41419585072E+01  0.92109628090E+00  0.31602478133E+02  0.59301939366E+02  0.49999991498E+02 0.  0.
         12    1    1    2    0    0 -0.41419585072E+01 -0.92109628090E+00 -0.31602478133E+02  0.31886060634E+02  0.00000000000E+00 0. -1.
         11    1    3    3    0    0 -0.40037003870E+01 -0.68732537450E+01  0.57794462492E+01  0.98322547282E+01  0.51100000000E-03 0. -1.
        -11    1    3    3    0    0 -0.76968754234E+01  0.19308370830E+02  0.20454998083E+02  0.29162682014E+02  0.51100000000E-03 0.  1.
        -12    1    3    3    0    0  0.15842534318E+02 -0.11514020804E+02  0.53680338004E+01  0.20307002624E+02  0.00000000000E+00 0.  1.
</event>
<event>
 7    1  0.7821043E-012  0.5930192E+02  0.7816164E-02  0.1266605E+00
        -11   -1    0    0    0    0  0.00000000000E+00  0.00000000000E+00  0.45593999997E+02  0.45594000000E+02  0.51100000000E-03 0. -1.
         11   -1    0    0    0    0 -0.00000000000E+00 -0.00000000000E+00 -0.45593999997E+02  0.45594000000E+02  0.51100000000E-03 0.  1.
    9900012    2    1    2    0    0 -0.97484071943E+01 -0.30321471034E+02 -0.15162554975E+01  0.59301920290E+02  0.49999956709E+02 0.  0.
         12    1    1    2    0    0  0.97484071943E+01  0.30321471034E+02  0.15162554975E+01  0.31886079710E+02  0.00000000000E+00 0. -1.
         11    1    3    3    0    0 -0.12588561141E+02 -0.30606481064E+02  0.93929041089E+01  0.34401383730E+02  0.51100000000E-03 0. -1.
        -11    1    3    3    0    0  0.11784721310E+02  0.43427558184E+01 -0.62972359743E+01  0.14049710518E+02  0.51100000000E-03 0.  1.
         12    1    3    3    0    0 -0.89445673636E+01 -0.40577457889E+01 -0.46119236321E+01  0.10850826042E+02  0.00000000000E+00 0. -1.
</event>
<event>
 7    1  0.7821043E-012  0.5930191E+02  0.7816164E-02  0.1266605E+00
        -11   -1    0    0    0    0  0.00000000000E+00  0.00000000000E+00  0.45593999997E+02  0.45594000000E+02  0.51100000000E-03 0. -1.
         11   -1    0    0    0    0 -0.00000000000E+00 -0.00000000000E+00 -0.45593999997E+02  0.45594000000E+02  0.51100000000E-03 0.  1.
    9900012    2    1    2    0    0 -0.47984647981E+01 -0.30381939717E+02 -0.84044895222E+01  0.59301906330E+02  0.49999931249E+02 0.  0.
         12    1    1    2    0    0  0.47984647981E+01  0.30381939717E+02  0.84044895222E+01  0.31886093670E+02  0.00000000000E+00 0. -1.
         11    1    3    3    0    0 -0.21314491690E+01 -0.23703209449E+02 -0.16213935412E+02  0.28797168533E+02  0.51100000000E-03 0. -1.
        -11    1    3    3    0    0  0.10234270771E+02  0.37282769308E+01 -0.22407711585E+01  0.11120314867E+02  0.51100000000E-03 0.  1.
         12    1    3    3    0    0 -0.12901286401E+02 -0.10407007199E+02  0.10050217048E+02  0.19384422930E+02  0.00000000000E+00 0. -1.
</event>
<event>
 7    1  0.7821043E-012  0.5930195E+02  0.7816164E-02  0.1266605E+00
        -11   -1    0    0    0    0  0.00000000000E+00  0.00000000000E+00  0.45593999997E+02  0.45594000000E+02  0.51100000000E-03 0. -1.
         11   -1    0    0    0    0 -0.00000000000E+00 -0.00000000000E+00 -0.45593999997E+02  0.45594000000E+02  0.51100000000E-03 0.  1.
    9900012    2    1    2    0    0 -0.16955246908E+02 -0.43425884398E-01 -0.27004407605E+02  0.59301947977E+02  0.50000007203E+02 0.  0.
         12    1    1    2    0    0  0.16955246908E+02  0.43425884398E-01  0.27004407605E+02  0.31886052023E+02  0.00000000000E+00 0. -1.
         11    1    3    3    0    0  0.34788835579E+01  0.84278873364E+01 -0.14923331639E+02  0.17488217269E+02  0.51100000000E-03 0. -1.
        -11    1    3    3    0    0 -0.91718636763E+01 -0.15172711956E+02 -0.19821160836E+02  0.26593470788E+02  0.51100000000E-03 0.  1.
        -12    1    3    3    0    0 -0.11262266789E+02  0.67013987353E+01  0.77400848706E+01  0.15220259921E+02  0.00000000000E+00 0.  1.
</event>
<event>
 7    1  0.7821043E-012  0.5930193E+02  0.7816164E-02  0.1266605E+00
        -11   -1    0    0    0    0  0.00000000000E+00  0.00000000000E+00  0.45593999997E+02  0.45594000000E+02  0.51100000000E-03 0.  1.
         11   -1    0    0    0    0 -0.00000000000E+00 -0.00000000000E+00 -0.45593999997E+02  0.45594000000E+02  0.51100000000E-03 0. -1.
    9900012    2    1    2    0    0  0.17723132300E+02 -0.26467858161E+02 -0.14368679982E+01  0.59301929000E+02  0.49999972593E+02 0.  0.
         12    1    1    2    0    0 -0.17723132300E+02  0.26467858161E+02  0.14368679982E+01  0.31886071000E+02  0.00000000000E+00 0. -1.
         11    1    3    3    0    0  0.76830156626E+01 -0.28469722173E+01 -0.12972131281E+02  0.15343082178E+02  0.51100000000E-03 0. -1.
        -11    1    3    3    0    0  0.18186328177E+02 -0.19444242451E+02  0.18530490530E+02  0.32437635188E+02  0.51100000000E-03 0.  1.
        -12    1    3    3    0    0 -0.81462115389E+01 -0.41766434922E+01 -0.69952272466E+01  0.11521211635E+02  0.00000000000E+00 0.  1.
</event>
<event>
 7    1  0.7821043E-012  0.5930193E+02  0.7816164E-02  0.1266605E+00
        -11   -1    0    0    0    0  0.00000000000E+00  0.00000000000E+00  0.45593999997E+02  0.45594000000E+02  0.51100000000E-03 0. -1.
         11   -1    0    0    0    0 -0.00000000000E+00 -0.00000000000E+00 -0.45593999997E+02  0.45594000000E+02  0.51100000000E-03 0.  1.
    9900012    2    1    2    0    0  0.22964914683E+01  0.30531632213E+02  0.89031859152E+01  0.59301934734E+02  0.49999983051E+02 0.  0.
         12    1    1    2    0    0 -0.22964914683E+01 -0.30531632213E+02 -0.89031859152E+01  0.31886065266E+02  0.00000000000E+00 0. -1.
         11    1    3    3    0    0  0.11844929546E+02  0.54870537142E+01  0.19833678077E+02  0.23744155085E+02  0.51100000000E-03 0. -1.
        -11    1    3    3    0    0  0.28033432770E+01  0.15506150948E+02 -0.12159272680E+02  0.19903451035E+02  0.51100000000E-03 0.  1.
         12    1    3    3    0    0 -0.12351781355E+02  0.95384275514E+01  0.12287805185E+01  0.15654328614E+02  0.00000000000E+00 0. -1.
</event>
<event>
 7    1  0.7821043E-012  0.5930196E+02  0.7816164E-02  0.1266605E+00
        -11   -1    0    0    0    0  0.00000000000E+00  0.00000000000E+00  0.45593999997E+02  0.45594000000E+02  0.51100000000E-03 0.  1.
         11   -1    0    0    0    0 -0.00000000000E+00 -0.00000000000E+00 -0.45593999997E+02  0.45594000000E+02  0.51100000000E-03 0. -1.
    9900012    2    1    2    0    0  0.22291739487E+02 -0.55892831971E+01  0.22103348598E+02  0.59301956732E+02  0.50000023170E+02 0.  0.
         12    1    1    2    0    0 -0.22291739487E+02  0.55892831971E+01 -0.22103348598E+02  0.31886043268E+02  0.00000000000E+00 0. -1.
         11    1    3    3    0    0 -0.21495448083E+01 -0.14634133443E+01 -0.29359921023E+01  0.39220111403E+01  0.51100000000E-03 0. -1.
        -11    1    3    3    0    0 -0.31668816849E+01 -0.80651113826E+00  0.27287246850E+02  0.27482238641E+02  0.51100000000E-03 0.  1.
        -12    1    3    3    0    0  0.27608165980E+02 -0.33193587145E+01 -0.22479061496E+01  0.27897706951E+02  0.00000000000E+00 0.  1.
</event>
<event>
 7    1  0.7821043E-012  0.5930195E+02  0.7816164E-02  0.1266605E+00
        -11   -1    0    0    0    0  0.00000000000E+00  0.00000000000E+00  0.45593999997E+02  0.45594000000E+02  0.51100000000E-03 0. -1.
         11   -1    0    0    0    0 -0.00000000000E+00 -0.00000000000E+00 -0.45593999997E+02  0.45594000000E+02  0.51100000000E-03 0.  1.
    9900012    2    1    2    0    0 -0.30547680973E+02 -0.36245066910E+01  0.83918141636E+01  0.59301946520E+02  0.50000004545E+02 0.  0.
         12    1    1    2    0    0  0.30547680973E+02  0.36245066910E+01 -0.83918141636E+01  0.31886053480E+02  0.00000000000E+00 0. -1.
         11    1    3    3    0    0 -0.87430778755E+01 -0.79617476258E+01  0.88104593039E+01  0.14746356479E+02  0.51100000000E-03 0. -1.
        -11    1    3    3    0    0 -0.22886415340E+02 -0.79705366964E+01 -0.12505870660E+02  0.27271125088E+02  0.51100000000E-03 0.  1.
        -12    1    3    3    0    0  0.10818122427E+01  0.12307777631E+02  0.12087225520E+02  0.17284464953E+02  0.00000000000E+00 0.  1.
</event>
<event>
 7    1  0.7821043E-012  0.5930195E+02  0.7816164E-02  0.1266605E+00
        -11   -1    0    0    0    0  0.00000000000E+00  0.00000000000E+00  0.45593999997E+02  0.45594000000E+02  0.51100000000E-03 0. -1.
         11   -1    0    0    0    0 -0.00000000000E+00 -0.00000000000E+00 -0.45593999997E+02  0.45594000000E+02  0.51100000000E-03 0.  1.
    9900012    2    1    2    0    0 -0.11808300418E+02 -0.22027236202E+02 -0.19801142073E+02  0.59301947864E+02  0.50000006996E+02 0.  0.
         12    1    1    2    0    0  0.11808300418E+02  0.22027236202E+02  0.19801142073E+02  0.31886052136E+02  0.00000000000E+00 0. -1.
         11    1    3    3    0    0 -0.14612376988E+02  0.97517634572E-01  0.10088818755E+02  0.17757120686E+02  0.51100000000E-03 0. -1.
        -11    1    3    3    0    0 -0.71411864937E+01 -0.10200101889E+02 -0.18448225859E+02  0.22257036206E+02  0.51100000000E-03 0.  1.
         12    1    3    3    0    0  0.99452630638E+01 -0.11924651947E+02 -0.11441734969E+02  0.19287790971E+02  0.00000000000E+00 0. -1.
</event>
<event>
 7    1  0.7821043E-012  0.5930200E+02  0.7816164E-02  0.1266605E+00
        -11   -1    0    0    0    0  0.00000000000E+00  0.00000000000E+00  0.45593999997E+02  0.45594000000E+02  0.51100000000E-03 0. -1.
         11   -1    0    0    0    0 -0.00000000000E+00 -0.00000000000E+00 -0.45593999997E+02  0.45594000000E+02  0.51100000000E-03 0.  1.
    9900012    2    1    2    0    0  0.29319553379E+01 -0.60687350010E+01 -0.31165543293E+02  0.59302000010E+02  0.50000102098E+02 0.  0.
         12    1    1    2    0    0 -0.29319553379E+01  0.60687350010E+01  0.31165543293E+02  0.31885999990E+02  0.00000000000E+00 0. -1.
         11    1    3    3    0    0 -0.19158655362E+02 -0.41834701635E+01 -0.20784636111E+02  0.28575454440E+02  0.51100000000E-03 0. -1.
        -11    1    3    3    0    0  0.12794056958E+00  0.54831491462E+01 -0.39096650694E+00  0.54985587584E+01  0.51100000000E-03 0.  1.
         12    1    3    3    0    0  0.21962670130E+02 -0.73684139837E+01 -0.99899406749E+01  0.25227986812E+02  0.00000000000E+00 0. -1.
</event>
<event>
 7    1  0.7821043E-012  0.5930192E+02  0.7816164E-02  0.1266605E+00
        -11   -1    0    0    0    0  0.00000000000E+00  0.00000000000E+00  0.45593999997E+02  0.45594000000E+02  0.51100000000E-03 0.  1.
         11   -1    0    0    0    0 -0.00000000000E+00 -0.00000000000E+00 -0.45593999997E+02  0.45594000000E+02  0.51100000000E-03 0. -1.
    9900012    2    1    2    0    0  0.12983117611E+02 -0.15748930526E+02  0.24497595173E+02  0.59301916439E+02  0.49999949685E+02 0.  0.
         12    1    1    2    0    0 -0.12983117611E+02  0.15748930526E+02 -0.24497595173E+02  0.31886083561E+02  0.00000000000E+00 0. -1.
         11    1    3    3    0    0  0.14826148970E+02  0.36366323448E+01  0.14488863096E+02  0.21046779853E+02  0.51100000000E-03 0. -1.
        -11    1    3    3    0    0 -0.76864026715E+01 -0.19981555732E+02  0.18252042151E+02  0.28133261426E+02  0.51100000000E-03 0.  1.
         12    1    3    3    0    0  0.58433713122E+01  0.59599286099E+00 -0.82433100746E+01  0.10121875161E+02  0.00000000000E+00 0. -1.
</event>
<event>
 7    1  0.7821043E-012  0.5930197E+02  0.7816164E-02  0.1266605E+00
        -11   -1    0    0    0    0  0.00000000000E+00  0.00000000000E+00  0.45593999997E+02  0.45594000000E+02  0.51100000000E-03 0.  1.
         11   -1    0    0    0    0 -0.00000000000E+00 -0.00000000000E+00 -0.45593999997E+02  0.45594000000E+02  0.51100000000E-03 0. -1.
    9900012    2    1    2    0    0 -0.14300309894E+02 -0.25890681594E+02 -0.11911858949E+02  0.59301974219E+02  0.50000055061E+02 0.  0.
         12    1    1    2    0    0  0.14300309894E+02  0.25890681594E+02  0.11911858949E+02  0.31886025781E+02  0.00000000000E+00 0. -1.
         11    1    3    3    0    0 -0.23839794435E+01  0.14866381965E+01 -0.92093748728E+01  0.96283974224E+01  0.51100000000E-03 0. -1.
        -11    1    3    3    0    0 -0.24333437378E+02 -0.27636089095E+02  0.58229165171E+00  0.36826738370E+02  0.51100000000E-03 0.  1.
        -12    1    3    3    0    0  0.12417106927E+02  0.25876930446E+00 -0.32847757276E+01  0.12846838427E+02  0.00000000000E+00 0.  1.
</event>
<event>
 7    1  0.7821043E-012  0.5930224E+02  0.7816164E-02  0.1266604E+00
        -11   -1    0    0    0    0  0.00000000000E+00  0.00000000000E+00  0.45593999997E+02  0.45594000000E+02  0.51100000000E-03 0.  1.
         11   -1    0    0    0    0 -0.00000000000E+00 -0.00000000000E+00 -0.45593999997E+02  0.45594000000E+02  0.51100000000E-03 0. -1.
    9900012    2    1    2    0    0  0.16878605828E+02  0.18481309867E+02  0.19754891481E+02  0.59302236930E+02  0.50000534181E+02 0.  0.
         12    1    1    2    0    0 -0.16878605828E+02 -0.18481309867E+02 -0.19754891481E+02  0.31885763070E+02  0.00000000000E+00 0. -1.
         11    1    3    3    0    0 -0.94298940078E+01 -0.68410244775E+01 -0.47605624123E+01  0.12585128988E+02  0.51100000000E-03 0. -1.
        -11    1    3    3    0    0  0.24768636889E+02  0.17947401369E+02  0.13649596442E+02  0.33494866361E+02  0.51100000000E-03 0.  1.
         12    1    3    3    0    0  0.15398629464E+01  0.73749329758E+01  0.10865857451E+02  0.13222241582E+02  0.00000000000E+00 0. -1.
</event>
<event>
 7    1  0.7821043E-012  0.5930188E+02  0.7816164E-02  0.1266605E+00
        -11   -1    0    0    0    0  0.00000000000E+00  0.00000000000E+00  0.45593999997E+02  0.45594000000E+02  0.51100000000E-03 0. -1.
         11   -1    0    0    0    0 -0.00000000000E+00 -0.00000000000E+00 -0.45593999997E+02  0.45594000000E+02  0.51100000000E-03 0.  1.
    9900012    2    1    2    0    0 -0.50399571611E+01  0.11765603270E+02 -0.29204346588E+02  0.59301883144E+02  0.49999888963E+02 0.  0.
         12    1    1    2    0    0  0.50399571611E+01 -0.11765603270E+02  0.29204346588E+02  0.31886116856E+02  0.00000000000E+00 0. -1.
         11    1    3    3    0    0  0.69221676411E+01  0.28173602819E+00  0.52418113237E-01  0.69280969942E+01  0.51100000000E-03 0.  1.
        -11    1    3    3    0    0 -0.22746746643E+02  0.11385107078E+02 -0.51339882191E+01  0.25949816595E+02  0.51100000000E-03 0. -1.
        -12    1    3    3    0    0  0.10784621841E+02  0.98760164348E-01 -0.24122776482E+02  0.26423969555E+02  0.00000000000E+00 0.  1.
</event>
<event>
 7    1  0.7821043E-012  0.5930195E+02  0.7816164E-02  0.1266605E+00
        -11   -1    0    0    0    0  0.00000000000E+00  0.00000000000E+00  0.45593999997E+02  0.45594000000E+02  0.51100000000E-03 0.  1.
         11   -1    0    0    0    0 -0.00000000000E+00 -0.00000000000E+00 -0.45593999997E+02  0.45594000000E+02  0.51100000000E-03 0. -1.
    9900012    2    1    2    0    0  0.22313391894E+02  0.21981700813E+02 -0.59697328235E+01  0.59301947588E+02  0.50000006493E+02 0.  0.
         12    1    1    2    0    0 -0.22313391894E+02 -0.21981700813E+02  0.59697328235E+01  0.31886052412E+02  0.00000000000E+00 0. -1.
         11    1    3    3    0    0  0.26358133162E+01  0.31955808761E+02 -0.75013972759E+00  0.32073102988E+02  0.51100000000E-03 0. -1.
        -11    1    3    3    0    0  0.34959776754E+01 -0.99449694777E+01 -0.19624199810E+01  0.10722656866E+02  0.51100000000E-03 0.  1.
         12    1    3    3    0    0  0.16181600902E+02 -0.29138469804E-01 -0.32571731149E+01  0.16506187734E+02  0.00000000000E+00 0. -1.
</event>
<event>
 7    1  0.7821043E-012  0.5930193E+02  0.7816164E-02  0.1266605E+00
        -11   -1    0    0    0    0  0.00000000000E+00  0.00000000000E+00  0.45593999997E+02  0.45594000000E+02  0.51100000000E-03 0. -1.
         11   -1    0    0    0    0 -0.00000000000E+00 -0.00000000000E+00 -0.45593999997E+02  0.45594000000E+02  0.51100000000E-03 0.  1.
    9900012    2    1    2    0    0  0.13769249962E+02 -0.15922299492E+02 -0.23950145864E+02  0.59301931685E+02  0.49999977490E+02 0.  0.
         12    1    1    2    0    0 -0.13769249962E+02  0.15922299492E+02  0.23950145864E+02  0.31886068315E+02  0.00000000000E+00 0. -1.
         11    1    3    3    0    0  0.95965605332E+01 -0.10895411552E+02 -0.96077147135E+01  0.17410116290E+02  0.51100000000E-03 0. -1.
        -11    1    3    3    0    0  0.50482906566E+01  0.15951849975E+02 -0.12359198943E+02  0.20801359449E+02  0.51100000000E-03 0.  1.
         12    1    3    3    0    0 -0.87560122742E+00 -0.20978737915E+02 -0.19832322078E+01  0.21090455946E+02  0.00000000000E+00 0. -1.
</event>
<event>
 7    1  0.7821043E-012  0.5930194E+02  0.7816164E-02  0.1266605E+00
        -11   -1    0    0    0    0  0.00000000000E+00  0.00000000000E+00  0.45593999997E+02  0.45594000000E+02  0.51100000000E-03 0. -1.
         11   -1    0    0    0    0 -0.00000000000E+00 -0.00000000000E+00 -0.45593999997E+02  0.45594000000E+02  0.51100000000E-03 0.  1.
    9900012    2    1    2    0    0 -0.11523947626E+02 -0.29032138828E+02  0.64073867561E+01  0.59301936291E+02  0.49999985891E+02 0.  0.
         12    1    1    2    0    0  0.11523947626E+02  0.29032138828E+02 -0.64073867561E+01  0.31886063709E+02  0.00000000000E+00 0. -1.
         11    1    3    3    0    0  0.75556574522E+01 -0.71645047987E+01  0.99022300417E+01  0.14369142236E+02  0.51100000000E-03 0. -1.
        -11    1    3    3    0    0 -0.22894974047E+02 -0.16829168628E+02  0.99257502998E+01  0.30098526087E+02  0.51100000000E-03 0.  1.
        -12    1    3    3    0    0  0.38153689691E+01 -0.50384654007E+01 -0.13420593585E+02  0.14834267968E+02  0.00000000000E+00 0.  1.
</event>
<event>
 7    1  0.7821043E-012  0.5930197E+02  0.7816164E-02  0.1266605E+00
        -11   -1    0    0    0    0  0.00000000000E+00  0.00000000000E+00  0.45593999997E+02  0.45594000000E+02  0.51100000000E-03 0.  1.
         11   -1    0    0    0    0 -0.00000000000E+00 -0.00000000000E+00 -0.45593999997E+02  0.45594000000E+02  0.51100000000E-03 0. -1.
    9900012    2    1    2    0    0 -0.49644131105E+01 -0.20559385307E+02  0.23861792851E+02  0.59301970461E+02  0.50000048207E+02 0.  0.
         12    1    1    2    0    0  0.49644131105E+01  0.20559385307E+02 -0.23861792851E+02  0.31886029539E+02  0.00000000000E+00 0. -1.
         11    1    3    3    0    0 -0.31481949514E+01 -0.20274326286E+02 -0.23293150270E+01  0.20649095539E+02  0.51100000000E-03 0. -1.
        -11    1    3    3    0    0  0.35270984076E+01  0.10141504912E+02  0.89408631479E+00  0.10774503963E+02  0.51100000000E-03 0.  1.
        -12    1    3    3    0    0 -0.53433165666E+01 -0.10426563932E+02  0.25297021563E+02  0.27878370959E+02  0.00000000000E+00 0.  1.
</event>
<event>
 7    1  0.7821043E-012  0.5930195E+02  0.7816164E-02  0.1266605E+00
        -11   -1    0    0    0    0  0.00000000000E+00  0.00000000000E+00  0.45593999997E+02  0.45594000000E+02  0.51100000000E-03 0. -1.
         11   -1    0    0    0    0 -0.00000000000E+00 -0.00000000000E+00 -0.45593999997E+02  0.45594000000E+02  0.51100000000E-03 0.  1.
    9900012    2    1    2    0    0  0.10796277430E+02 -0.98572370184E+01 -0.28337179349E+02  0.59301945659E+02  0.50000002975E+02 0.  0.
         12    1    1    2    0    0 -0.10796277430E+02  0.98572370184E+01  0.28337179349E+02  0.31886054341E+02  0.00000000000E+00 0. -1.
         11    1    3    3    0    0 -0.64759186195E+00  0.53380017036E+01  0.75701345946E+01  0.92855035108E+01  0.51100000000E-03 0. -1.
        -11    1    3    3    0    0  0.20861929050E+02 -0.11044918954E+02 -0.29916500807E+02  0.38107838291E+02  0.51100000000E-03 0.  1.
        -12    1    3    3    0    0 -0.94180597590E+01 -0.41503197676E+01 -0.59908131366E+01  0.11908603858E+02  0.00000000000E+00 0.  1.
</event>
<event>
 7    1  0.7821043E-012  0.5930196E+02  0.7816164E-02  0.1266605E+00
        -11   -1    0    0    0    0  0.00000000000E+00  0.00000000000E+00  0.45593999997E+02  0.45594000000E+02  0.51100000000E-03 0.  1.
         11   -1    0    0    0    0 -0.00000000000E+00 -0.00000000000E+00 -0.45593999997E+02  0.45594000000E+02  0.51100000000E-03 0. -1.
    9900012    2    1    2    0    0 -0.30535459209E+02  0.79593446538E+01  0.45775748215E+01  0.59301958733E+02  0.50000026819E+02 0.  0.
         12    1    1    2    0    0  0.30535459209E+02 -0.79593446538E+01 -0.45775748215E+01  0.31886041267E+02  0.00000000000E+00 0. -1.
         11    1    3    3    0    0 -0.20175817872E+02  0.26761253996E+01 -0.15355973107E+01  0.20410373179E+02  0.51100000000E-03 0. -1.
        -11    1    3    3    0    0  0.64924846066E+01  0.11443458687E+02  0.14070461976E+02  0.19263514829E+02  0.51100000000E-03 0.  1.
        -12    1    3    3    0    0 -0.16852125944E+02 -0.61602394330E+01 -0.79572898438E+01  0.19628070725E+02  0.00000000000E+00 0.  1.
</event>
<event>
 7    1  0.7821043E-012  0.5930196E+02  0.7816164E-02  0.1266605E+00
        -11   -1    0    0    0    0  0.00000000000E+00  0.00000000000E+00  0.45593999997E+02  0.45594000000E+02  0.51100000000E-03 0.  1.
         11   -1    0    0    0    0 -0.00000000000E+00 -0.00000000000E+00 -0.45593999997E+02  0.45594000000E+02  0.51100000000E-03 0. -1.
    9900012    2    1    2    0    0 -0.52066489713E+01 -0.16904043896E+02  0.26530433133E+02  0.59301956411E+02  0.50000022584E+02 0.  0.
         12    1    1    2    0    0  0.52066489713E+01  0.16904043896E+02 -0.26530433133E+02  0.31886043589E+02  0.00000000000E+00 0. -1.
         11    1    3    3    0    0 -0.16216423689E+02  0.92899118099E+01  0.73928850387E+01  0.20098000104E+02  0.51100000000E-03 0. -1.
        -11    1    3    3    0    0 -0.25195390500E+00 -0.21053309258E+02  0.15968228926E+02  0.26425170705E+02  0.51100000000E-03 0.  1.
         12    1    3    3    0    0  0.11261728623E+02 -0.51406464482E+01  0.31693191681E+01  0.12778785603E+02  0.00000000000E+00 0. -1.
</event>
<event>
 7    1  0.7821043E-012  0.5930191E+02  0.7816164E-02  0.1266605E+00
        -11   -1    0    0    0    0  0.00000000000E+00  0.00000000000E+00  0.45593999997E+02  0.45594000000E+02  0.51100000000E-03 0.  1.
         11   -1    0    0    0    0 -0.00000000000E+00 -0.00000000000E+00 -0.45593999997E+02  0.45594000000E+02  0.51100000000E-03 0. -1.
    9900012    2    1    2    0    0  0.89331665710E+01  0.92906612359E+01  0.29165127260E+02  0.59301913704E+02  0.49999944697E+02 0.  0.
         12    1    1    2    0    0 -0.89331665710E+01 -0.92906612359E+01 -0.29165127260E+02  0.31886086296E+02  0.00000000000E+00 0. -1.
         11    1    3    3    0    0  0.45914352067E+01  0.59127128055E+01  0.66585140282E+01  0.10018845208E+02  0.51100000000E-03 0. -1.
        -11    1    3    3    0    0 -0.20277956513E+01 -0.17526757642E+02 -0.36763911075E+00  0.17647502584E+02  0.51100000000E-03 0.  1.
        -12    1    3    3    0    0  0.63695270156E+01  0.20904706073E+02  0.22874252342E+02  0.31635565913E+02  0.00000000000E+00 0.  1.
</event>
<event>
 7    1  0.7821043E-012  0.5930194E+02  0.7816164E-02  0.1266605E+00
        -11   -1    0    0    0    0  0.00000000000E+00  0.00000000000E+00  0.45593999997E+02  0.45594000000E+02  0.51100000000E-03 0. -1.
         11   -1    0    0    0    0 -0.00000000000E+00 -0.00000000000E+00 -0.45593999997E+02  0.45594000000E+02  0.51100000000E-03 0.  1.
    9900012    2    1    2    0    0 -0.75624941025E+01  0.91822833193E+01 -0.29584030521E+02  0.59301944963E+02  0.50000001705E+02 0.  0.
         12    1    1    2    0    0  0.75624941025E+01 -0.91822833193E+01  0.29584030521E+02  0.31886055037E+02  0.00000000000E+00 0. -1.
         11    1    3    3    0    0 -0.28469172252E+02  0.74235451751E+01 -0.12350575215E+02  0.31908298295E+02  0.51100000000E-03 0. -1.
        -11    1    3    3    0    0  0.18149524586E+02  0.14085288074E+01 -0.13161589367E+02  0.22463673587E+02  0.51100000000E-03 0.  1.
         12    1    3    3    0    0  0.27571535635E+01  0.35020933673E+00 -0.40718659389E+01  0.49299730808E+01  0.00000000000E+00 0. -1.
</event>
<event>
 7    1  0.7821043E-012  0.5930181E+02  0.7816164E-02  0.1266605E+00
        -11   -1    0    0    0    0  0.00000000000E+00  0.00000000000E+00  0.45593999997E+02  0.45594000000E+02  0.51100000000E-03 0. -1.
         11   -1    0    0    0    0 -0.00000000000E+00 -0.00000000000E+00 -0.45593999997E+02  0.45594000000E+02  0.51100000000E-03 0.  1.
    9900012    2    1    2    0    0  0.18941543308E+01 -0.10521336329E+02 -0.30040690189E+02  0.59301805404E+02  0.49999747183E+02 0.  0.
         12    1    1    2    0    0 -0.18941543308E+01  0.10521336329E+02  0.30040690189E+02  0.31886194596E+02  0.00000000000E+00 0. -1.
         11    1    3    3    0    0  0.20130724451E+02 -0.75758738359E+01 -0.10967805217E+01  0.21537011378E+02  0.51100000000E-03 0. -1.
        -11    1    3    3    0    0 -0.66775916389E+01  0.18604668608E+00 -0.23820066619E+02  0.24739046414E+02  0.51100000000E-03 0.  1.
         12    1    3    3    0    0 -0.11558978482E+02 -0.31315091790E+01 -0.51238430487E+01  0.13025747612E+02  0.00000000000E+00 0. -1.
</event>
<event>
 7    1  0.7821043E-012  0.5930191E+02  0.7816164E-02  0.1266605E+00
        -11   -1    0    0    0    0  0.00000000000E+00  0.00000000000E+00  0.45593999997E+02  0.45594000000E+02  0.51100000000E-03 0.  1.
         11   -1    0    0    0    0 -0.00000000000E+00 -0.00000000000E+00 -0.45593999997E+02  0.45594000000E+02  0.51100000000E-03 0. -1.
    9900012    2    1    2    0    0 -0.94570338259E+01 -0.29673762561E+02  0.68377454490E+01  0.59301914694E+02  0.49999946502E+02 0.  0.
         12    1    1    2    0    0  0.94570338259E+01  0.29673762561E+02 -0.68377454490E+01  0.31886085306E+02  0.00000000000E+00 0. -1.
         11    1    3    3    0    0  0.10762449297E+02 -0.32581889035E+02 -0.16371759297E+01  0.34352440281E+02  0.51100000000E-03 0. -1.
        -11    1    3    3    0    0 -0.20718188522E+01 -0.16346429801E+01  0.53734476055E+01  0.59865207307E+01  0.51100000000E-03 0.  1.
         12    1    3    3    0    0 -0.18147664271E+02  0.45427694537E+01  0.31014737731E+01  0.18962953683E+02  0.00000000000E+00 0. -1.
</event>
<event>
 7    1  0.7821043E-012  0.5930193E+02  0.7816164E-02  0.1266605E+00
        -11   -1    0    0    0    0  0.00000000000E+00  0.00000000000E+00  0.45593999997E+02  0.45594000000E+02  0.51100000000E-03 0.  1.
         11   -1    0    0    0    0 -0.00000000000E+00 -0.00000000000E+00 -0.45593999997E+02  0.45594000000E+02  0.51100000000E-03 0. -1.
    9900012    2    1    2    0    0 -0.16963696188E+02 -0.14611436387E+02  0.22703756105E+02  0.59301927760E+02  0.49999970331E+02 0.  0.
         12    1    1    2    0    0  0.16963696188E+02  0.14611436387E+02 -0.22703756105E+02  0.31886072240E+02  0.00000000000E+00 0. -1.
         11    1    3    3    0    0 -0.91977698077E+01 -0.41009016650E+01 -0.10186081235E+02  0.14323847775E+02  0.51100000000E-03 0. -1.
        -11    1    3    3    0    0  0.44162662570E+01 -0.10888918341E+02  0.30326528198E+02  0.32523380254E+02  0.51100000000E-03 0.  1.
         12    1    3    3    0    0 -0.12182192638E+02  0.37838361981E+00  0.25633091414E+01  0.12454699731E+02  0.00000000000E+00 0. -1.
</event>
<event>
 7    1  0.7821043E-012  0.5930221E+02  0.7816164E-02  0.1266604E+00
        -11   -1    0    0    0    0  0.00000000000E+00  0.00000000000E+00  0.45593999997E+02  0.45594000000E+02  0.51100000000E-03 0. -1.
         11   -1    0    0    0    0 -0.00000000000E+00 -0.00000000000E+00 -0.45593999997E+02  0.45594000000E+02  0.51100000000E-03 0.  1.
    9900012    2    1    2    0    0  0.48085498697E+01 -0.13679037229E+02 -0.28398329650E+02  0.59302214166E+02  0.50000492665E+02 0.  0.
         12    1    1    2    0    0 -0.48085498697E+01  0.13679037229E+02  0.28398329650E+02  0.31885785834E+02  0.00000000000E+00 0. -1.
         11    1    3    3    0    0 -0.90529483631E+01 -0.77870144352E+01  0.98091793807E+01  0.15453590789E+02  0.51100000000E-03 0. -1.
        -11    1    3    3    0    0  0.67905029220E+01 -0.10807215597E+02 -0.20317878444E+02  0.23994228965E+02  0.51100000000E-03 0.  1.
        -12    1    3    3    0    0  0.70709953109E+01  0.49151928030E+01 -0.17889630586E+02  0.19854394412E+02  0.00000000000E+00 0.  1.
</event>
<event>
 7    1  0.7821043E-012  0.5930198E+02  0.7816164E-02  0.1266605E+00
        -11   -1    0    0    0    0  0.00000000000E+00  0.00000000000E+00  0.45593999997E+02  0.45594000000E+02  0.51100000000E-03 0. -1.
         11   -1    0    0    0    0 -0.00000000000E+00 -0.00000000000E+00 -0.45593999997E+02  0.45594000000E+02  0.51100000000E-03 0.  1.
    9900012    2    1    2    0    0 -0.31278255958E+02  0.34675617611E+01 -0.51346907333E+01  0.59301979094E+02  0.50000063952E+02 0.  0.
         12    1    1    2    0    0  0.31278255958E+02 -0.34675617611E+01  0.51346907333E+01  0.31886020906E+02  0.00000000000E+00 0. -1.
         11    1    3    3    0    0  0.31313321536E+00 -0.30746472363E+00  0.26774997217E+01  0.27132253846E+01  0.51100000000E-03 0. -1.
        -11    1    3    3    0    0 -0.27573475847E+02  0.13924044122E+02 -0.22552837378E+02  0.38246647554E+02  0.51100000000E-03 0.  1.
        -12    1    3    3    0    0 -0.40179133256E+01 -0.10149017637E+02  0.14740646923E+02  0.18342106155E+02  0.00000000000E+00 0.  1.
</event>
<event>
 7    1  0.7821043E-012  0.5930195E+02  0.7816164E-02  0.1266605E+00
        -11   -1    0    0    0    0  0.00000000000E+00  0.00000000000E+00  0.45593999997E+02  0.45594000000E+02  0.51100000000E-03 0.  1.
         11   -1    0    0    0    0 -0.00000000000E+00 -0.00000000000E+00 -0.45593999997E+02  0.45594000000E+02  0.51100000000E-03 0. -1.
    9900012    2    1    2    0    0  0.70621354036E+00 -0.23103737791E+02  0.21964492699E+02  0.59301946983E+02  0.50000005390E+02 0.  0.
         12    1    1    2    0    0 -0.70621354036E+00  0.23103737791E+02 -0.21964492699E+02  0.31886053017E+02  0.00000000000E+00 0. -1.
         11    1    3    3    0    0 -0.56643333461E+01 -0.59009019165E+00 -0.47049110538E+01  0.73870878549E+01  0.51100000000E-03 0. -1.
        -11    1    3    3    0    0  0.36264638214E+01 -0.32664257373E+02  0.24944494908E+02  0.41259335623E+02  0.51100000000E-03 0.  1.
        -12    1    3    3    0    0  0.27440830651E+01  0.10150609774E+02  0.17249088449E+01  0.10655523505E+02  0.00000000000E+00 0.  1.
</event>
<event>
 7    1  0.7821043E-012  0.5930195E+02  0.7816164E-02  0.1266605E+00
        -11   -1    0    0    0    0  0.00000000000E+00  0.00000000000E+00  0.45593999997E+02  0.45594000000E+02  0.51100000000E-03 0. -1.
         11   -1    0    0    0    0 -0.00000000000E+00 -0.00000000000E+00 -0.45593999997E+02  0.45594000000E+02  0.51100000000E-03 0.  1.
    9900012    2    1    2    0    0 -0.13096041138E+02  0.27153586702E+02 -0.10387325944E+02  0.59301951256E+02  0.50000013182E+02 0.  0.
         12    1    1    2    0    0  0.13096041138E+02 -0.27153586702E+02  0.10387325944E+02  0.31886048744E+02  0.00000000000E+00 0. -1.
         11    1    3    3    0    0 -0.69011676311E+01  0.66049159367E+01  0.13359328791E+02  0.16423236441E+02  0.51100000000E-03 0. -1.
        -11    1    3    3    0    0  0.39291986235E+01  0.11444604541E+02 -0.26369211373E+02  0.29012977848E+02  0.51100000000E-03 0.  1.
         12    1    3    3    0    0 -0.10124072130E+02  0.91040662234E+01  0.26225566384E+01  0.13865736966E+02  0.00000000000E+00 0. -1.
</event>
<event>
 7    1  0.7821043E-012  0.5930193E+02  0.7816164E-02  0.1266605E+00
        -11   -1    0    0    0    0  0.00000000000E+00  0.00000000000E+00  0.45593999997E+02  0.45594000000E+02  0.51100000000E-03 0. -1.
         11   -1    0    0    0    0 -0.00000000000E+00 -0.00000000000E+00 -0.45593999997E+02  0.45594000000E+02  0.51100000000E-03 0.  1.
    9900012    2    1    2    0    0  0.23122199451E+02 -0.62131778139E+00 -0.21947643019E+02  0.59301934434E+02  0.49999982503E+02 0.  0.
         12    1    1    2    0    0 -0.23122199451E+02  0.62131778139E+00  0.21947643019E+02  0.31886065566E+02  0.00000000000E+00 0. -1.
         11    1    3    3    0    0  0.26426833886E+01 -0.15082945046E+02  0.90508486950E+01  0.17787548148E+02  0.51100000000E-03 0. -1.
        -11    1    3    3    0    0  0.32230269835E+01 -0.19738731922E+01 -0.40110139060E+01  0.55111079766E+01  0.51100000000E-03 0.  1.
         12    1    3    3    0    0  0.17256489079E+02  0.16435500457E+02 -0.26987477808E+02  0.36003278309E+02  0.00000000000E+00 0. -1.
</event>
<event>
 7    1  0.7821043E-012  0.5930198E+02  0.7816164E-02  0.1266605E+00
        -11   -1    0    0    0    0  0.00000000000E+00  0.00000000000E+00  0.45593999997E+02  0.45594000000E+02  0.51100000000E-03 0. -1.
         11   -1    0    0    0    0 -0.00000000000E+00 -0.00000000000E+00 -0.45593999997E+02  0.45594000000E+02  0.51100000000E-03 0.  1.
    9900012    2    1    2    0    0  0.20567318365E+02 -0.24318568672E+02  0.15201253285E+01  0.59301981936E+02  0.50000069135E+02 0.  0.
         12    1    1    2    0    0 -0.20567318365E+02  0.24318568672E+02 -0.15201253285E+01  0.31886018064E+02  0.00000000000E+00 0. -1.
         11    1    3    3    0    0 -0.11419790762E+02 -0.23876029178E+02 -0.89943995659E+00  0.26481793422E+02  0.51100000000E-03 0. -1.
        -11    1    3    3    0    0  0.13394477366E+02 -0.16239934382E+00  0.44491679918E+01  0.14115009513E+02  0.51100000000E-03 0.  1.
         12    1    3    3    0    0  0.18592631761E+02 -0.28014014991E+00 -0.20296027067E+01  0.18705179001E+02  0.00000000000E+00 0. -1.
</event>
<event>
 7    1  0.7821043E-012  0.5930196E+02  0.7816164E-02  0.1266605E+00
        -11   -1    0    0    0    0  0.00000000000E+00  0.00000000000E+00  0.45593999997E+02  0.45594000000E+02  0.51100000000E-03 0. -1.
         11   -1    0    0    0    0 -0.00000000000E+00 -0.00000000000E+00 -0.45593999997E+02  0.45594000000E+02  0.51100000000E-03 0.  1.
    9900012    2    1    2    0    0 -0.19631677213E+02  0.75676584329E+01 -0.23959286852E+02  0.59301958685E+02  0.50000026731E+02 0.  0.
         12    1    1    2    0    0  0.19631677213E+02 -0.75676584329E+01  0.23959286852E+02  0.31886041315E+02  0.00000000000E+00 0. -1.
         11    1    3    3    0    0 -0.60330736732E+01 -0.20153586028E+02 -0.13984291951E+02  0.25261144657E+02  0.51100000000E-03 0. -1.
        -11    1    3    3    0    0 -0.13966614864E+02  0.25632892750E+02 -0.11556694783E+02  0.31395361378E+02  0.51100000000E-03 0.  1.
         12    1    3    3    0    0  0.36801132444E+00  0.20883517106E+01  0.15816998831E+01  0.26454526498E+01  0.00000000000E+00 0. -1.
</event>
<event>
 7    1  0.7821043E-012  0.5930195E+02  0.7816164E-02  0.1266605E+00
        -11   -1    0    0    0    0  0.00000000000E+00  0.00000000000E+00  0.45593999997E+02  0.45594000000E+02  0.51100000000E-03 0.  1.
         11   -1    0    0    0    0 -0.00000000000E+00 -0.00000000000E+00 -0.45593999997E+02  0.45594000000E+02  0.51100000000E-03 0. -1.
    9900012    2    1    2    0    0 -0.60030838945E+01  0.31022035523E+02  0.42797457571E+01  0.59301954024E+02  0.50000018231E+02 0.  0.
         12    1    1    2    0    0  0.60030838945E+01 -0.31022035523E+02 -0.42797457571E+01  0.31886045976E+02  0.00000000000E+00 0. -1.
         11    1    3    3    0    0 -0.20265069088E+02  0.89128990262E+01 -0.91874700434E+01  0.23969196904E+02  0.51100000000E-03 0. -1.
        -11    1    3    3    0    0  0.24063350038E+01  0.16562255101E+02  0.14580217223E+02  0.22196429369E+02  0.51100000000E-03 0.  1.
         12    1    3    3    0    0  0.11855650189E+02  0.55468813953E+01 -0.11130014222E+01  0.13136327751E+02  0.00000000000E+00 0. -1.
</event>
<event>
 7    1  0.7821043E-012  0.5930219E+02  0.7816164E-02  0.1266604E+00
        -11   -1    0    0    0    0  0.00000000000E+00  0.00000000000E+00  0.45593999997E+02  0.45594000000E+02  0.51100000000E-03 0.  1.
         11   -1    0    0    0    0 -0.00000000000E+00 -0.00000000000E+00 -0.45593999997E+02  0.45594000000E+02  0.51100000000E-03 0. -1.
    9900012    2    1    2    0    0  0.62608294454E+01 -0.22978221372E+02  0.21201616775E+02  0.59302185025E+02  0.50000439519E+02 0.  0.
         12    1    1    2    0    0 -0.62608294454E+01  0.22978221372E+02 -0.21201616775E+02  0.31885814975E+02  0.00000000000E+00 0. -1.
         11    1    3    3    0    0  0.61390774503E+01 -0.15585300203E+02  0.60481189736E+01  0.17809255957E+02  0.51100000000E-03 0.  1.
        -11    1    3    3    0    0  0.79666709357E+01  0.65243508988E+01 -0.82236856474E+01  0.13178163997E+02  0.51100000000E-03 0. -1.
        -12    1    3    3    0    0 -0.78449189406E+01 -0.13917272067E+02  0.23377183449E+02  0.28314765070E+02  0.00000000000E+00 0.  1.
</event>
<event>
 7    1  0.7821043E-012  0.5930193E+02  0.7816164E-02  0.1266605E+00
        -11   -1    0    0    0    0  0.00000000000E+00  0.00000000000E+00  0.45593999997E+02  0.45594000000E+02  0.51100000000E-03 0.  1.
         11   -1    0    0    0    0 -0.00000000000E+00 -0.00000000000E+00 -0.45593999997E+02  0.45594000000E+02  0.51100000000E-03 0. -1.
    9900012    2    1    2    0    0  0.11520325489E+02  0.23496226605E+02  0.18218963159E+02  0.59301934350E+02  0.49999982350E+02 0.  0.
         12    1    1    2    0    0 -0.11520325489E+02 -0.23496226605E+02 -0.18218963159E+02  0.31886065650E+02  0.00000000000E+00 0. -1.
         11    1    3    3    0    0  0.18790508810E+02  0.22110607801E+02 -0.25159988019E+00  0.29017675673E+02  0.51100000000E-03 0.  1.
        -11    1    3    3    0    0 -0.48772285724E+01 -0.52970982905E+01  0.21419838646E+02  0.22597701139E+02  0.51100000000E-03 0. -1.
         12    1    3    3    0    0 -0.23929547487E+01  0.66827170939E+01 -0.29492756071E+01  0.76865575386E+01  0.00000000000E+00 0. -1.
</event>
<event>
 7    1  0.7821043E-012  0.5930193E+02  0.7816164E-02  0.1266605E+00
        -11   -1    0    0    0    0  0.00000000000E+00  0.00000000000E+00  0.45593999997E+02  0.45594000000E+02  0.51100000000E-03 0. -1.
         11   -1    0    0    0    0 -0.00000000000E+00 -0.00000000000E+00 -0.45593999997E+02  0.45594000000E+02  0.51100000000E-03 0.  1.
    9900012    2    1    2    0    0 -0.24627270045E+02  0.11552994260E+02  0.16635721077E+02  0.59301932165E+02  0.49999978365E+02 0.  0.
         12    1    1    2    0    0  0.24627270045E+02 -0.11552994260E+02 -0.16635721077E+02  0.31886067835E+02  0.00000000000E+00 0. -1.
         11    1    3    3    0    0 -0.25528579963E+01  0.23368830875E+00 -0.15009530162E+02  0.15226873944E+02  0.51100000000E-03 0. -1.
        -11    1    3    3    0    0 -0.20270021911E+02  0.15768526472E+02  0.28346957379E+02  0.38250100762E+02  0.51100000000E-03 0.  1.
        -12    1    3    3    0    0 -0.18043901381E+01 -0.44492205206E+01  0.32982938594E+01  0.58249574586E+01  0.00000000000E+00 0.  1.
</event>
<event>
 7    1  0.7821043E-012  0.5930193E+02  0.7816164E-02  0.1266605E+00
        -11   -1    0    0    0    0  0.00000000000E+00  0.00000000000E+00  0.45593999997E+02  0.45594000000E+02  0.51100000000E-03 0. -1.
         11   -1    0    0    0    0 -0.00000000000E+00 -0.00000000000E+00 -0.45593999997E+02  0.45594000000E+02  0.51100000000E-03 0.  1.
    9900012    2    1    2    0    0 -0.11350224591E+02 -0.48122830118E+01 -0.29406385247E+02  0.59301934715E+02  0.49999983016E+02 0.  0.
         12    1    1    2    0    0  0.11350224591E+02  0.48122830118E+01  0.29406385247E+02  0.31886065285E+02  0.00000000000E+00 0. -1.
         11    1    3    3    0    0  0.13986626078E+02 -0.50016703756E+01 -0.81609804880E+01  0.16948274790E+02  0.51100000000E-03 0. -1.
        -11    1    3    3    0    0 -0.14686269679E+02  0.12919818157E+02 -0.80608152287E+01  0.21156203835E+02  0.51100000000E-03 0.  1.
         12    1    3    3    0    0 -0.10650580989E+02 -0.12730430793E+02 -0.13184589530E+02  0.21197456090E+02  0.00000000000E+00 0. -1.
</event>
<event>
 7    1  0.7821043E-012  0.5930161E+02  0.7816164E-02  0.1266606E+00
        -11   -1    0    0    0    0  0.00000000000E+00  0.00000000000E+00  0.45593999997E+02  0.45594000000E+02  0.51100000000E-03 0. -1.
         11   -1    0    0    0    0 -0.00000000000E+00 -0.00000000000E+00 -0.45593999997E+02  0.45594000000E+02  0.51100000000E-03 0.  1.
    9900012    2    1    2    0    0 -0.14520131317E+02  0.23822661853E+02 -0.15439827656E+02  0.59301612477E+02  0.49999395327E+02 0.  0.
         12    1    1    2    0    0  0.14520131317E+02 -0.23822661853E+02  0.15439827656E+02  0.31886387523E+02  0.00000000000E+00 0. -1.
         11    1    3    3    0    0 -0.15543336342E+02  0.21316935990E+02  0.11916352981E+02  0.28948342496E+02  0.51100000000E-03 0. -1.
        -11    1    3    3    0    0  0.59557046221E+01  0.47224103172E+01 -0.18134711843E+02  0.19663147017E+02  0.51100000000E-03 0.  1.
         12    1    3    3    0    0 -0.49324995970E+01 -0.22166844537E+01 -0.92214687951E+01  0.10690122964E+02  0.00000000000E+00 0. -1.
</event>
<event>
 7    1  0.7821043E-012  0.5930195E+02  0.7816164E-02  0.1266605E+00
        -11   -1    0    0    0    0  0.00000000000E+00  0.00000000000E+00  0.45593999997E+02  0.45594000000E+02  0.51100000000E-03 0.  1.
         11   -1    0    0    0    0 -0.00000000000E+00 -0.00000000000E+00 -0.45593999997E+02  0.45594000000E+02  0.51100000000E-03 0. -1.
    9900012    2    1    2    0    0  0.10594132988E+02  0.12416090304E+02  0.27392068228E+02  0.59301947343E+02  0.50000006046E+02 0.  0.
         12    1    1    2    0    0 -0.10594132988E+02 -0.12416090304E+02 -0.27392068228E+02  0.31886052657E+02  0.00000000000E+00 0. -1.
         11    1    3    3    0    0 -0.12893378294E+02  0.12071092239E+02  0.31209799632E+01  0.17935746092E+02  0.51100000000E-03 0. -1.
        -11    1    3    3    0    0  0.58945854555E+01 -0.11058778221E+02  0.90244747222E+01  0.15442922577E+02  0.51100000000E-03 0.  1.
         12    1    3    3    0    0  0.17592925827E+02  0.11403776286E+02  0.15246613543E+02  0.25923278675E+02  0.00000000000E+00 0. -1.
</event>
<event>
 7    1  0.7821043E-012  0.5930192E+02  0.7816164E-02  0.1266605E+00
        -11   -1    0    0    0    0  0.00000000000E+00  0.00000000000E+00  0.45593999997E+02  0.45594000000E+02  0.51100000000E-03 0.  1.
         11   -1    0    0    0    0 -0.00000000000E+00 -0.00000000000E+00 -0.45593999997E+02  0.45594000000E+02  0.51100000000E-03 0. -1.
    9900012    2    1    2    0    0 -0.19308357018E+02 -0.25311539164E+02  0.17986846542E+01  0.59301922599E+02  0.49999960918E+02 0.  0.
         12    1    1    2    0    0  0.19308357018E+02  0.25311539164E+02 -0.17986846542E+01  0.31886077401E+02  0.00000000000E+00 0. -1.
         11    1    3    3    0    0 -0.25285802055E+02 -0.26640079811E+00 -0.84111324737E+01  0.26649388449E+02  0.51100000000E-03 0. -1.
        -11    1    3    3    0    0  0.14946553743E+01 -0.17677128388E+02  0.14599420180E+02  0.22975159033E+02  0.51100000000E-03 0.  1.
         12    1    3    3    0    0  0.44827896628E+01 -0.73680099781E+01 -0.43896030524E+01  0.96773751170E+01  0.00000000000E+00 0. -1.
</event>
<event>
 7    1  0.7821043E-012  0.5930194E+02  0.7816164E-02  0.1266605E+00
        -11   -1    0    0    0    0  0.00000000000E+00  0.00000000000E+00  0.45593999997E+02  0.45594000000E+02  0.51100000000E-03 0. -1.
         11   -1    0    0    0    0 -0.00000000000E+00 -0.00000000000E+00 -0.45593999997E+02  0.45594000000E+02  0.51100000000E-03 0.  1.
    9900012    2    1    2    0    0 -0.26011631361E+02  0.80582731121E+01 -0.16588553129E+02  0.59301939934E+02  0.49999992535E+02 0.  0.
         12    1    1    2    0    0  0.26011631361E+02 -0.80582731121E+01  0.16588553129E+02  0.31886060066E+02  0.00000000000E+00 0. -1.
         11    1    3    3    0    0 -0.21582378729E+01 -0.47377532432E+01 -0.10578719643E+02  0.11790403134E+02  0.51100000000E-03 0. -1.
        -11    1    3    3    0    0 -0.15015176515E+01  0.13253013220E+02  0.12656345802E+02  0.18386952004E+02  0.51100000000E-03 0.  1.
        -12    1    3    3    0    0 -0.22351875837E+02 -0.45698686483E+00 -0.18666179287E+02  0.29124584797E+02  0.00000000000E+00 0.  1.
</event>
<event>
 7    1  0.7821043E-012  0.5930198E+02  0.7816164E-02  0.1266605E+00
        -11   -1    0    0    0    0  0.00000000000E+00  0.00000000000E+00  0.45593999997E+02  0.45594000000E+02  0.51100000000E-03 0.  1.
         11   -1    0    0    0    0 -0.00000000000E+00 -0.00000000000E+00 -0.45593999997E+02  0.45594000000E+02  0.51100000000E-03 0. -1.
    9900012    2    1    2    0    0 -0.77348164940E+01  0.27713834215E+02  0.13741705495E+02  0.59301976997E+02  0.50000060127E+02 0.  0.
         12    1    1    2    0    0  0.77348164940E+01 -0.27713834215E+02 -0.13741705495E+02  0.31886023003E+02  0.00000000000E+00 0. -1.
         11    1    3    3    0    0 -0.20448141270E+02 -0.12049276777E+01  0.14254595126E+02  0.24955396502E+02  0.51100000000E-03 0. -1.
        -11    1    3    3    0    0  0.12230465667E+02  0.11097283842E+02 -0.21137165254E+00  0.16516012755E+02  0.51100000000E-03 0.  1.
         12    1    3    3    0    0  0.48285910933E+00  0.17821478050E+02 -0.30151797923E+00  0.17830567739E+02  0.00000000000E+00 0. -1.
</event>
<event>
 7    1  0.7821043E-012  0.5930194E+02  0.7816164E-02  0.1266605E+00
        -11   -1    0    0    0    0  0.00000000000E+00  0.00000000000E+00  0.45593999997E+02  0.45594000000E+02  0.51100000000E-03 0.  1.
         11   -1    0    0    0    0 -0.00000000000E+00 -0.00000000000E+00 -0.45593999997E+02  0.45594000000E+02  0.51100000000E-03 0. -1.
    9900012    2    1    2    0    0  0.25680892000E+01 -0.15829672248E+02  0.27559885303E+02  0.59301939040E+02  0.49999990904E+02 0.  0.
         12    1    1    2    0    0 -0.25680892000E+01  0.15829672248E+02 -0.27559885303E+02  0.31886060960E+02  0.00000000000E+00 0. -1.
         11    1    3    3    0    0 -0.20078753088E+02 -0.13690476119E+02  0.14192815852E+02  0.28142876257E+02  0.51100000000E-03 0. -1.
        -11    1    3    3    0    0  0.63597480541E+01 -0.66068853433E+01  0.10648293655E+02  0.14052881814E+02  0.51100000000E-03 0.  1.
         12    1    3    3    0    0  0.16287094234E+02  0.44676892147E+01  0.27187757966E+01  0.17106180969E+02  0.00000000000E+00 0. -1.
</event>
<event>
 7    1  0.7821043E-012  0.5930192E+02  0.7816164E-02  0.1266605E+00
        -11   -1    0    0    0    0  0.00000000000E+00  0.00000000000E+00  0.45593999997E+02  0.45594000000E+02  0.51100000000E-03 0. -1.
         11   -1    0    0    0    0 -0.00000000000E+00 -0.00000000000E+00 -0.45593999997E+02  0.45594000000E+02  0.51100000000E-03 0.  1.
    9900012    2    1    2    0    0  0.76286399980E+01  0.22223010289E+02 -0.21556058096E+02  0.59301921923E+02  0.49999959686E+02 0.  0.
         12    1    1    2    0    0 -0.76286399980E+01 -0.22223010289E+02  0.21556058096E+02  0.31886078077E+02  0.00000000000E+00 0. -1.
         11    1    3    3    0    0 -0.23828276858E+01 -0.59239800204E+01  0.90306678646E+01  0.11060034783E+02  0.51100000000E-03 0. -1.
        -11    1    3    3    0    0  0.16895077780E+02  0.20267112092E+02 -0.25145437179E+02  0.36448491010E+02  0.51100000000E-03 0.  1.
        -12    1    3    3    0    0 -0.68836100959E+01  0.78798782172E+01 -0.54412887816E+01  0.11793396130E+02  0.00000000000E+00 0.  1.
</event>
<event>
 7    1  0.7821043E-012  0.5930213E+02  0.7816164E-02  0.1266604E+00
        -11   -1    0    0    0    0  0.00000000000E+00  0.00000000000E+00  0.45593999997E+02  0.45594000000E+02  0.51100000000E-03 0.  1.
         11   -1    0    0    0    0 -0.00000000000E+00 -0.00000000000E+00 -0.45593999997E+02  0.45594000000E+02  0.51100000000E-03 0. -1.
    9900012    2    1    2    0    0  0.12535883489E+02 -0.14788236582E+02  0.25315373362E+02  0.59302134095E+02  0.50000346636E+02 0.  0.
         12    1    1    2    0    0 -0.12535883489E+02  0.14788236582E+02 -0.25315373362E+02  0.31885865905E+02  0.00000000000E+00 0. -1.
         11    1    3    3    0    0 -0.34816871316E+01  0.16508263540E+01 -0.20833190442E+01  0.43803643039E+01  0.51100000000E-03 0. -1.
        -11    1    3    3    0    0  0.16108638962E+02  0.10131784822E+02  0.19394273576E+02  0.27171292952E+02  0.51100000000E-03 0.  1.
        -12    1    3    3    0    0 -0.91068341947E-01 -0.26570847758E+02  0.80044188302E+01  0.27750476839E+02  0.00000000000E+00 0.  1.
</event>
<event>
 7    1  0.7821043E-012  0.5930191E+02  0.7816164E-02  0.1266605E+00
        -11   -1    0    0    0    0  0.00000000000E+00  0.00000000000E+00  0.45593999997E+02  0.45594000000E+02  0.51100000000E-03 0.  1.
         11   -1    0    0    0    0 -0.00000000000E+00 -0.00000000000E+00 -0.45593999997E+02  0.45594000000E+02  0.51100000000E-03 0. -1.
    9900012    2    1    2    0    0  0.12310264292E+02  0.21578461090E+02  0.19988753170E+02  0.59301908310E+02  0.49999934859E+02 0.  0.
         12    1    1    2    0    0 -0.12310264292E+02 -0.21578461090E+02 -0.19988753170E+02  0.31886091690E+02  0.00000000000E+00 0. -1.
         11    1    3    3    0    0 -0.20382490761E+01 -0.83954800263E+01  0.14863677354E+02  0.17192075178E+02  0.51100000000E-03 0. -1.
        -11    1    3    3    0    0  0.12689642124E+02  0.19873237617E+02  0.14952072968E+02  0.27920191205E+02  0.51100000000E-03 0.  1.
         12    1    3    3    0    0  0.16588712442E+01  0.10100703499E+02 -0.98269971522E+01  0.14189641927E+02  0.00000000000E+00 0. -1.
</event>
<event>
 7    1  0.7821043E-012  0.5930193E+02  0.7816164E-02  0.1266605E+00
        -11   -1    0    0    0    0  0.00000000000E+00  0.00000000000E+00  0.45593999997E+02  0.45594000000E+02  0.51100000000E-03 0.  1.
         11   -1    0    0    0    0 -0.00000000000E+00 -0.00000000000E+00 -0.45593999997E+02  0.45594000000E+02  0.51100000000E-03 0. -1.
    9900012    2    1    2    0    0 -0.26301377604E+02 -0.17613966790E+02  0.38349582312E+01  0.59301934163E+02  0.49999982009E+02 0.  0.
         12    1    1    2    0    0  0.26301377604E+02  0.17613966790E+02 -0.38349582312E+01  0.31886065837E+02  0.00000000000E+00 0. -1.
         11    1    3    3    0    0  0.28622336061E+01 -0.72793095531E+01 -0.60492939062E+01  0.98881083029E+01  0.51100000000E-03 0. -1.
        -11    1    3    3    0    0 -0.68605724794E+01  0.11771675627E+02  0.11699695673E+02  0.17958916474E+02  0.51100000000E-03 0.  1.
        -12    1    3    3    0    0 -0.22303038730E+02 -0.22106332864E+02 -0.18154435354E+01  0.31454909387E+02  0.00000000000E+00 0.  1.
</event>
<event>
 7    1  0.7821043E-012  0.5930194E+02  0.7816164E-02  0.1266605E+00
        -11   -1    0    0    0    0  0.00000000000E+00  0.00000000000E+00  0.45593999997E+02  0.45594000000E+02  0.51100000000E-03 0. -1.
         11   -1    0    0    0    0 -0.00000000000E+00 -0.00000000000E+00 -0.45593999997E+02  0.45594000000E+02  0.51100000000E-03 0.  1.
    9900012    2    1    2    0    0 -0.12314551266E+02 -0.45810015957E+00 -0.29408552114E+02  0.59301937746E+02  0.49999988543E+02 0.  0.
         12    1    1    2    0    0  0.12314551266E+02  0.45810015957E+00  0.29408552114E+02  0.31886062254E+02  0.00000000000E+00 0. -1.
         11    1    3    3    0    0  0.16440548229E+02  0.91099700821E+00 -0.12082162713E+02  0.20423031061E+02  0.51100000000E-03 0.  1.
        -11    1    3    3    0    0 -0.31592777611E+02 -0.23860462548E+01 -0.14911167247E+02  0.35016277970E+02  0.51100000000E-03 0. -1.
         12    1    3    3    0    0  0.28376781161E+01  0.10169490870E+01 -0.24152221536E+01  0.38626287146E+01  0.00000000000E+00 0. -1.
</event>
<event>
 7    1  0.7821043E-012  0.5930193E+02  0.7816164E-02  0.1266605E+00
        -11   -1    0    0    0    0  0.00000000000E+00  0.00000000000E+00  0.45593999997E+02  0.45594000000E+02  0.51100000000E-03 0.  1.
         11   -1    0    0    0    0 -0.00000000000E+00 -0.00000000000E+00 -0.45593999997E+02  0.45594000000E+02  0.51100000000E-03 0. -1.
    9900012    2    1    2    0    0 -0.33975746667E+01  0.28641977660E+02  0.13594675470E+02  0.59301927820E+02  0.49999970442E+02 0.  0.
         12    1    1    2    0    0  0.33975746667E+01 -0.28641977660E+02 -0.13594675470E+02  0.31886072180E+02  0.00000000000E+00 0. -1.
         11    1    3    3    0    0  0.79424469156E+01  0.16866808662E+02 -0.82186509089E+01  0.20374442826E+02  0.51100000000E-03 0. -1.
        -11    1    3    3    0    0 -0.15135544408E+02  0.75801510292E+01  0.26591618944E+02  0.31522334819E+02  0.51100000000E-03 0.  1.
        -12    1    3    3    0    0  0.37955228257E+01  0.41950179695E+01 -0.47782925646E+01  0.74051501752E+01  0.00000000000E+00 0.  1.
</event>
<event>
 7    1  0.7821043E-012  0.5930192E+02  0.7816164E-02  0.1266605E+00
        -11   -1    0    0    0    0  0.00000000000E+00  0.00000000000E+00  0.45593999997E+02  0.45594000000E+02  0.51100000000E-03 0.  1.
         11   -1    0    0    0    0 -0.00000000000E+00 -0.00000000000E+00 -0.45593999997E+02  0.45594000000E+02  0.51100000000E-03 0. -1.
    9900012    2    1    2    0    0 -0.18601893341E+02  0.25893005858E+02 -0.49415419716E+00  0.59301915628E+02  0.49999948205E+02 0.  0.
         12    1    1    2    0    0  0.18601893341E+02 -0.25893005858E+02  0.49415419716E+00  0.31886084372E+02  0.00000000000E+00 0. -1.
         11    1    3    3    0    0 -0.66833960794E+01 -0.73681903692E+01 -0.63609443807E+01  0.11807608824E+02  0.51100000000E-03 0. -1.
        -11    1    3    3    0    0 -0.19370290486E+02  0.33876966648E+02  0.77447267096E+01  0.39784894305E+02  0.51100000000E-03 0.  1.
        -12    1    3    3    0    0  0.74517932243E+01 -0.61577042149E+00 -0.18779365261E+01  0.77094124981E+01  0.00000000000E+00 0.  1.
</event>
<event>
 7    1  0.7821043E-012  0.5930192E+02  0.7816164E-02  0.1266605E+00
        -11   -1    0    0    0    0  0.00000000000E+00  0.00000000000E+00  0.45593999997E+02  0.45594000000E+02  0.51100000000E-03 0.  1.
         11   -1    0    0    0    0 -0.00000000000E+00 -0.00000000000E+00 -0.45593999997E+02  0.45594000000E+02  0.51100000000E-03 0. -1.
    9900012    2    1    2    0    0  0.33491547312E+01 -0.12352731708E+02  0.29204712864E+02  0.59301920412E+02  0.49999956930E+02 0.  0.
         12    1    1    2    0    0 -0.33491547312E+01  0.12352731708E+02 -0.29204712864E+02  0.31886079588E+02  0.00000000000E+00 0. -1.
         11    1    3    3    0    0 -0.11931748481E+02 -0.26993380174E+02  0.15647999276E+02  0.33404626576E+02  0.51100000000E-03 0. -1.
        -11    1    3    3    0    0  0.70979971993E+01  0.28144953792E+01  0.38922713802E+01  0.85704565363E+01  0.51100000000E-03 0.  1.
         12    1    3    3    0    0  0.81829060132E+01  0.11826153087E+02  0.96644422068E+01  0.17326837300E+02  0.00000000000E+00 0. -1.
</event>
<event>
 7    1  0.7821043E-012  0.5930195E+02  0.7816164E-02  0.1266605E+00
        -11   -1    0    0    0    0  0.00000000000E+00  0.00000000000E+00  0.45593999997E+02  0.45594000000E+02  0.51100000000E-03 0.  1.
         11   -1    0    0    0    0 -0.00000000000E+00 -0.00000000000E+00 -0.45593999997E+02  0.45594000000E+02  0.51100000000E-03 0. -1.
    9900012    2    1    2    0    0 -0.23608525723E+02 -0.98632268723E+01  0.19028260109E+02  0.59301946404E+02  0.50000004334E+02 0.  0.
         12    1    1    2    0    0  0.23608525723E+02  0.98632268723E+01 -0.19028260109E+02  0.31886053596E+02  0.00000000000E+00 0. -1.
         11    1    3    3    0    0  0.21826795669E+01  0.31496873739E+01 -0.21839345379E+01  0.44106905323E+01  0.51100000000E-03 0. -1.
        -11    1    3    3    0    0 -0.37011052707E+02 -0.11770222647E+02  0.13089045153E+02  0.40983890334E+02  0.51100000000E-03 0.  1.
        -12    1    3    3    0    0  0.11219847417E+02 -0.12426915996E+01  0.81231494948E+01  0.13907365538E+02  0.00000000000E+00 0.  1.
</event>
<event>
 7    1  0.7821043E-012  0.5930194E+02  0.7816164E-02  0.1266605E+00
        -11   -1    0    0    0    0  0.00000000000E+00  0.00000000000E+00  0.45593999997E+02  0.45594000000E+02  0.51100000000E-03 0.  1.
         11   -1    0    0    0    0 -0.00000000000E+00 -0.00000000000E+00 -0.45593999997E+02  0.45594000000E+02  0.51100000000E-03 0. -1.
    9900012    2    1    2    0    0 -0.30985809525E+02 -0.70890014335E+00 -0.74898608370E+01  0.59301938050E+02  0.49999989097E+02 0.  0.
         12    1    1    2    0    0  0.30985809525E+02  0.70890014335E+00  0.74898608370E+01  0.31886061950E+02  0.00000000000E+00 0. -1.
         11    1    3    3    0    0 -0.82064136315E+01  0.17801695237E+02 -0.37664915924E+01  0.19960762440E+02  0.51100000000E-03 0.  1.
        -11    1    3    3    0    0 -0.21860094847E+02 -0.15975594672E+02  0.72597318107E+01  0.28031893944E+02  0.51100000000E-03 0. -1.
         12    1    3    3    0    0 -0.91930104626E+00 -0.25350007081E+01 -0.10983101055E+02  0.11309281666E+02  0.00000000000E+00 0. -1.
</event>
<event>
 7    1  0.7821043E-012  0.5930182E+02  0.7816164E-02  0.1266605E+00
        -11   -1    0    0    0    0  0.00000000000E+00  0.00000000000E+00  0.45593999997E+02  0.45594000000E+02  0.51100000000E-03 0.  1.
         11   -1    0    0    0    0 -0.00000000000E+00 -0.00000000000E+00 -0.45593999997E+02  0.45594000000E+02  0.51100000000E-03 0. -1.
    9900012    2    1    2    0    0  0.30760561610E+02 -0.11290361356E+01 -0.83211528750E+01  0.59301820262E+02  0.49999774280E+02 0.  0.
         12    1    1    2    0    0 -0.30760561610E+02  0.11290361356E+01  0.83211528750E+01  0.31886179738E+02  0.00000000000E+00 0. -1.
         11    1    3    3    0    0  0.92295572547E+01 -0.19847853221E+02 -0.40790458024E+01  0.22265682552E+02  0.51100000000E-03 0. -1.
        -11    1    3    3    0    0  0.25103036648E+02  0.20443523625E+02 -0.55763939479E+01  0.32851122917E+02  0.51100000000E-03 0.  1.
         12    1    3    3    0    0 -0.35720322929E+01 -0.17247065402E+01  0.13342868753E+01  0.41850147929E+01  0.00000000000E+00 0. -1.
</event>
<event>
 7    1  0.7821043E-012  0.5930194E+02  0.7816164E-02  0.1266605E+00
        -11   -1    0    0    0    0  0.00000000000E+00  0.00000000000E+00  0.45593999997E+02  0.45594000000E+02  0.51100000000E-03 0.  1.
         11   -1    0    0    0    0 -0.00000000000E+00 -0.00000000000E+00 -0.45593999997E+02  0.45594000000E+02  0.51100000000E-03 0. -1.
    9900012    2    1    2    0    0 -0.29109516071E+02 -0.12152252942E+02  0.46561355299E+01  0.59301940734E+02  0.49999993993E+02 0.  0.
         12    1    1    2    0    0  0.29109516071E+02  0.12152252942E+02 -0.46561355299E+01  0.31886059266E+02  0.00000000000E+00 0. -1.
         11    1    3    3    0    0 -0.15050669818E+02 -0.27361782278E+02 -0.11155740586E+02  0.33160825377E+02  0.51100000000E-03 0. -1.
        -11    1    3    3    0    0 -0.10908184375E+02  0.12916723030E+02  0.13214406074E+02  0.21458116141E+02  0.51100000000E-03 0.  1.
         12    1    3    3    0    0 -0.31506618782E+01  0.22928063068E+01  0.25974700421E+01  0.46829992154E+01  0.00000000000E+00 0. -1.
</event>
<event>
 7    1  0.7821043E-012  0.5930222E+02  0.7816164E-02  0.1266604E+00
        -11   -1    0    0    0    0  0.00000000000E+00  0.00000000000E+00  0.45593999997E+02  0.45594000000E+02  0.51100000000E-03 0. -1.
         11   -1    0    0    0    0 -0.00000000000E+00 -0.00000000000E+00 -0.45593999997E+02  0.45594000000E+02  0.51100000000E-03 0.  1.
    9900012    2    1    2    0    0  0.31575767073E+02 -0.17638265408E+01  0.40697817480E+01  0.59302215177E+02  0.50000494509E+02 0.  0.
         12    1    1    2    0    0 -0.31575767073E+02  0.17638265408E+01 -0.40697817480E+01  0.31885784823E+02  0.00000000000E+00 0. -1.
         11    1    3    3    0    0  0.53666278297E+01  0.11240823803E+01  0.27016151489E+01  0.61125264936E+01  0.51100000000E-03 0. -1.
        -11    1    3    3    0    0  0.10871661033E+02 -0.21839160998E+02  0.11273266281E+02  0.26874309286E+02  0.51100000000E-03 0.  1.
        -12    1    3    3    0    0  0.15337478210E+02  0.18951252077E+02 -0.99050996822E+01  0.26315379397E+02  0.00000000000E+00 0.  1.
</event>
<event>
 7    1  0.7821043E-012  0.5930191E+02  0.7816164E-02  0.1266605E+00
        -11   -1    0    0    0    0  0.00000000000E+00  0.00000000000E+00  0.45593999997E+02  0.45594000000E+02  0.51100000000E-03 0.  1.
         11   -1    0    0    0    0 -0.00000000000E+00 -0.00000000000E+00 -0.45593999997E+02  0.45594000000E+02  0.51100000000E-03 0. -1.
    9900012    2    1    2    0    0 -0.32731859856E+01 -0.20451559473E+02  0.24243410231E+02  0.59301906307E+02  0.49999931206E+02 0.  0.
         12    1    1    2    0    0  0.32731859856E+01  0.20451559473E+02 -0.24243410231E+02  0.31886093693E+02  0.00000000000E+00 0. -1.
         11    1    3    3    0    0  0.69381432567E+01 -0.16759472922E+02 -0.14385082748E+01  0.18195798163E+02  0.51100000000E-03 0. -1.
        -11    1    3    3    0    0 -0.18146343703E+02  0.38799182064E+01  0.78015822083E+01  0.20129784904E+02  0.51100000000E-03 0.  1.
        -12    1    3    3    0    0  0.79350144608E+01 -0.75720047572E+01  0.17880336298E+02  0.20976323240E+02  0.00000000000E+00 0.  1.
</event>
<event>
 7    1  0.7821043E-012  0.5930194E+02  0.7816164E-02  0.1266605E+00
        -11   -1    0    0    0    0  0.00000000000E+00  0.00000000000E+00  0.45593999997E+02  0.45594000000E+02  0.51100000000E-03 0. -1.
         11   -1    0    0    0    0 -0.00000000000E+00 -0.00000000000E+00 -0.45593999997E+02  0.45594000000E+02  0.51100000000E-03 0.  1.
    9900012    2    1    2    0    0 -0.16964434809E+02  0.12702031193E+02 -0.23824089762E+02  0.59301938816E+02  0.49999990495E+02 0.  0.
         12    1    1    2    0    0  0.16964434809E+02 -0.12702031193E+02  0.23824089762E+02  0.31886061184E+02  0.00000000000E+00 0. -1.
         11    1    3    3    0    0 -0.37312780924E+01 -0.10348289008E+02  0.11509879624E+01  0.11060483495E+02  0.51100000000E-03 0. -1.
        -11    1    3    3    0    0 -0.20955719050E+02  0.16668390142E+02 -0.70213489384E+01  0.27681703922E+02  0.51100000000E-03 0.  1.
         12    1    3    3    0    0  0.77225623334E+01  0.63819300594E+01 -0.17953728786E+02  0.20559751399E+02  0.00000000000E+00 0. -1.
</event>
<event>
 7    1  0.7821043E-012  0.5930194E+02  0.7816164E-02  0.1266605E+00
        -11   -1    0    0    0    0  0.00000000000E+00  0.00000000000E+00  0.45593999997E+02  0.45594000000E+02  0.51100000000E-03 0. -1.
         11   -1    0    0    0    0 -0.00000000000E+00 -0.00000000000E+00 -0.45593999997E+02  0.45594000000E+02  0.51100000000E-03 0.  1.
    9900012    2    1    2    0    0 -0.28818359210E+02 -0.10089801873E+02 -0.91879720101E+01  0.59301940992E+02  0.49999994464E+02 0.  0.
         12    1    1    2    0    0  0.28818359210E+02  0.10089801873E+02  0.91879720101E+01  0.31886059008E+02  0.00000000000E+00 0. -1.
         11    1    3    3    0    0 -0.29236372575E+02  0.12560612639E+02 -0.85236156931E+01  0.32942168963E+02  0.51100000000E-03 0. -1.
        -11    1    3    3    0    0  0.58739967423E+01 -0.45887180831E+01 -0.75289739743E+00  0.74917972561E+01  0.51100000000E-03 0.  1.
         12    1    3    3    0    0 -0.54559833773E+01 -0.18061696430E+02  0.88541080422E-01  0.18867974773E+02  0.00000000000E+00 0. -1.
</event>
<event>
 7    1  0.7821043E-012  0.5930196E+02  0.7816164E-02  0.1266605E+00
        -11   -1    0    0    0    0  0.00000000000E+00  0.00000000000E+00  0.45593999997E+02  0.45594000000E+02  0.51100000000E-03 0. -1.
         11   -1    0    0    0    0 -0.00000000000E+00 -0.00000000000E+00 -0.45593999997E+02  0.45594000000E+02  0.51100000000E-03 0.  1.
    9900012    2    1    2    0    0 -0.16287912973E+02 -0.93008449286E+01 -0.25786001908E+02  0.59301957288E+02  0.50000024184E+02 0.  0.
         12    1    1    2    0    0  0.16287912973E+02  0.93008449286E+01  0.25786001908E+02  0.31886042712E+02  0.00000000000E+00 0. -1.
         11    1    3    3    0    0  0.72888443221E+01 -0.11275415285E+02  0.76969476009E+01  0.15475956967E+02  0.51100000000E-03 0. -1.
        -11    1    3    3    0    0 -0.11306255077E+02  0.82808427889E+01 -0.12903485984E+02  0.19050031810E+02  0.51100000000E-03 0.  1.
         12    1    3    3    0    0 -0.12270502218E+02 -0.63062724321E+01 -0.20579463525E+02  0.24775968511E+02  0.00000000000E+00 0. -1.
</event>
<event>
 7    1  0.7821043E-012  0.5930194E+02  0.7816164E-02  0.1266605E+00
        -11   -1    0    0    0    0  0.00000000000E+00  0.00000000000E+00  0.45593999997E+02  0.45594000000E+02  0.51100000000E-03 0.  1.
         11   -1    0    0    0    0 -0.00000000000E+00 -0.00000000000E+00 -0.45593999997E+02  0.45594000000E+02  0.51100000000E-03 0. -1.
    9900012    2    1    2    0    0 -0.17491169537E+00  0.88515763014E+00  0.31873289816E+02  0.59301941889E+02  0.49999996100E+02 0.  0.
         12    1    1    2    0    0  0.17491169537E+00 -0.88515763014E+00 -0.31873289816E+02  0.31886058111E+02  0.00000000000E+00 0. -1.
         11    1    3    3    0    0  0.18424354181E+02 -0.20352043903E+01  0.40069198103E+01  0.18964553528E+02  0.51100000000E-03 0. -1.
        -11    1    3    3    0    0 -0.11123063311E+02  0.10754089437E+02  0.73284147657E+01  0.17119539722E+02  0.51100000000E-03 0.  1.
         12    1    3    3    0    0 -0.74762025645E+01 -0.78337274163E+01  0.20537955240E+02  0.23217848640E+02  0.00000000000E+00 0. -1.
</event>
<event>
 7    1  0.7821043E-012  0.5930175E+02  0.7816164E-02  0.1266605E+00
        -11   -1    0    0    0    0  0.00000000000E+00  0.00000000000E+00  0.45593999997E+02  0.45594000000E+02  0.51100000000E-03 0. -1.
         11   -1    0    0    0    0 -0.00000000000E+00 -0.00000000000E+00 -0.45593999997E+02  0.45594000000E+02  0.51100000000E-03 0.  1.
    9900012    2    1    2    0    0 -0.26602811958E+02 -0.17577295711E+02  0.24885715177E+00  0.59301751264E+02  0.49999648444E+02 0.  0.
         12    1    1    2    0    0  0.26602811958E+02  0.17577295711E+02 -0.24885715177E+00  0.31886248736E+02  0.00000000000E+00 0. -1.
         11    1    3    3    0    0 -0.11806323580E+02  0.66396404676E+01 -0.18356542860E+02  0.22813083264E+02  0.51100000000E-03 0. -1.
        -11    1    3    3    0    0 -0.19518564891E+01 -0.80566787473E+01 -0.57571658014E+00  0.83097091425E+01  0.51100000000E-03 0.  1.
         12    1    3    3    0    0 -0.12844631889E+02 -0.16160257431E+02  0.19181116591E+02  0.28178958858E+02  0.00000000000E+00 0. -1.
</event>
<event>
 7    1  0.7821043E-012  0.5930197E+02  0.7816164E-02  0.1266605E+00
        -11   -1    0    0    0    0  0.00000000000E+00  0.00000000000E+00  0.45593999997E+02  0.45594000000E+02  0.51100000000E-03 0. -1.
         11   -1    0    0    0    0 -0.00000000000E+00 -0.00000000000E+00 -0.45593999997E+02  0.45594000000E+02  0.51100000000E-03 0.  1.
    9900012    2    1    2    0    0  0.18288783126E+02  0.23475126547E+02 -0.11452412380E+02  0.59301970082E+02  0.50000047516E+02 0.  0.
         12    1    1    2    0    0 -0.18288783126E+02 -0.23475126547E+02  0.11452412380E+02  0.31886029918E+02  0.00000000000E+00 0. -1.
         11    1    3    3    0    0  0.95163669822E+01 -0.92206807256E+01 -0.18985507326E+02  0.23152358029E+02  0.51100000000E-03 0. -1.
        -11    1    3    3    0    0  0.74594392351E+01  0.23287827553E+02  0.72753533368E+00  0.24464166729E+02  0.51100000000E-03 0.  1.
         12    1    3    3    0    0  0.13129769084E+01  0.94079797199E+01  0.68055596130E+01  0.11685445324E+02  0.00000000000E+00 0. -1.
</event>
<event>
 7    1  0.7821043E-012  0.5930192E+02  0.7816164E-02  0.1266605E+00
        -11   -1    0    0    0    0  0.00000000000E+00  0.00000000000E+00  0.45593999997E+02  0.45594000000E+02  0.51100000000E-03 0. -1.
         11   -1    0    0    0    0 -0.00000000000E+00 -0.00000000000E+00 -0.45593999997E+02  0.45594000000E+02  0.51100000000E-03 0.  1.
    9900012    2    1    2    0    0 -0.25463831731E+02 -0.17425059914E+02 -0.80425647235E+01  0.59301917037E+02  0.49999950775E+02 0.  0.
         12    1    1    2    0    0  0.25463831731E+02  0.17425059914E+02  0.80425647235E+01  0.31886082963E+02  0.00000000000E+00 0. -1.
         11    1    3    3    0    0 -0.24211602511E+02 -0.30449721627E+00  0.20514664047E+01  0.24300266036E+02  0.51100000000E-03 0. -1.
        -11    1    3    3    0    0  0.12113935911E+02 -0.42593436045E+00 -0.33071522292E+01  0.12564478479E+02  0.51100000000E-03 0.  1.
        -12    1    3    3    0    0 -0.13366165130E+02 -0.16694628337E+02 -0.67868788991E+01  0.22437172522E+02  0.00000000000E+00 0.  1.
</event>
<event>
 7    1  0.7821043E-012  0.5930192E+02  0.7816164E-02  0.1266605E+00
        -11   -1    0    0    0    0  0.00000000000E+00  0.00000000000E+00  0.45593999997E+02  0.45594000000E+02  0.51100000000E-03 0.  1.
         11   -1    0    0    0    0 -0.00000000000E+00 -0.00000000000E+00 -0.45593999997E+02  0.45594000000E+02  0.51100000000E-03 0. -1.
    9900012    2    1    2    0    0  0.26280743822E+02 -0.10442404409E+02  0.14730936731E+02  0.59301924628E+02  0.49999964619E+02 0.  0.
         12    1    1    2    0    0 -0.26280743822E+02  0.10442404409E+02 -0.14730936731E+02  0.31886075372E+02  0.00000000000E+00 0. -1.
         11    1    3    3    0    0 -0.26918382409E+01  0.65515505912E+00 -0.13091276875E+02  0.13381208905E+02  0.51100000000E-03 0. -1.
        -11    1    3    3    0    0  0.28272065186E+02 -0.15050467817E+02  0.22030656719E+02  0.38873848371E+02  0.51100000000E-03 0.  1.
         12    1    3    3    0    0  0.70051687637E+00  0.39529083493E+01  0.57915568869E+01  0.70468673527E+01  0.00000000000E+00 0. -1.
</event>
<event>
 7    1  0.7821043E-012  0.5930200E+02  0.7816164E-02  0.1266605E+00
        -11   -1    0    0    0    0  0.00000000000E+00  0.00000000000E+00  0.45593999997E+02  0.45594000000E+02  0.51100000000E-03 0.  1.
         11   -1    0    0    0    0 -0.00000000000E+00 -0.00000000000E+00 -0.45593999997E+02  0.45594000000E+02  0.51100000000E-03 0. -1.
    9900012    2    1    2    0    0 -0.15257314665E+02  0.34381133131E+01  0.27786881451E+02  0.59301999080E+02  0.50000100401E+02 0.  0.
         12    1    1    2    0    0  0.15257314665E+02 -0.34381133131E+01 -0.27786881451E+02  0.31886000920E+02  0.00000000000E+00 0. -1.
         11    1    3    3    0    0  0.37033022779E+01 -0.15775891522E+02  0.77880030855E+01  0.17979048734E+02  0.51100000000E-03 0. -1.
        -11    1    3    3    0    0 -0.81380862244E+01  0.23109182289E+02  0.15382691119E+02  0.28929050102E+02  0.51100000000E-03 0.  1.
        -12    1    3    3    0    0 -0.10822530719E+02 -0.38951774542E+01  0.46161872461E+01  0.12393900243E+02  0.00000000000E+00 0.  1.
</event>
<event>
 7    1  0.7821043E-012  0.5930191E+02  0.7816164E-02  0.1266605E+00
        -11   -1    0    0    0    0  0.00000000000E+00  0.00000000000E+00  0.45593999997E+02  0.45594000000E+02  0.51100000000E-03 0.  1.
         11   -1    0    0    0    0 -0.00000000000E+00 -0.00000000000E+00 -0.45593999997E+02  0.45594000000E+02  0.51100000000E-03 0. -1.
    9900012    2    1    2    0    0  0.30168746412E+02  0.83203371108E+01  0.61107864875E+01  0.59301906147E+02  0.49999930915E+02 0.  0.
         12    1    1    2    0    0 -0.30168746412E+02 -0.83203371108E+01 -0.61107864875E+01  0.31886093853E+02  0.00000000000E+00 0. -1.
         11    1    3    3    0    0  0.12921977526E+01  0.22726341312E+02  0.16473235020E+01  0.22822577406E+02  0.51100000000E-03 0.  1.
        -11    1    3    3    0    0  0.22256015671E+02 -0.18040346640E+02  0.33282217865E+01  0.28842007576E+02  0.51100000000E-03 0. -1.
        -12    1    3    3    0    0  0.66205329878E+01  0.36343424391E+01  0.11352411990E+01  0.76373211657E+01  0.00000000000E+00 0.  1.
</event>
<event>
 7    1  0.7821043E-012  0.5930195E+02  0.7816164E-02  0.1266605E+00
        -11   -1    0    0    0    0  0.00000000000E+00  0.00000000000E+00  0.45593999997E+02  0.45594000000E+02  0.51100000000E-03 0.  1.
         11   -1    0    0    0    0 -0.00000000000E+00 -0.00000000000E+00 -0.45593999997E+02  0.45594000000E+02  0.51100000000E-03 0. -1.
    9900012    2    1    2    0    0  0.27419226591E+02 -0.43415278338E+01  0.15686222677E+02  0.59301946110E+02  0.50000003798E+02 0.  0.
         12    1    1    2    0    0 -0.27419226591E+02  0.43415278338E+01 -0.15686222677E+02  0.31886053890E+02  0.00000000000E+00 0. -1.
         11    1    3    3    0    0  0.20912831870E+02 -0.23656226966E+02  0.93300388983E+01  0.32924356291E+02  0.51100000000E-03 0. -1.
        -11    1    3    3    0    0  0.59799064609E+01  0.45916724384E+01  0.86423981596E+01  0.11468817867E+02  0.51100000000E-03 0.  1.
         12    1    3    3    0    0  0.52648826097E+00  0.14723026694E+02 -0.22862143809E+01  0.14908771952E+02  0.00000000000E+00 0. -1.
</event>
<event>
 7    1  0.7821043E-012  0.5930195E+02  0.7816164E-02  0.1266605E+00
        -11   -1    0    0    0    0  0.00000000000E+00  0.00000000000E+00  0.45593999997E+02  0.45594000000E+02  0.51100000000E-03 0. -1.
         11   -1    0    0    0    0 -0.00000000000E+00 -0.00000000000E+00 -0.45593999997E+02  0.45594000000E+02  0.51100000000E-03 0.  1.
    9900012    2    1    2    0    0  0.12950295486E+01 -0.28245914361E+02 -0.14738088819E+02  0.59301952241E+02  0.50000014979E+02 0.  0.
         12    1    1    2    0    0 -0.12950295486E+01  0.28245914361E+02  0.14738088819E+02  0.31886047759E+02  0.00000000000E+00 0. -1.
         11    1    3    3    0    0  0.11104466403E+02 -0.12517038450E+01 -0.23783652612E+01  0.11425084603E+02  0.51100000000E-03 0. -1.
        -11    1    3    3    0    0 -0.92237777914E+01 -0.90116505710E+01 -0.23435453672E+02  0.26748988987E+02  0.51100000000E-03 0.  1.
        -12    1    3    3    0    0 -0.58565906269E+00 -0.17982559945E+02  0.11075730114E+02  0.21127878651E+02  0.00000000000E+00 0.  1.
</event>
<event>
 7    1  0.7821043E-012  0.5930194E+02  0.7816164E-02  0.1266605E+00
        -11   -1    0    0    0    0  0.00000000000E+00  0.00000000000E+00  0.45593999997E+02  0.45594000000E+02  0.51100000000E-03 0.  1.
         11   -1    0    0    0    0 -0.00000000000E+00 -0.00000000000E+00 -0.45593999997E+02  0.45594000000E+02  0.51100000000E-03 0. -1.
    9900012    2    1    2    0    0 -0.14011644987E+02 -0.22483887731E+02  0.17744555616E+02  0.59301942597E+02  0.49999997390E+02 0.  0.
         12    1    1    2    0    0  0.14011644987E+02  0.22483887731E+02 -0.17744555616E+02  0.31886057403E+02  0.00000000000E+00 0. -1.
         11    1    3    3    0    0 -0.11410682126E+02  0.64684638772E+01 -0.49383951898E+01  0.14015435734E+02  0.51100000000E-03 0. -1.
        -11    1    3    3    0    0  0.35193670047E+01 -0.22744682587E+01  0.16768112370E+02  0.17283771079E+02  0.51100000000E-03 0.  1.
         12    1    3    3    0    0 -0.61203298655E+01 -0.26677883349E+02  0.59148384350E+01  0.28002735784E+02  0.00000000000E+00 0. -1.
</event>
<event>
 7    1  0.7821043E-012  0.5930216E+02  0.7816164E-02  0.1266604E+00
        -11   -1    0    0    0    0  0.00000000000E+00  0.00000000000E+00  0.45593999997E+02  0.45594000000E+02  0.51100000000E-03 0.  1.
         11   -1    0    0    0    0 -0.00000000000E+00 -0.00000000000E+00 -0.45593999997E+02  0.45594000000E+02  0.51100000000E-03 0. -1.
    9900012    2    1    2    0    0 -0.17115351550E+02 -0.47049300579E+01  0.26488393237E+02  0.59302162990E+02  0.50000399333E+02 0.  0.
         12    1    1    2    0    0  0.17115351550E+02  0.47049300579E+01 -0.26488393237E+02  0.31885837010E+02  0.00000000000E+00 0. -1.
         11    1    3    3    0    0  0.69912357381E+01 -0.30780861726E+01 -0.50238811344E+01  0.91428318122E+01  0.51100000000E-03 0. -1.
        -11    1    3    3    0    0 -0.74047144317E+01 -0.14658050260E+02  0.20553816063E+02  0.26308697958E+02  0.51100000000E-03 0.  1.
        -12    1    3    3    0    0 -0.16701872856E+02  0.13031206375E+02  0.10958458309E+02  0.23850633220E+02  0.00000000000E+00 0.  1.
</event>
<event>
 7    1  0.7821043E-012  0.5930196E+02  0.7816164E-02  0.1266605E+00
        -11   -1    0    0    0    0  0.00000000000E+00  0.00000000000E+00  0.45593999997E+02  0.45594000000E+02  0.51100000000E-03 0. -1.
         11   -1    0    0    0    0 -0.00000000000E+00 -0.00000000000E+00 -0.45593999997E+02  0.45594000000E+02  0.51100000000E-03 0.  1.
    9900012    2    1    2    0    0  0.54804714095E+01 -0.16665559664E+02 -0.26625985427E+02  0.59301960017E+02  0.50000029161E+02 0.  0.
         12    1    1    2    0    0 -0.54804714095E+01  0.16665559664E+02  0.26625985427E+02  0.31886039983E+02  0.00000000000E+00 0. -1.
         11    1    3    3    0    0  0.52266722520E+01  0.87566903764E+01  0.56997462108E+01  0.11682672481E+02  0.51100000000E-03 0. -1.
        -11    1    3    3    0    0 -0.72260617890E+01 -0.25934606710E+02 -0.21515231419E+02  0.34463386042E+02  0.51100000000E-03 0.  1.
        -12    1    3    3    0    0  0.74798609465E+01  0.51235666927E+00 -0.10810500219E+02  0.13155901494E+02  0.00000000000E+00 0.  1.
</event>
<event>
 7    1  0.7821043E-012  0.5930193E+02  0.7816164E-02  0.1266605E+00
        -11   -1    0    0    0    0  0.00000000000E+00  0.00000000000E+00  0.45593999997E+02  0.45594000000E+02  0.51100000000E-03 0.  1.
         11   -1    0    0    0    0 -0.00000000000E+00 -0.00000000000E+00 -0.45593999997E+02  0.45594000000E+02  0.51100000000E-03 0. -1.
    9900012    2    1    2    0    0  0.12326870963E+02 -0.85012377282E+01  0.28151357214E+02  0.59301926180E+02  0.49999967451E+02 0.  0.
         12    1    1    2    0    0 -0.12326870963E+02  0.85012377282E+01 -0.28151357214E+02  0.31886073820E+02  0.00000000000E+00 0. -1.
         11    1    3    3    0    0  0.23225133644E+00  0.13862680638E+02  0.20456286821E+02  0.24712092706E+02  0.51100000000E-03 0. -1.
        -11    1    3    3    0    0  0.13420478593E+02 -0.14593543755E+02  0.14185898364E+02  0.24378689006E+02  0.51100000000E-03 0.  1.
        -12    1    3    3    0    0 -0.13258589666E+01 -0.77703746105E+01 -0.64908279717E+01  0.10211144468E+02  0.00000000000E+00 0.  1.
</event>
<event>
 7    1  0.7821043E-012  0.5930173E+02  0.7816164E-02  0.1266606E+00
        -11   -1    0    0    0    0  0.00000000000E+00  0.00000000000E+00  0.45593999997E+02  0.45594000000E+02  0.51100000000E-03 0.  1.
         11   -1    0    0    0    0 -0.00000000000E+00 -0.00000000000E+00 -0.45593999997E+02  0.45594000000E+02  0.51100000000E-03 0. -1.
    9900012    2    1    2    0    0  0.19684184196E+01  0.23541030092E+02  0.21416808693E+02  0.59301726096E+02  0.49999602543E+02 0.  0.
         12    1    1    2    0    0 -0.19684184196E+01 -0.23541030092E+02 -0.21416808693E+02  0.31886273904E+02  0.00000000000E+00 0. -1.
         11    1    3    3    0    0  0.10470914019E+02  0.11757875345E+02 -0.22603662308E+01  0.15905877178E+02  0.51100000000E-03 0. -1.
        -11    1    3    3    0    0  0.31650638250E+01 -0.14006291146E+00  0.26316202411E+02  0.26506221085E+02  0.51100000000E-03 0.  1.
        -12    1    3    3    0    0 -0.11667559425E+02  0.11923217659E+02 -0.26390274868E+01  0.16889627833E+02  0.00000000000E+00 0.  1.
</event>
<event>
 7    1  0.7821043E-012  0.5930193E+02  0.7816164E-02  0.1266605E+00
        -11   -1    0    0    0    0  0.00000000000E+00  0.00000000000E+00  0.45593999997E+02  0.45594000000E+02  0.51100000000E-03 0. -1.
         11   -1    0    0    0    0 -0.00000000000E+00 -0.00000000000E+00 -0.45593999997E+02  0.45594000000E+02  0.51100000000E-03 0.  1.
    9900012    2    1    2    0    0  0.83631733049E+01  0.16796174160E+02 -0.25781145390E+02  0.59301927934E+02  0.49999970650E+02 0.  0.
         12    1    1    2    0    0 -0.83631733049E+01 -0.16796174160E+02  0.25781145390E+02  0.31886072066E+02  0.00000000000E+00 0. -1.
         11    1    3    3    0    0  0.92081947338E+01 -0.12885794527E+02  0.11579259474E+01  0.15880029711E+02  0.51100000000E-03 0. -1.
        -11    1    3    3    0    0 -0.57095732311E+01  0.10468647672E+02 -0.18206202285E+02  0.21763676447E+02  0.51100000000E-03 0.  1.
        -12    1    3    3    0    0  0.48645518023E+01  0.19213321015E+02 -0.87328690522E+01  0.21658221777E+02  0.00000000000E+00 0.  1.
</event>
<event>
 7    1  0.7821043E-012  0.5930199E+02  0.7816164E-02  0.1266605E+00
        -11   -1    0    0    0    0  0.00000000000E+00  0.00000000000E+00  0.45593999997E+02  0.45594000000E+02  0.51100000000E-03 0.  1.
         11   -1    0    0    0    0 -0.00000000000E+00 -0.00000000000E+00 -0.45593999997E+02  0.45594000000E+02  0.51100000000E-03 0. -1.
    9900012    2    1    2    0    0 -0.31846241123E+02 -0.20067309175E+00 -0.15793184589E+01  0.59301990683E+02  0.50000085088E+02 0.  0.
         12    1    1    2    0    0  0.31846241123E+02  0.20067309175E+00  0.15793184589E+01  0.31886009317E+02  0.00000000000E+00 0. -1.
         11    1    3    3    0    0  0.11812155118E+01 -0.12696687747E+02  0.12648461048E+02  0.17960643557E+02  0.51100000000E-03 0. -1.
        -11    1    3    3    0    0  0.60164566694E+00  0.30649326327E+01 -0.37430126288E+01  0.48750316257E+01  0.51100000000E-03 0.  1.
         12    1    3    3    0    0 -0.33629102302E+02  0.94310820221E+01 -0.10484766878E+02  0.36466315501E+02  0.00000000000E+00 0. -1.
</event>
<event>
 7    1  0.7821043E-012  0.5930195E+02  0.7816164E-02  0.1266605E+00
        -11   -1    0    0    0    0  0.00000000000E+00  0.00000000000E+00  0.45593999997E+02  0.45594000000E+02  0.51100000000E-03 0.  1.
         11   -1    0    0    0    0 -0.00000000000E+00 -0.00000000000E+00 -0.45593999997E+02  0.45594000000E+02  0.51100000000E-03 0. -1.
    9900012    2    1    2    0    0  0.83284414528E+01  0.12330977943E+02  0.28201142193E+02  0.59301947014E+02  0.50000005446E+02 0.  0.
         12    1    1    2    0    0 -0.83284414528E+01 -0.12330977943E+02 -0.28201142193E+02  0.31886052986E+02  0.00000000000E+00 0. -1.
         11    1    3    3    0    0 -0.70842468205E+01  0.63690234598E+01  0.17509326361E+02  0.19933076098E+02  0.51100000000E-03 0. -1.
        -11    1    3    3    0    0  0.18925005393E+02  0.17022911008E+02  0.34444423038E+01  0.25686562856E+02  0.51100000000E-03 0.  1.
        -12    1    3    3    0    0 -0.35123171199E+01 -0.11060956525E+02  0.72473735282E+01  0.13682308060E+02  0.00000000000E+00 0.  1.
</event>
<event>
 7    1  0.7821043E-012  0.5930194E+02  0.7816164E-02  0.1266605E+00
        -11   -1    0    0    0    0  0.00000000000E+00  0.00000000000E+00  0.45593999997E+02  0.45594000000E+02  0.51100000000E-03 0.  1.
         11   -1    0    0    0    0 -0.00000000000E+00 -0.00000000000E+00 -0.45593999997E+02  0.45594000000E+02  0.51100000000E-03 0. -1.
    9900012    2    1    2    0    0 -0.31826947154E+02  0.57877584871E+00  0.18524216402E+01  0.59301937017E+02  0.49999987215E+02 0.  0.
         12    1    1    2    0    0  0.31826947154E+02 -0.57877584871E+00 -0.18524216402E+01  0.31886062983E+02  0.00000000000E+00 0. -1.
         11    1    3    3    0    0 -0.70535022164E+01 -0.61839659447E+01 -0.96665668735E+01  0.13469812311E+02  0.51100000000E-03 0. -1.
        -11    1    3    3    0    0 -0.17162209165E+02  0.16713744775E+02  0.19575711693E+02  0.30937019513E+02  0.51100000000E-03 0.  1.
        -12    1    3    3    0    0 -0.76112357719E+01 -0.99510029812E+01 -0.80567231793E+01  0.14895105193E+02  0.00000000000E+00 0.  1.
</event>
<event>
 7    1  0.7821043E-012  0.5930197E+02  0.7816164E-02  0.1266605E+00
        -11   -1    0    0    0    0  0.00000000000E+00  0.00000000000E+00  0.45593999997E+02  0.45594000000E+02  0.51100000000E-03 0.  1.
         11   -1    0    0    0    0 -0.00000000000E+00 -0.00000000000E+00 -0.45593999997E+02  0.45594000000E+02  0.51100000000E-03 0. -1.
    9900012    2    1    2    0    0 -0.25414115801E+02  0.65503356636E+01  0.18108971758E+02  0.59301967989E+02  0.50000043700E+02 0.  0.
         12    1    1    2    0    0  0.25414115801E+02 -0.65503356636E+01 -0.18108971758E+02  0.31886032011E+02  0.00000000000E+00 0. -1.
         11    1    3    3    0    0 -0.33523994913E+01 -0.72074235672E+01  0.10419585107E+02  0.13105467977E+02  0.51100000000E-03 0. -1.
        -11    1    3    3    0    0 -0.77706195089E-01  0.20935945789E+02 -0.21861987629E+01  0.21049924694E+02  0.51100000000E-03 0.  1.
        -12    1    3    3    0    0 -0.21984010115E+02 -0.71781865582E+01  0.98755854136E+01  0.25146575319E+02  0.00000000000E+00 0.  1.
</event>
<event>
 7    1  0.7821043E-012  0.5930193E+02  0.7816164E-02  0.1266605E+00
        -11   -1    0    0    0    0  0.00000000000E+00  0.00000000000E+00  0.45593999997E+02  0.45594000000E+02  0.51100000000E-03 0.  1.
         11   -1    0    0    0    0 -0.00000000000E+00 -0.00000000000E+00 -0.45593999997E+02  0.45594000000E+02  0.51100000000E-03 0. -1.
    9900012    2    1    2    0    0  0.23597365094E+02  0.16359866211E+02  0.13865075506E+02  0.59301934382E+02  0.49999982408E+02 0.  0.
         12    1    1    2    0    0 -0.23597365094E+02 -0.16359866211E+02 -0.13865075506E+02  0.31886065618E+02  0.00000000000E+00 0. -1.
         11    1    3    3    0    0  0.95968945827E+01  0.92723918168E+01 -0.21188773596E+01  0.13511745896E+02  0.51100000000E-03 0. -1.
        -11    1    3    3    0    0  0.65230029907E+00 -0.13613206415E+02  0.16184161002E+02  0.21158259668E+02  0.51100000000E-03 0.  1.
        -12    1    3    3    0    0  0.13348170212E+02  0.20700680809E+02 -0.20020813693E+00  0.24631928818E+02  0.00000000000E+00 0.  1.
</event>
<event>
 7    1  0.7821043E-012  0.5930196E+02  0.7816164E-02  0.1266605E+00
        -11   -1    0    0    0    0  0.00000000000E+00  0.00000000000E+00  0.45593999997E+02  0.45594000000E+02  0.51100000000E-03 0.  1.
         11   -1    0    0    0    0 -0.00000000000E+00 -0.00000000000E+00 -0.45593999997E+02  0.45594000000E+02  0.51100000000E-03 0. -1.
    9900012    2    1    2    0    0  0.85312045819E+01  0.22297894428E+02  0.21136274394E+02  0.59301958496E+02  0.50000026386E+02 0.  0.
         12    1    1    2    0    0 -0.85312045819E+01 -0.22297894428E+02 -0.21136274394E+02  0.31886041504E+02  0.00000000000E+00 0. -1.
         11    1    3    3    0    0  0.37356731227E+01 -0.38584836290E+00 -0.42165837167E+01  0.56465663141E+01  0.51100000000E-03 0. -1.
        -11    1    3    3    0    0 -0.71517633287E+00  0.30695703501E+02  0.29956328493E+02  0.42896611844E+02  0.51100000000E-03 0.  1.
        -12    1    3    3    0    0  0.55107077921E+01 -0.80119607103E+01 -0.46034703821E+01  0.10758780338E+02  0.00000000000E+00 0.  1.
</event>
<event>
 7    1  0.7821043E-012  0.5930184E+02  0.7816164E-02  0.1266605E+00
        -11   -1    0    0    0    0  0.00000000000E+00  0.00000000000E+00  0.45593999997E+02  0.45594000000E+02  0.51100000000E-03 0.  1.
         11   -1    0    0    0    0 -0.00000000000E+00 -0.00000000000E+00 -0.45593999997E+02  0.45594000000E+02  0.51100000000E-03 0. -1.
    9900012    2    1    2    0    0  0.22076649754E+02 -0.22567919229E+02  0.44763376480E+01  0.59301842479E+02  0.49999814800E+02 0.  0.
         12    1    1    2    0    0 -0.22076649754E+02  0.22567919229E+02 -0.44763376480E+01  0.31886157521E+02  0.00000000000E+00 0. -1.
         11    1    3    3    0    0 -0.10552159062E+02 -0.91693638908E+01  0.11916005570E+02  0.18368899914E+02  0.51100000000E-03 0. -1.
        -11    1    3    3    0    0  0.16814903452E+02  0.28647231162E+01 -0.64214624851E+01  0.18225882622E+02  0.51100000000E-03 0.  1.
        -12    1    3    3    0    0  0.15813905364E+02 -0.16263278454E+02 -0.10182054373E+01  0.22707059943E+02  0.00000000000E+00 0.  1.
</event>
<event>
 7    1  0.7821043E-012  0.5930198E+02  0.7816164E-02  0.1266605E+00
        -11   -1    0    0    0    0  0.00000000000E+00  0.00000000000E+00  0.45593999997E+02  0.45594000000E+02  0.51100000000E-03 0.  1.
         11   -1    0    0    0    0 -0.00000000000E+00 -0.00000000000E+00 -0.45593999997E+02  0.45594000000E+02  0.51100000000E-03 0. -1.
    9900012    2    1    2    0    0  0.95503290617E+01 -0.52465831713E+01  0.29966357404E+02  0.59301984315E+02  0.50000073475E+02 0.  0.
         12    1    1    2    0    0 -0.95503290617E+01  0.52465831713E+01 -0.29966357404E+02  0.31886015685E+02  0.00000000000E+00 0. -1.
         11    1    3    3    0    0 -0.74510888218E+01 -0.10601868892E+02  0.37153345083E+01  0.13480432463E+02  0.51100000000E-03 0. -1.
        -11    1    3    3    0    0  0.92657940307E+00  0.65777116033E+01  0.28750313363E+02  0.29507716924E+02  0.51100000000E-03 0.  1.
         12    1    3    3    0    0  0.16074838481E+02 -0.12224258830E+01 -0.24992904675E+01  0.16313834928E+02  0.00000000000E+00 0. -1.
</event>
<event>
 7    1  0.7821043E-012  0.5930188E+02  0.7816164E-02  0.1266605E+00
        -11   -1    0    0    0    0  0.00000000000E+00  0.00000000000E+00  0.45593999997E+02  0.45594000000E+02  0.51100000000E-03 0. -1.
         11   -1    0    0    0    0 -0.00000000000E+00 -0.00000000000E+00 -0.45593999997E+02  0.45594000000E+02  0.51100000000E-03 0.  1.
    9900012    2    1    2    0    0  0.59706595721E+01 -0.15793243055E+02 -0.27049014552E+02  0.59301882486E+02  0.49999887762E+02 0.  0.
         12    1    1    2    0    0 -0.59706595721E+01  0.15793243055E+02  0.27049014552E+02  0.31886117514E+02  0.00000000000E+00 0. -1.
         11    1    3    3    0    0  0.16804371490E+02 -0.14898263074E+02 -0.34595304961E+01  0.22722532766E+02  0.51100000000E-03 0. -1.
        -11    1    3    3    0    0 -0.18292871675E+02 -0.33367514291E+01 -0.10602831576E+02  0.21405212027E+02  0.51100000000E-03 0.  1.
        -12    1    3    3    0    0  0.74591597572E+01  0.24417714483E+01 -0.12986652480E+02  0.15174137693E+02  0.00000000000E+00 0.  1.
</event>
<event>
 7    1  0.7821043E-012  0.5930194E+02  0.7816164E-02  0.1266605E+00
        -11   -1    0    0    0    0  0.00000000000E+00  0.00000000000E+00  0.45593999997E+02  0.45594000000E+02  0.51100000000E-03 0.  1.
         11   -1    0    0    0    0 -0.00000000000E+00 -0.00000000000E+00 -0.45593999997E+02  0.45594000000E+02  0.51100000000E-03 0. -1.
    9900012    2    1    2    0    0 -0.49788855017E+01  0.17350802855E+02  0.26284620983E+02  0.59301937829E+02  0.49999988694E+02 0.  0.
         12    1    1    2    0    0  0.49788855017E+01 -0.17350802855E+02 -0.26284620983E+02  0.31886062171E+02  0.00000000000E+00 0. -1.
         11    1    3    3    0    0 -0.89758042479E+01  0.24439243437E+01 -0.88659463068E+01  0.12850791115E+02  0.51100000000E-03 0. -1.
        -11    1    3    3    0    0  0.10294439463E+02  0.17122213155E+02  0.34336581812E+02  0.39725892287E+02  0.51100000000E-03 0.  1.
        -12    1    3    3    0    0 -0.62975207164E+01 -0.22153346432E+01  0.81398547811E+00  0.67252544274E+01  0.00000000000E+00 0.  1.
</event>
<event>
 7    1  0.7821043E-012  0.5930192E+02  0.7816164E-02  0.1266605E+00
        -11   -1    0    0    0    0  0.00000000000E+00  0.00000000000E+00  0.45593999997E+02  0.45594000000E+02  0.51100000000E-03 0. -1.
         11   -1    0    0    0    0 -0.00000000000E+00 -0.00000000000E+00 -0.45593999997E+02  0.45594000000E+02  0.51100000000E-03 0.  1.
    9900012    2    1    2    0    0 -0.30777891415E+02  0.58310515020E+01  0.59533475798E+01  0.59301919824E+02  0.49999955858E+02 0.  0.
         12    1    1    2    0    0  0.30777891415E+02 -0.58310515020E+01 -0.59533475798E+01  0.31886080176E+02  0.00000000000E+00 0. -1.
         11    1    3    3    0    0 -0.12792790234E+02  0.16052921294E+02  0.15272171736E+02  0.25584975940E+02  0.51100000000E-03 0. -1.
        -11    1    3    3    0    0 -0.23900671827E+02 -0.71718171904E+01 -0.41639248842E+01  0.25298524588E+02  0.51100000000E-03 0.  1.
         12    1    3    3    0    0  0.59155706463E+01 -0.30500526019E+01 -0.51548992718E+01  0.84184192963E+01  0.00000000000E+00 0. -1.
</event>
<event>
 7    1  0.7821043E-012  0.5930194E+02  0.7816164E-02  0.1266605E+00
        -11   -1    0    0    0    0  0.00000000000E+00  0.00000000000E+00  0.45593999997E+02  0.45594000000E+02  0.51100000000E-03 0.  1.
         11   -1    0    0    0    0 -0.00000000000E+00 -0.00000000000E+00 -0.45593999997E+02  0.45594000000E+02  0.51100000000E-03 0. -1.
    9900012    2    1    2    0    0  0.16343706395E+01 -0.19048049822E+02  0.25519036315E+02  0.59301943739E+02  0.49999999474E+02 0.  0.
         12    1    1    2    0    0 -0.16343706395E+01  0.19048049822E+02 -0.25519036315E+02  0.31886056261E+02  0.00000000000E+00 0. -1.
         11    1    3    3    0    0 -0.10899829208E+02 -0.17409467060E+02  0.25297344967E+02  0.32586062707E+02  0.51100000000E-03 0. -1.
        -11    1    3    3    0    0  0.15045243452E+02 -0.32908714742E+01  0.87223665699E+01  0.17699402940E+02  0.51100000000E-03 0.  1.
         12    1    3    3    0    0 -0.25110436044E+01  0.16522887121E+01 -0.85006752219E+01  0.90164780929E+01  0.00000000000E+00 0. -1.
</event>
<event>
 7    1  0.8476274E-012  0.5930194E+02  0.7816164E-02  0.1266605E+00
        -11   -1    0    0    0    0  0.00000000000E+00  0.00000000000E+00  0.45593999997E+02  0.45594000000E+02  0.51100000000E-03 0. -1.
         11   -1    0    0    0    0 -0.00000000000E+00 -0.00000000000E+00 -0.45593999997E+02  0.45594000000E+02  0.51100000000E-03 0.  1.
    9900012    2    1    2    0    0 -0.13614283675E+02  0.76267898892E+01 -0.27806553381E+02  0.59301936352E+02  0.49999986002E+02 0.  0.
         12    1    1    2    0    0  0.13614283675E+02 -0.76267898892E+01  0.27806553381E+02  0.31886063648E+02  0.00000000000E+00 0. -1.
         11    1    3    3    0    0  0.39758693126E+01  0.34022285546E+01  0.10860892782E+02  0.12055774061E+02  0.51100000000E-03 0. -1.
        -11    1    3    3    0    0 -0.10765803270E+02  0.11777536935E+02 -0.29538978319E+02  0.33573265207E+02  0.51100000000E-03 0.  1.
         12    1    3    3    0    0 -0.68243497184E+01 -0.75529756001E+01 -0.91284678444E+01  0.13672897084E+02  0.00000000000E+00 0. -1.
</event>
<event>
 7    1  0.7821043E-012  0.5930193E+02  0.7816164E-02  0.1266605E+00
        -11   -1    0    0    0    0  0.00000000000E+00  0.00000000000E+00  0.45593999997E+02  0.45594000000E+02  0.51100000000E-03 0.  1.
         11   -1    0    0    0    0 -0.00000000000E+00 -0.00000000000E+00 -0.45593999997E+02  0.45594000000E+02  0.51100000000E-03 0. -1.
    9900012    2    1    2    0    0  0.53589753225E+01  0.14085305813E+02  0.28099950924E+02  0.59301926264E+02  0.49999967603E+02 0.  0.
         12    1    1    2    0    0 -0.53589753225E+01 -0.14085305813E+02 -0.28099950924E+02  0.31886073736E+02  0.00000000000E+00 0. -1.
         11    1    3    3    0    0  0.54416455853E+01  0.28054285009E+02  0.14830678815E+02  0.32196326629E+02  0.51100000000E-03 0.  1.
        -11    1    3    3    0    0  0.33472587552E+01 -0.96748601139E+01  0.17428837739E+02  0.20213150288E+02  0.51100000000E-03 0. -1.
         12    1    3    3    0    0 -0.34299290180E+01 -0.42941190820E+01 -0.41595656300E+01  0.68924493462E+01  0.00000000000E+00 0. -1.
</event>
<event>
 7    1  0.7821043E-012  0.5930193E+02  0.7816164E-02  0.1266605E+00
        -11   -1    0    0    0    0  0.00000000000E+00  0.00000000000E+00  0.45593999997E+02  0.45594000000E+02  0.51100000000E-03 0.  1.
         11   -1    0    0    0    0 -0.00000000000E+00 -0.00000000000E+00 -0.45593999997E+02  0.45594000000E+02  0.51100000000E-03 0. -1.
    9900012    2    1    2    0    0 -0.82273683870E+01 -0.21120480456E+02  0.22426704137E+02  0.59301931824E+02  0.49999977744E+02 0.  0.
         12    1    1    2    0    0  0.82273683870E+01  0.21120480456E+02 -0.22426704137E+02  0.31886068176E+02  0.00000000000E+00 0. -1.
         11    1    3    3    0    0  0.16255183430E+02 -0.31739809993E+01  0.40329838912E+00  0.16567069553E+02  0.51100000000E-03 0. -1.
        -11    1    3    3    0    0 -0.12596900445E+02  0.20314554829E+01  0.11653978294E+02  0.17280738483E+02  0.51100000000E-03 0.  1.
        -12    1    3    3    0    0 -0.11885651372E+02 -0.19977954940E+02  0.10369427454E+02  0.25454123788E+02  0.00000000000E+00 0.  1.
</event>
<event>
 7    1  0.7821043E-012  0.5930195E+02  0.7816164E-02  0.1266605E+00
        -11   -1    0    0    0    0  0.00000000000E+00  0.00000000000E+00  0.45593999997E+02  0.45594000000E+02  0.51100000000E-03 0.  1.
         11   -1    0    0    0    0 -0.00000000000E+00 -0.00000000000E+00 -0.45593999997E+02  0.45594000000E+02  0.51100000000E-03 0. -1.
    9900012    2    1    2    0    0 -0.23777426503E+02  0.67943436042E+01  0.20129363850E+02  0.59301946542E+02  0.50000004585E+02 0.  0.
         12    1    1    2    0    0  0.23777426503E+02 -0.67943436042E+01 -0.20129363850E+02  0.31886053458E+02  0.00000000000E+00 0. -1.
         11    1    3    3    0    0 -0.34484370211E+02  0.89533524372E+00  0.12079263891E+02  0.36549719978E+02  0.51100000000E-03 0. -1.
        -11    1    3    3    0    0  0.87394628839E+01  0.12005070174E+02  0.60246116800E+01  0.16024851561E+02  0.51100000000E-03 0.  1.
         12    1    3    3    0    0  0.19674808240E+01 -0.61060618136E+01  0.20254882786E+01  0.67273750030E+01  0.00000000000E+00 0. -1.
</event>
<event>
 7    1  0.7821043E-012  0.5930193E+02  0.7816164E-02  0.1266605E+00
        -11   -1    0    0    0    0  0.00000000000E+00  0.00000000000E+00  0.45593999997E+02  0.45594000000E+02  0.51100000000E-03 0. -1.
         11   -1    0    0    0    0 -0.00000000000E+00 -0.00000000000E+00 -0.45593999997E+02  0.45594000000E+02  0.51100000000E-03 0.  1.
    9900012    2    1    2    0    0  0.26022465964E+02  0.10304678024E+02 -0.15276334232E+02  0.59301929191E+02  0.49999972942E+02 0.  0.
         12    1    1    2    0    0 -0.26022465964E+02 -0.10304678024E+02  0.15276334232E+02  0.31886070809E+02  0.00000000000E+00 0. -1.
         11    1    3    3    0    0  0.81295307002E+00 -0.69780437842E+01  0.52176245824E+01  0.87508624885E+01  0.51100000000E-03 0. -1.
        -11    1    3    3    0    0  0.93984896767E+01  0.25335153736E+02 -0.18383289956E+02  0.32682517848E+02  0.51100000000E-03 0.  1.
        -12    1    3    3    0    0  0.15811023218E+02 -0.80524319274E+01 -0.21106688583E+01  0.17868548854E+02  0.00000000000E+00 0.  1.
</event>
<event>
 7    1  0.7821043E-012  0.5930194E+02  0.7816164E-02  0.1266605E+00
        -11   -1    0    0    0    0  0.00000000000E+00  0.00000000000E+00  0.45593999997E+02  0.45594000000E+02  0.51100000000E-03 0.  1.
         11   -1    0    0    0    0 -0.00000000000E+00 -0.00000000000E+00 -0.45593999997E+02  0.45594000000E+02  0.51100000000E-03 0. -1.
    9900012    2    1    2    0    0 -0.30283599526E+02 -0.76263003893E+01 -0.64392605423E+01  0.59301938246E+02  0.49999989455E+02 0.  0.
         12    1    1    2    0    0  0.30283599526E+02  0.76263003893E+01  0.64392605423E+01  0.31886061754E+02  0.00000000000E+00 0. -1.
         11    1    3    3    0    0 -0.10198964349E+02  0.11274816904E+02 -0.19320020882E+02  0.24584620745E+02  0.51100000000E-03 0. -1.
        -11    1    3    3    0    0 -0.85016513313E+01 -0.14310475840E+02  0.14598314430E+02  0.22139976933E+02  0.51100000000E-03 0.  1.
        -12    1    3    3    0    0 -0.11582983845E+02 -0.45906414532E+01 -0.17175540899E+01  0.12577340568E+02  0.00000000000E+00 0.  1.
</event>
<event>
 7    1  0.7821043E-012  0.5930197E+02  0.7816164E-02  0.1266605E+00
        -11   -1    0    0    0    0  0.00000000000E+00  0.00000000000E+00  0.45593999997E+02  0.45594000000E+02  0.51100000000E-03 0. -1.
         11   -1    0    0    0    0 -0.00000000000E+00 -0.00000000000E+00 -0.45593999997E+02  0.45594000000E+02  0.51100000000E-03 0.  1.
    9900012    2    1    2    0    0  0.15244630024E+01 -0.31781505137E+02 -0.20811342574E+01  0.59301965815E+02  0.50000039736E+02 0.  0.
         12    1    1    2    0    0 -0.15244630024E+01  0.31781505137E+02  0.20811342574E+01  0.31886034185E+02  0.00000000000E+00 0. -1.
         11    1    3    3    0    0  0.14131540877E+02 -0.12307501796E+02  0.37414465926E+01  0.19109512576E+02  0.51100000000E-03 0. -1.
        -11    1    3    3    0    0 -0.86640492986E+01 -0.15753551243E+02 -0.18869935014E+02  0.26063663877E+02  0.51100000000E-03 0.  1.
        -12    1    3    3    0    0 -0.39430285764E+01 -0.37204520987E+01  0.13047354164E+02  0.14128789363E+02  0.00000000000E+00 0.  1.
</event>
<event>
 7    1  0.7821043E-012  0.5930204E+02  0.7816164E-02  0.1266604E+00
        -11   -1    0    0    0    0  0.00000000000E+00  0.00000000000E+00  0.45593999997E+02  0.45594000000E+02  0.51100000000E-03 0. -1.
         11   -1    0    0    0    0 -0.00000000000E+00 -0.00000000000E+00 -0.45593999997E+02  0.45594000000E+02  0.51100000000E-03 0.  1.
    9900012    2    1    2    0    0  0.26288977708E+02  0.12925736627E+02  0.12590846916E+02  0.59302040044E+02  0.50000175110E+02 0.  0.
         12    1    1    2    0    0 -0.26288977708E+02 -0.12925736627E+02 -0.12590846916E+02  0.31885959956E+02  0.00000000000E+00 0. -1.
         11    1    3    3    0    0  0.20838726386E+01  0.58547913688E+00  0.73153487191E+01  0.76288687325E+01  0.51100000000E-03 0. -1.
        -11    1    3    3    0    0  0.33159176983E+02  0.17785617490E+02  0.11670543624E+02  0.39396202818E+02  0.51100000000E-03 0.  1.
        -12    1    3    3    0    0 -0.89540719138E+01 -0.54453600004E+01 -0.63950454272E+01  0.12276968493E+02  0.00000000000E+00 0.  1.
</event>
<event>
 7    1  0.7821043E-012  0.5930192E+02  0.7816164E-02  0.1266605E+00
        -11   -1    0    0    0    0  0.00000000000E+00  0.00000000000E+00  0.45593999997E+02  0.45594000000E+02  0.51100000000E-03 0.  1.
         11   -1    0    0    0    0 -0.00000000000E+00 -0.00000000000E+00 -0.45593999997E+02  0.45594000000E+02  0.51100000000E-03 0. -1.
    9900012    2    1    2    0    0  0.56950800366E+01 -0.22392160316E+02  0.21974516232E+02  0.59301919277E+02  0.49999954861E+02 0.  0.
         12    1    1    2    0    0 -0.56950800366E+01  0.22392160316E+02 -0.21974516232E+02  0.31886080723E+02  0.00000000000E+00 0. -1.
         11    1    3    3    0    0  0.32162608658E+01  0.89858177302E+01  0.50617993175E+01  0.10803289630E+02  0.51100000000E-03 0. -1.
        -11    1    3    3    0    0 -0.13131677936E+02 -0.24582286727E+02  0.14129972553E+02  0.31247174444E+02  0.51100000000E-03 0.  1.
        -12    1    3    3    0    0  0.15610497107E+02 -0.67956913193E+01  0.27827443613E+01  0.17251455203E+02  0.00000000000E+00 0.  1.
</event>
<event>
 7    1  0.7821043E-012  0.5930194E+02  0.7816164E-02  0.1266605E+00
        -11   -1    0    0    0    0  0.00000000000E+00  0.00000000000E+00  0.45593999997E+02  0.45594000000E+02  0.51100000000E-03 0. -1.
         11   -1    0    0    0    0 -0.00000000000E+00 -0.00000000000E+00 -0.45593999997E+02  0.45594000000E+02  0.51100000000E-03 0.  1.
    9900012    2    1    2    0    0 -0.28552816832E+02 -0.14066327779E+02 -0.18962090223E+01  0.59301944507E+02  0.50000000874E+02 0.  0.
         12    1    1    2    0    0  0.28552816832E+02  0.14066327779E+02  0.18962090223E+01  0.31886055493E+02  0.00000000000E+00 0. -1.
         11    1    3    3    0    0  0.25932849714E+01  0.99000707023E+01  0.10769010471E+02  0.14856248303E+02  0.51100000000E-03 0. -1.
        -11    1    3    3    0    0 -0.21590451346E+02 -0.63039206845E+01 -0.75141243988E+01  0.23713900376E+02  0.51100000000E-03 0.  1.
         12    1    3    3    0    0 -0.95556504577E+01 -0.17662477797E+02 -0.51510950940E+01  0.20731795828E+02  0.00000000000E+00 0. -1.
</event>
<event>
 7    1  0.7821043E-012  0.5930192E+02  0.7816164E-02  0.1266605E+00
        -11   -1    0    0    0    0  0.00000000000E+00  0.00000000000E+00  0.45593999997E+02  0.45594000000E+02  0.51100000000E-03 0.  1.
         11   -1    0    0    0    0 -0.00000000000E+00 -0.00000000000E+00 -0.45593999997E+02  0.45594000000E+02  0.51100000000E-03 0. -1.
    9900012    2    1    2    0    0 -0.17776967693E+02 -0.25905158003E+02 -0.54428375709E+01  0.59301917262E+02  0.49999951186E+02 0.  0.
         12    1    1    2    0    0  0.17776967693E+02  0.25905158003E+02  0.54428375709E+01  0.31886082738E+02  0.00000000000E+00 0. -1.
         11    1    3    3    0    0  0.70839943967E+01  0.34672844967E+01 -0.68831385585E+01  0.10468172480E+02  0.51100000000E-03 0. -1.
        -11    1    3    3    0    0 -0.13026339890E+02 -0.29273052352E+02 -0.87524748413E+01  0.33214498958E+02  0.51100000000E-03 0.  1.
        -12    1    3    3    0    0 -0.11834622200E+02 -0.99390148121E-01  0.10192775829E+02  0.15619245824E+02  0.00000000000E+00 0.  1.
</event>
<event>
 7    1  0.7821043E-012  0.5930200E+02  0.7816164E-02  0.1266605E+00
        -11   -1    0    0    0    0  0.00000000000E+00  0.00000000000E+00  0.45593999997E+02  0.45594000000E+02  0.51100000000E-03 0. -1.
         11   -1    0    0    0    0 -0.00000000000E+00 -0.00000000000E+00 -0.45593999997E+02  0.45594000000E+02  0.51100000000E-03 0.  1.
    9900012    2    1    2    0    0 -0.25059853432E+02 -0.11031460777E+02 -0.16340978887E+02  0.59302000378E+02  0.50000102769E+02 0.  0.
         12    1    1    2    0    0  0.25059853432E+02  0.11031460777E+02  0.16340978887E+02  0.31885999622E+02  0.00000000000E+00 0. -1.
         11    1    3    3    0    0 -0.31820358910E+02 -0.11681761195E+02  0.53220790755E+01  0.34312145251E+02  0.51100000000E-03 0. -1.
        -11    1    3    3    0    0  0.12091290889E+01  0.31538029262E+01 -0.16966419074E+02  0.17299359598E+02  0.51100000000E-03 0.  1.
         12    1    3    3    0    0  0.55513763894E+01 -0.25035025081E+01 -0.46966388889E+01  0.76904955288E+01  0.00000000000E+00 0. -1.
</event>
<event>
 7    1  0.7821043E-012  0.5930194E+02  0.7816164E-02  0.1266605E+00
        -11   -1    0    0    0    0  0.00000000000E+00  0.00000000000E+00  0.45593999997E+02  0.45594000000E+02  0.51100000000E-03 0. -1.
         11   -1    0    0    0    0 -0.00000000000E+00 -0.00000000000E+00 -0.45593999997E+02  0.45594000000E+02  0.51100000000E-03 0.  1.
    9900012    2    1    2    0    0 -0.30504169063E+01  0.22127859277E+02  0.22754641242E+02  0.59301938821E+02  0.49999990504E+02 0.  0.
         12    1    1    2    0    0  0.30504169063E+01 -0.22127859277E+02 -0.22754641242E+02  0.31886061179E+02  0.00000000000E+00 0. -1.
         11    1    3    3    0    0 -0.52120740935E+01  0.74232530668E+01  0.16272683753E+02  0.18629831970E+02  0.51100000000E-03 0. -1.
        -11    1    3    3    0    0 -0.14174237867E+02  0.14758648949E+02 -0.45466507138E+01  0.20961840827E+02  0.51100000000E-03 0.  1.
        -12    1    3    3    0    0  0.16335895054E+02 -0.54042739266E-01  0.11028608203E+02  0.19710266023E+02  0.00000000000E+00 0.  1.
</event>
<event>
 7    1  0.7821043E-012  0.5930194E+02  0.7816164E-02  0.1266605E+00
        -11   -1    0    0    0    0  0.00000000000E+00  0.00000000000E+00  0.45593999997E+02  0.45594000000E+02  0.51100000000E-03 0. -1.
         11   -1    0    0    0    0 -0.00000000000E+00 -0.00000000000E+00 -0.45593999997E+02  0.45594000000E+02  0.51100000000E-03 0.  1.
    9900012    2    1    2    0    0 -0.47246040897E+01 -0.36134303629E+01 -0.31326375888E+02  0.59301943658E+02  0.49999999326E+02 0.  0.
         12    1    1    2    0    0  0.47246040897E+01  0.36134303629E+01  0.31326375888E+02  0.31886056342E+02  0.00000000000E+00 0. -1.
         11    1    3    3    0    0  0.14847906809E+02  0.43384402783E+01 -0.50519429497E+01  0.16272815628E+02  0.51100000000E-03 0. -1.
        -11    1    3    3    0    0 -0.21585442413E+02 -0.86969886328E+01 -0.79689472801E+01  0.24598232792E+02  0.51100000000E-03 0.  1.
        -12    1    3    3    0    0  0.20129315149E+01  0.74511799164E+00 -0.18305485658E+02  0.18430895238E+02  0.00000000000E+00 0.  1.
</event>
<event>
 7    1  0.7821043E-012  0.5930192E+02  0.7816164E-02  0.1266605E+00
        -11   -1    0    0    0    0  0.00000000000E+00  0.00000000000E+00  0.45593999997E+02  0.45594000000E+02  0.51100000000E-03 0. -1.
         11   -1    0    0    0    0 -0.00000000000E+00 -0.00000000000E+00 -0.45593999997E+02  0.45594000000E+02  0.51100000000E-03 0.  1.
    9900012    2    1    2    0    0  0.22888099642E+02  0.22048648881E+02  0.25911316275E+01  0.59301921756E+02  0.49999959381E+02 0.  0.
         12    1    1    2    0    0 -0.22888099642E+02 -0.22048648881E+02 -0.25911316275E+01  0.31886078244E+02  0.00000000000E+00 0. -1.
         11    1    3    3    0    0  0.19402221487E+02  0.73685663384E+00  0.10046795477E+02  0.21861547428E+02  0.51100000000E-03 0. -1.
        -11    1    3    3    0    0 -0.88473529826E+01 -0.30541271481E+01 -0.24627134672E+01  0.96782387508E+01  0.51100000000E-03 0.  1.
        -12    1    3    3    0    0  0.12333231138E+02  0.24365919395E+02 -0.49929503820E+01  0.27762135577E+02  0.00000000000E+00 0.  1.
</event>
<event>
 7    1  0.7821043E-012  0.5930191E+02  0.7816164E-02  0.1266605E+00
        -11   -1    0    0    0    0  0.00000000000E+00  0.00000000000E+00  0.45593999997E+02  0.45594000000E+02  0.51100000000E-03 0.  1.
         11   -1    0    0    0    0 -0.00000000000E+00 -0.00000000000E+00 -0.45593999997E+02  0.45594000000E+02  0.51100000000E-03 0. -1.
    9900012    2    1    2    0    0 -0.77398921251E+01  0.93456151547E+01  0.29486881114E+02  0.59301911959E+02  0.49999941514E+02 0.  0.
         12    1    1    2    0    0  0.77398921251E+01 -0.93456151547E+01 -0.29486881114E+02  0.31886088041E+02  0.00000000000E+00 0. -1.
         11    1    3    3    0    0  0.70424939622E+01 -0.17009522343E+02  0.38032082236E+01  0.18798536235E+02  0.51100000000E-03 0. -1.
        -11    1    3    3    0    0 -0.91770263364E+01  0.20835215690E+02  0.22523186131E+02  0.32025270319E+02  0.51100000000E-03 0.  1.
         12    1    3    3    0    0 -0.56053597509E+01  0.55199218070E+01  0.31604867594E+01  0.84781054045E+01  0.00000000000E+00 0. -1.
</event>
<event>
 7    1  0.8307089E-012  0.5930194E+02  0.7816164E-02  0.1266605E+00
        -11   -1    0    0    0    0  0.00000000000E+00  0.00000000000E+00  0.45593999997E+02  0.45594000000E+02  0.51100000000E-03 0.  1.
         11   -1    0    0    0    0 -0.00000000000E+00 -0.00000000000E+00 -0.45593999997E+02  0.45594000000E+02  0.51100000000E-03 0. -1.
    9900012    2    1    2    0    0  0.17475195873E+02  0.26406668691E+02  0.37451176641E+01  0.59301944607E+02  0.50000001057E+02 0.  0.
         12    1    1    2    0    0 -0.17475195873E+02 -0.26406668691E+02 -0.37451176641E+01  0.31886055393E+02  0.00000000000E+00 0. -1.
         11    1    3    3    0    0 -0.10372835538E+02  0.12084321525E+02  0.81154930813E+01  0.17874220879E+02  0.51100000000E-03 0. -1.
        -11    1    3    3    0    0  0.20585103936E+02  0.14337894646E+02  0.86357642147E+01  0.26531078960E+02  0.51100000000E-03 0.  1.
         12    1    3    3    0    0  0.72629274755E+01 -0.15547479340E-01 -0.13006139632E+02  0.14896644769E+02  0.00000000000E+00 0. -1.
</event>
<event>
 7    1  0.7821043E-012  0.5930199E+02  0.7816164E-02  0.1266605E+00
        -11   -1    0    0    0    0  0.00000000000E+00  0.00000000000E+00  0.45593999997E+02  0.45594000000E+02  0.51100000000E-03 0.  1.
         11   -1    0    0    0    0 -0.00000000000E+00 -0.00000000000E+00 -0.45593999997E+02  0.45594000000E+02  0.51100000000E-03 0. -1.
    9900012    2    1    2    0    0 -0.15222420479E+02 -0.14453513961E+02  0.24001904900E+02  0.59301990688E+02  0.50000085097E+02 0.  0.
         12    1    1    2    0    0  0.15222420479E+02  0.14453513961E+02 -0.24001904900E+02  0.31886009312E+02  0.00000000000E+00 0. -1.
         11    1    3    3    0    0 -0.71661634817E+01  0.10341486320E+02  0.10995036055E+02  0.16709011235E+02  0.51100000000E-03 0. -1.
        -11    1    3    3    0    0  0.19306196242E+01 -0.23455088118E+02 -0.29524114571E+01  0.23718878229E+02  0.51100000000E-03 0.  1.
        -12    1    3    3    0    0 -0.99868766210E+01 -0.13399121621E+01  0.15959280302E+02  0.18874101223E+02  0.00000000000E+00 0.  1.
</event>
<event>
 7    1  0.7821043E-012  0.5930193E+02  0.7816164E-02  0.1266605E+00
        -11   -1    0    0    0    0  0.00000000000E+00  0.00000000000E+00  0.45593999997E+02  0.45594000000E+02  0.51100000000E-03 0.  1.
         11   -1    0    0    0    0 -0.00000000000E+00 -0.00000000000E+00 -0.45593999997E+02  0.45594000000E+02  0.51100000000E-03 0. -1.
    9900012    2    1    2    0    0 -0.66953635890E+01  0.60625017656E+01  0.30580053558E+02  0.59301929423E+02  0.49999973364E+02 0.  0.
         12    1    1    2    0    0  0.66953635890E+01 -0.60625017656E+01 -0.30580053558E+02  0.31886070577E+02  0.00000000000E+00 0. -1.
         11    1    3    3    0    0  0.10320489579E+00  0.20655598836E+02  0.32053091558E+02  0.38132205459E+02  0.51100000000E-03 0.  1.
        -11    1    3    3    0    0 -0.43596593334E+01 -0.14791358225E+02 -0.55717085344E+01  0.16396183821E+02  0.51100000000E-03 0. -1.
        -12    1    3    3    0    0 -0.24389091514E+01  0.19826115449E+00  0.40986705348E+01  0.47735401420E+01  0.00000000000E+00 0.  1.
</event>
<event>
 7    1  0.7821043E-012  0.5930190E+02  0.7816164E-02  0.1266605E+00
        -11   -1    0    0    0    0  0.00000000000E+00  0.00000000000E+00  0.45593999997E+02  0.45594000000E+02  0.51100000000E-03 0.  1.
         11   -1    0    0    0    0 -0.00000000000E+00 -0.00000000000E+00 -0.45593999997E+02  0.45594000000E+02  0.51100000000E-03 0. -1.
    9900012    2    1    2    0    0  0.89434250819E+01  0.13603642507E+02  0.27416768779E+02  0.59301903470E+02  0.49999926032E+02 0.  0.
         12    1    1    2    0    0 -0.89434250819E+01 -0.13603642507E+02 -0.27416768779E+02  0.31886096530E+02  0.00000000000E+00 0. -1.
         11    1    3    3    0    0 -0.83315775454E+01 -0.62716755621E+01 -0.72674048628E+01  0.12710793541E+02  0.51100000000E-03 0. -1.
        -11    1    3    3    0    0  0.11733376010E+02  0.31552846389E+01  0.77598543159E+01  0.14416770547E+02  0.51100000000E-03 0.  1.
         12    1    3    3    0    0  0.55416266174E+01  0.16720033430E+02  0.26924319326E+02  0.32174339381E+02  0.00000000000E+00 0. -1.
</event>
<event>
 7    1  0.7821043E-012  0.5930181E+02  0.7816164E-02  0.1266605E+00
        -11   -1    0    0    0    0  0.00000000000E+00  0.00000000000E+00  0.45593999997E+02  0.45594000000E+02  0.51100000000E-03 0.  1.
         11   -1    0    0    0    0 -0.00000000000E+00 -0.00000000000E+00 -0.45593999997E+02  0.45594000000E+02  0.51100000000E-03 0. -1.
    9900012    2    1    2    0    0  0.21988806471E+01  0.25451997749E+02  0.19081143730E+02  0.59301806882E+02  0.49999749878E+02 0.  0.
         12    1    1    2    0    0 -0.21988806471E+01 -0.25451997749E+02 -0.19081143730E+02  0.31886193118E+02  0.00000000000E+00 0. -1.
         11    1    3    3    0    0  0.18661173202E+02  0.50625375306E+01 -0.64136104969E+01  0.20371624172E+02  0.51100000000E-03 0. -1.
        -11    1    3    3    0    0 -0.76019398080E+01  0.18940589397E+02  0.16839584555E+02  0.26459535593E+02  0.51100000000E-03 0.  1.
         12    1    3    3    0    0 -0.88603527473E+01  0.14488708214E+01  0.86551696718E+01  0.12470647117E+02  0.00000000000E+00 0. -1.
</event>
<event>
 7    1  0.7821043E-012  0.5930195E+02  0.7816164E-02  0.1266605E+00
        -11   -1    0    0    0    0  0.00000000000E+00  0.00000000000E+00  0.45593999997E+02  0.45594000000E+02  0.51100000000E-03 0. -1.
         11   -1    0    0    0    0 -0.00000000000E+00 -0.00000000000E+00 -0.45593999997E+02  0.45594000000E+02  0.51100000000E-03 0.  1.
    9900012    2    1    2    0    0  0.10292699412E+02 -0.27521419112E+01 -0.30053392433E+02  0.59301947516E+02  0.50000006362E+02 0.  0.
         12    1    1    2    0    0 -0.10292699412E+02  0.27521419112E+01  0.30053392433E+02  0.31886052484E+02  0.00000000000E+00 0. -1.
         11    1    3    3    0    0  0.77197784848E+00  0.86514719760E+01 -0.20736707290E+02  0.22482325206E+02  0.51100000000E-03 0. -1.
        -11    1    3    3    0    0  0.18734808538E+02 -0.14860119275E+02 -0.99768406038E+00  0.23933482187E+02  0.51100000000E-03 0.  1.
        -12    1    3    3    0    0 -0.92140869751E+01  0.34565053882E+01 -0.83190010820E+01  0.12886140124E+02  0.00000000000E+00 0.  1.
</event>
<event>
 7    1  0.7821043E-012  0.5930193E+02  0.7816164E-02  0.1266605E+00
        -11   -1    0    0    0    0  0.00000000000E+00  0.00000000000E+00  0.45593999997E+02  0.45594000000E+02  0.51100000000E-03 0. -1.
         11   -1    0    0    0    0 -0.00000000000E+00 -0.00000000000E+00 -0.45593999997E+02  0.45594000000E+02  0.51100000000E-03 0.  1.
    9900012    2    1    2    0    0  0.18395288391E+02  0.96054511780E+01 -0.24208880167E+02  0.59301933980E+02  0.49999981675E+02 0.  0.
         12    1    1    2    0    0 -0.18395288391E+02 -0.96054511780E+01  0.24208880167E+02  0.31886066020E+02  0.00000000000E+00 0. -1.
         11    1    3    3    0    0  0.17016568318E+01  0.48976356834E+01  0.17667472064E+01  0.54775785903E+01  0.51100000000E-03 0. -1.
        -11    1    3    3    0    0 -0.10409533496E+02 -0.75248681771E+01 -0.19566328365E+02  0.23405623996E+02  0.51100000000E-03 0.  1.
        -12    1    3    3    0    0  0.27103165055E+02  0.12232683672E+02 -0.64092990080E+01  0.30418731394E+02  0.00000000000E+00 0.  1.
</event>
<event>
 7    1  0.7821043E-012  0.5930192E+02  0.7816164E-02  0.1266605E+00
        -11   -1    0    0    0    0  0.00000000000E+00  0.00000000000E+00  0.45593999997E+02  0.45594000000E+02  0.51100000000E-03 0.  1.
         11   -1    0    0    0    0 -0.00000000000E+00 -0.00000000000E+00 -0.45593999997E+02  0.45594000000E+02  0.51100000000E-03 0. -1.
    9900012    2    1    2    0    0  0.27019170729E+02 -0.10793522471E+02  0.13045543660E+02  0.59301922732E+02  0.49999961161E+02 0.  0.
         12    1    1    2    0    0 -0.27019170729E+02  0.10793522471E+02 -0.13045543660E+02  0.31886077268E+02  0.00000000000E+00 0. -1.
         11    1    3    3    0    0 -0.25376016417E+01 -0.12998207621E+02  0.15634115992E+02  0.20489470627E+02  0.51100000000E-03 0. -1.
        -11    1    3    3    0    0  0.18385337173E+02  0.13463513637E+02 -0.31834566158E+00  0.22790089220E+02  0.51100000000E-03 0.  1.
         12    1    3    3    0    0  0.11171435197E+02 -0.11258828487E+02 -0.22702266712E+01  0.16022362885E+02  0.00000000000E+00 0. -1.
</event>
<event>
 7    1  0.7821043E-012  0.5930200E+02  0.7816164E-02  0.1266605E+00
        -11   -1    0    0    0    0  0.00000000000E+00  0.00000000000E+00  0.45593999997E+02  0.45594000000E+02  0.51100000000E-03 0.  1.
         11   -1    0    0    0    0 -0.00000000000E+00 -0.00000000000E+00 -0.45593999997E+02  0.45594000000E+02  0.51100000000E-03 0. -1.
    9900012    2    1    2    0    0  0.72690156728E+01 -0.26238752168E+02  0.16595372906E+02  0.59301998275E+02  0.50000098933E+02 0.  0.
         12    1    1    2    0    0 -0.72690156728E+01  0.26238752168E+02 -0.16595372906E+02  0.31886001725E+02  0.00000000000E+00 0. -1.
         11    1    3    3    0    0 -0.92245334934E+01  0.47835767502E+01 -0.58453617422E+01  0.11922368844E+02  0.51100000000E-03 0. -1.
        -11    1    3    3    0    0  0.18635435967E+02 -0.12983127297E+02  0.17147165583E+02  0.28458150957E+02  0.51100000000E-03 0.  1.
        -12    1    3    3    0    0 -0.21418868012E+01 -0.18039201620E+02  0.52935690645E+01  0.18921478473E+02  0.00000000000E+00 0.  1.
</event>
<event>
 7    1  0.7821043E-012  0.5930210E+02  0.7816164E-02  0.1266604E+00
        -11   -1    0    0    0    0  0.00000000000E+00  0.00000000000E+00  0.45593999997E+02  0.45594000000E+02  0.51100000000E-03 0.  1.
         11   -1    0    0    0    0 -0.00000000000E+00 -0.00000000000E+00 -0.45593999997E+02  0.45594000000E+02  0.51100000000E-03 0. -1.
    9900012    2    1    2    0    0 -0.25196247266E+00 -0.31392894870E+02 -0.55797397157E+01  0.59302096709E+02  0.50000278453E+02 0.  0.
         12    1    1    2    0    0  0.25196247266E+00  0.31392894870E+02  0.55797397157E+01  0.31885903291E+02  0.00000000000E+00 0. -1.
         11    1    3    3    0    0 -0.36688458479E+01 -0.13540331589E+02 -0.18484433292E+02  0.23205070217E+02  0.51100000000E-03 0. -1.
        -11    1    3    3    0    0  0.13187482200E+02  0.18415184187E+00  0.46303211128E+01  0.13977963820E+02  0.51100000000E-03 0.  1.
        -12    1    3    3    0    0 -0.97705988252E+01 -0.18036715122E+02  0.82743724631E+01  0.22119062672E+02  0.00000000000E+00 0.  1.
</event>
<event>
 7    1  0.7821043E-012  0.5930191E+02  0.7816164E-02  0.1266605E+00
        -11   -1    0    0    0    0  0.00000000000E+00  0.00000000000E+00  0.45593999997E+02  0.45594000000E+02  0.51100000000E-03 0.  1.
         11   -1    0    0    0    0 -0.00000000000E+00 -0.00000000000E+00 -0.45593999997E+02  0.45594000000E+02  0.51100000000E-03 0. -1.
    9900012    2    1    2    0    0  0.30788991144E+02  0.55899313839E+01  0.61248289595E+01  0.59301908388E+02  0.49999935001E+02 0.  0.
         12    1    1    2    0    0 -0.30788991144E+02 -0.55899313839E+01 -0.61248289595E+01  0.31886091612E+02  0.00000000000E+00 0. -1.
         11    1    3    3    0    0  0.93262547424E-01 -0.19361108600E+01 -0.10742487744E+02  0.10915963830E+02  0.51100000000E-03 0. -1.
        -11    1    3    3    0    0  0.15619697574E+02  0.34434549391E+01  0.25827622143E+02  0.30379242914E+02  0.51100000000E-03 0.  1.
         12    1    3    3    0    0  0.15076031023E+02  0.40825873049E+01 -0.89603054396E+01  0.18006701643E+02  0.00000000000E+00 0. -1.
</event>
<event>
 7    1  0.7821043E-012  0.5930195E+02  0.7816164E-02  0.1266605E+00
        -11   -1    0    0    0    0  0.00000000000E+00  0.00000000000E+00  0.45593999997E+02  0.45594000000E+02  0.51100000000E-03 0.  1.
         11   -1    0    0    0    0 -0.00000000000E+00 -0.00000000000E+00 -0.45593999997E+02  0.45594000000E+02  0.51100000000E-03 0. -1.
    9900012    2    1    2    0    0 -0.17977353091E+02  0.24261256436E+02  0.10243373252E+02  0.59301945312E+02  0.50000002342E+02 0.  0.
         12    1    1    2    0    0  0.17977353091E+02 -0.24261256436E+02 -0.10243373252E+02  0.31886054688E+02  0.00000000000E+00 0. -1.
         11    1    3    3    0    0 -0.17461585032E+02  0.24914836098E+02  0.64113170361E+01  0.31092780448E+02  0.51100000000E-03 0. -1.
        -11    1    3    3    0    0  0.10775898523E+02 -0.74513054919E+01 -0.28867380128E+01  0.13415483559E+02  0.51100000000E-03 0.  1.
        -12    1    3    3    0    0 -0.11291666582E+02  0.67977258298E+01  0.67187942288E+01  0.14793681304E+02  0.00000000000E+00 0.  1.
</event>
<event>
 7    1  0.7821043E-012  0.5930197E+02  0.7816164E-02  0.1266605E+00
        -11   -1    0    0    0    0  0.00000000000E+00  0.00000000000E+00  0.45593999997E+02  0.45594000000E+02  0.51100000000E-03 0.  1.
         11   -1    0    0    0    0 -0.00000000000E+00 -0.00000000000E+00 -0.45593999997E+02  0.45594000000E+02  0.51100000000E-03 0. -1.
    9900012    2    1    2    0    0  0.27754291828E+01 -0.11480337609E+02  0.29617864989E+02  0.59301967239E+02  0.50000042331E+02 0.  0.
         12    1    1    2    0    0 -0.27754291828E+01  0.11480337609E+02 -0.29617864989E+02  0.31886032761E+02  0.00000000000E+00 0. -1.
         11    1    3    3    0    0 -0.11641468696E+02 -0.25039457324E+02  0.18823382314E+02  0.33418826109E+02  0.51100000000E-03 0. -1.
        -11    1    3    3    0    0  0.54625048474E+01  0.74324746926E+01  0.11810860691E+02  0.14985895696E+02  0.51100000000E-03 0.  1.
         12    1    3    3    0    0  0.89543930310E+01  0.61266450228E+01 -0.10163780165E+01  0.10897245435E+02  0.00000000000E+00 0. -1.
</event>
<event>
 7    1  0.7821043E-012  0.5930194E+02  0.7816164E-02  0.1266605E+00
        -11   -1    0    0    0    0  0.00000000000E+00  0.00000000000E+00  0.45593999997E+02  0.45594000000E+02  0.51100000000E-03 0.  1.
         11   -1    0    0    0    0 -0.00000000000E+00 -0.00000000000E+00 -0.45593999997E+02  0.45594000000E+02  0.51100000000E-03 0. -1.
    9900012    2    1    2    0    0  0.25254006369E+01  0.30829338364E+02 -0.77391890368E+01  0.59301940362E+02  0.49999993314E+02 0.  0.
         12    1    1    2    0    0 -0.25254006369E+01 -0.30829338364E+02  0.77391890368E+01  0.31886059638E+02  0.00000000000E+00 0. -1.
         11    1    3    3    0    0  0.78740165408E+01  0.30484663852E+01 -0.41754775895E+01  0.94195486701E+01  0.51100000000E-03 0. -1.
        -11    1    3    3    0    0 -0.97656543868E+01  0.20363888716E+02  0.16546796441E+02  0.27997364911E+02  0.51100000000E-03 0.  1.
        -12    1    3    3    0    0  0.44170384828E+01  0.74169832625E+01 -0.20110507888E+02  0.21885026781E+02  0.00000000000E+00 0.  1.
</event>
<event>
 7    1  0.7821043E-012  0.5930194E+02  0.7816164E-02  0.1266605E+00
        -11   -1    0    0    0    0  0.00000000000E+00  0.00000000000E+00  0.45593999997E+02  0.45594000000E+02  0.51100000000E-03 0.  1.
         11   -1    0    0    0    0 -0.00000000000E+00 -0.00000000000E+00 -0.45593999997E+02  0.45594000000E+02  0.51100000000E-03 0. -1.
    9900012    2    1    2    0    0 -0.37557732062E+01 -0.28105813402E+02  0.14583491595E+02  0.59301940249E+02  0.49999993108E+02 0.  0.
         12    1    1    2    0    0  0.37557732062E+01  0.28105813402E+02 -0.14583491595E+02  0.31886059751E+02  0.00000000000E+00 0. -1.
         11    1    3    3    0    0  0.56007739951E+01  0.77397968431E+01  0.25466543903E+01  0.98872935307E+01  0.51100000000E-03 0. -1.
        -11    1    3    3    0    0  0.18462940853E+01 -0.36298397239E+02  0.11755467285E+02  0.38199128987E+02  0.51100000000E-03 0.  1.
         12    1    3    3    0    0 -0.11202841287E+02  0.45278699467E+00  0.28136991988E+00  0.11215517732E+02  0.00000000000E+00 0. -1.
</event>
<event>
 7    1  0.7821043E-012  0.5930205E+02  0.7816164E-02  0.1266604E+00
        -11   -1    0    0    0    0  0.00000000000E+00  0.00000000000E+00  0.45593999997E+02  0.45594000000E+02  0.51100000000E-03 0.  1.
         11   -1    0    0    0    0 -0.00000000000E+00 -0.00000000000E+00 -0.45593999997E+02  0.45594000000E+02  0.51100000000E-03 0. -1.
    9900012    2    1    2    0    0  0.28822187687E+01  0.12865339467E+02  0.29032559805E+02  0.59302052100E+02  0.50000197098E+02 0.  0.
         12    1    1    2    0    0 -0.28822187687E+01 -0.12865339467E+02 -0.29032559805E+02  0.31885947900E+02  0.00000000000E+00 0. -1.
         11    1    3    3    0    0  0.59348413212E+01  0.15635617118E+02  0.39830508374E+01  0.17191845695E+02  0.51100000000E-03 0. -1.
        -11    1    3    3    0    0  0.91268830283E+01 -0.13445710971E+02  0.65453760240E+01  0.17519391681E+02  0.51100000000E-03 0.  1.
        -12    1    3    3    0    0 -0.12179505581E+02  0.10675433320E+02  0.18504132944E+02  0.24590814723E+02  0.00000000000E+00 0.  1.
</event>
<event>
 7    1  0.7821043E-012  0.5930194E+02  0.7816164E-02  0.1266605E+00
        -11   -1    0    0    0    0  0.00000000000E+00  0.00000000000E+00  0.45593999997E+02  0.45594000000E+02  0.51100000000E-03 0.  1.
         11   -1    0    0    0    0 -0.00000000000E+00 -0.00000000000E+00 -0.45593999997E+02  0.45594000000E+02  0.51100000000E-03 0. -1.
    9900012    2    1    2    0    0 -0.22663898201E+00 -0.19720866532E+02  0.25055076176E+02  0.59301940598E+02  0.49999993745E+02 0.  0.
         12    1    1    2    0    0  0.22663898201E+00  0.19720866532E+02 -0.25055076176E+02  0.31886059402E+02  0.00000000000E+00 0. -1.
         11    1    3    3    0    0 -0.87205299321E+01 -0.12061506567E+02 -0.42340628993E+01  0.15474329448E+02  0.51100000000E-03 0. -1.
        -11    1    3    3    0    0 -0.13438027025E+01 -0.10844538154E+02  0.31423372426E+02  0.33269177152E+02  0.51100000000E-03 0.  1.
        -12    1    3    3    0    0  0.98376936526E+01  0.31851781887E+01 -0.21342333509E+01  0.10558433998E+02  0.00000000000E+00 0.  1.
</event>
<event>
 7    1  0.7821043E-012  0.5930195E+02  0.7816164E-02  0.1266605E+00
        -11   -1    0    0    0    0  0.00000000000E+00  0.00000000000E+00  0.45593999997E+02  0.45594000000E+02  0.51100000000E-03 0. -1.
         11   -1    0    0    0    0 -0.00000000000E+00 -0.00000000000E+00 -0.45593999997E+02  0.45594000000E+02  0.51100000000E-03 0.  1.
    9900012    2    1    2    0    0 -0.55147264881E+01 -0.16071819720E+02  0.26981555228E+02  0.59301954151E+02  0.50000018463E+02 0.  0.
         12    1    1    2    0    0  0.55147264881E+01  0.16071819720E+02 -0.26981555228E+02  0.31886045849E+02  0.00000000000E+00 0. -1.
         11    1    3    3    0    0  0.10755538484E+02  0.68401519868E+01  0.10767497872E+02  0.16685571551E+02  0.51100000000E-03 0. -1.
        -11    1    3    3    0    0 -0.11671364420E+02  0.37557131000E+01  0.63984224148E+01  0.13829892913E+02  0.51100000000E-03 0.  1.
         12    1    3    3    0    0 -0.45989005523E+01 -0.26667684807E+02  0.98156349404E+01  0.28786489688E+02  0.00000000000E+00 0. -1.
</event>
<event>
 7    1  0.7821043E-012  0.5930222E+02  0.7816164E-02  0.1266604E+00
        -11   -1    0    0    0    0  0.00000000000E+00  0.00000000000E+00  0.45593999997E+02  0.45594000000E+02  0.51100000000E-03 0. -1.
         11   -1    0    0    0    0 -0.00000000000E+00 -0.00000000000E+00 -0.45593999997E+02  0.45594000000E+02  0.51100000000E-03 0.  1.
    9900012    2    1    2    0    0 -0.18902494464E+01  0.12503464338E+02 -0.29271035321E+02  0.59302216770E+02  0.50000497414E+02 0.  0.
         12    1    1    2    0    0  0.18902494464E+01 -0.12503464338E+02  0.29271035321E+02  0.31885783230E+02  0.00000000000E+00 0. -1.
         11    1    3    3    0    0  0.51456608434E+01 -0.90241944489E+01 -0.77553053395E+01  0.12963744526E+02  0.51100000000E-03 0. -1.
        -11    1    3    3    0    0  0.79767782879E+01  0.21520843833E+02 -0.21317765951E+02  0.31324476955E+02  0.51100000000E-03 0.  1.
        -12    1    3    3    0    0 -0.15012688578E+02  0.68149546387E-02 -0.19796403010E+00  0.15013995289E+02  0.00000000000E+00 0.  1.
</event>
<event>
 7    1  0.7821043E-012  0.5930188E+02  0.7816164E-02  0.1266605E+00
        -11   -1    0    0    0    0  0.00000000000E+00  0.00000000000E+00  0.45593999997E+02  0.45594000000E+02  0.51100000000E-03 0. -1.
         11   -1    0    0    0    0 -0.00000000000E+00 -0.00000000000E+00 -0.45593999997E+02  0.45594000000E+02  0.51100000000E-03 0.  1.
    9900012    2    1    2    0    0  0.26445654278E+01  0.10771751750E+02 -0.29894818518E+02  0.59301881762E+02  0.49999886442E+02 0.  0.
         12    1    1    2    0    0 -0.26445654278E+01 -0.10771751750E+02  0.29894818518E+02  0.31886118238E+02  0.00000000000E+00 0. -1.
         11    1    3    3    0    0  0.31389072574E+01 -0.18129378954E+02 -0.43526946897E+01  0.18906958278E+02  0.51100000000E-03 0. -1.
        -11    1    3    3    0    0 -0.61009971243E+01  0.15568160247E+02 -0.15374849362E+02  0.22715100100E+02  0.51100000000E-03 0.  1.
        -12    1    3    3    0    0  0.56066552947E+01  0.13332970457E+02 -0.10167274466E+02  0.17679823383E+02  0.00000000000E+00 0.  1.
</event>
<event>
 7    1  0.7821043E-012  0.5930200E+02  0.7816164E-02  0.1266605E+00
        -11   -1    0    0    0    0  0.00000000000E+00  0.00000000000E+00  0.45593999997E+02  0.45594000000E+02  0.51100000000E-03 0.  1.
         11   -1    0    0    0    0 -0.00000000000E+00 -0.00000000000E+00 -0.45593999997E+02  0.45594000000E+02  0.51100000000E-03 0. -1.
    9900012    2    1    2    0    0  0.25223767209E+02  0.16270309943E+02  0.10758982610E+02  0.59301997982E+02  0.50000098400E+02 0.  0.
         12    1    1    2    0    0 -0.25223767209E+02 -0.16270309943E+02 -0.10758982610E+02  0.31886002018E+02  0.00000000000E+00 0. -1.
         11    1    3    3    0    0  0.78350268875E+01  0.62281503316E+01  0.29453897025E+02  0.31108030364E+02  0.51100000000E-03 0. -1.
        -11    1    3    3    0    0  0.22369821198E+01  0.12470046032E+01  0.16363730668E-01  0.25611281728E+01  0.51100000000E-03 0.  1.
         12    1    3    3    0    0  0.15151758202E+02  0.87951550078E+01 -0.18711278145E+02  0.25632839446E+02  0.00000000000E+00 0. -1.
</event>
<event>
 7    1  0.7821043E-012  0.5930195E+02  0.7816164E-02  0.1266605E+00
        -11   -1    0    0    0    0  0.00000000000E+00  0.00000000000E+00  0.45593999997E+02  0.45594000000E+02  0.51100000000E-03 0.  1.
         11   -1    0    0    0    0 -0.00000000000E+00 -0.00000000000E+00 -0.45593999997E+02  0.45594000000E+02  0.51100000000E-03 0. -1.
    9900012    2    1    2    0    0 -0.16992039312E+02 -0.41111400051E+01  0.26666259814E+02  0.59301948432E+02  0.50000008032E+02 0.  0.
         12    1    1    2    0    0  0.16992039312E+02  0.41111400051E+01 -0.26666259814E+02  0.31886051568E+02  0.00000000000E+00 0. -1.
         11    1    3    3    0    0 -0.97565922301E+00  0.17289128137E+02  0.90620731298E+01  0.19544488541E+02  0.51100000000E-03 0. -1.
        -11    1    3    3    0    0 -0.71413378293E+01 -0.20858023337E+02  0.24434423902E+01  0.22181664827E+02  0.51100000000E-03 0.  1.
         12    1    3    3    0    0 -0.88750422602E+01 -0.54224480517E+00  0.15160744294E+02  0.17575795063E+02  0.00000000000E+00 0. -1.
</event>
<event>
 7    1  0.7821043E-012  0.5930192E+02  0.7816164E-02  0.1266605E+00
        -11   -1    0    0    0    0  0.00000000000E+00  0.00000000000E+00  0.45593999997E+02  0.45594000000E+02  0.51100000000E-03 0.  1.
         11   -1    0    0    0    0 -0.00000000000E+00 -0.00000000000E+00 -0.45593999997E+02  0.45594000000E+02  0.51100000000E-03 0. -1.
    9900012    2    1    2    0    0  0.31787617573E+02  0.15600988981E+01 -0.19583795239E+01  0.59301924827E+02  0.49999964983E+02 0.  0.
         12    1    1    2    0    0 -0.31787617573E+02 -0.15600988981E+01  0.19583795239E+01  0.31886075173E+02  0.00000000000E+00 0. -1.
         11    1    3    3    0    0  0.14036417365E+02  0.11077304131E+02  0.30286807623E+00  0.17883495424E+02  0.51100000000E-03 0. -1.
        -11    1    3    3    0    0 -0.11155271385E+02 -0.36941604269E+01 -0.20621630529E+01  0.11930608436E+02  0.51100000000E-03 0.  1.
        -12    1    3    3    0    0  0.28906471593E+02 -0.58230448055E+01 -0.19908454722E+00  0.29487820968E+02  0.00000000000E+00 0.  1.
</event>
<event>
 7    1  0.7821043E-012  0.5930198E+02  0.7816164E-02  0.1266605E+00
        -11   -1    0    0    0    0  0.00000000000E+00  0.00000000000E+00  0.45593999997E+02  0.45594000000E+02  0.51100000000E-03 0.  1.
         11   -1    0    0    0    0 -0.00000000000E+00 -0.00000000000E+00 -0.45593999997E+02  0.45594000000E+02  0.51100000000E-03 0. -1.
    9900012    2    1    2    0    0 -0.17245666725E+02  0.24515328395E+02  0.10876769345E+02  0.59301977067E+02  0.50000060255E+02 0.  0.
         12    1    1    2    0    0  0.17245666725E+02 -0.24515328395E+02 -0.10876769345E+02  0.31886022933E+02  0.00000000000E+00 0. -1.
         11    1    3    3    0    0 -0.17518003789E+01 -0.35517078740E+01 -0.76757575508E+01  0.86371689592E+01  0.51100000000E-03 0. -1.
        -11    1    3    3    0    0  0.21898032041E+01  0.22239935421E+02  0.22412259961E+02  0.31649950433E+02  0.51100000000E-03 0.  1.
        -12    1    3    3    0    0 -0.17683669550E+02  0.58271008477E+01 -0.38597330647E+01  0.19014857675E+02  0.00000000000E+00 0.  1.
</event>
<event>
 7    1  0.7821043E-012  0.5930196E+02  0.7816164E-02  0.1266605E+00
        -11   -1    0    0    0    0  0.00000000000E+00  0.00000000000E+00  0.45593999997E+02  0.45594000000E+02  0.51100000000E-03 0. -1.
         11   -1    0    0    0    0 -0.00000000000E+00 -0.00000000000E+00 -0.45593999997E+02  0.45594000000E+02  0.51100000000E-03 0.  1.
    9900012    2    1    2    0    0  0.20738858603E+02 -0.23293648898E+01 -0.24107947492E+02  0.59301963413E+02  0.50000035355E+02 0.  0.
         12    1    1    2    0    0 -0.20738858603E+02  0.23293648898E+01  0.24107947492E+02  0.31886036587E+02  0.00000000000E+00 0. -1.
         11    1    3    3    0    0 -0.20534576172E+01 -0.70416860638E+01 -0.13157157400E+01  0.74520560234E+01  0.51100000000E-03 0. -1.
        -11    1    3    3    0    0  0.81789041617E+01  0.19690578329E+02 -0.22392748251E+02  0.30920034326E+02  0.51100000000E-03 0.  1.
        -12    1    3    3    0    0  0.14613412058E+02 -0.14978257155E+02 -0.39948350061E+00  0.20929873064E+02  0.00000000000E+00 0.  1.
</event>
<event>
 7    1  0.7821043E-012  0.5930196E+02  0.7816164E-02  0.1266605E+00
        -11   -1    0    0    0    0  0.00000000000E+00  0.00000000000E+00  0.45593999997E+02  0.45594000000E+02  0.51100000000E-03 0. -1.
         11   -1    0    0    0    0 -0.00000000000E+00 -0.00000000000E+00 -0.45593999997E+02  0.45594000000E+02  0.51100000000E-03 0.  1.
    9900012    2    1    2    0    0 -0.19000220851E+02  0.24717291057E+02 -0.66907826584E+01  0.59301961642E+02  0.50000032124E+02 0.  0.
         12    1    1    2    0    0  0.19000220851E+02 -0.24717291057E+02  0.66907826584E+01  0.31886038358E+02  0.00000000000E+00 0. -1.
         11    1    3    3    0    0 -0.76468556680E+01  0.13516324126E+02  0.18138003289E+02  0.23877868059E+02  0.51100000000E-03 0. -1.
        -11    1    3    3    0    0 -0.69790619791E+01 -0.46502622057E+01 -0.11630431243E+02  0.14338729925E+02  0.51100000000E-03 0.  1.
        -12    1    3    3    0    0 -0.43743032035E+01  0.15851229137E+02 -0.13198354704E+02  0.21085363658E+02  0.00000000000E+00 0.  1.
</event>
<event>
 7    1  0.7821043E-012  0.5930194E+02  0.7816164E-02  0.1266605E+00
        -11   -1    0    0    0    0  0.00000000000E+00  0.00000000000E+00  0.45593999997E+02  0.45594000000E+02  0.51100000000E-03 0.  1.
         11   -1    0    0    0    0 -0.00000000000E+00 -0.00000000000E+00 -0.45593999997E+02  0.45594000000E+02  0.51100000000E-03 0. -1.
    9900012    2    1    2    0    0 -0.14751839909E+00  0.10497070553E+02  0.30108308857E+02  0.59301944833E+02  0.50000001468E+02 0.  0.
         12    1    1    2    0    0  0.14751839909E+00 -0.10497070553E+02 -0.30108308857E+02  0.31886055167E+02  0.00000000000E+00 0. -1.
         11    1    3    3    0    0 -0.11447548934E+02 -0.21235133969E+01 -0.43380307264E+01  0.12424741309E+02  0.51100000000E-03 0. -1.
        -11    1    3    3    0    0  0.34684193296E+01 -0.33833882015E+01  0.27223646854E+02  0.27651477296E+02  0.51100000000E-03 0.  1.
        -12    1    3    3    0    0  0.78316112054E+01  0.16003972152E+02  0.72226927296E+01  0.19225726227E+02  0.00000000000E+00 0.  1.
</event>
<event>
 7    1  0.7821043E-012  0.5930187E+02  0.7816164E-02  0.1266605E+00
        -11   -1    0    0    0    0  0.00000000000E+00  0.00000000000E+00  0.45593999997E+02  0.45594000000E+02  0.51100000000E-03 0.  1.
         11   -1    0    0    0    0 -0.00000000000E+00 -0.00000000000E+00 -0.45593999997E+02  0.45594000000E+02  0.51100000000E-03 0. -1.
    9900012    2    1    2    0    0  0.18885846763E+02  0.22832267549E+02 -0.11778701682E+02  0.59301867235E+02  0.49999859948E+02 0.  0.
         12    1    1    2    0    0 -0.18885846763E+02 -0.22832267549E+02  0.11778701682E+02  0.31886132765E+02  0.00000000000E+00 0. -1.
         11    1    3    3    0    0 -0.81605777555E+01  0.25955696212E+02 -0.76477098837E+01  0.28262707971E+02  0.51100000000E-03 0. -1.
        -11    1    3    3    0    0  0.19450913261E+02 -0.79650434312E+01 -0.59615252607E+01  0.21847648094E+02  0.51100000000E-03 0.  1.
         12    1    3    3    0    0  0.75955112582E+01  0.48416147684E+01  0.18305334619E+01  0.91915111703E+01  0.00000000000E+00 0. -1.
</event>
<event>
 7    1  0.7821043E-012  0.5930189E+02  0.7816164E-02  0.1266605E+00
        -11   -1    0    0    0    0  0.00000000000E+00  0.00000000000E+00  0.45593999997E+02  0.45594000000E+02  0.51100000000E-03 0.  1.
         11   -1    0    0    0    0 -0.00000000000E+00 -0.00000000000E+00 -0.45593999997E+02  0.45594000000E+02  0.51100000000E-03 0. -1.
    9900012    2    1    2    0    0  0.29742590299E+02 -0.11318299407E+02  0.19995789162E+01  0.59301891818E+02  0.49999904782E+02 0.  0.
         12    1    1    2    0    0 -0.29742590299E+02  0.11318299407E+02 -0.19995789162E+01  0.31886108182E+02  0.00000000000E+00 0. -1.
         11    1    3    3    0    0  0.25837784170E+02  0.56053990767E+01 -0.12799757773E+02  0.29374230015E+02  0.51100000000E-03 0. -1.
        -11    1    3    3    0    0 -0.63751641241E+00 -0.19180383024E+02  0.66148682438E+01  0.20299014810E+02  0.51100000000E-03 0.  1.
        -12    1    3    3    0    0  0.45423225409E+01  0.22566845397E+01  0.81844684459E+01  0.96286469931E+01  0.00000000000E+00 0.  1.
</event>
<event>
 7    1  0.7821043E-012  0.5930194E+02  0.7816164E-02  0.1266605E+00
        -11   -1    0    0    0    0  0.00000000000E+00  0.00000000000E+00  0.45593999997E+02  0.45594000000E+02  0.51100000000E-03 0. -1.
         11   -1    0    0    0    0 -0.00000000000E+00 -0.00000000000E+00 -0.45593999997E+02  0.45594000000E+02  0.51100000000E-03 0.  1.
    9900012    2    1    2    0    0  0.23159656359E+02  0.21216795765E+02 -0.54953337165E+01  0.59301940383E+02  0.49999993354E+02 0.  0.
         12    1    1    2    0    0 -0.23159656359E+02 -0.21216795765E+02  0.54953337165E+01  0.31886059617E+02  0.00000000000E+00 0. -1.
         11    1    3    3    0    0 -0.20214780062E+00 -0.43787664235E+01 -0.17428897152E+02  0.17971669797E+02  0.51100000000E-03 0. -1.
        -11    1    3    3    0    0  0.15754444858E+02  0.21676069757E+02  0.18724549196E+00  0.26797193772E+02  0.51100000000E-03 0.  1.
         12    1    3    3    0    0  0.76073593017E+01  0.39194924315E+01  0.11746317943E+02  0.14533076814E+02  0.00000000000E+00 0. -1.
</event>
<event>
 7    1  0.8043880E-012  0.5930196E+02  0.7816164E-02  0.1266605E+00
        -11   -1    0    0    0    0  0.00000000000E+00  0.00000000000E+00  0.45593999997E+02  0.45594000000E+02  0.51100000000E-03 0. -1.
         11   -1    0    0    0    0 -0.00000000000E+00 -0.00000000000E+00 -0.45593999997E+02  0.45594000000E+02  0.51100000000E-03 0.  1.
    9900012    2    1    2    0    0 -0.91689833603E+01 -0.87577030628E+01 -0.29256651302E+02  0.59301964432E+02  0.50000037213E+02 0.  0.
         12    1    1    2    0    0  0.91689833603E+01  0.87577030628E+01  0.29256651302E+02  0.31886035568E+02  0.00000000000E+00 0. -1.
         11    1    3    3    0    0  0.37257670606E+00 -0.35964204061E+01  0.10399181038E+02  0.11009814697E+02  0.51100000000E-03 0. -1.
        -11    1    3    3    0    0 -0.18166170083E+02 -0.52237114326E+01 -0.26121502934E+02  0.32243290967E+02  0.51100000000E-03 0.  1.
        -12    1    3    3    0    0  0.86246100170E+01  0.62428775887E-01 -0.13534329406E+02  0.16048858768E+02  0.00000000000E+00 0.  1.
</event>
<event>
 7    1  0.7821043E-012  0.5930198E+02  0.7816164E-02  0.1266605E+00
        -11   -1    0    0    0    0  0.00000000000E+00  0.00000000000E+00  0.45593999997E+02  0.45594000000E+02  0.51100000000E-03 0.  1.
         11   -1    0    0    0    0 -0.00000000000E+00 -0.00000000000E+00 -0.45593999997E+02  0.45594000000E+02  0.51100000000E-03 0. -1.
    9900012    2    1    2    0    0  0.31380816902E+02  0.45881436715E+01  0.33032922700E+01  0.59301976861E+02  0.50000059880E+02 0.  0.
         12    1    1    2    0    0 -0.31380816902E+02 -0.45881436715E+01 -0.33032922700E+01  0.31886023139E+02  0.00000000000E+00 0. -1.
         11    1    3    3    0    0  0.62995677161E+01 -0.66644044009E+01 -0.16325625868E+02  0.18724980632E+02  0.51100000000E-03 0. -1.
        -11    1    3    3    0    0  0.76730492916E+01  0.11388791255E+02  0.18623791359E+02  0.23139270872E+02  0.51100000000E-03 0.  1.
        -12    1    3    3    0    0  0.17408199894E+02 -0.13624318256E+00  0.10051267797E+01  0.17437725356E+02  0.00000000000E+00 0.  1.
</event>
<event>
 7    1  0.7821043E-012  0.5930196E+02  0.7816164E-02  0.1266605E+00
        -11   -1    0    0    0    0  0.00000000000E+00  0.00000000000E+00  0.45593999997E+02  0.45594000000E+02  0.51100000000E-03 0. -1.
         11   -1    0    0    0    0 -0.00000000000E+00 -0.00000000000E+00 -0.45593999997E+02  0.45594000000E+02  0.51100000000E-03 0.  1.
    9900012    2    1    2    0    0  0.10956177468E+02 -0.24847416603E+02 -0.16711898288E+02  0.59301961035E+02  0.50000031016E+02 0.  0.
         12    1    1    2    0    0 -0.10956177468E+02  0.24847416603E+02  0.16711898288E+02  0.31886038965E+02  0.00000000000E+00 0. -1.
         11    1    3    3    0    0 -0.11011765908E+02 -0.31006485660E+02 -0.10166533269E+02  0.34438634415E+02  0.51100000000E-03 0. -1.
        -11    1    3    3    0    0  0.66097344429E+01  0.54469450666E+01 -0.30887229537E+01  0.91048344142E+01  0.51100000000E-03 0.  1.
         12    1    3    3    0    0  0.15358208933E+02  0.71212399096E+00 -0.34566420648E+01  0.15758492205E+02  0.00000000000E+00 0. -1.
</event>
<event>
 7    1  0.7821043E-012  0.5930170E+02  0.7816164E-02  0.1266606E+00
        -11   -1    0    0    0    0  0.00000000000E+00  0.00000000000E+00  0.45593999997E+02  0.45594000000E+02  0.51100000000E-03 0.  1.
         11   -1    0    0    0    0 -0.00000000000E+00 -0.00000000000E+00 -0.45593999997E+02  0.45594000000E+02  0.51100000000E-03 0. -1.
    9900012    2    1    2    0    0 -0.75675742220E+01 -0.20693149712E+02  0.23049109506E+02  0.59301700848E+02  0.49999556496E+02 0.  0.
         12    1    1    2    0    0  0.75675742220E+01  0.20693149712E+02 -0.23049109506E+02  0.31886299152E+02  0.00000000000E+00 0. -1.
         11    1    3    3    0    0  0.14481828857E+02  0.17440959065E+01  0.68964141064E+01  0.16134613889E+02  0.51100000000E-03 0.  1.
        -11    1    3    3    0    0 -0.90451753758E+01 -0.11562190597E+02 -0.54923615669E+01  0.15673719559E+02  0.51100000000E-03 0. -1.
         12    1    3    3    0    0 -0.13004227703E+02 -0.10875055022E+02  0.21645056966E+02  0.27493367399E+02  0.00000000000E+00 0. -1.
</event>
<event>
 7    1  0.7821043E-012  0.5930186E+02  0.7816164E-02  0.1266605E+00
        -11   -1    0    0    0    0  0.00000000000E+00  0.00000000000E+00  0.45593999997E+02  0.45594000000E+02  0.51100000000E-03 0.  1.
         11   -1    0    0    0    0 -0.00000000000E+00 -0.00000000000E+00 -0.45593999997E+02  0.45594000000E+02  0.51100000000E-03 0. -1.
    9900012    2    1    2    0    0 -0.31344455019E+02  0.34319920373E+01  0.47405203814E+01  0.59301859386E+02  0.49999845633E+02 0.  0.
         12    1    1    2    0    0  0.31344455019E+02 -0.34319920373E+01 -0.47405203814E+01  0.31886140614E+02  0.00000000000E+00 0. -1.
         11    1    3    3    0    0 -0.19875882072E+02  0.19629029275E+01 -0.79249703209E+01  0.21487410986E+02  0.51100000000E-03 0.  1.
        -11    1    3    3    0    0  0.87761825484E+01  0.98638610553E+01  0.17121661855E+01  0.13313476193E+02  0.51100000000E-03 0. -1.
        -12    1    3    3    0    0 -0.20244755495E+02 -0.83947719455E+01  0.10953324517E+02  0.24500972206E+02  0.00000000000E+00 0.  1.
</event>
<event>
 7    1  0.7821043E-012  0.5930183E+02  0.7816164E-02  0.1266605E+00
        -11   -1    0    0    0    0  0.00000000000E+00  0.00000000000E+00  0.45593999997E+02  0.45594000000E+02  0.51100000000E-03 0.  1.
         11   -1    0    0    0    0 -0.00000000000E+00 -0.00000000000E+00 -0.45593999997E+02  0.45594000000E+02  0.51100000000E-03 0. -1.
    9900012    2    1    2    0    0 -0.18495948896E+01 -0.17348996866E+02 -0.26689304977E+02  0.59301832251E+02  0.49999796146E+02 0.  0.
         12    1    1    2    0    0  0.18495948896E+01  0.17348996866E+02  0.26689304977E+02  0.31886167749E+02  0.00000000000E+00 0. -1.
         11    1    3    3    0    0  0.11629327995E+02 -0.21444599887E+01 -0.29554075538E+02  0.31832112080E+02  0.51100000000E-03 0. -1.
        -11    1    3    3    0    0  0.19452485248E+01 -0.10933552294E+02  0.28500658599E+01  0.11465139914E+02  0.51100000000E-03 0.  1.
        -12    1    3    3    0    0 -0.15424171410E+02 -0.42709845834E+01  0.14704701200E-01  0.16004580257E+02  0.00000000000E+00 0.  1.
</event>
<event>
 7    1  0.7821043E-012  0.5930193E+02  0.7816164E-02  0.1266605E+00
        -11   -1    0    0    0    0  0.00000000000E+00  0.00000000000E+00  0.45593999997E+02  0.45594000000E+02  0.51100000000E-03 0. -1.
         11   -1    0    0    0    0 -0.00000000000E+00 -0.00000000000E+00 -0.45593999997E+02  0.45594000000E+02  0.51100000000E-03 0.  1.
    9900012    2    1    2    0    0  0.23503815402E+02  0.75351798013E+01 -0.20186959568E+02  0.59301927654E+02  0.49999970137E+02 0.  0.
         12    1    1    2    0    0 -0.23503815402E+02 -0.75351798013E+01  0.20186959568E+02  0.31886072346E+02  0.00000000000E+00 0. -1.
         11    1    3    3    0    0  0.67115411667E+01 -0.56811140351E+01  0.13118222080E+02  0.15792643614E+02  0.51100000000E-03 0. -1.
        -11    1    3    3    0    0  0.20025534370E+02  0.77144373283E+01 -0.23644258260E+02  0.31930949235E+02  0.51100000000E-03 0.  1.
        -12    1    3    3    0    0 -0.32332601352E+01  0.55018565081E+01 -0.96609233879E+01  0.11578334804E+02  0.00000000000E+00 0.  1.
</event>
<event>
 7    1  0.7821043E-012  0.5930198E+02  0.7816164E-02  0.1266605E+00
        -11   -1    0    0    0    0  0.00000000000E+00  0.00000000000E+00  0.45593999997E+02  0.45594000000E+02  0.51100000000E-03 0. -1.
         11   -1    0    0    0    0 -0.00000000000E+00 -0.00000000000E+00 -0.45593999997E+02  0.45594000000E+02  0.51100000000E-03 0.  1.
    9900012    2    1    2    0    0  0.30764510435E+02  0.76732697160E+01 -0.33739961239E+01  0.59301983938E+02  0.50000072787E+02 0.  0.
         12    1    1    2    0    0 -0.30764510435E+02 -0.76732697160E+01  0.33739961239E+01  0.31886016062E+02  0.00000000000E+00 0. -1.
         11    1    3    3    0    0 -0.73459643780E+01 -0.91726188245E+00  0.47794968492E+01  0.88118189040E+01  0.51100000000E-03 0. -1.
        -11    1    3    3    0    0  0.27391062895E+02 -0.46742711782E+01 -0.15615885438E+02  0.31874362987E+02  0.51100000000E-03 0.  1.
        -12    1    3    3    0    0  0.10719411918E+02  0.13264802777E+02  0.74623924645E+01  0.18615802047E+02  0.00000000000E+00 0.  1.
</event>
<event>
 7    1  0.7821043E-012  0.5930193E+02  0.7816164E-02  0.1266605E+00
        -11   -1    0    0    0    0  0.00000000000E+00  0.00000000000E+00  0.45593999997E+02  0.45594000000E+02  0.51100000000E-03 0. -1.
         11   -1    0    0    0    0 -0.00000000000E+00 -0.00000000000E+00 -0.45593999997E+02  0.45594000000E+02  0.51100000000E-03 0.  1.
    9900012    2    1    2    0    0  0.17495684159E+01  0.26530033559E+01 -0.31727304525E+02  0.59301932998E+02  0.49999979884E+02 0.  0.
         12    1    1    2    0    0 -0.17495684159E+01 -0.26530033559E+01  0.31727304525E+02  0.31886067002E+02  0.00000000000E+00 0. -1.
         11    1    3    3    0    0 -0.17378415030E+02  0.17483477476E+02 -0.15428347276E+02  0.29081182808E+02  0.51100000000E-03 0. -1.
        -11    1    3    3    0    0  0.95598922483E+01 -0.65970761322E+01 -0.32406700903E+01  0.12058809899E+02  0.51100000000E-03 0.  1.
         12    1    3    3    0    0  0.95680911972E+01 -0.82333979880E+01 -0.13058287158E+02  0.18161940290E+02  0.00000000000E+00 0. -1.
</event>
<event>
 7    1  0.7821043E-012  0.5930182E+02  0.7816164E-02  0.1266605E+00
        -11   -1    0    0    0    0  0.00000000000E+00  0.00000000000E+00  0.45593999997E+02  0.45594000000E+02  0.51100000000E-03 0. -1.
         11   -1    0    0    0    0 -0.00000000000E+00 -0.00000000000E+00 -0.45593999997E+02  0.45594000000E+02  0.51100000000E-03 0.  1.
    9900012    2    1    2    0    0 -0.21373154945E+02  0.20236794745E+02 -0.12263307151E+02  0.59301822491E+02  0.49999778346E+02 0.  0.
         12    1    1    2    0    0  0.21373154945E+02 -0.20236794745E+02  0.12263307151E+02  0.31886177509E+02  0.00000000000E+00 0. -1.
         11    1    3    3    0    0  0.30634816230E+01  0.27146084227E+02  0.59463053257E+01  0.27958064236E+02  0.51100000000E-03 0. -1.
        -11    1    3    3    0    0 -0.15322830401E+02 -0.55230453127E+01 -0.11929389638E+02  0.20189192615E+02  0.51100000000E-03 0.  1.
         12    1    3    3    0    0 -0.91138061669E+01 -0.13862441699E+01 -0.62802228382E+01  0.11154565641E+02  0.00000000000E+00 0. -1.
</event>
<event>
 7    1  0.7821043E-012  0.5930195E+02  0.7816164E-02  0.1266605E+00
        -11   -1    0    0    0    0  0.00000000000E+00  0.00000000000E+00  0.45593999997E+02  0.45594000000E+02  0.51100000000E-03 0.  1.
         11   -1    0    0    0    0 -0.00000000000E+00 -0.00000000000E+00 -0.45593999997E+02  0.45594000000E+02  0.51100000000E-03 0. -1.
    9900012    2    1    2    0    0 -0.46678149803E+01  0.16299450175E+02  0.27004802103E+02  0.59301954317E+02  0.50000018764E+02 0.  0.
         12    1    1    2    0    0  0.46678149803E+01 -0.16299450175E+02 -0.27004802103E+02  0.31886045683E+02  0.00000000000E+00 0. -1.
         11    1    3    3    0    0 -0.11485648850E+02  0.48016995595E+01 -0.81517822771E+01  0.14880457073E+02  0.51100000000E-03 0. -1.
        -11    1    3    3    0    0  0.11755514673E+02  0.12337769134E+02  0.35523304731E+02  0.39399465120E+02  0.51100000000E-03 0.  1.
        -12    1    3    3    0    0 -0.49376808042E+01 -0.84001851783E+00 -0.36672035121E+00  0.50220321236E+01  0.00000000000E+00 0.  1.
</event>
<event>
 7    1  0.7821043E-012  0.5930191E+02  0.7816164E-02  0.1266605E+00
        -11   -1    0    0    0    0  0.00000000000E+00  0.00000000000E+00  0.45593999997E+02  0.45594000000E+02  0.51100000000E-03 0.  1.
         11   -1    0    0    0    0 -0.00000000000E+00 -0.00000000000E+00 -0.45593999997E+02  0.45594000000E+02  0.51100000000E-03 0. -1.
    9900012    2    1    2    0    0 -0.15010533980E+02  0.86867937458E+01  0.26757176432E+02  0.59301905749E+02  0.49999930190E+02 0.  0.
         12    1    1    2    0    0  0.15010533980E+02 -0.86867937458E+01 -0.26757176432E+02  0.31886094251E+02  0.00000000000E+00 0. -1.
         11    1    3    3    0    0 -0.12827800976E+02  0.11143595874E+02  0.27915754026E+02  0.32680598679E+02  0.51100000000E-03 0.  1.
        -11    1    3    3    0    0  0.71190204303E+01 -0.11548406732E+02 -0.40476673169E-01  0.13566421361E+02  0.51100000000E-03 0. -1.
         12    1    3    3    0    0 -0.93017534344E+01  0.90916046035E+01 -0.11181009213E+01  0.13054885710E+02  0.00000000000E+00 0. -1.
</event>
<event>
 7    1  0.7821043E-012  0.5930192E+02  0.7816164E-02  0.1266605E+00
        -11   -1    0    0    0    0  0.00000000000E+00  0.00000000000E+00  0.45593999997E+02  0.45594000000E+02  0.51100000000E-03 0.  1.
         11   -1    0    0    0    0 -0.00000000000E+00 -0.00000000000E+00 -0.45593999997E+02  0.45594000000E+02  0.51100000000E-03 0. -1.
    9900012    2    1    2    0    0  0.14896544088E+02  0.27469998436E+02  0.63414661261E+01  0.59301921023E+02  0.49999958046E+02 0.  0.
         12    1    1    2    0    0 -0.14896544088E+02 -0.27469998436E+02 -0.63414661261E+01  0.31886078977E+02  0.00000000000E+00 0. -1.
         11    1    3    3    0    0 -0.59020282802E+01  0.25099689499E+02 -0.38346657889E+01  0.26067854011E+02  0.51100000000E-03 0. -1.
        -11    1    3    3    0    0  0.17681565964E+02  0.70495926931E+01 -0.26605110687E+01  0.19220115803E+02  0.51100000000E-03 0.  1.
         12    1    3    3    0    0  0.31170064042E+01 -0.46792837559E+01  0.12836642984E+02  0.14013951209E+02  0.00000000000E+00 0. -1.
</event>
<event>
 7    1  0.7821043E-012  0.5930193E+02  0.7816164E-02  0.1266605E+00
        -11   -1    0    0    0    0  0.00000000000E+00  0.00000000000E+00  0.45593999997E+02  0.45594000000E+02  0.51100000000E-03 0.  1.
         11   -1    0    0    0    0 -0.00000000000E+00 -0.00000000000E+00 -0.45593999997E+02  0.45594000000E+02  0.51100000000E-03 0. -1.
    9900012    2    1    2    0    0  0.12342295883E+01  0.19383441118E+02  0.25287953687E+02  0.59301926019E+02  0.49999967156E+02 0.  0.
         12    1    1    2    0    0 -0.12342295883E+01 -0.19383441118E+02 -0.25287953687E+02  0.31886073981E+02  0.00000000000E+00 0. -1.
         11    1    3    3    0    0  0.56083612845E+01  0.72746621303E+01 -0.54239246989E+01  0.10667398221E+02  0.51100000000E-03 0. -1.
        -11    1    3    3    0    0  0.11441540905E+02  0.12783345959E+02  0.27606214441E+02  0.32502705552E+02  0.51100000000E-03 0.  1.
        -12    1    3    3    0    0 -0.15815672601E+02 -0.67456697142E+00  0.31056639454E+01  0.16131822246E+02  0.00000000000E+00 0.  1.
</event>
<event>
 7    1  0.7821043E-012  0.5930193E+02  0.7816164E-02  0.1266605E+00
        -11   -1    0    0    0    0  0.00000000000E+00  0.00000000000E+00  0.45593999997E+02  0.45594000000E+02  0.51100000000E-03 0. -1.
         11   -1    0    0    0    0 -0.00000000000E+00 -0.00000000000E+00 -0.45593999997E+02  0.45594000000E+02  0.51100000000E-03 0.  1.
    9900012    2    1    2    0    0 -0.11313442451E+02 -0.24549746930E+02 -0.16912634234E+02  0.59301933275E+02  0.49999980391E+02 0.  0.
         12    1    1    2    0    0  0.11313442451E+02  0.24549746930E+02  0.16912634234E+02  0.31886066725E+02  0.00000000000E+00 0. -1.
         11    1    3    3    0    0  0.92857228142E+01  0.19466588330E+01 -0.53762547632E+01  0.10904964206E+02  0.51100000000E-03 0. -1.
        -11    1    3    3    0    0 -0.19018009068E+02 -0.31377517134E+01  0.47814355251E+01  0.19859312190E+02  0.51100000000E-03 0.  1.
        -12    1    3    3    0    0 -0.15811561975E+01 -0.23358654050E+02 -0.16317814996E+02  0.28537656880E+02  0.00000000000E+00 0.  1.
</event>
<event>
 7    1  0.7821043E-012  0.5930171E+02  0.7816164E-02  0.1266606E+00
        -11   -1    0    0    0    0  0.00000000000E+00  0.00000000000E+00  0.45593999997E+02  0.45594000000E+02  0.51100000000E-03 0. -1.
         11   -1    0    0    0    0 -0.00000000000E+00 -0.00000000000E+00 -0.45593999997E+02  0.45594000000E+02  0.51100000000E-03 0.  1.
    9900012    2    1    2    0    0  0.27270899452E+02  0.13935150376E+02 -0.88794728227E+01  0.59301711245E+02  0.49999575459E+02 0.  0.
         12    1    1    2    0    0 -0.27270899452E+02 -0.13935150376E+02  0.88794728227E+01  0.31886288755E+02  0.00000000000E+00 0. -1.
         11    1    3    3    0    0  0.31455335736E+01 -0.48539088302E+01  0.96406186581E+01  0.11242612720E+02  0.51100000000E-03 0. -1.
        -11    1    3    3    0    0  0.99880672473E+01  0.35383350604E+01 -0.24270927866E+02  0.26483187914E+02  0.51100000000E-03 0.  1.
        -12    1    3    3    0    0  0.14137298631E+02  0.15250724146E+02  0.57508363857E+01  0.21575910611E+02  0.00000000000E+00 0.  1.
</event>
<event>
 7    1  0.7821043E-012  0.5930195E+02  0.7816164E-02  0.1266605E+00
        -11   -1    0    0    0    0  0.00000000000E+00  0.00000000000E+00  0.45593999997E+02  0.45594000000E+02  0.51100000000E-03 0. -1.
         11   -1    0    0    0    0 -0.00000000000E+00 -0.00000000000E+00 -0.45593999997E+02  0.45594000000E+02  0.51100000000E-03 0.  1.
    9900012    2    1    2    0    0 -0.20682253528E+02  0.32410003657E+01  0.24051211359E+02  0.59301945647E+02  0.50000002954E+02 0.  0.
         12    1    1    2    0    0  0.20682253528E+02 -0.32410003657E+01 -0.24051211359E+02  0.31886054353E+02  0.00000000000E+00 0. -1.
         11    1    3    3    0    0 -0.64304807235E+00  0.19797993347E+01  0.98422644212E+01  0.10059984365E+02  0.51100000000E-03 0. -1.
        -11    1    3    3    0    0 -0.65618373700E+01  0.15116106327E+02 -0.92090304754E+01  0.18877516328E+02  0.51100000000E-03 0.  1.
        -12    1    3    3    0    0 -0.13477368085E+02 -0.13854905296E+02  0.23417977413E+02  0.30364444954E+02  0.00000000000E+00 0.  1.
</event>
<event>
 7    1  0.7821043E-012  0.5930195E+02  0.7816164E-02  0.1266605E+00
        -11   -1    0    0    0    0  0.00000000000E+00  0.00000000000E+00  0.45593999997E+02  0.45594000000E+02  0.51100000000E-03 0. -1.
         11   -1    0    0    0    0 -0.00000000000E+00 -0.00000000000E+00 -0.45593999997E+02  0.45594000000E+02  0.51100000000E-03 0.  1.
    9900012    2    1    2    0    0  0.63661453241E+01 -0.18053751444E+02  0.25500087281E+02  0.59301949777E+02  0.50000010485E+02 0.  0.
         12    1    1    2    0    0 -0.63661453241E+01  0.18053751444E+02 -0.25500087281E+02  0.31886050223E+02  0.00000000000E+00 0. -1.
         11    1    3    3    0    0 -0.28207890297E+01  0.93684896361E+01  0.60157254265E+01  0.11485399492E+02  0.51100000000E-03 0. -1.
        -11    1    3    3    0    0  0.19782422458E+02 -0.17389243744E+02  0.20221453898E+02  0.33205981905E+02  0.51100000000E-03 0.  1.
        -12    1    3    3    0    0 -0.10595488104E+02 -0.10032997336E+02 -0.73709204321E+00  0.14610568380E+02  0.00000000000E+00 0.  1.
</event>
<event>
 7    1  0.7821043E-012  0.5930189E+02  0.7816164E-02  0.1266605E+00
        -11   -1    0    0    0    0  0.00000000000E+00  0.00000000000E+00  0.45593999997E+02  0.45594000000E+02  0.51100000000E-03 0. -1.
         11   -1    0    0    0    0 -0.00000000000E+00 -0.00000000000E+00 -0.45593999997E+02  0.45594000000E+02  0.51100000000E-03 0.  1.
    9900012    2    1    2    0    0  0.28200586039E+02  0.14291283562E+02 -0.41485322956E+01  0.59301887678E+02  0.49999897232E+02 0.  0.
         12    1    1    2    0    0 -0.28200586039E+02 -0.14291283562E+02  0.41485322956E+01  0.31886112322E+02  0.00000000000E+00 0. -1.
         11    1    3    3    0    0 -0.76479003301E+01  0.14916598413E+02 -0.97680585543E+00  0.16791350083E+02  0.51100000000E-03 0. -1.
        -11    1    3    3    0    0  0.23680978013E+02  0.94378628738E+00 -0.12781455150E+02  0.26926660547E+02  0.51100000000E-03 0.  1.
         12    1    3    3    0    0  0.12167508356E+02 -0.15691011382E+01  0.96097287095E+01  0.15583877048E+02  0.00000000000E+00 0. -1.
</event>
<event>
 7    1  0.7821043E-012  0.5930194E+02  0.7816164E-02  0.1266605E+00
        -11   -1    0    0    0    0  0.00000000000E+00  0.00000000000E+00  0.45593999997E+02  0.45594000000E+02  0.51100000000E-03 0.  1.
         11   -1    0    0    0    0 -0.00000000000E+00 -0.00000000000E+00 -0.45593999997E+02  0.45594000000E+02  0.51100000000E-03 0. -1.
    9900012    2    1    2    0    0  0.62448247460E+01  0.15972220404E+02  0.26881428387E+02  0.59301939521E+02  0.49999991780E+02 0.  0.
         12    1    1    2    0    0 -0.62448247460E+01 -0.15972220404E+02 -0.26881428387E+02  0.31886060479E+02  0.00000000000E+00 0. -1.
         11    1    3    3    0    0 -0.10764850925E+01  0.12260024578E+02  0.84585919318E+01  0.14933680073E+02  0.51100000000E-03 0. -1.
        -11    1    3    3    0    0 -0.54206228706E+01 -0.14795690194E+02  0.14781289520E+02  0.21605141072E+02  0.51100000000E-03 0.  1.
        -12    1    3    3    0    0  0.12741932709E+02  0.18507886020E+02  0.36415469356E+01  0.22763118375E+02  0.00000000000E+00 0.  1.
</event>
<event>
 7    1  0.7821043E-012  0.5930191E+02  0.7816164E-02  0.1266605E+00
        -11   -1    0    0    0    0  0.00000000000E+00  0.00000000000E+00  0.45593999997E+02  0.45594000000E+02  0.51100000000E-03 0.  1.
         11   -1    0    0    0    0 -0.00000000000E+00 -0.00000000000E+00 -0.45593999997E+02  0.45594000000E+02  0.51100000000E-03 0. -1.
    9900012    2    1    2    0    0  0.30130675074E+02  0.21877077977E+01  0.10201903324E+02  0.59301914049E+02  0.49999945326E+02 0.  0.
         12    1    1    2    0    0 -0.30130675074E+02 -0.21877077977E+01 -0.10201903324E+02  0.31886085951E+02  0.00000000000E+00 0. -1.
         11    1    3    3    0    0  0.10284439815E+02  0.18065528354E+02 -0.41686693483E+01  0.21201670250E+02  0.51100000000E-03 0.  1.
        -11    1    3    3    0    0  0.89216763454E+01 -0.19705067446E+02  0.29354871112E+01  0.21828950426E+02  0.51100000000E-03 0. -1.
         12    1    3    3    0    0  0.10924558914E+02  0.38272468899E+01  0.11435085561E+02  0.16271293373E+02  0.00000000000E+00 0. -1.
</event>
<event>
 7    1  0.7821043E-012  0.5930195E+02  0.7816164E-02  0.1266605E+00
        -11   -1    0    0    0    0  0.00000000000E+00  0.00000000000E+00  0.45593999997E+02  0.45594000000E+02  0.51100000000E-03 0.  1.
         11   -1    0    0    0    0 -0.00000000000E+00 -0.00000000000E+00 -0.45593999997E+02  0.45594000000E+02  0.51100000000E-03 0. -1.
    9900012    2    1    2    0    0 -0.15062115462E+01 -0.30334060943E+02  0.97106319044E+01  0.59301948214E+02  0.50000007635E+02 0.  0.
         12    1    1    2    0    0  0.15062115462E+01  0.30334060943E+02 -0.97106319044E+01  0.31886051786E+02  0.00000000000E+00 0. -1.
         11    1    3    3    0    0  0.15625468158E+02 -0.97628013720E+01 -0.13287147357E+02  0.22715981840E+02  0.51100000000E-03 0. -1.
        -11    1    3    3    0    0 -0.72583670709E+01 -0.31653391351E+01  0.98662773415E+01  0.12650956217E+02  0.51100000000E-03 0.  1.
         12    1    3    3    0    0 -0.98733126333E+01 -0.17405920436E+02  0.13131501920E+02  0.23935010157E+02  0.00000000000E+00 0. -1.
</event>
<event>
 7    1  0.7821043E-012  0.5930197E+02  0.7816164E-02  0.1266605E+00
        -11   -1    0    0    0    0  0.00000000000E+00  0.00000000000E+00  0.45593999997E+02  0.45594000000E+02  0.51100000000E-03 0. -1.
         11   -1    0    0    0    0 -0.00000000000E+00 -0.00000000000E+00 -0.45593999997E+02  0.45594000000E+02  0.51100000000E-03 0.  1.
    9900012    2    1    2    0    0 -0.13873313323E+02  0.36773715092E+01 -0.28473272631E+02  0.59301966410E+02  0.50000040820E+02 0.  0.
         12    1    1    2    0    0  0.13873313323E+02 -0.36773715092E+01  0.28473272631E+02  0.31886033590E+02  0.00000000000E+00 0. -1.
         11    1    3    3    0    0 -0.29056103506E+02  0.45032132603E+01 -0.76481918381E+01  0.30381423918E+02  0.51100000000E-03 0. -1.
        -11    1    3    3    0    0  0.15620105868E+02  0.26090438940E+01 -0.19707557580E+02  0.25282061692E+02  0.51100000000E-03 0.  1.
         12    1    3    3    0    0 -0.43731568491E+00 -0.34348856451E+01 -0.11175232132E+01  0.36384808005E+01  0.00000000000E+00 0. -1.
</event>
<event>
 7    1  0.7821043E-012  0.5930202E+02  0.7816164E-02  0.1266605E+00
        -11   -1    0    0    0    0  0.00000000000E+00  0.00000000000E+00  0.45593999997E+02  0.45594000000E+02  0.51100000000E-03 0.  1.
         11   -1    0    0    0    0 -0.00000000000E+00 -0.00000000000E+00 -0.45593999997E+02  0.45594000000E+02  0.51100000000E-03 0. -1.
    9900012    2    1    2    0    0 -0.30895410584E+02 -0.52890843292E+01  0.58493765429E+01  0.59302015397E+02  0.50000130159E+02 0.  0.
         12    1    1    2    0    0  0.30895410584E+02  0.52890843292E+01 -0.58493765429E+01  0.31885984603E+02  0.00000000000E+00 0. -1.
         11    1    3    3    0    0  0.33617163280E+01 -0.24870054460E+01 -0.34594179257E+01  0.54271452352E+01  0.51100000000E-03 0. -1.
        -11    1    3    3    0    0 -0.43254346853E+02 -0.15214254164E+00  0.10237637696E+02  0.44449644486E+02  0.51100000000E-03 0.  1.
        -12    1    3    3    0    0  0.89972199415E+01 -0.26499363415E+01 -0.92884322775E+00  0.94252256754E+01  0.00000000000E+00 0.  1.
</event>
<event>
 7    1  0.7821043E-012  0.5930200E+02  0.7816164E-02  0.1266605E+00
        -11   -1    0    0    0    0  0.00000000000E+00  0.00000000000E+00  0.45593999997E+02  0.45594000000E+02  0.51100000000E-03 0.  1.
         11   -1    0    0    0    0 -0.00000000000E+00 -0.00000000000E+00 -0.45593999997E+02  0.45594000000E+02  0.51100000000E-03 0. -1.
    9900012    2    1    2    0    0  0.19306607063E+02 -0.22342885912E+02  0.12031936438E+02  0.59301998030E+02  0.50000098487E+02 0.  0.
         12    1    1    2    0    0 -0.19306607063E+02  0.22342885912E+02 -0.12031936438E+02  0.31886001970E+02  0.00000000000E+00 0. -1.
         11    1    3    3    0    0 -0.52560149792E+01  0.31024621777E+01 -0.12358811675E+02  0.13783729224E+02  0.51100000000E-03 0. -1.
        -11    1    3    3    0    0  0.13638761577E+02 -0.19301094387E+02  0.81406352923E+01  0.24996359838E+02  0.51100000000E-03 0.  1.
         12    1    3    3    0    0  0.10923860465E+02 -0.61442537024E+01  0.16250112821E+02  0.20521908969E+02  0.00000000000E+00 0. -1.
</event>
<event>
 7    1  0.7821043E-012  0.5930197E+02  0.7816164E-02  0.1266605E+00
        -11   -1    0    0    0    0  0.00000000000E+00  0.00000000000E+00  0.45593999997E+02  0.45594000000E+02  0.51100000000E-03 0. -1.
         11   -1    0    0    0    0 -0.00000000000E+00 -0.00000000000E+00 -0.45593999997E+02  0.45594000000E+02  0.51100000000E-03 0.  1.
    9900012    2    1    2    0    0 -0.14146102073E+02  0.84598507276E+01 -0.27295375508E+02  0.59301971675E+02  0.50000050422E+02 0.  0.
         12    1    1    2    0    0  0.14146102073E+02 -0.84598507276E+01  0.27295375508E+02  0.31886028325E+02  0.00000000000E+00 0. -1.
         11    1    3    3    0    0  0.72184693886E+01  0.13985526820E+00 -0.82817229462E+01  0.10986937473E+02  0.51100000000E-03 0. -1.
        -11    1    3    3    0    0 -0.21083722954E+02  0.19190469087E+02 -0.23105150514E+02  0.36696668213E+02  0.51100000000E-03 0.  1.
         12    1    3    3    0    0 -0.28084850718E+00 -0.10870473628E+02  0.40914979521E+01  0.11618365989E+02  0.00000000000E+00 0. -1.
</event>
<event>
 7    1  0.7821043E-012  0.5930191E+02  0.7816164E-02  0.1266605E+00
        -11   -1    0    0    0    0  0.00000000000E+00  0.00000000000E+00  0.45593999997E+02  0.45594000000E+02  0.51100000000E-03 0. -1.
         11   -1    0    0    0    0 -0.00000000000E+00 -0.00000000000E+00 -0.45593999997E+02  0.45594000000E+02  0.51100000000E-03 0.  1.
    9900012    2    1    2    0    0 -0.62540274174E+01 -0.14445447268E+02 -0.27729743382E+02  0.59301914105E+02  0.49999945428E+02 0.  0.
         12    1    1    2    0    0  0.62540274174E+01  0.14445447268E+02  0.27729743382E+02  0.31886085895E+02  0.00000000000E+00 0. -1.
         11    1    3    3    0    0  0.11346813895E+02  0.32162037056E+01  0.52545298797E+01  0.12911399473E+02  0.51100000000E-03 0. -1.
        -11    1    3    3    0    0 -0.20617856170E+02 -0.11914416888E+02 -0.17352189891E+02  0.29464348239E+02  0.51100000000E-03 0.  1.
         12    1    3    3    0    0  0.30170148580E+01 -0.57472340848E+01 -0.15632083370E+02  0.16926166393E+02  0.00000000000E+00 0. -1.
</event>
<event>
 7    1  0.7821043E-012  0.5930196E+02  0.7816164E-02  0.1266605E+00
        -11   -1    0    0    0    0  0.00000000000E+00  0.00000000000E+00  0.45593999997E+02  0.45594000000E+02  0.51100000000E-03 0. -1.
         11   -1    0    0    0    0 -0.00000000000E+00 -0.00000000000E+00 -0.45593999997E+02  0.45594000000E+02  0.51100000000E-03 0.  1.
    9900012    2    1    2    0    0  0.24539751214E+02  0.28081296912E+01  0.20165185958E+02  0.59301957494E+02  0.50000024559E+02 0.  0.
         12    1    1    2    0    0 -0.24539751214E+02 -0.28081296912E+01 -0.20165185958E+02  0.31886042506E+02  0.00000000000E+00 0. -1.
         11    1    3    3    0    0 -0.14342092115E+01  0.63441815456E+01  0.65346025236E+01  0.92199037928E+01  0.51100000000E-03 0. -1.
        -11    1    3    3    0    0 -0.28873111226E+01 -0.15509997750E+02 -0.51013514427E+00  0.15784702526E+02  0.51100000000E-03 0.  1.
        -12    1    3    3    0    0  0.28861271548E+02  0.11973945895E+02  0.14140718579E+02  0.34297351175E+02  0.00000000000E+00 0.  1.
</event>
<event>
 7    1  0.7821043E-012  0.5930196E+02  0.7816164E-02  0.1266605E+00
        -11   -1    0    0    0    0  0.00000000000E+00  0.00000000000E+00  0.45593999997E+02  0.45594000000E+02  0.51100000000E-03 0.  1.
         11   -1    0    0    0    0 -0.00000000000E+00 -0.00000000000E+00 -0.45593999997E+02  0.45594000000E+02  0.51100000000E-03 0. -1.
    9900012    2    1    2    0    0 -0.23908544502E+02  0.10327529482E+02  0.18396824560E+02  0.59301960432E+02  0.50000029918E+02 0.  0.
         12    1    1    2    0    0  0.23908544502E+02 -0.10327529482E+02 -0.18396824560E+02  0.31886039568E+02  0.00000000000E+00 0. -1.
         11    1    3    3    0    0 -0.16689879476E+02 -0.73599622313E+01 -0.76893438038E+00  0.18256844780E+02  0.51100000000E-03 0. -1.
        -11    1    3    3    0    0 -0.10032124589E+02  0.17697077085E+02  0.26373614435E+02  0.33307620746E+02  0.51100000000E-03 0.  1.
         12    1    3    3    0    0  0.28134595632E+01 -0.95853717583E-02 -0.72078554946E+01  0.77374949063E+01  0.00000000000E+00 0. -1.
</event>
<event>
 7    1  0.7821043E-012  0.5930194E+02  0.7816164E-02  0.1266605E+00
        -11   -1    0    0    0    0  0.00000000000E+00  0.00000000000E+00  0.45593999997E+02  0.45594000000E+02  0.51100000000E-03 0.  1.
         11   -1    0    0    0    0 -0.00000000000E+00 -0.00000000000E+00 -0.45593999997E+02  0.45594000000E+02  0.51100000000E-03 0. -1.
    9900012    2    1    2    0    0 -0.23648827872E+02 -0.19342628064E+02  0.91277713696E+01  0.59301944579E+02  0.50000001005E+02 0.  0.
         12    1    1    2    0    0  0.23648827872E+02  0.19342628064E+02 -0.91277713696E+01  0.31886055421E+02  0.00000000000E+00 0. -1.
         11    1    3    3    0    0  0.85047025808E+01  0.27749737065E+01  0.71762101994E+00  0.89747103156E+01  0.51100000000E-03 0. -1.
        -11    1    3    3    0    0 -0.23721467127E+02 -0.18457887442E+02  0.19572235424E+02  0.35867450581E+02  0.51100000000E-03 0.  1.
        -12    1    3    3    0    0 -0.84320633264E+01 -0.36597143289E+01 -0.11162085075E+02  0.14459783682E+02  0.00000000000E+00 0.  1.
</event>
<event>
 7    1  0.7821043E-012  0.5930197E+02  0.7816164E-02  0.1266605E+00
        -11   -1    0    0    0    0  0.00000000000E+00  0.00000000000E+00  0.45593999997E+02  0.45594000000E+02  0.51100000000E-03 0.  1.
         11   -1    0    0    0    0 -0.00000000000E+00 -0.00000000000E+00 -0.45593999997E+02  0.45594000000E+02  0.51100000000E-03 0. -1.
    9900012    2    1    2    0    0  0.38036655467E+01 -0.19283446776E+02  0.25107763538E+02  0.59301968873E+02  0.50000045311E+02 0.  0.
         12    1    1    2    0    0 -0.38036655467E+01  0.19283446776E+02 -0.25107763538E+02  0.31886031127E+02  0.00000000000E+00 0. -1.
         11    1    3    3    0    0  0.12313958885E+02 -0.20010133840E+02  0.23951635982E+01  0.23617278604E+02  0.51100000000E-03 0. -1.
        -11    1    3    3    0    0 -0.63959382707E+01  0.10483445894E+02  0.16693763083E+01  0.12393445110E+02  0.51100000000E-03 0.  1.
         12    1    3    3    0    0 -0.21143550677E+01 -0.97567588304E+01  0.21043223632E+02  0.23291245159E+02  0.00000000000E+00 0. -1.
</event>
<event>
 7    1  0.7821043E-012  0.5930195E+02  0.7816164E-02  0.1266605E+00
        -11   -1    0    0    0    0  0.00000000000E+00  0.00000000000E+00  0.45593999997E+02  0.45594000000E+02  0.51100000000E-03 0. -1.
         11   -1    0    0    0    0 -0.00000000000E+00 -0.00000000000E+00 -0.45593999997E+02  0.45594000000E+02  0.51100000000E-03 0.  1.
    9900012    2    1    2    0    0  0.29805444876E+02  0.63835102479E+01 -0.93598258800E+01  0.59301951518E+02  0.50000013660E+02 0.  0.
         12    1    1    2    0    0 -0.29805444876E+02 -0.63835102479E+01  0.93598258800E+01  0.31886048482E+02  0.00000000000E+00 0. -1.
         11    1    3    3    0    0  0.31280814861E+02 -0.15767287715E+01  0.76420246300E+01  0.32239354719E+02  0.51100000000E-03 0. -1.
        -11    1    3    3    0    0 -0.69826290093E+01 -0.33374659323E+01 -0.31422968120E+01  0.83528328276E+01  0.51100000000E-03 0.  1.
         12    1    3    3    0    0  0.55072590234E+01  0.11297704952E+02 -0.13859553698E+02  0.18709763971E+02  0.00000000000E+00 0. -1.
</event>
<event>
 7    1  0.7821043E-012  0.5930194E+02  0.7816164E-02  0.1266605E+00
        -11   -1    0    0    0    0  0.00000000000E+00  0.00000000000E+00  0.45593999997E+02  0.45594000000E+02  0.51100000000E-03 0.  1.
         11   -1    0    0    0    0 -0.00000000000E+00 -0.00000000000E+00 -0.45593999997E+02  0.45594000000E+02  0.51100000000E-03 0. -1.
    9900012    2    1    2    0    0  0.16684639422E+02  0.15590409878E+02  0.22254955124E+02  0.59301935640E+02  0.49999984703E+02 0.  0.
         12    1    1    2    0    0 -0.16684639422E+02 -0.15590409878E+02 -0.22254955124E+02  0.31886064360E+02  0.00000000000E+00 0. -1.
         11    1    3    3    0    0 -0.14046956142E+01  0.25928901767E+02 -0.34407473795E+01  0.26193889734E+02  0.51100000000E-03 0. -1.
        -11    1    3    3    0    0  0.83336741850E+01 -0.45340975158E+01  0.12703360145E+02  0.15855078838E+02  0.51100000000E-03 0.  1.
         12    1    3    3    0    0  0.97556608516E+01 -0.58043943739E+01  0.12992342358E+02  0.17252967068E+02  0.00000000000E+00 0. -1.
</event>
<event>
 7    1  0.7821043E-012  0.5930196E+02  0.7816164E-02  0.1266605E+00
        -11   -1    0    0    0    0  0.00000000000E+00  0.00000000000E+00  0.45593999997E+02  0.45594000000E+02  0.51100000000E-03 0.  1.
         11   -1    0    0    0    0 -0.00000000000E+00 -0.00000000000E+00 -0.45593999997E+02  0.45594000000E+02  0.51100000000E-03 0. -1.
    9900012    2    1    2    0    0 -0.24322292063E+01 -0.22344894630E+02  0.22616580751E+02  0.59301956348E+02  0.50000022469E+02 0.  0.
         12    1    1    2    0    0  0.24322292063E+01  0.22344894630E+02 -0.22616580751E+02  0.31886043652E+02  0.00000000000E+00 0. -1.
         11    1    3    3    0    0  0.16862552819E+01  0.17841331972E+01 -0.83638177865E+01  0.87166528190E+01  0.51100000000E-03 0. -1.
        -11    1    3    3    0    0 -0.13954270039E+02 -0.13602666074E+02  0.30471327670E+02  0.36169821493E+02  0.51100000000E-03 0.  1.
         12    1    3    3    0    0  0.98357855509E+01 -0.10526361753E+02  0.50907086745E+00  0.14415482035E+02  0.00000000000E+00 0. -1.
</event>
<event>
 7    1  0.7821043E-012  0.5930197E+02  0.7816164E-02  0.1266605E+00
        -11   -1    0    0    0    0  0.00000000000E+00  0.00000000000E+00  0.45593999997E+02  0.45594000000E+02  0.51100000000E-03 0. -1.
         11   -1    0    0    0    0 -0.00000000000E+00 -0.00000000000E+00 -0.45593999997E+02  0.45594000000E+02  0.51100000000E-03 0.  1.
    9900012    2    1    2    0    0 -0.21396305746E+02 -0.23946348244E+01  0.23519841174E+02  0.59301966939E+02  0.50000041784E+02 0.  0.
         12    1    1    2    0    0  0.21396305746E+02  0.23946348244E+01 -0.23519841174E+02  0.31886033061E+02  0.00000000000E+00 0. -1.
         11    1    3    3    0    0 -0.41270219860E+00  0.57144884035E+01 -0.12873007315E+02  0.14090422932E+02  0.51100000000E-03 0.  1.
        -11    1    3    3    0    0 -0.18580014889E+02 -0.79015368494E+01  0.37474622293E+02  0.42567576324E+02  0.51100000000E-03 0. -1.
         12    1    3    3    0    0 -0.24035886586E+01 -0.20758637851E+00 -0.10817738038E+01  0.26439676826E+01  0.00000000000E+00 0. -1.
</event>
<event>
 7    1  0.7821043E-012  0.5930202E+02  0.7816164E-02  0.1266605E+00
        -11   -1    0    0    0    0  0.00000000000E+00  0.00000000000E+00  0.45593999997E+02  0.45594000000E+02  0.51100000000E-03 0.  1.
         11   -1    0    0    0    0 -0.00000000000E+00 -0.00000000000E+00 -0.45593999997E+02  0.45594000000E+02  0.51100000000E-03 0. -1.
    9900012    2    1    2    0    0 -0.58579254058E+01 -0.23190799903E+00  0.31342411427E+02  0.59302018355E+02  0.50000135555E+02 0.  0.
         12    1    1    2    0    0  0.58579254058E+01  0.23190799903E+00 -0.31342411427E+02  0.31885981645E+02  0.00000000000E+00 0. -1.
         11    1    3    3    0    0 -0.56230124816E+01  0.51081699093E+01 -0.83761720288E+01  0.11308047016E+02  0.51100000000E-03 0. -1.
        -11    1    3    3    0    0  0.14819635503E+01 -0.15342076331E+02  0.16106283023E+02  0.22293224872E+02  0.51100000000E-03 0.  1.
        -12    1    3    3    0    0 -0.17168764745E+01  0.10001998422E+02  0.23612300433E+02  0.25700746468E+02  0.00000000000E+00 0.  1.
</event>
<event>
 7    1  0.7821043E-012  0.5930195E+02  0.7816164E-02  0.1266605E+00
        -11   -1    0    0    0    0  0.00000000000E+00  0.00000000000E+00  0.45593999997E+02  0.45594000000E+02  0.51100000000E-03 0. -1.
         11   -1    0    0    0    0 -0.00000000000E+00 -0.00000000000E+00 -0.45593999997E+02  0.45594000000E+02  0.51100000000E-03 0.  1.
    9900012    2    1    2    0    0 -0.13644983429E+02 -0.21597590935E+02 -0.19080850382E+02  0.59301947277E+02  0.50000005926E+02 0.  0.
         12    1    1    2    0    0  0.13644983429E+02  0.21597590935E+02  0.19080850382E+02  0.31886052723E+02  0.00000000000E+00 0. -1.
         11    1    3    3    0    0  0.11146350225E+02  0.57394248098E+01 -0.22535100915E+01  0.12738148550E+02  0.51100000000E-03 0. -1.
        -11    1    3    3    0    0 -0.25551670695E+02 -0.30028248163E+02 -0.18225989791E+02  0.43436968899E+02  0.51100000000E-03 0.  1.
        -12    1    3    3    0    0  0.76033704069E+00  0.26912324176E+01  0.13986495013E+01  0.31268298273E+01  0.00000000000E+00 0.  1.
</event>
<event>
 7    1  0.7821043E-012  0.5930193E+02  0.7816164E-02  0.1266605E+00
        -11   -1    0    0    0    0  0.00000000000E+00  0.00000000000E+00  0.45593999997E+02  0.45594000000E+02  0.51100000000E-03 0.  1.
         11   -1    0    0    0    0 -0.00000000000E+00 -0.00000000000E+00 -0.45593999997E+02  0.45594000000E+02  0.51100000000E-03 0. -1.
    9900012    2    1    2    0    0 -0.13091070724E+02  0.83484334005E+01  0.27850479460E+02  0.59301926565E+02  0.49999968152E+02 0.  0.
         12    1    1    2    0    0  0.13091070724E+02 -0.83484334005E+01 -0.27850479460E+02  0.31886073435E+02  0.00000000000E+00 0. -1.
         11    1    3    3    0    0 -0.82366276155E-01 -0.16891016575E+02 -0.12476835276E+01  0.16937235300E+02  0.51100000000E-03 0. -1.
        -11    1    3    3    0    0 -0.82047377750E+01  0.17577904817E+02  0.26711089696E+02  0.33011858062E+02  0.51100000000E-03 0.  1.
         12    1    3    3    0    0 -0.48039666732E+01  0.76615451589E+01  0.23870732914E+01  0.93528332027E+01  0.00000000000E+00 0. -1.
</event>
<event>
 7    1  0.7821043E-012  0.5930192E+02  0.7816164E-02  0.1266605E+00
        -11   -1    0    0    0    0  0.00000000000E+00  0.00000000000E+00  0.45593999997E+02  0.45594000000E+02  0.51100000000E-03 0. -1.
         11   -1    0    0    0    0 -0.00000000000E+00 -0.00000000000E+00 -0.45593999997E+02  0.45594000000E+02  0.51100000000E-03 0.  1.
    9900012    2    1    2    0    0 -0.10995784773E+02  0.99002008785E+01 -0.28245369924E+02  0.59301918674E+02  0.49999953761E+02 0.  0.
         12    1    1    2    0    0  0.10995784773E+02 -0.99002008785E+01  0.28245369924E+02  0.31886081326E+02  0.00000000000E+00 0. -1.
         11    1    3    3    0    0 -0.15019835641E+02 -0.14977100841E+02 -0.15388854946E+02  0.26205454949E+02  0.51100000000E-03 0. -1.
        -11    1    3    3    0    0 -0.22178966661E+01  0.22302533136E+02 -0.13736639429E+02  0.26287208162E+02  0.51100000000E-03 0.  1.
        -12    1    3    3    0    0  0.62419475340E+01  0.25747685836E+01  0.88012445048E+00  0.68092555632E+01  0.00000000000E+00 0.  1.
</event>
<event>
 7    1  0.7821043E-012  0.5930194E+02  0.7816164E-02  0.1266605E+00
        -11   -1    0    0    0    0  0.00000000000E+00  0.00000000000E+00  0.45593999997E+02  0.45594000000E+02  0.51100000000E-03 0.  1.
         11   -1    0    0    0    0 -0.00000000000E+00 -0.00000000000E+00 -0.45593999997E+02  0.45594000000E+02  0.51100000000E-03 0. -1.
    9900012    2    1    2    0    0  0.89924881430E+01  0.15690773182E+02  0.26261296429E+02  0.59301938842E+02  0.49999990543E+02 0.  0.
         12    1    1    2    0    0 -0.89924881430E+01 -0.15690773182E+02 -0.26261296429E+02  0.31886061158E+02  0.00000000000E+00 0. -1.
         11    1    3    3    0    0  0.18311217800E+02 -0.25504707221E+01 -0.44179064671E+01  0.19008511147E+02  0.51100000000E-03 0. -1.
        -11    1    3    3    0    0 -0.71943531762E+01  0.27051579370E+01  0.25665803466E+01  0.81033284535E+01  0.51100000000E-03 0.  1.
         12    1    3    3    0    0 -0.21243764805E+01  0.15536085967E+02  0.28112622549E+02  0.32190099242E+02  0.00000000000E+00 0. -1.
</event>
<event>
 7    1  0.7821043E-012  0.5930195E+02  0.7816164E-02  0.1266605E+00
        -11   -1    0    0    0    0  0.00000000000E+00  0.00000000000E+00  0.45593999997E+02  0.45594000000E+02  0.51100000000E-03 0.  1.
         11   -1    0    0    0    0 -0.00000000000E+00 -0.00000000000E+00 -0.45593999997E+02  0.45594000000E+02  0.51100000000E-03 0. -1.
    9900012    2    1    2    0    0  0.27959029121E+02  0.14520329621E+02 -0.49166213155E+01  0.59301945888E+02  0.50000003392E+02 0.  0.
         12    1    1    2    0    0 -0.27959029121E+02 -0.14520329621E+02  0.49166213155E+01  0.31886054112E+02  0.00000000000E+00 0. -1.
         11    1    3    3    0    0  0.23196144919E+02  0.14128801222E+02  0.10839115394E+01  0.27181961437E+02  0.51100000000E-03 0.  1.
        -11    1    3    3    0    0 -0.71726619219E+01 -0.10244344264E+02  0.41577196047E+01  0.13178782228E+02  0.51100000000E-03 0. -1.
         12    1    3    3    0    0  0.11935546124E+02  0.10635872664E+02 -0.10158252460E+02  0.18941202222E+02  0.00000000000E+00 0. -1.
</event>
<event>
 7    1  0.7821043E-012  0.5930184E+02  0.7816164E-02  0.1266605E+00
        -11   -1    0    0    0    0  0.00000000000E+00  0.00000000000E+00  0.45593999997E+02  0.45594000000E+02  0.51100000000E-03 0.  1.
         11   -1    0    0    0    0 -0.00000000000E+00 -0.00000000000E+00 -0.45593999997E+02  0.45594000000E+02  0.51100000000E-03 0. -1.
    9900012    2    1    2    0    0 -0.14096289916E+02 -0.12260140698E+02  0.25840101906E+02  0.59301838333E+02  0.49999807237E+02 0.  0.
         12    1    1    2    0    0  0.14096289916E+02  0.12260140698E+02 -0.25840101906E+02  0.31886161667E+02  0.00000000000E+00 0. -1.
         11    1    3    3    0    0 -0.20518998221E+02 -0.63925377777E+00  0.17848900980E+02  0.27203330676E+02  0.51100000000E-03 0.  1.
        -11    1    3    3    0    0  0.11612956819E+02  0.28085960304E+01 -0.40348846633E+01  0.12610680880E+02  0.51100000000E-03 0. -1.
         12    1    3    3    0    0 -0.51902485144E+01 -0.14429482951E+02  0.12026085589E+02  0.19487826776E+02  0.00000000000E+00 0. -1.
</event>
<event>
 7    1  0.7821043E-012  0.5930187E+02  0.7816164E-02  0.1266605E+00
        -11   -1    0    0    0    0  0.00000000000E+00  0.00000000000E+00  0.45593999997E+02  0.45594000000E+02  0.51100000000E-03 0. -1.
         11   -1    0    0    0    0 -0.00000000000E+00 -0.00000000000E+00 -0.45593999997E+02  0.45594000000E+02  0.51100000000E-03 0.  1.
    9900012    2    1    2    0    0  0.17570612632E+02 -0.24448225419E+02 -0.10501578336E+02  0.59301869756E+02  0.49999864546E+02 0.  0.
         12    1    1    2    0    0 -0.17570612632E+02  0.24448225419E+02  0.10501578336E+02  0.31886130244E+02  0.00000000000E+00 0. -1.
         11    1    3    3    0    0  0.17941967731E+02 -0.51147528236E+01  0.98013345711E+01  0.21074654497E+02  0.51100000000E-03 0. -1.
        -11    1    3    3    0    0 -0.96119104264E+01 -0.10712023013E+02 -0.21125952722E+02  0.25562514308E+02  0.51100000000E-03 0.  1.
        -12    1    3    3    0    0  0.92405553265E+01 -0.86214495823E+01  0.82303981512E+00  0.12664700951E+02  0.00000000000E+00 0.  1.
</event>
<event>
 7    1  0.7821043E-012  0.5930193E+02  0.7816164E-02  0.1266605E+00
        -11   -1    0    0    0    0  0.00000000000E+00  0.00000000000E+00  0.45593999997E+02  0.45594000000E+02  0.51100000000E-03 0.  1.
         11   -1    0    0    0    0 -0.00000000000E+00 -0.00000000000E+00 -0.45593999997E+02  0.45594000000E+02  0.51100000000E-03 0. -1.
    9900012    2    1    2    0    0 -0.20085074720E+02  0.24761968688E+02 -0.39535760520E+00  0.59301927375E+02  0.49999969630E+02 0.  0.
         12    1    1    2    0    0  0.20085074720E+02 -0.24761968688E+02  0.39535760520E+00  0.31886072625E+02  0.00000000000E+00 0. -1.
         11    1    3    3    0    0 -0.99742153253E+01 -0.77471350031E+01 -0.90216450480E+01  0.15520732964E+02  0.51100000000E-03 0. -1.
        -11    1    3    3    0    0 -0.16277602177E+02  0.31026588438E+02  0.11419049465E+02  0.36851108717E+02  0.51100000000E-03 0.  1.
        -12    1    3    3    0    0  0.61667427824E+01  0.14825152526E+01 -0.27927620218E+01  0.69300856942E+01  0.00000000000E+00 0.  1.
</event>
<event>
 7    1  0.7821043E-012  0.5930194E+02  0.7816164E-02  0.1266605E+00
        -11   -1    0    0    0    0  0.00000000000E+00  0.00000000000E+00  0.45593999997E+02  0.45594000000E+02  0.51100000000E-03 0.  1.
         11   -1    0    0    0    0 -0.00000000000E+00 -0.00000000000E+00 -0.45593999997E+02  0.45594000000E+02  0.51100000000E-03 0. -1.
    9900012    2    1    2    0    0 -0.15864518454E+01 -0.30673297203E+02  0.85646120746E+01  0.59301943945E+02  0.49999999849E+02 0.  0.
         12    1    1    2    0    0  0.15864518454E+01  0.30673297203E+02 -0.85646120746E+01  0.31886056055E+02  0.00000000000E+00 0. -1.
         11    1    3    3    0    0  0.17528482409E+02 -0.18364676961E+02  0.19239663846E+02  0.31853943565E+02  0.51100000000E-03 0. -1.
        -11    1    3    3    0    0 -0.14374719974E+02 -0.12316781730E+02 -0.12138152707E+02  0.22487117154E+02  0.51100000000E-03 0.  1.
         12    1    3    3    0    0 -0.47402142801E+01  0.81614880240E-02  0.14631009351E+01  0.49608832256E+01  0.00000000000E+00 0. -1.
</event>
<event>
 7    1  0.7821043E-012  0.5930195E+02  0.7816164E-02  0.1266605E+00
        -11   -1    0    0    0    0  0.00000000000E+00  0.00000000000E+00  0.45593999997E+02  0.45594000000E+02  0.51100000000E-03 0. -1.
         11   -1    0    0    0    0 -0.00000000000E+00 -0.00000000000E+00 -0.45593999997E+02  0.45594000000E+02  0.51100000000E-03 0.  1.
    9900012    2    1    2    0    0  0.81970106367E+01 -0.13150942847E+02 -0.27867221642E+02  0.59301947827E+02  0.50000006928E+02 0.  0.
         12    1    1    2    0    0 -0.81970106367E+01  0.13150942847E+02  0.27867221642E+02  0.31886052173E+02  0.00000000000E+00 0. -1.
         11    1    3    3    0    0  0.73952996493E+01 -0.20405479816E+02 -0.36183550369E+01  0.22003785057E+02  0.51100000000E-03 0. -1.
        -11    1    3    3    0    0 -0.51974459213E+01  0.10751327010E+02  0.13744268044E+00  0.11942502558E+02  0.51100000000E-03 0.  1.
        -12    1    3    3    0    0  0.59991569086E+01 -0.34967900415E+01 -0.24386309286E+02  0.25355660212E+02  0.00000000000E+00 0.  1.
</event>
<event>
 7    1  0.7821043E-012  0.5930193E+02  0.7816164E-02  0.1266605E+00
        -11   -1    0    0    0    0  0.00000000000E+00  0.00000000000E+00  0.45593999997E+02  0.45594000000E+02  0.51100000000E-03 0.  1.
         11   -1    0    0    0    0 -0.00000000000E+00 -0.00000000000E+00 -0.45593999997E+02  0.45594000000E+02  0.51100000000E-03 0. -1.
    9900012    2    1    2    0    0 -0.13188715958E+02  0.19317978598E+01  0.28966316594E+02  0.59301928298E+02  0.49999971312E+02 0.  0.
         12    1    1    2    0    0  0.13188715958E+02 -0.19317978598E+01 -0.28966316594E+02  0.31886071702E+02  0.00000000000E+00 0. -1.
         11    1    3    3    0    0 -0.75448537774E+00  0.44574467679E+01 -0.99241518841E+01  0.10905359726E+02  0.51100000000E-03 0. -1.
        -11    1    3    3    0    0 -0.12885061066E+02  0.93579262924E+01  0.28297623809E+02  0.32470772961E+02  0.51100000000E-03 0.  1.
         12    1    3    3    0    0  0.45083048552E+00 -0.11883575201E+02  0.10592844668E+02  0.15925795611E+02  0.00000000000E+00 0. -1.
</event>
<event>
 7    1  0.7821043E-012  0.5930195E+02  0.7816164E-02  0.1266605E+00
        -11   -1    0    0    0    0  0.00000000000E+00  0.00000000000E+00  0.45593999997E+02  0.45594000000E+02  0.51100000000E-03 0. -1.
         11   -1    0    0    0    0 -0.00000000000E+00 -0.00000000000E+00 -0.45593999997E+02  0.45594000000E+02  0.51100000000E-03 0.  1.
    9900012    2    1    2    0    0  0.14915976075E+02  0.28178394627E+02  0.46024114429E+00  0.59301951516E+02  0.50000013657E+02 0.  0.
         12    1    1    2    0    0 -0.14915976075E+02 -0.28178394627E+02 -0.46024114429E+00  0.31886048484E+02  0.00000000000E+00 0. -1.
         11    1    3    3    0    0 -0.18326369339E+01 -0.49671092168E+01  0.17212531326E+02  0.18008386019E+02  0.51100000000E-03 0. -1.
        -11    1    3    3    0    0  0.37432028550E+01  0.53016562046E+01 -0.44914462207E+00  0.65054482764E+01  0.51100000000E-03 0.  1.
         12    1    3    3    0    0  0.13005410154E+02  0.27843847639E+02 -0.16303145559E+02  0.34788117221E+02  0.00000000000E+00 0. -1.
</event>
<event>
 7    1  0.7821043E-012  0.5930201E+02  0.7816164E-02  0.1266605E+00
        -11   -1    0    0    0    0  0.00000000000E+00  0.00000000000E+00  0.45593999997E+02  0.45594000000E+02  0.51100000000E-03 0.  1.
         11   -1    0    0    0    0 -0.00000000000E+00 -0.00000000000E+00 -0.45593999997E+02  0.45594000000E+02  0.51100000000E-03 0. -1.
    9900012    2    1    2    0    0 -0.85567110818E+01 -0.28697853104E+02  0.10951346933E+02  0.59302014411E+02  0.50000128362E+02 0.  0.
         12    1    1    2    0    0  0.85567110818E+01  0.28697853104E+02 -0.10951346933E+02  0.31885985589E+02  0.00000000000E+00 0. -1.
         11    1    3    3    0    0  0.84901098535E+01  0.83854129265E+01 -0.38085947584E+01  0.12526073190E+02  0.51100000000E-03 0. -1.
        -11    1    3    3    0    0 -0.20232971554E+02 -0.27574353572E+02  0.97390231971E+01  0.35560746420E+02  0.51100000000E-03 0.  1.
         12    1    3    3    0    0  0.31861506185E+01 -0.95089124582E+01  0.50209184947E+01  0.11215194801E+02  0.00000000000E+00 0. -1.
</event>
<event>
 7    1  0.7821043E-012  0.5930195E+02  0.7816164E-02  0.1266605E+00
        -11   -1    0    0    0    0  0.00000000000E+00  0.00000000000E+00  0.45593999997E+02  0.45594000000E+02  0.51100000000E-03 0.  1.
         11   -1    0    0    0    0 -0.00000000000E+00 -0.00000000000E+00 -0.45593999997E+02  0.45594000000E+02  0.51100000000E-03 0. -1.
    9900012    2    1    2    0    0 -0.14986802065E+02 -0.27067933916E+02 -0.77099210222E+01  0.59301950311E+02  0.50000011459E+02 0.  0.
         12    1    1    2    0    0  0.14986802065E+02  0.27067933916E+02  0.77099210222E+01  0.31886049689E+02  0.00000000000E+00 0. -1.
         11    1    3    3    0    0 -0.68411255519E+00  0.11805045795E+02 -0.82630628949E+01  0.14425856123E+02  0.51100000000E-03 0. -1.
        -11    1    3    3    0    0 -0.86824144768E+01 -0.36580832897E+02 -0.32109776848E+01  0.37733963939E+02  0.51100000000E-03 0.  1.
         12    1    3    3    0    0 -0.56202750326E+01 -0.22921468140E+01  0.37641195575E+01  0.71421302496E+01  0.00000000000E+00 0. -1.
</event>
<event>
 7    1  0.7821043E-012  0.5930193E+02  0.7816164E-02  0.1266605E+00
        -11   -1    0    0    0    0  0.00000000000E+00  0.00000000000E+00  0.45593999997E+02  0.45594000000E+02  0.51100000000E-03 0.  1.
         11   -1    0    0    0    0 -0.00000000000E+00 -0.00000000000E+00 -0.45593999997E+02  0.45594000000E+02  0.51100000000E-03 0. -1.
    9900012    2    1    2    0    0  0.14971124793E+02 -0.37114290923E+01  0.27907203954E+02  0.59301932258E+02  0.49999978536E+02 0.  0.
         12    1    1    2    0    0 -0.14971124793E+02  0.37114290923E+01 -0.27907203954E+02  0.31886067742E+02  0.00000000000E+00 0. -1.
         11    1    3    3    0    0 -0.12858070210E+02  0.11924814854E+01  0.69038099681E+01  0.14642901828E+02  0.51100000000E-03 0. -1.
        -11    1    3    3    0    0  0.16837633437E+02 -0.15911670470E+02  0.84142720517E+01  0.24647254032E+02  0.51100000000E-03 0.  1.
         12    1    3    3    0    0  0.10991561567E+02  0.11007759893E+02  0.12589121934E+02  0.20011776398E+02  0.00000000000E+00 0. -1.
</event>
<event>
 7    1  0.7821043E-012  0.5930197E+02  0.7816164E-02  0.1266605E+00
        -11   -1    0    0    0    0  0.00000000000E+00  0.00000000000E+00  0.45593999997E+02  0.45594000000E+02  0.51100000000E-03 0.  1.
         11   -1    0    0    0    0 -0.00000000000E+00 -0.00000000000E+00 -0.45593999997E+02  0.45594000000E+02  0.51100000000E-03 0. -1.
    9900012    2    1    2    0    0  0.25701067280E+02  0.54521712324E+01 -0.18067874945E+02  0.59301966451E+02  0.50000040894E+02 0.  0.
         12    1    1    2    0    0 -0.25701067280E+02 -0.54521712324E+01  0.18067874945E+02  0.31886033549E+02  0.00000000000E+00 0. -1.
         11    1    3    3    0    0  0.22135914657E+02  0.22809660854E+02  0.23313860718E+01  0.31870279372E+02  0.51100000000E-03 0. -1.
        -11    1    3    3    0    0 -0.55732546969E-01 -0.11095467155E+02 -0.12814782841E+02  0.16950845319E+02  0.51100000000E-03 0.  1.
         12    1    3    3    0    0  0.36208851703E+01 -0.62620224663E+01 -0.75844781755E+01  0.10480841759E+02  0.00000000000E+00 0. -1.
</event>
<event>
 7    1  0.7821043E-012  0.5930195E+02  0.7816164E-02  0.1266605E+00
        -11   -1    0    0    0    0  0.00000000000E+00  0.00000000000E+00  0.45593999997E+02  0.45594000000E+02  0.51100000000E-03 0.  1.
         11   -1    0    0    0    0 -0.00000000000E+00 -0.00000000000E+00 -0.45593999997E+02  0.45594000000E+02  0.51100000000E-03 0. -1.
    9900012    2    1    2    0    0 -0.19095981332E+02  0.24867478753E+02  0.58027799918E+01  0.59301948846E+02  0.50000008787E+02 0.  0.
         12    1    1    2    0    0  0.19095981332E+02 -0.24867478753E+02 -0.58027799918E+01  0.31886051154E+02  0.00000000000E+00 0. -1.
         11    1    3    3    0    0 -0.14573016376E+02  0.25922558738E+02  0.90072226146E+01  0.31072204900E+02  0.51100000000E-03 0. -1.
        -11    1    3    3    0    0  0.81279855494E+01 -0.84657459129E+01 -0.61882560817E+01  0.13267536190E+02  0.51100000000E-03 0.  1.
        -12    1    3    3    0    0 -0.12650950505E+02  0.74106659276E+01  0.29838134590E+01  0.14962207756E+02  0.00000000000E+00 0.  1.
</event>
<event>
 7    1  0.7821043E-012  0.5930194E+02  0.7816164E-02  0.1266605E+00
        -11   -1    0    0    0    0  0.00000000000E+00  0.00000000000E+00  0.45593999997E+02  0.45594000000E+02  0.51100000000E-03 0.  1.
         11   -1    0    0    0    0 -0.00000000000E+00 -0.00000000000E+00 -0.45593999997E+02  0.45594000000E+02  0.51100000000E-03 0. -1.
    9900012    2    1    2    0    0  0.72280822421E+01 -0.56026361049E+00  0.31050949500E+02  0.59301944536E+02  0.50000000927E+02 0.  0.
         12    1    1    2    0    0 -0.72280822421E+01  0.56026361049E+00 -0.31050949500E+02  0.31886055464E+02  0.00000000000E+00 0. -1.
         11    1    3    3    0    0 -0.17872556325E+02 -0.53835299552E+01  0.16112286362E+02  0.24657989302E+02  0.51100000000E-03 0. -1.
        -11    1    3    3    0    0  0.90538489644E+01 -0.61756759897E+01  0.93410039496E+01  0.14400191320E+02  0.51100000000E-03 0.  1.
         12    1    3    3    0    0  0.16046789602E+02  0.10998942334E+02  0.55976591883E+01  0.20243763914E+02  0.00000000000E+00 0. -1.
</event>
<event>
 7    1  0.7821043E-012  0.5930196E+02  0.7816164E-02  0.1266605E+00
        -11   -1    0    0    0    0  0.00000000000E+00  0.00000000000E+00  0.45593999997E+02  0.45594000000E+02  0.51100000000E-03 0. -1.
         11   -1    0    0    0    0 -0.00000000000E+00 -0.00000000000E+00 -0.45593999997E+02  0.45594000000E+02  0.51100000000E-03 0.  1.
    9900012    2    1    2    0    0  0.18306903410E+02 -0.22509927724E+02 -0.13224224834E+02  0.59301957896E+02  0.50000025292E+02 0.  0.
         12    1    1    2    0    0 -0.18306903410E+02  0.22509927724E+02  0.13224224834E+02  0.31886042104E+02  0.00000000000E+00 0. -1.
         11    1    3    3    0    0  0.69345094114E+01  0.75995013639E+01  0.21659860738E+01  0.10513388497E+02  0.51100000000E-03 0. -1.
        -11    1    3    3    0    0  0.13438271889E+02 -0.36774097474E+02 -0.11532707809E+02  0.40815741400E+02  0.51100000000E-03 0.  1.
         12    1    3    3    0    0 -0.20658778900E+01  0.66646683856E+01 -0.38575030989E+01  0.79728279992E+01  0.00000000000E+00 0. -1.
</event>
<event>
 7    1  0.7821043E-012  0.5930166E+02  0.7816164E-02  0.1266606E+00
        -11   -1    0    0    0    0  0.00000000000E+00  0.00000000000E+00  0.45593999997E+02  0.45594000000E+02  0.51100000000E-03 0.  1.
         11   -1    0    0    0    0 -0.00000000000E+00 -0.00000000000E+00 -0.45593999997E+02  0.45594000000E+02  0.51100000000E-03 0. -1.
    9900012    2    1    2    0    0  0.24248412903E+02 -0.26207731232E+01  0.20539835417E+02  0.59301657798E+02  0.49999477983E+02 0.  0.
         12    1    1    2    0    0 -0.24248412903E+02  0.26207731232E+01 -0.20539835417E+02  0.31886342202E+02  0.00000000000E+00 0. -1.
         11    1    3    3    0    0 -0.87361579206E+01 -0.29922283266E+01 -0.81746551495E+01  0.12332837169E+02  0.51100000000E-03 0. -1.
        -11    1    3    3    0    0  0.19568877836E+02 -0.57185059794E+01  0.88213836380E+01  0.22213939316E+02  0.51100000000E-03 0.  1.
         12    1    3    3    0    0  0.13415692988E+02  0.60899611829E+01  0.19893106928E+02  0.24754881313E+02  0.00000000000E+00 0. -1.
</event>
<event>
 7    1  0.7821043E-012  0.5930201E+02  0.7816164E-02  0.1266605E+00
        -11   -1    0    0    0    0  0.00000000000E+00  0.00000000000E+00  0.45593999997E+02  0.45594000000E+02  0.51100000000E-03 0. -1.
         11   -1    0    0    0    0 -0.00000000000E+00 -0.00000000000E+00 -0.45593999997E+02  0.45594000000E+02  0.51100000000E-03 0.  1.
    9900012    2    1    2    0    0  0.26359804370E+02  0.14461932401E+02 -0.10617404521E+02  0.59302014772E+02  0.50000129020E+02 0.  0.
         12    1    1    2    0    0 -0.26359804370E+02 -0.14461932401E+02  0.10617404521E+02  0.31885985228E+02  0.00000000000E+00 0. -1.
         11    1    3    3    0    0 -0.67946140089E+01  0.12627208970E+02  0.35435511326E+01  0.14770576861E+02  0.51100000000E-03 0. -1.
        -11    1    3    3    0    0  0.11250100912E+02 -0.51736470890E+01 -0.17347503598E+02  0.21313546774E+02  0.51100000000E-03 0.  1.
         12    1    3    3    0    0  0.21904317468E+02  0.70083705193E+01  0.31865479446E+01  0.23217891137E+02  0.00000000000E+00 0. -1.
</event>
<event>
 7    1  0.7821043E-012  0.5930195E+02  0.7816164E-02  0.1266605E+00
        -11   -1    0    0    0    0  0.00000000000E+00  0.00000000000E+00  0.45593999997E+02  0.45594000000E+02  0.51100000000E-03 0. -1.
         11   -1    0    0    0    0 -0.00000000000E+00 -0.00000000000E+00 -0.45593999997E+02  0.45594000000E+02  0.51100000000E-03 0.  1.
    9900012    2    1    2    0    0  0.13139494117E+02  0.19301713707E+02 -0.21714458189E+02  0.59301950509E+02  0.50000011821E+02 0.  0.
         12    1    1    2    0    0 -0.13139494117E+02 -0.19301713707E+02  0.21714458189E+02  0.31886049491E+02  0.00000000000E+00 0. -1.
         11    1    3    3    0    0  0.16097646644E+02 -0.57525427549E+00  0.75223622031E+01  0.17777825467E+02  0.51100000000E-03 0. -1.
        -11    1    3    3    0    0 -0.34882329854E+01  0.21620471688E+02 -0.13595335225E+02  0.25776844367E+02  0.51100000000E-03 0.  1.
        -12    1    3    3    0    0  0.53008045830E+00 -0.17435037052E+01 -0.15641485167E+02  0.15747280676E+02  0.00000000000E+00 0.  1.
</event>
<event>
 7    1  0.7821043E-012  0.5930192E+02  0.7816164E-02  0.1266605E+00
        -11   -1    0    0    0    0  0.00000000000E+00  0.00000000000E+00  0.45593999997E+02  0.45594000000E+02  0.51100000000E-03 0.  1.
         11   -1    0    0    0    0 -0.00000000000E+00 -0.00000000000E+00 -0.45593999997E+02  0.45594000000E+02  0.51100000000E-03 0. -1.
    9900012    2    1    2    0    0 -0.48627018486E+01  0.65070769478E+01  0.30833972922E+02  0.59301924578E+02  0.49999964527E+02 0.  0.
         12    1    1    2    0    0  0.48627018486E+01 -0.65070769478E+01 -0.30833972922E+02  0.31886075422E+02  0.00000000000E+00 0. -1.
         11    1    3    3    0    0 -0.53111576977E+00  0.19464369585E+02  0.79501962658E+00  0.19487837843E+02  0.51100000000E-03 0. -1.
        -11    1    3    3    0    0  0.19898223269E+01 -0.12526772752E+02  0.30916830522E+02  0.33417507960E+02  0.51100000000E-03 0.  1.
        -12    1    3    3    0    0 -0.63214084057E+01 -0.43051988511E+00 -0.87787722583E+00  0.63965787752E+01  0.00000000000E+00 0.  1.
</event>
<event>
 7    1  0.7821043E-012  0.5930201E+02  0.7816164E-02  0.1266605E+00
        -11   -1    0    0    0    0  0.00000000000E+00  0.00000000000E+00  0.45593999997E+02  0.45594000000E+02  0.51100000000E-03 0.  1.
         11   -1    0    0    0    0 -0.00000000000E+00 -0.00000000000E+00 -0.45593999997E+02  0.45594000000E+02  0.51100000000E-03 0. -1.
    9900012    2    1    2    0    0 -0.30021201381E+02 -0.70517098337E+01  0.81066133794E+01  0.59302010531E+02  0.50000121286E+02 0.  0.
         12    1    1    2    0    0  0.30021201381E+02  0.70517098337E+01 -0.81066133794E+01  0.31885989469E+02  0.00000000000E+00 0. -1.
         11    1    3    3    0    0 -0.41873388023E+00  0.89079302269E+01 -0.98383986187E+01  0.13278578487E+02  0.51100000000E-03 0. -1.
        -11    1    3    3    0    0 -0.31980287041E+02 -0.78225789556E+01  0.10008527919E+02  0.34410785114E+02  0.51100000000E-03 0.  1.
        -12    1    3    3    0    0  0.23778195407E+01 -0.81370611050E+01  0.79364840790E+01  0.11612646930E+02  0.00000000000E+00 0.  1.
</event>
<event>
 7    1  0.7821043E-012  0.5930207E+02  0.7816164E-02  0.1266604E+00
        -11   -1    0    0    0    0  0.00000000000E+00  0.00000000000E+00  0.45593999997E+02  0.45594000000E+02  0.51100000000E-03 0.  1.
         11   -1    0    0    0    0 -0.00000000000E+00 -0.00000000000E+00 -0.45593999997E+02  0.45594000000E+02  0.51100000000E-03 0. -1.
    9900012    2    1    2    0    0 -0.16425396337E+02 -0.25243064421E+02  0.10474082854E+02  0.59302072731E+02  0.50000234723E+02 0.  0.
         12    1    1    2    0    0  0.16425396337E+02  0.25243064421E+02 -0.10474082854E+02  0.31885927269E+02  0.00000000000E+00 0. -1.
         11    1    3    3    0    0  0.96750303002E+01 -0.16920099098E+02  0.19703687883E+02  0.27715181422E+02  0.51100000000E-03 0. -1.
        -11    1    3    3    0    0 -0.17241627647E+02 -0.32958747318E+01  0.41606001234E+00  0.17558747688E+02  0.51100000000E-03 0.  1.
         12    1    3    3    0    0 -0.88587989902E+01 -0.50270905908E+01 -0.96456650414E+01  0.14028143621E+02  0.00000000000E+00 0. -1.
</event>
<event>
 7    1  0.7821043E-012  0.5930230E+02  0.7816164E-02  0.1266604E+00
        -11   -1    0    0    0    0  0.00000000000E+00  0.00000000000E+00  0.45593999997E+02  0.45594000000E+02  0.51100000000E-03 0. -1.
         11   -1    0    0    0    0 -0.00000000000E+00 -0.00000000000E+00 -0.45593999997E+02  0.45594000000E+02  0.51100000000E-03 0.  1.
    9900012    2    1    2    0    0  0.29765495334E+02  0.57029563685E+01 -0.99090704388E+01  0.59302296295E+02  0.50000642447E+02 0.  0.
         12    1    1    2    0    0 -0.29765495334E+02 -0.57029563685E+01  0.99090704388E+01  0.31885703705E+02  0.00000000000E+00 0. -1.
         11    1    3    3    0    0  0.27667809011E+02  0.18177686660E+02  0.49800877659E+01  0.33477413613E+02  0.51100000000E-03 0. -1.
        -11    1    3    3    0    0  0.86104793372E+01 -0.38802521240E+01 -0.10659740622E+02  0.14241726769E+02  0.51100000000E-03 0.  1.
         12    1    3    3    0    0 -0.65127930148E+01 -0.85944781674E+01 -0.42294175827E+01  0.11583155913E+02  0.00000000000E+00 0. -1.
</event>
<event>
 7    1  0.7821043E-012  0.5930194E+02  0.7816164E-02  0.1266605E+00
        -11   -1    0    0    0    0  0.00000000000E+00  0.00000000000E+00  0.45593999997E+02  0.45594000000E+02  0.51100000000E-03 0.  1.
         11   -1    0    0    0    0 -0.00000000000E+00 -0.00000000000E+00 -0.45593999997E+02  0.45594000000E+02  0.51100000000E-03 0. -1.
    9900012    2    1    2    0    0  0.37640728286E+00  0.23795861313E+02  0.21221121641E+02  0.59301941890E+02  0.49999996101E+02 0.  0.
         12    1    1    2    0    0 -0.37640728286E+00 -0.23795861313E+02 -0.21221121641E+02  0.31886058110E+02  0.00000000000E+00 0. -1.
         11    1    3    3    0    0 -0.11646047652E+02  0.23970856728E+02  0.19570393351E+01  0.26721946063E+02  0.51100000000E-03 0. -1.
        -11    1    3    3    0    0  0.11687135483E+02  0.33292331040E+01  0.23868592549E+02  0.26783999690E+02  0.51100000000E-03 0.  1.
        -12    1    3    3    0    0  0.33531945192E+00 -0.35042285189E+01 -0.46045102426E+01  0.57959961371E+01  0.00000000000E+00 0.  1.
</event>
<event>
 7    1  0.7821043E-012  0.5930195E+02  0.7816164E-02  0.1266605E+00
        -11   -1    0    0    0    0  0.00000000000E+00  0.00000000000E+00  0.45593999997E+02  0.45594000000E+02  0.51100000000E-03 0.  1.
         11   -1    0    0    0    0 -0.00000000000E+00 -0.00000000000E+00 -0.45593999997E+02  0.45594000000E+02  0.51100000000E-03 0. -1.
    9900012    2    1    2    0    0 -0.37275095111E+01 -0.92917361918E+01  0.30273582741E+02  0.59301945045E+02  0.50000001856E+02 0.  0.
         12    1    1    2    0    0  0.37275095111E+01  0.92917361918E+01 -0.30273582741E+02  0.31886054955E+02  0.00000000000E+00 0. -1.
         11    1    3    3    0    0  0.11658190668E+02 -0.18688758684E+02  0.46343841277E+01  0.22509123201E+02  0.51100000000E-03 0. -1.
        -11    1    3    3    0    0 -0.10461891905E+02  0.13895778806E+02  0.24469234859E+02  0.30021447429E+02  0.51100000000E-03 0.  1.
        -12    1    3    3    0    0 -0.49238082734E+01 -0.44987563143E+01  0.11699637534E+01  0.67713744154E+01  0.00000000000E+00 0.  1.
</event>
<event>
 7    1  0.7821043E-012  0.5930215E+02  0.7816164E-02  0.1266604E+00
        -11   -1    0    0    0    0  0.00000000000E+00  0.00000000000E+00  0.45593999997E+02  0.45594000000E+02  0.51100000000E-03 0. -1.
         11   -1    0    0    0    0 -0.00000000000E+00 -0.00000000000E+00 -0.45593999997E+02  0.45594000000E+02  0.51100000000E-03 0.  1.
    9900012    2    1    2    0    0 -0.24433545996E+02  0.11967086922E+02 -0.16628224278E+02  0.59302153892E+02  0.50000382741E+02 0.  0.
         12    1    1    2    0    0  0.24433545996E+02 -0.11967086922E+02  0.16628224278E+02  0.31885846108E+02  0.00000000000E+00 0. -1.
         11    1    3    3    0    0  0.83772226938E+01  0.15073319113E+02 -0.40885031140E+01  0.17722828982E+02  0.51100000000E-03 0. -1.
        -11    1    3    3    0    0 -0.25323255287E+02  0.77201697300E+00  0.13052503974E+01  0.25368621314E+02  0.51100000000E-03 0.  1.
        -12    1    3    3    0    0 -0.74875134035E+01 -0.38782491643E+01 -0.13844971561E+02  0.16210703596E+02  0.00000000000E+00 0.  1.
</event>
<event>
 7    1  0.7821043E-012  0.5930194E+02  0.7816164E-02  0.1266605E+00
        -11   -1    0    0    0    0  0.00000000000E+00  0.00000000000E+00  0.45593999997E+02  0.45594000000E+02  0.51100000000E-03 0.  1.
         11   -1    0    0    0    0 -0.00000000000E+00 -0.00000000000E+00 -0.45593999997E+02  0.45594000000E+02  0.51100000000E-03 0. -1.
    9900012    2    1    2    0    0  0.85717560757E+01 -0.77185870464E+01  0.29726576881E+02  0.59301937821E+02  0.49999988681E+02 0.  0.
         12    1    1    2    0    0 -0.85717560757E+01  0.77185870464E+01 -0.29726576881E+02  0.31886062179E+02  0.00000000000E+00 0. -1.
         11    1    3    3    0    0 -0.77794502716E+01  0.69857859416E+01  0.11261434761E+02  0.15366878827E+02  0.51100000000E-03 0. -1.
        -11    1    3    3    0    0  0.63701582692E+01 -0.24568808749E+02  0.14993175018E+02  0.29478815735E+02  0.51100000000E-03 0.  1.
         12    1    3    3    0    0  0.99810480781E+01  0.98644357610E+01  0.34719671015E+01  0.14456243259E+02  0.00000000000E+00 0. -1.
</event>
<event>
 7    1  0.7821043E-012  0.5930193E+02  0.7816164E-02  0.1266605E+00
        -11   -1    0    0    0    0  0.00000000000E+00  0.00000000000E+00  0.45593999997E+02  0.45594000000E+02  0.51100000000E-03 0.  1.
         11   -1    0    0    0    0 -0.00000000000E+00 -0.00000000000E+00 -0.45593999997E+02  0.45594000000E+02  0.51100000000E-03 0. -1.
    9900012    2    1    2    0    0 -0.12592108042E+02 -0.29006268043E+02 -0.40983389243E+01  0.59301934820E+02  0.49999983208E+02 0.  0.
         12    1    1    2    0    0  0.12592108042E+02  0.29006268043E+02  0.40983389243E+01  0.31886065180E+02  0.00000000000E+00 0. -1.
         11    1    3    3    0    0 -0.13352587961E+02 -0.13481382555E+02 -0.23856927879E+01  0.19124089813E+02  0.51100000000E-03 0. -1.
        -11    1    3    3    0    0 -0.16951863150E+00  0.12282793775E+02 -0.12888376067E+01  0.12351391101E+02  0.51100000000E-03 0.  1.
        -12    1    3    3    0    0  0.92999855041E+00 -0.27807679263E+02 -0.42380852969E+00  0.27826453906E+02  0.00000000000E+00 0.  1.
</event>
<event>
 7    1  0.7821043E-012  0.5930199E+02  0.7816164E-02  0.1266605E+00
        -11   -1    0    0    0    0  0.00000000000E+00  0.00000000000E+00  0.45593999997E+02  0.45594000000E+02  0.51100000000E-03 0. -1.
         11   -1    0    0    0    0 -0.00000000000E+00 -0.00000000000E+00 -0.45593999997E+02  0.45594000000E+02  0.51100000000E-03 0.  1.
    9900012    2    1    2    0    0 -0.27629870645E+02  0.15577129498E+02  0.32651145816E+01  0.59301989141E+02  0.50000082276E+02 0.  0.
         12    1    1    2    0    0  0.27629870645E+02 -0.15577129498E+02 -0.32651145816E+01  0.31886010859E+02  0.00000000000E+00 0. -1.
         11    1    3    3    0    0 -0.33300253989E+02 -0.41911459368E+01  0.50434520366E+01  0.33939785337E+02  0.51100000000E-03 0. -1.
        -11    1    3    3    0    0  0.97406833410E+01  0.13095729927E+02 -0.47532217448E+01  0.16999181495E+02  0.51100000000E-03 0.  1.
         12    1    3    3    0    0 -0.40702999968E+01  0.66725455075E+01  0.29748842897E+01  0.83630223096E+01  0.00000000000E+00 0. -1.
</event>
<event>
 7    1  0.7821043E-012  0.5930195E+02  0.7816164E-02  0.1266605E+00
        -11   -1    0    0    0    0  0.00000000000E+00  0.00000000000E+00  0.45593999997E+02  0.45594000000E+02  0.51100000000E-03 0.  1.
         11   -1    0    0    0    0 -0.00000000000E+00 -0.00000000000E+00 -0.45593999997E+02  0.45594000000E+02  0.51100000000E-03 0. -1.
    9900012    2    1    2    0    0  0.13599793392E+02  0.21264042013E+02  0.19483488660E+02  0.59301949862E+02  0.50000010641E+02 0.  0.
         12    1    1    2    0    0 -0.13599793392E+02 -0.21264042013E+02 -0.19483488660E+02  0.31886050138E+02  0.00000000000E+00 0. -1.
         11    1    3    3    0    0  0.97818353715E+01 -0.56586370757E+00  0.91880885185E+01  0.13432255055E+02  0.51100000000E-03 0. -1.
        -11    1    3    3    0    0  0.71584333925E+01  0.30489962730E+02  0.15799411522E+02  0.35078517652E+02  0.51100000000E-03 0.  1.
        -12    1    3    3    0    0 -0.33404753724E+01 -0.86600570099E+01 -0.55040113804E+01  0.10791177156E+02  0.00000000000E+00 0.  1.
</event>
<event>
 7    1  0.7821043E-012  0.5930196E+02  0.7816164E-02  0.1266605E+00
        -11   -1    0    0    0    0  0.00000000000E+00  0.00000000000E+00  0.45593999997E+02  0.45594000000E+02  0.51100000000E-03 0.  1.
         11   -1    0    0    0    0 -0.00000000000E+00 -0.00000000000E+00 -0.45593999997E+02  0.45594000000E+02  0.51100000000E-03 0. -1.
    9900012    2    1    2    0    0 -0.24481171146E+02 -0.14353982602E+02  0.14538060715E+02  0.59301956555E+02  0.50000022846E+02 0.  0.
         12    1    1    2    0    0  0.24481171146E+02  0.14353982602E+02 -0.14538060715E+02  0.31886043445E+02  0.00000000000E+00 0. -1.
         11    1    3    3    0    0 -0.76076986943E+01 -0.19100740342E+02 -0.88717853427E+01  0.22392497325E+02  0.51100000000E-03 0. -1.
        -11    1    3    3    0    0 -0.16267525329E+02 -0.31581387590E+01  0.23766550101E+02  0.28973351976E+02  0.51100000000E-03 0.  1.
         12    1    3    3    0    0 -0.60594712373E+00  0.79048964986E+01 -0.35670404330E+00  0.79361072539E+01  0.00000000000E+00 0. -1.
</event>
<event>
 7    1  0.7821043E-012  0.5930192E+02  0.7816164E-02  0.1266605E+00
        -11   -1    0    0    0    0  0.00000000000E+00  0.00000000000E+00  0.45593999997E+02  0.45594000000E+02  0.51100000000E-03 0.  1.
         11   -1    0    0    0    0 -0.00000000000E+00 -0.00000000000E+00 -0.45593999997E+02  0.45594000000E+02  0.51100000000E-03 0. -1.
    9900012    2    1    2    0    0 -0.19562971500E+01  0.18374076365E+02  0.25986305481E+02  0.59301923832E+02  0.49999963169E+02 0.  0.
         12    1    1    2    0    0  0.19562971500E+01 -0.18374076365E+02 -0.25986305481E+02  0.31886076168E+02  0.00000000000E+00 0. -1.
         11    1    3    3    0    0 -0.98370880460E+01  0.19967340474E+02 -0.35706213405E+01  0.22543565021E+02  0.51100000000E-03 0. -1.
        -11    1    3    3    0    0  0.11456197312E+02 -0.11823320209E+01  0.30853506629E+02  0.32932980998E+02  0.51100000000E-03 0.  1.
        -12    1    3    3    0    0 -0.35754064156E+01 -0.41093208860E+00 -0.12965798074E+01  0.38253778134E+01  0.00000000000E+00 0.  1.
</event>
<event>
 7    1  0.7821043E-012  0.5930194E+02  0.7816164E-02  0.1266605E+00
        -11   -1    0    0    0    0  0.00000000000E+00  0.00000000000E+00  0.45593999997E+02  0.45594000000E+02  0.51100000000E-03 0.  1.
         11   -1    0    0    0    0 -0.00000000000E+00 -0.00000000000E+00 -0.45593999997E+02  0.45594000000E+02  0.51100000000E-03 0. -1.
    9900012    2    1    2    0    0 -0.12658067600E+02  0.19043327350E+02  0.22222641606E+02  0.59301940478E+02  0.49999993526E+02 0.  0.
         12    1    1    2    0    0  0.12658067600E+02 -0.19043327350E+02 -0.22222641606E+02  0.31886059522E+02  0.00000000000E+00 0. -1.
         11    1    3    3    0    0 -0.76002489730E+01 -0.66678017892E+01  0.79250885696E+00  0.10141569686E+02  0.51100000000E-03 0. -1.
        -11    1    3    3    0    0  0.12951004535E+02  0.18023955908E+02  0.19393800088E+02  0.29473903494E+02  0.51100000000E-03 0.  1.
        -12    1    3    3    0    0 -0.18008823162E+02  0.76871732310E+01  0.20363326603E+01  0.19686467298E+02  0.00000000000E+00 0.  1.
</event>
<event>
 7    1  0.7821043E-012  0.5930195E+02  0.7816164E-02  0.1266605E+00
        -11   -1    0    0    0    0  0.00000000000E+00  0.00000000000E+00  0.45593999997E+02  0.45594000000E+02  0.51100000000E-03 0.  1.
         11   -1    0    0    0    0 -0.00000000000E+00 -0.00000000000E+00 -0.45593999997E+02  0.45594000000E+02  0.51100000000E-03 0. -1.
    9900012    2    1    2    0    0  0.18721563402E+02 -0.38253537471E+01  0.25526262092E+02  0.59301947815E+02  0.50000006907E+02 0.  0.
         12    1    1    2    0    0 -0.18721563402E+02  0.38253537471E+01 -0.25526262092E+02  0.31886052185E+02  0.00000000000E+00 0. -1.
         11    1    3    3    0    0  0.26910922971E+02  0.10279729124E+02  0.18059386552E+02  0.34000177189E+02  0.51100000000E-03 0. -1.
        -11    1    3    3    0    0 -0.13134204276E+02 -0.83259118882E+01  0.83396797531E+01  0.17645917074E+02  0.51100000000E-03 0.  1.
         12    1    3    3    0    0  0.49448447074E+01 -0.57791709824E+01 -0.87280421280E+00  0.76558535525E+01  0.00000000000E+00 0. -1.
</event>
<event>
 7    1  0.7821043E-012  0.5930192E+02  0.7816164E-02  0.1266605E+00
        -11   -1    0    0    0    0  0.00000000000E+00  0.00000000000E+00  0.45593999997E+02  0.45594000000E+02  0.51100000000E-03 0.  1.
         11   -1    0    0    0    0 -0.00000000000E+00 -0.00000000000E+00 -0.45593999997E+02  0.45594000000E+02  0.51100000000E-03 0. -1.
    9900012    2    1    2    0    0  0.36547157198E+01  0.20588763777E+01  0.31608952422E+02  0.59301924792E+02  0.49999964919E+02 0.  0.
         12    1    1    2    0    0 -0.36547157198E+01 -0.20588763777E+01 -0.31608952422E+02  0.31886075208E+02  0.00000000000E+00 0. -1.
         11    1    3    3    0    0 -0.73776517490E+01 -0.20919159303E+02  0.11988691633E+02  0.25214473990E+02  0.51100000000E-03 0. -1.
        -11    1    3    3    0    0  0.51440719500E+01  0.20617488467E+02  0.17044165071E+02  0.27240518904E+02  0.51100000000E-03 0.  1.
         12    1    3    3    0    0  0.58882955189E+01  0.23605472132E+01  0.25760957190E+01  0.68469318981E+01  0.00000000000E+00 0. -1.
</event>
<event>
 7    1  0.7821043E-012  0.5930185E+02  0.7816164E-02  0.1266605E+00
        -11   -1    0    0    0    0  0.00000000000E+00  0.00000000000E+00  0.45593999997E+02  0.45594000000E+02  0.51100000000E-03 0. -1.
         11   -1    0    0    0    0 -0.00000000000E+00 -0.00000000000E+00 -0.45593999997E+02  0.45594000000E+02  0.51100000000E-03 0.  1.
    9900012    2    1    2    0    0 -0.29923698191E+02 -0.10007273638E+02 -0.45992573897E+01  0.59301852418E+02  0.49999832926E+02 0.  0.
         12    1    1    2    0    0  0.29923698191E+02  0.10007273638E+02  0.45992573897E+01  0.31886147582E+02  0.00000000000E+00 0. -1.
         11    1    3    3    0    0 -0.32850280264E+02 -0.18255244102E+02  0.62858516472E+01  0.38103894576E+02  0.51100000000E-03 0.  1.
        -11    1    3    3    0    0  0.95369503075E+01  0.52400337441E+01 -0.72571285083E+01  0.13079651725E+02  0.51100000000E-03 0. -1.
        -12    1    3    3    0    0 -0.66103682336E+01  0.30079367198E+01 -0.36279805286E+01  0.81183061171E+01  0.00000000000E+00 0.  1.
</event>
<event>
 7    1  0.7821043E-012  0.5930194E+02  0.7816164E-02  0.1266605E+00
        -11   -1    0    0    0    0  0.00000000000E+00  0.00000000000E+00  0.45593999997E+02  0.45594000000E+02  0.51100000000E-03 0. -1.
         11   -1    0    0    0    0 -0.00000000000E+00 -0.00000000000E+00 -0.45593999997E+02  0.45594000000E+02  0.51100000000E-03 0.  1.
    9900012    2    1    2    0    0  0.16253657122E+01  0.12548780883E+02 -0.29267853634E+02  0.59301937658E+02  0.49999988383E+02 0.  0.
         12    1    1    2    0    0 -0.16253657122E+01 -0.12548780883E+02  0.29267853634E+02  0.31886062342E+02  0.00000000000E+00 0. -1.
         11    1    3    3    0    0  0.19774018566E+02  0.13685884051E+02 -0.28324513393E+02  0.37156335822E+02  0.51100000000E-03 0. -1.
        -11    1    3    3    0    0 -0.83608097071E+01 -0.38935073451E+01 -0.57809683252E+01  0.10884949859E+02  0.51100000000E-03 0.  1.
         12    1    3    3    0    0 -0.97878431464E+01  0.27564041772E+01  0.48376280846E+01  0.11260651976E+02  0.00000000000E+00 0. -1.
</event>
<event>
 7    1  0.7821043E-012  0.5930194E+02  0.7816164E-02  0.1266605E+00
        -11   -1    0    0    0    0  0.00000000000E+00  0.00000000000E+00  0.45593999997E+02  0.45594000000E+02  0.51100000000E-03 0.  1.
         11   -1    0    0    0    0 -0.00000000000E+00 -0.00000000000E+00 -0.45593999997E+02  0.45594000000E+02  0.51100000000E-03 0. -1.
    9900012    2    1    2    0    0 -0.31153219669E+02  0.64839306731E+01  0.20386679570E+01  0.59301943177E+02  0.49999998448E+02 0.  0.
         12    1    1    2    0    0  0.31153219669E+02 -0.64839306731E+01 -0.20386679570E+01  0.31886056823E+02  0.00000000000E+00 0. -1.
         11    1    3    3    0    0  0.91144110840E+00  0.11582095384E+02 -0.11146400572E+02  0.16100245475E+02  0.51100000000E-03 0. -1.
        -11    1    3    3    0    0 -0.13080681231E+02 -0.13852738009E+02  0.11676474593E+01  0.19088372709E+02  0.51100000000E-03 0.  1.
         12    1    3    3    0    0 -0.18983979547E+02  0.87545732980E+01  0.12017421069E+02  0.24113324993E+02  0.00000000000E+00 0. -1.
</event>
<event>
 7    1  0.7821043E-012  0.5930198E+02  0.7816164E-02  0.1266605E+00
        -11   -1    0    0    0    0  0.00000000000E+00  0.00000000000E+00  0.45593999997E+02  0.45594000000E+02  0.51100000000E-03 0.  1.
         11   -1    0    0    0    0 -0.00000000000E+00 -0.00000000000E+00 -0.45593999997E+02  0.45594000000E+02  0.51100000000E-03 0. -1.
    9900012    2    1    2    0    0  0.71080906746E+01 -0.21734583024E+02  0.22221644960E+02  0.59301975523E+02  0.50000057439E+02 0.  0.
         12    1    1    2    0    0 -0.71080906746E+01  0.21734583024E+02 -0.22221644960E+02  0.31886024477E+02  0.00000000000E+00 0. -1.
         11    1    3    3    0    0 -0.41015554942E+01 -0.15949424898E+01  0.11900201074E+02  0.12687843980E+02  0.51100000000E-03 0. -1.
        -11    1    3    3    0    0  0.22527213901E+02 -0.18237206397E+01 -0.30747450646E+00  0.22603005639E+02  0.51100000000E-03 0.  1.
        -12    1    3    3    0    0 -0.11317567732E+02 -0.18315919894E+02  0.10628918392E+02  0.24011125903E+02  0.00000000000E+00 0.  1.
</event>
<event>
 7    1  0.7821043E-012  0.5930194E+02  0.7816164E-02  0.1266605E+00
        -11   -1    0    0    0    0  0.00000000000E+00  0.00000000000E+00  0.45593999997E+02  0.45594000000E+02  0.51100000000E-03 0. -1.
         11   -1    0    0    0    0 -0.00000000000E+00 -0.00000000000E+00 -0.45593999997E+02  0.45594000000E+02  0.51100000000E-03 0.  1.
    9900012    2    1    2    0    0  0.14422192243E+02  0.29402346625E+01 -0.28285620152E+02  0.59301938525E+02  0.49999989965E+02 0.  0.
         12    1    1    2    0    0 -0.14422192243E+02 -0.29402346625E+01  0.28285620152E+02  0.31886061475E+02  0.00000000000E+00 0. -1.
         11    1    3    3    0    0  0.14542992750E+02 -0.49584361304E+01 -0.53182218833E+01  0.16259403779E+02  0.51100000000E-03 0. -1.
        -11    1    3    3    0    0 -0.43549788326E+01 -0.91173086843E+00 -0.30424312965E+02  0.30747941613E+02  0.51100000000E-03 0.  1.
        -12    1    3    3    0    0  0.42341783263E+01  0.88104016614E+01  0.74569146959E+01  0.12294593133E+02  0.00000000000E+00 0.  1.
</event>
<event>
 7    1  0.7821043E-012  0.5930195E+02  0.7816164E-02  0.1266605E+00
        -11   -1    0    0    0    0  0.00000000000E+00  0.00000000000E+00  0.45593999997E+02  0.45594000000E+02  0.51100000000E-03 0. -1.
         11   -1    0    0    0    0 -0.00000000000E+00 -0.00000000000E+00 -0.45593999997E+02  0.45594000000E+02  0.51100000000E-03 0.  1.
    9900012    2    1    2    0    0  0.53937885014E+01  0.30835700229E+02 -0.60652191588E+01  0.59301949030E+02  0.50000009123E+02 0.  0.
         12    1    1    2    0    0 -0.53937885014E+01 -0.30835700229E+02  0.60652191588E+01  0.31886050970E+02  0.00000000000E+00 0. -1.
         11    1    3    3    0    0  0.54635368085E+01  0.29742360613E+02  0.11437956617E+02  0.32330869168E+02  0.51100000000E-03 0. -1.
        -11    1    3    3    0    0 -0.18301515318E+01  0.95287291213E+01 -0.15231626904E+02  0.18059584483E+02  0.51100000000E-03 0.  1.
         12    1    3    3    0    0  0.17604032248E+01 -0.84353895057E+01 -0.22715488721E+01  0.89114953799E+01  0.00000000000E+00 0. -1.
</event>
<event>
 7    1  0.7821043E-012  0.5930196E+02  0.7816164E-02  0.1266605E+00
        -11   -1    0    0    0    0  0.00000000000E+00  0.00000000000E+00  0.45593999997E+02  0.45594000000E+02  0.51100000000E-03 0.  1.
         11   -1    0    0    0    0 -0.00000000000E+00 -0.00000000000E+00 -0.45593999997E+02  0.45594000000E+02  0.51100000000E-03 0. -1.
    9900012    2    1    2    0    0 -0.15817568155E+02  0.15971704343E+02  0.22614787486E+02  0.59301962069E+02  0.50000032902E+02 0.  0.
         12    1    1    2    0    0  0.15817568155E+02 -0.15971704343E+02 -0.22614787486E+02  0.31886037931E+02  0.00000000000E+00 0. -1.
         11    1    3    3    0    0  0.95771398566E-01  0.92258123346E+01 -0.88378876559E+01  0.12776268777E+02  0.51100000000E-03 0. -1.
        -11    1    3    3    0    0 -0.81390472167E+01 -0.77518048214E+01  0.27352448685E+02  0.29571794279E+02  0.51100000000E-03 0.  1.
         12    1    3    3    0    0 -0.77742923367E+01  0.14497696830E+02  0.41002264566E+01  0.16953899012E+02  0.00000000000E+00 0. -1.
</event>
<event>
 7    1  0.7821043E-012  0.5930192E+02  0.7816164E-02  0.1266605E+00
        -11   -1    0    0    0    0  0.00000000000E+00  0.00000000000E+00  0.45593999997E+02  0.45594000000E+02  0.51100000000E-03 0.  1.
         11   -1    0    0    0    0 -0.00000000000E+00 -0.00000000000E+00 -0.45593999997E+02  0.45594000000E+02  0.51100000000E-03 0. -1.
    9900012    2    1    2    0    0 -0.42696908451E+01  0.14133386445E+02  0.28261976240E+02  0.59301918816E+02  0.49999954019E+02 0.  0.
         12    1    1    2    0    0  0.42696908451E+01 -0.14133386445E+02 -0.28261976240E+02  0.31886081184E+02  0.00000000000E+00 0. -1.
         11    1    3    3    0    0 -0.30547592919E+01 -0.42112667343E+01 -0.10819406025E+02  0.12005243389E+02  0.51100000000E-03 0. -1.
        -11    1    3    3    0    0 -0.50839984481E+01  0.17080062081E+02  0.39370559364E+02  0.43215928843E+02  0.51100000000E-03 0.  1.
         12    1    3    3    0    0  0.38690668948E+01  0.12645910981E+01 -0.28917709888E+00  0.40807465832E+01  0.00000000000E+00 0. -1.
</event>
<event>
 7    1  0.7821043E-012  0.5930196E+02  0.7816164E-02  0.1266605E+00
        -11   -1    0    0    0    0  0.00000000000E+00  0.00000000000E+00  0.45593999997E+02  0.45594000000E+02  0.51100000000E-03 0.  1.
         11   -1    0    0    0    0 -0.00000000000E+00 -0.00000000000E+00 -0.45593999997E+02  0.45594000000E+02  0.51100000000E-03 0. -1.
    9900012    2    1    2    0    0 -0.59114545811E+00  0.14799231054E+02  0.28237432627E+02  0.59301963963E+02  0.50000036358E+02 0.  0.
         12    1    1    2    0    0  0.59114545811E+00 -0.14799231054E+02 -0.28237432627E+02  0.31886036037E+02  0.00000000000E+00 0. -1.
         11    1    3    3    0    0  0.50933532294E+01 -0.27532752848E+01 -0.88825717238E+01  0.10602964331E+02  0.51100000000E-03 0. -1.
        -11    1    3    3    0    0  0.73967837910E+01  0.96047174798E+00  0.20506986848E+02  0.21821352531E+02  0.51100000000E-03 0.  1.
         12    1    3    3    0    0 -0.13081282479E+02  0.16592034591E+02  0.16613017503E+02  0.26877647101E+02  0.00000000000E+00 0. -1.
</event>
<event>
 7    1  0.7821043E-012  0.5930193E+02  0.7816164E-02  0.1266605E+00
        -11   -1    0    0    0    0  0.00000000000E+00  0.00000000000E+00  0.45593999997E+02  0.45594000000E+02  0.51100000000E-03 0. -1.
         11   -1    0    0    0    0 -0.00000000000E+00 -0.00000000000E+00 -0.45593999997E+02  0.45594000000E+02  0.51100000000E-03 0.  1.
    9900012    2    1    2    0    0  0.88022611811E+01 -0.29951276202E+02 -0.64932707289E+01  0.59301932309E+02  0.49999978629E+02 0.  0.
         12    1    1    2    0    0 -0.88022611811E+01  0.29951276202E+02  0.64932707289E+01  0.31886067691E+02  0.00000000000E+00 0. -1.
         11    1    3    3    0    0 -0.44421527670E+01 -0.32986928937E+01  0.11452864852E+02  0.12719363569E+02  0.51100000000E-03 0. -1.
        -11    1    3    3    0    0  0.23416528573E+02 -0.20069806631E+02 -0.12093507117E+02  0.33126784680E+02  0.51100000000E-03 0.  1.
        -12    1    3    3    0    0 -0.10172114625E+02 -0.65827766773E+01 -0.58526284642E+01  0.13455784060E+02  0.00000000000E+00 0.  1.
</event>
<event>
 7    1  0.7821043E-012  0.5930217E+02  0.7816164E-02  0.1266604E+00
        -11   -1    0    0    0    0  0.00000000000E+00  0.00000000000E+00  0.45593999997E+02  0.45594000000E+02  0.51100000000E-03 0. -1.
         11   -1    0    0    0    0 -0.00000000000E+00 -0.00000000000E+00 -0.45593999997E+02  0.45594000000E+02  0.51100000000E-03 0.  1.
    9900012    2    1    2    0    0 -0.12979846976E+02  0.13611465953E+02 -0.25747969884E+02  0.59302166373E+02  0.50000405504E+02 0.  0.
         12    1    1    2    0    0  0.12979846976E+02 -0.13611465953E+02  0.25747969884E+02  0.31885833627E+02  0.00000000000E+00 0. -1.
         11    1    3    3    0    0  0.16445387814E+02  0.22983009884E+01 -0.62472766876E+01  0.17741517242E+02  0.51100000000E-03 0.  1.
        -11    1    3    3    0    0 -0.30944906167E+02  0.68818192743E+01 -0.18707773436E+02  0.36809339052E+02  0.51100000000E-03 0. -1.
        -12    1    3    3    0    0  0.15196713779E+01  0.44313456904E+01 -0.79291976023E+00  0.47513100794E+01  0.00000000000E+00 0.  1.
</event>
<event>
 7    1  0.7821043E-012  0.5930190E+02  0.7816164E-02  0.1266605E+00
        -11   -1    0    0    0    0  0.00000000000E+00  0.00000000000E+00  0.45593999997E+02  0.45594000000E+02  0.51100000000E-03 0.  1.
         11   -1    0    0    0    0 -0.00000000000E+00 -0.00000000000E+00 -0.45593999997E+02  0.45594000000E+02  0.51100000000E-03 0. -1.
    9900012    2    1    2    0    0  0.20548195756E+02  0.23491200637E+02  0.65313658122E+01  0.59301896513E+02  0.49999913345E+02 0.  0.
         12    1    1    2    0    0 -0.20548195756E+02 -0.23491200637E+02 -0.65313658122E+01  0.31886103487E+02  0.00000000000E+00 0. -1.
         11    1    3    3    0    0 -0.10496625722E+01  0.35380880945E+01 -0.88250402535E+01  0.95656256783E+01  0.51100000000E-03 0. -1.
        -11    1    3    3    0    0  0.12127858999E+02  0.29964004888E+02  0.54905707998E+01  0.32788304634E+02  0.51100000000E-03 0.  1.
        -12    1    3    3    0    0  0.94699993293E+01 -0.10010892345E+02  0.98658352660E+01  0.16947966201E+02  0.00000000000E+00 0.  1.
</event>
<event>
 7    1  0.7821043E-012  0.5930193E+02  0.7816164E-02  0.1266605E+00
        -11   -1    0    0    0    0  0.00000000000E+00  0.00000000000E+00  0.45593999997E+02  0.45594000000E+02  0.51100000000E-03 0.  1.
         11   -1    0    0    0    0 -0.00000000000E+00 -0.00000000000E+00 -0.45593999997E+02  0.45594000000E+02  0.51100000000E-03 0. -1.
    9900012    2    1    2    0    0  0.45161771640E+01 -0.28313278726E+02  0.13952912684E+02  0.59301931244E+02  0.49999976685E+02 0.  0.
         12    1    1    2    0    0 -0.45161771640E+01  0.28313278726E+02 -0.13952912684E+02  0.31886068756E+02  0.00000000000E+00 0. -1.
         11    1    3    3    0    0  0.67606806993E+01 -0.17889789877E+02 -0.10656636040E+02  0.21893270137E+02  0.51100000000E-03 0. -1.
        -11    1    3    3    0    0  0.34410818645E+01 -0.15120601632E+02  0.25637430896E+02  0.29962501586E+02  0.51100000000E-03 0.  1.
         12    1    3    3    0    0 -0.56855853999E+01  0.46971127833E+01 -0.10278821720E+01  0.74461595201E+01  0.00000000000E+00 0. -1.
</event>
<event>
 7    1  0.7821043E-012  0.5930196E+02  0.7816164E-02  0.1266605E+00
        -11   -1    0    0    0    0  0.00000000000E+00  0.00000000000E+00  0.45593999997E+02  0.45594000000E+02  0.51100000000E-03 0.  1.
         11   -1    0    0    0    0 -0.00000000000E+00 -0.00000000000E+00 -0.45593999997E+02  0.45594000000E+02  0.51100000000E-03 0. -1.
    9900012    2    1    2    0    0 -0.31012091419E+02  0.64022601035E+01  0.37391040550E+01  0.59301958419E+02  0.50000026246E+02 0.  0.
         12    1    1    2    0    0  0.31012091419E+02 -0.64022601035E+01 -0.37391040550E+01  0.31886041581E+02  0.00000000000E+00 0. -1.
         11    1    3    3    0    0 -0.86204646825E+01 -0.15726029520E+02 -0.44376599839E+01  0.18474664873E+02  0.51100000000E-03 0. -1.
        -11    1    3    3    0    0 -0.13827875773E+01  0.17145552639E+02 -0.12941152987E+01  0.17249835114E+02  0.51100000000E-03 0.  1.
         12    1    3    3    0    0 -0.21008839159E+02  0.49827369836E+01  0.94708793376E+01  0.23577458431E+02  0.00000000000E+00 0. -1.
</event>
<event>
 7    1  0.7821043E-012  0.5930194E+02  0.7816164E-02  0.1266605E+00
        -11   -1    0    0    0    0  0.00000000000E+00  0.00000000000E+00  0.45593999997E+02  0.45594000000E+02  0.51100000000E-03 0.  1.
         11   -1    0    0    0    0 -0.00000000000E+00 -0.00000000000E+00 -0.45593999997E+02  0.45594000000E+02  0.51100000000E-03 0. -1.
    9900012    2    1    2    0    0 -0.30974392493E+02  0.49893423067E+01  0.56933431331E+01  0.59301942184E+02  0.49999996638E+02 0.  0.
         12    1    1    2    0    0  0.30974392493E+02 -0.49893423067E+01 -0.56933431331E+01  0.31886057816E+02  0.00000000000E+00 0. -1.
         11    1    3    3    0    0 -0.11100893854E+02  0.18736905074E+02  0.99332299976E+01  0.23936802513E+02  0.51100000000E-03 0. -1.
        -11    1    3    3    0    0 -0.13874268758E+01 -0.13173490364E+02  0.56395494847E+01  0.14396885787E+02  0.51100000000E-03 0.  1.
         12    1    3    3    0    0 -0.18486071764E+02 -0.57407240278E+00 -0.98794363493E+01  0.20968253885E+02  0.00000000000E+00 0. -1.
</event>
<event>
 7    1  0.7821043E-012  0.5930194E+02  0.7816164E-02  0.1266605E+00
        -11   -1    0    0    0    0  0.00000000000E+00  0.00000000000E+00  0.45593999997E+02  0.45594000000E+02  0.51100000000E-03 0. -1.
         11   -1    0    0    0    0 -0.00000000000E+00 -0.00000000000E+00 -0.45593999997E+02  0.45594000000E+02  0.51100000000E-03 0.  1.
    9900012    2    1    2    0    0  0.99861736422E+01 -0.15010806352E+02 -0.26299677989E+02  0.59301936686E+02  0.49999986610E+02 0.  0.
         12    1    1    2    0    0 -0.99861736422E+01  0.15010806352E+02  0.26299677989E+02  0.31886063314E+02  0.00000000000E+00 0. -1.
         11    1    3    3    0    0  0.36216571518E+01  0.17878633837E+02 -0.55936869597E+01  0.19080127946E+02  0.51100000000E-03 0. -1.
        -11    1    3    3    0    0  0.51560594532E+01 -0.26026728018E+02 -0.19983414855E+02  0.33216146524E+02  0.51100000000E-03 0.  1.
        -12    1    3    3    0    0  0.12084570371E+01 -0.68627121708E+01 -0.72257617454E+00  0.70056622155E+01  0.00000000000E+00 0.  1.
</event>
<event>
 7    1  0.7821043E-012  0.5930194E+02  0.7816164E-02  0.1266605E+00
        -11   -1    0    0    0    0  0.00000000000E+00  0.00000000000E+00  0.45593999997E+02  0.45594000000E+02  0.51100000000E-03 0.  1.
         11   -1    0    0    0    0 -0.00000000000E+00 -0.00000000000E+00 -0.45593999997E+02  0.45594000000E+02  0.51100000000E-03 0. -1.
    9900012    2    1    2    0    0 -0.18883068653E+02 -0.13132274038E+02  0.22083791616E+02  0.59301941051E+02  0.49999994571E+02 0.  0.
         12    1    1    2    0    0  0.18883068653E+02  0.13132274038E+02 -0.22083791616E+02  0.31886058949E+02  0.00000000000E+00 0. -1.
         11    1    3    3    0    0  0.11864531201E+02 -0.62911966505E+01  0.81280601514E+00  0.13453880845E+02  0.51100000000E-03 0. -1.
        -11    1    3    3    0    0 -0.25269249534E+02  0.16203664774E+01  0.24529693353E+02  0.35254310599E+02  0.51100000000E-03 0.  1.
         12    1    3    3    0    0 -0.54783503205E+01 -0.84614438650E+01 -0.32587077524E+01  0.10593749607E+02  0.00000000000E+00 0. -1.
</event>
<event>
 7    1  0.7821043E-012  0.5930195E+02  0.7816164E-02  0.1266605E+00
        -11   -1    0    0    0    0  0.00000000000E+00  0.00000000000E+00  0.45593999997E+02  0.45594000000E+02  0.51100000000E-03 0.  1.
         11   -1    0    0    0    0 -0.00000000000E+00 -0.00000000000E+00 -0.45593999997E+02  0.45594000000E+02  0.51100000000E-03 0. -1.
    9900012    2    1    2    0    0  0.16130180252E+02 -0.21497369067E+02  0.17158102190E+02  0.59301951914E+02  0.50000014383E+02 0.  0.
         12    1    1    2    0    0 -0.16130180252E+02  0.21497369067E+02 -0.17158102190E+02  0.31886048086E+02  0.00000000000E+00 0. -1.
         11    1    3    3    0    0 -0.13057895845E+02 -0.38771176880E+01  0.13950146458E+02  0.19497365769E+02  0.51100000000E-03 0.  1.
        -11    1    3    3    0    0  0.12034343064E+02 -0.90429554515E+01 -0.85467076271E+01  0.17310305249E+02  0.51100000000E-03 0. -1.
         12    1    3    3    0    0  0.17153733033E+02 -0.85772959280E+01  0.11754663358E+02  0.22494280897E+02  0.00000000000E+00 0. -1.
</event>
<event>
 7    1  0.7821043E-012  0.5930193E+02  0.7816164E-02  0.1266605E+00
        -11   -1    0    0    0    0  0.00000000000E+00  0.00000000000E+00  0.45593999997E+02  0.45594000000E+02  0.51100000000E-03 0. -1.
         11   -1    0    0    0    0 -0.00000000000E+00 -0.00000000000E+00 -0.45593999997E+02  0.45594000000E+02  0.51100000000E-03 0.  1.
    9900012    2    1    2    0    0  0.23919529629E+02 -0.12487469785E+02 -0.16989425321E+02  0.59301931380E+02  0.49999976933E+02 0.  0.
         12    1    1    2    0    0 -0.23919529629E+02  0.12487469785E+02  0.16989425321E+02  0.31886068620E+02  0.00000000000E+00 0. -1.
         11    1    3    3    0    0 -0.40197266525E-02  0.11597476813E+02 -0.16252853346E+02  0.19966389928E+02  0.51100000000E-03 0. -1.
        -11    1    3    3    0    0  0.11477250160E+02 -0.16260699544E+02 -0.96750310291E+01  0.22130156948E+02  0.51100000000E-03 0.  1.
         12    1    3    3    0    0  0.12446299196E+02 -0.78242470546E+01  0.89384590547E+01  0.17205384504E+02  0.00000000000E+00 0. -1.
</event>
<event>
 7    1  0.7821043E-012  0.5930195E+02  0.7816164E-02  0.1266605E+00
        -11   -1    0    0    0    0  0.00000000000E+00  0.00000000000E+00  0.45593999997E+02  0.45594000000E+02  0.51100000000E-03 0. -1.
         11   -1    0    0    0    0 -0.00000000000E+00 -0.00000000000E+00 -0.45593999997E+02  0.45594000000E+02  0.51100000000E-03 0.  1.
    9900012    2    1    2    0    0  0.22093827366E+02  0.22772827035E+02  0.31593589145E+01  0.59301946504E+02  0.50000004516E+02 0.  0.
         12    1    1    2    0    0 -0.22093827366E+02 -0.22772827035E+02 -0.31593589145E+01  0.31886053496E+02  0.00000000000E+00 0. -1.
         11    1    3    3    0    0 -0.16902332967E-01  0.16138579056E+02  0.15183923953E+02  0.22158645412E+02  0.51100000000E-03 0. -1.
        -11    1    3    3    0    0  0.55022475253E+01 -0.43587193821E+01 -0.15416668460E+02  0.16939504985E+02  0.51100000000E-03 0.  1.
        -12    1    3    3    0    0  0.16608482173E+02  0.10992967361E+02  0.33921034216E+01  0.20203796107E+02  0.00000000000E+00 0.  1.
</event>
<event>
 7    1  0.7821043E-012  0.5930185E+02  0.7816164E-02  0.1266605E+00
        -11   -1    0    0    0    0  0.00000000000E+00  0.00000000000E+00  0.45593999997E+02  0.45594000000E+02  0.51100000000E-03 0. -1.
         11   -1    0    0    0    0 -0.00000000000E+00 -0.00000000000E+00 -0.45593999997E+02  0.45594000000E+02  0.51100000000E-03 0.  1.
    9900012    2    1    2    0    0 -0.23152600317E+01 -0.26406370975E+02 -0.17722012521E+02  0.59301849638E+02  0.49999827855E+02 0.  0.
         12    1    1    2    0    0  0.23152600317E+01  0.26406370975E+02  0.17722012521E+02  0.31886150362E+02  0.00000000000E+00 0. -1.
         11    1    3    3    0    0 -0.99062209959E+01  0.93505020918E+01 -0.77902989820E+01  0.15692477888E+02  0.51100000000E-03 0. -1.
        -11    1    3    3    0    0  0.34197934277E+01 -0.26137065044E+02 -0.16629991527E+02  0.31167254846E+02  0.51100000000E-03 0.  1.
        -12    1    3    3    0    0  0.41711675366E+01 -0.96198080233E+01  0.66982779880E+01  0.12442116903E+02  0.00000000000E+00 0.  1.
</event>
<event>
 7    1  0.7821043E-012  0.5930195E+02  0.7816164E-02  0.1266605E+00
        -11   -1    0    0    0    0  0.00000000000E+00  0.00000000000E+00  0.45593999997E+02  0.45594000000E+02  0.51100000000E-03 0. -1.
         11   -1    0    0    0    0 -0.00000000000E+00 -0.00000000000E+00 -0.45593999997E+02  0.45594000000E+02  0.51100000000E-03 0.  1.
    9900012    2    1    2    0    0  0.14626387744E+00 -0.26863225715E+02 -0.17177476665E+02  0.59301952996E+02  0.50000016357E+02 0.  0.
         12    1    1    2    0    0 -0.14626387744E+00  0.26863225715E+02  0.17177476665E+02  0.31886047004E+02  0.00000000000E+00 0. -1.
         11    1    3    3    0    0 -0.10490240504E+02  0.24162362050E+01  0.71503023595E+01  0.12923241363E+02  0.51100000000E-03 0. -1.
        -11    1    3    3    0    0  0.14978584055E+02 -0.29643816149E+02 -0.25492236395E+02  0.41868459881E+02  0.51100000000E-03 0.  1.
        -12    1    3    3    0    0 -0.43420796737E+01  0.36435422837E+00  0.11644573710E+01  0.45102517518E+01  0.00000000000E+00 0.  1.
</event>
<event>
 7    1  0.7821043E-012  0.5930194E+02  0.7816164E-02  0.1266605E+00
        -11   -1    0    0    0    0  0.00000000000E+00  0.00000000000E+00  0.45593999997E+02  0.45594000000E+02  0.51100000000E-03 0.  1.
         11   -1    0    0    0    0 -0.00000000000E+00 -0.00000000000E+00 -0.45593999997E+02  0.45594000000E+02  0.51100000000E-03 0. -1.
    9900012    2    1    2    0    0 -0.21419301376E+02 -0.22867006933E+02  0.59189880271E+01  0.59301938833E+02  0.49999990525E+02 0.  0.
         12    1    1    2    0    0  0.21419301376E+02  0.22867006933E+02 -0.59189880271E+01  0.31886061167E+02  0.00000000000E+00 0. -1.
         11    1    3    3    0    0 -0.35072636182E+02 -0.15639445585E+02  0.76408524612E+01  0.39154370044E+02  0.51100000000E-03 0. -1.
        -11    1    3    3    0    0  0.25498886525E-01  0.29187906514E+01  0.65623616302E+00  0.29917612242E+01  0.51100000000E-03 0.  1.
         12    1    3    3    0    0  0.13627835919E+02 -0.10146351999E+02 -0.23781005972E+01  0.17155807564E+02  0.00000000000E+00 0. -1.
</event>
<event>
 7    1  0.7821043E-012  0.5930193E+02  0.7816164E-02  0.1266605E+00
        -11   -1    0    0    0    0  0.00000000000E+00  0.00000000000E+00  0.45593999997E+02  0.45594000000E+02  0.51100000000E-03 0.  1.
         11   -1    0    0    0    0 -0.00000000000E+00 -0.00000000000E+00 -0.45593999997E+02  0.45594000000E+02  0.51100000000E-03 0. -1.
    9900012    2    1    2    0    0  0.24255042765E+02  0.19139443125E+02 -0.78800961693E+01  0.59301932536E+02  0.49999979042E+02 0.  0.
         12    1    1    2    0    0 -0.24255042765E+02 -0.19139443125E+02  0.78800961693E+01  0.31886067464E+02  0.00000000000E+00 0. -1.
         11    1    3    3    0    0  0.10969290055E+02  0.59175077349E+01 -0.43785273733E+01  0.13210364277E+02  0.51100000000E-03 0. -1.
        -11    1    3    3    0    0 -0.36803401391E+01 -0.10419555509E+02  0.91635392337E+01  0.14355573555E+02  0.51100000000E-03 0.  1.
        -12    1    3    3    0    0  0.16966092850E+02  0.23641490899E+02 -0.12665108030E+02  0.31735994705E+02  0.00000000000E+00 0.  1.
</event>
<event>
 7    1  0.7821043E-012  0.5930193E+02  0.7816164E-02  0.1266605E+00
        -11   -1    0    0    0    0  0.00000000000E+00  0.00000000000E+00  0.45593999997E+02  0.45594000000E+02  0.51100000000E-03 0.  1.
         11   -1    0    0    0    0 -0.00000000000E+00 -0.00000000000E+00 -0.45593999997E+02  0.45594000000E+02  0.51100000000E-03 0. -1.
    9900012    2    1    2    0    0  0.28512871591E+01 -0.74075510509E+01  0.30882358935E+02  0.59301925541E+02  0.49999966284E+02 0.  0.
         12    1    1    2    0    0 -0.28512871591E+01  0.74075510509E+01 -0.30882358935E+02  0.31886074459E+02  0.00000000000E+00 0. -1.
         11    1    3    3    0    0  0.89005488443E+01  0.17635910222E+02  0.10233877634E+02  0.22248086452E+02  0.51100000000E-03 0. -1.
        -11    1    3    3    0    0 -0.45983561903E+01  0.65688976200E+00  0.54486195719E+01  0.71598770459E+01  0.51100000000E-03 0.  1.
         12    1    3    3    0    0 -0.14509054948E+01 -0.25700351035E+02  0.15199861729E+02  0.29893962043E+02  0.00000000000E+00 0. -1.
</event>
<event>
 7    1  0.7821043E-012  0.5930194E+02  0.7816164E-02  0.1266605E+00
        -11   -1    0    0    0    0  0.00000000000E+00  0.00000000000E+00  0.45593999997E+02  0.45594000000E+02  0.51100000000E-03 0.  1.
         11   -1    0    0    0    0 -0.00000000000E+00 -0.00000000000E+00 -0.45593999997E+02  0.45594000000E+02  0.51100000000E-03 0. -1.
    9900012    2    1    2    0    0  0.87232540819E+01  0.22289479491E+02 -0.21066672433E+02  0.59301941210E+02  0.49999994862E+02 0.  0.
         12    1    1    2    0    0 -0.87232540819E+01 -0.22289479491E+02  0.21066672433E+02  0.31886058790E+02  0.00000000000E+00 0. -1.
         11    1    3    3    0    0 -0.47916797760E+01  0.76045711945E+01 -0.29709654498E+02  0.31039543631E+02  0.51100000000E-03 0. -1.
        -11    1    3    3    0    0  0.60874889849E+01  0.47251531259E+01  0.12986441804E+02  0.15100737240E+02  0.51100000000E-03 0.  1.
        -12    1    3    3    0    0  0.74274448730E+01  0.99597551703E+01 -0.43434597387E+01  0.13161660340E+02  0.00000000000E+00 0.  1.
</event>
<event>
 7    1  0.7821043E-012  0.5930195E+02  0.7816164E-02  0.1266605E+00
        -11   -1    0    0    0    0  0.00000000000E+00  0.00000000000E+00  0.45593999997E+02  0.45594000000E+02  0.51100000000E-03 0. -1.
         11   -1    0    0    0    0 -0.00000000000E+00 -0.00000000000E+00 -0.45593999997E+02  0.45594000000E+02  0.51100000000E-03 0.  1.
    9900012    2    1    2    0    0 -0.23794246550E-01  0.31366049646E+02  0.57350377138E+01  0.59301948282E+02  0.50000007759E+02 0.  0.
         12    1    1    2    0    0  0.23794246550E-01 -0.31366049646E+02 -0.57350377138E+01  0.31886051718E+02  0.00000000000E+00 0. -1.
         11    1    3    3    0    0 -0.20265038750E+02  0.25877159011E+02 -0.37383195926E+01  0.33079815411E+02  0.51100000000E-03 0.  1.
        -11    1    3    3    0    0  0.11710678379E+02  0.27420866228E+00  0.11046514992E+02  0.16100952525E+02  0.51100000000E-03 0. -1.
        -12    1    3    3    0    0  0.85305661250E+01  0.52146819732E+01 -0.15731576855E+01  0.10121180346E+02  0.00000000000E+00 0.  1.
</event>
<event>
 7    1  0.7821043E-012  0.5930194E+02  0.7816164E-02  0.1266605E+00
        -11   -1    0    0    0    0  0.00000000000E+00  0.00000000000E+00  0.45593999997E+02  0.45594000000E+02  0.51100000000E-03 0.  1.
         11   -1    0    0    0    0 -0.00000000000E+00 -0.00000000000E+00 -0.45593999997E+02  0.45594000000E+02  0.51100000000E-03 0. -1.
    9900012    2    1    2    0    0  0.67580183087E+01 -0.31124152396E+02  0.15286976604E+01  0.59301943638E+02  0.49999999289E+02 0.  0.
         12    1    1    2    0    0 -0.67580183087E+01  0.31124152396E+02 -0.15286976604E+01  0.31886056362E+02  0.00000000000E+00 0. -1.
         11    1    3    3    0    0  0.12941996840E+02 -0.48124719069E+01  0.99672954710E+01  0.17029449414E+02  0.51100000000E-03 0. -1.
        -11    1    3    3    0    0  0.52101124851E+01 -0.19228600119E+02 -0.17140904130E+02  0.26281075497E+02  0.51100000000E-03 0.  1.
        -12    1    3    3    0    0 -0.11394091017E+02 -0.70830803699E+01  0.87023063194E+01  0.15991418727E+02  0.00000000000E+00 0.  1.
</event>
<event>
 7    1  0.7821043E-012  0.5930184E+02  0.7816164E-02  0.1266605E+00
        -11   -1    0    0    0    0  0.00000000000E+00  0.00000000000E+00  0.45593999997E+02  0.45594000000E+02  0.51100000000E-03 0.  1.
         11   -1    0    0    0    0 -0.00000000000E+00 -0.00000000000E+00 -0.45593999997E+02  0.45594000000E+02  0.51100000000E-03 0. -1.
    9900012    2    1    2    0    0  0.15892125000E+02  0.17613682504E+02  0.21305533852E+02  0.59301839662E+02  0.49999809662E+02 0.  0.
         12    1    1    2    0    0 -0.15892125000E+02 -0.17613682504E+02 -0.21305533852E+02  0.31886160338E+02  0.00000000000E+00 0. -1.
         11    1    3    3    0    0 -0.10439997153E+02 -0.36178945871E+01  0.56530780302E+01  0.12411284916E+02  0.51100000000E-03 0. -1.
        -11    1    3    3    0    0  0.11579771643E+02  0.22083033800E+02  0.19461400887E+02  0.31630643652E+02  0.51100000000E-03 0.  1.
        -12    1    3    3    0    0  0.14752350509E+02 -0.85145670875E+00 -0.38089450652E+01  0.15259911094E+02  0.00000000000E+00 0.  1.
</event>
<event>
 7    1  0.7821043E-012  0.5930194E+02  0.7816164E-02  0.1266605E+00
        -11   -1    0    0    0    0  0.00000000000E+00  0.00000000000E+00  0.45593999997E+02  0.45594000000E+02  0.51100000000E-03 0.  1.
         11   -1    0    0    0    0 -0.00000000000E+00 -0.00000000000E+00 -0.45593999997E+02  0.45594000000E+02  0.51100000000E-03 0. -1.
    9900012    2    1    2    0    0  0.58015404733E+01 -0.31342485169E+02  0.84355983946E+00  0.59301939697E+02  0.49999992102E+02 0.  0.
         12    1    1    2    0    0 -0.58015404733E+01  0.31342485169E+02 -0.84355983946E+00  0.31886060303E+02  0.00000000000E+00 0. -1.
         11    1    3    3    0    0 -0.32212485751E+01 -0.20466886760E+02 -0.20384689615E+02  0.29065537445E+02  0.51100000000E-03 0. -1.
        -11    1    3    3    0    0  0.40403288497E+01 -0.13082158576E+02  0.20622157568E+02  0.24753595966E+02  0.51100000000E-03 0.  1.
        -12    1    3    3    0    0  0.49824601987E+01  0.22065601667E+01  0.60609188679E+00  0.54828062866E+01  0.00000000000E+00 0.  1.
</event>
<event>
 7    1  0.7821043E-012  0.5930194E+02  0.7816164E-02  0.1266605E+00
        -11   -1    0    0    0    0  0.00000000000E+00  0.00000000000E+00  0.45593999997E+02  0.45594000000E+02  0.51100000000E-03 0.  1.
         11   -1    0    0    0    0 -0.00000000000E+00 -0.00000000000E+00 -0.45593999997E+02  0.45594000000E+02  0.51100000000E-03 0. -1.
    9900012    2    1    2    0    0 -0.30526339459E+02 -0.47523622510E+01  0.78916570012E+01  0.59301943518E+02  0.49999999071E+02 0.  0.
         12    1    1    2    0    0  0.30526339459E+02  0.47523622510E+01 -0.78916570012E+01  0.31886056482E+02  0.00000000000E+00 0. -1.
         11    1    3    3    0    0 -0.85397982702E+01  0.16690972167E+02  0.15443950935E+02  0.24290581037E+02  0.51100000000E-03 0. -1.
        -11    1    3    3    0    0  0.38096928564E+00 -0.52185054808E+01 -0.50400310003E+01  0.72649741772E+01  0.51100000000E-03 0.  1.
         12    1    3    3    0    0 -0.22367510475E+02 -0.16224828937E+02 -0.25122629330E+01  0.27746388304E+02  0.00000000000E+00 0. -1.
</event>
<event>
 7    1  0.7821043E-012  0.5930188E+02  0.7816164E-02  0.1266605E+00
        -11   -1    0    0    0    0  0.00000000000E+00  0.00000000000E+00  0.45593999997E+02  0.45594000000E+02  0.51100000000E-03 0. -1.
         11   -1    0    0    0    0 -0.00000000000E+00 -0.00000000000E+00 -0.45593999997E+02  0.45594000000E+02  0.51100000000E-03 0.  1.
    9900012    2    1    2    0    0 -0.77832645727E+01 -0.24579658086E+02 -0.18761285998E+02  0.59301879958E+02  0.49999883153E+02 0.  0.
         12    1    1    2    0    0  0.77832645727E+01  0.24579658086E+02  0.18761285998E+02  0.31886120042E+02  0.00000000000E+00 0. -1.
         11    1    3    3    0    0  0.39151746449E+00 -0.11626943404E+02  0.11023681314E+02  0.16026872709E+02  0.51100000000E-03 0. -1.
        -11    1    3    3    0    0  0.93797491251E+00 -0.17864674283E+02 -0.27282518281E+02  0.32624564183E+02  0.51100000000E-03 0.  1.
        -12    1    3    3    0    0 -0.91127569497E+01  0.49119596015E+01 -0.25024490310E+01  0.10650443066E+02  0.00000000000E+00 0.  1.
</event>
<event>
 7    1  0.7821043E-012  0.5930198E+02  0.7816164E-02  0.1266605E+00
        -11   -1    0    0    0    0  0.00000000000E+00  0.00000000000E+00  0.45593999997E+02  0.45594000000E+02  0.51100000000E-03 0.  1.
         11   -1    0    0    0    0 -0.00000000000E+00 -0.00000000000E+00 -0.45593999997E+02  0.45594000000E+02  0.51100000000E-03 0. -1.
    9900012    2    1    2    0    0 -0.70859466333E+01 -0.42079827591E+01  0.30802605465E+02  0.59301980148E+02  0.50000065875E+02 0.  0.
         12    1    1    2    0    0  0.70859466333E+01  0.42079827591E+01 -0.30802605465E+02  0.31886019852E+02  0.00000000000E+00 0. -1.
         11    1    3    3    0    0  0.14019188480E+02  0.31181870736E+01  0.15549516032E+02  0.21167148730E+02  0.51100000000E-03 0. -1.
        -11    1    3    3    0    0 -0.20208175309E+02  0.11582317307E+01 -0.46927688397E+00  0.20246779277E+02  0.51100000000E-03 0.  1.
         12    1    3    3    0    0 -0.89695980466E+00 -0.84844015634E+01  0.15722366317E+02  0.17888052140E+02  0.00000000000E+00 0. -1.
</event>
<event>
 7    1  0.7821043E-012  0.5930193E+02  0.7816164E-02  0.1266605E+00
        -11   -1    0    0    0    0  0.00000000000E+00  0.00000000000E+00  0.45593999997E+02  0.45594000000E+02  0.51100000000E-03 0.  1.
         11   -1    0    0    0    0 -0.00000000000E+00 -0.00000000000E+00 -0.45593999997E+02  0.45594000000E+02  0.51100000000E-03 0. -1.
    9900012    2    1    2    0    0 -0.49308286575E+01 -0.16527129930E+01  0.31459126286E+02  0.59301934734E+02  0.49999983050E+02 0.  0.
         12    1    1    2    0    0  0.49308286575E+01  0.16527129930E+01 -0.31459126286E+02  0.31886065266E+02  0.00000000000E+00 0. -1.
         11    1    3    3    0    0 -0.51075841783E+01  0.31772797272E+01 -0.57874284194E+01  0.83472660539E+01  0.51100000000E-03 0. -1.
        -11    1    3    3    0    0  0.16677036912E+01  0.12087800407E+02  0.30191665880E+02  0.32564287850E+02  0.51100000000E-03 0.  1.
        -12    1    3    3    0    0 -0.14909481703E+01 -0.16917793127E+02  0.70548888255E+01  0.18390380830E+02  0.00000000000E+00 0.  1.
</event>
<event>
 7    1  0.7821043E-012  0.5930198E+02  0.7816164E-02  0.1266605E+00
        -11   -1    0    0    0    0  0.00000000000E+00  0.00000000000E+00  0.45593999997E+02  0.45594000000E+02  0.51100000000E-03 0.  1.
         11   -1    0    0    0    0 -0.00000000000E+00 -0.00000000000E+00 -0.45593999997E+02  0.45594000000E+02  0.51100000000E-03 0. -1.
    9900012    2    1    2    0    0 -0.24250263607E+02  0.20661263822E+02  0.13248194707E+01  0.59301980268E+02  0.50000066093E+02 0.  0.
         12    1    1    2    0    0  0.24250263607E+02 -0.20661263822E+02 -0.13248194707E+01  0.31886019732E+02  0.00000000000E+00 0. -1.
         11    1    3    3    0    0  0.95739912700E+00  0.48861572737E+01  0.18099012284E+02  0.18771398241E+02  0.51100000000E-03 0.  1.
        -11    1    3    3    0    0 -0.78097896454E+01 -0.35334638001E+01 -0.10931259458E+02  0.13891386335E+02  0.51100000000E-03 0. -1.
         12    1    3    3    0    0 -0.17397873089E+02  0.19308570348E+02 -0.58429333560E+01  0.26639195692E+02  0.00000000000E+00 0. -1.
</event>
<event>
 7    1  0.7821043E-012  0.5930193E+02  0.7816164E-02  0.1266605E+00
        -11   -1    0    0    0    0  0.00000000000E+00  0.00000000000E+00  0.45593999997E+02  0.45594000000E+02  0.51100000000E-03 0.  1.
         11   -1    0    0    0    0 -0.00000000000E+00 -0.00000000000E+00 -0.45593999997E+02  0.45594000000E+02  0.51100000000E-03 0. -1.
    9900012    2    1    2    0    0 -0.24832793711E+02  0.14308969680E+02  0.13975224447E+02  0.59301934781E+02  0.49999983136E+02 0.  0.
         12    1    1    2    0    0  0.24832793711E+02 -0.14308969680E+02 -0.13975224447E+02  0.31886065219E+02  0.00000000000E+00 0. -1.
         11    1    3    3    0    0 -0.29222272572E+02  0.54618002296E+01  0.10765526544E+02  0.31617543201E+02  0.51100000000E-03 0. -1.
        -11    1    3    3    0    0  0.63140994379E+01  0.36911538631E+01  0.13873979909E+02  0.15683742772E+02  0.51100000000E-03 0.  1.
         12    1    3    3    0    0 -0.19246205767E+01  0.51560155870E+01 -0.10664282007E+02  0.12000648808E+02  0.00000000000E+00 0. -1.
</event>
<event>
 7    1  0.7821043E-012  0.5930194E+02  0.7816164E-02  0.1266605E+00
        -11   -1    0    0    0    0  0.00000000000E+00  0.00000000000E+00  0.45593999997E+02  0.45594000000E+02  0.51100000000E-03 0.  1.
         11   -1    0    0    0    0 -0.00000000000E+00 -0.00000000000E+00 -0.45593999997E+02  0.45594000000E+02  0.51100000000E-03 0. -1.
    9900012    2    1    2    0    0 -0.43015623832E+01 -0.43251546687E+01  0.31297132673E+02  0.59301938540E+02  0.49999989992E+02 0.  0.
         12    1    1    2    0    0  0.43015623832E+01  0.43251546687E+01 -0.31297132673E+02  0.31886061460E+02  0.00000000000E+00 0. -1.
         11    1    3    3    0    0  0.80567024924E+01 -0.54537794835E+01  0.53147257597E+01  0.11086048704E+02  0.51100000000E-03 0. -1.
        -11    1    3    3    0    0 -0.81109108087E+01  0.11456395233E+02  0.32418446051E+02  0.35326923309E+02  0.51100000000E-03 0.  1.
        -12    1    3    3    0    0 -0.42473540670E+01 -0.10327770418E+02 -0.64360391371E+01  0.12888966527E+02  0.00000000000E+00 0.  1.
</event>
<event>
 7    1  0.7821043E-012  0.5930196E+02  0.7816164E-02  0.1266605E+00
        -11   -1    0    0    0    0  0.00000000000E+00  0.00000000000E+00  0.45593999997E+02  0.45594000000E+02  0.51100000000E-03 0.  1.
         11   -1    0    0    0    0 -0.00000000000E+00 -0.00000000000E+00 -0.45593999997E+02  0.45594000000E+02  0.51100000000E-03 0. -1.
    9900012    2    1    2    0    0 -0.26430473472E+02 -0.14194836616E+02  0.10800754881E+02  0.59301958845E+02  0.50000027024E+02 0.  0.
         12    1    1    2    0    0  0.26430473472E+02  0.14194836616E+02 -0.10800754881E+02  0.31886041155E+02  0.00000000000E+00 0. -1.
         11    1    3    3    0    0  0.18544132350E+01 -0.13718170433E+02 -0.62671918752E+01  0.15195550097E+02  0.51100000000E-03 0. -1.
        -11    1    3    3    0    0 -0.19796832308E+02 -0.70051081023E+00  0.25399273738E+02  0.32210687535E+02  0.51100000000E-03 0.  1.
        -12    1    3    3    0    0 -0.84880543995E+01  0.22384462783E+00 -0.83313269820E+01  0.11895721213E+02  0.00000000000E+00 0.  1.
</event>
<event>
 7    1  0.7821043E-012  0.5930190E+02  0.7816164E-02  0.1266605E+00
        -11   -1    0    0    0    0  0.00000000000E+00  0.00000000000E+00  0.45593999997E+02  0.45594000000E+02  0.51100000000E-03 0.  1.
         11   -1    0    0    0    0 -0.00000000000E+00 -0.00000000000E+00 -0.45593999997E+02  0.45594000000E+02  0.51100000000E-03 0. -1.
    9900012    2    1    2    0    0 -0.10558826671E+02 -0.19630035787E+02  0.22801234359E+02  0.59301899361E+02  0.49999918538E+02 0.  0.
         12    1    1    2    0    0  0.10558826671E+02  0.19630035787E+02 -0.22801234359E+02  0.31886100639E+02  0.00000000000E+00 0. -1.
         11    1    3    3    0    0 -0.14067492639E+01 -0.17995059441E+02 -0.11554498633E+02  0.21431461609E+02  0.51100000000E-03 0. -1.
        -11    1    3    3    0    0 -0.49397414500E+01 -0.63053013509E+01  0.10539624170E+02  0.13237883087E+02  0.51100000000E-03 0.  1.
         12    1    3    3    0    0 -0.42123359575E+01  0.46703250048E+01  0.23816108822E+02  0.24632554664E+02  0.00000000000E+00 0. -1.
</event>
<event>
 7    1  0.7821043E-012  0.5930195E+02  0.7816164E-02  0.1266605E+00
        -11   -1    0    0    0    0  0.00000000000E+00  0.00000000000E+00  0.45593999997E+02  0.45594000000E+02  0.51100000000E-03 0.  1.
         11   -1    0    0    0    0 -0.00000000000E+00 -0.00000000000E+00 -0.45593999997E+02  0.45594000000E+02  0.51100000000E-03 0. -1.
    9900012    2    1    2    0    0 -0.11748192040E+01 -0.22986250883E+02  0.22067447269E+02  0.59301950405E+02  0.50000011631E+02 0.  0.
         12    1    1    2    0    0  0.11748192040E+01  0.22986250883E+02 -0.22067447269E+02  0.31886049595E+02  0.00000000000E+00 0. -1.
         11    1    3    3    0    0 -0.15380200148E+02  0.41703529887E+01 -0.35376745176E+00  0.15939496614E+02  0.51100000000E-03 0. -1.
        -11    1    3    3    0    0  0.14305055435E+02 -0.53114734068E+01  0.86964378620E+01  0.17563439085E+02  0.51100000000E-03 0.  1.
        -12    1    3    3    0    0 -0.99674491162E-01 -0.21845130464E+02  0.13724776858E+02  0.25799014706E+02  0.00000000000E+00 0.  1.
</event>
<event>
 7    1  0.7821043E-012  0.5930193E+02  0.7816164E-02  0.1266605E+00
        -11   -1    0    0    0    0  0.00000000000E+00  0.00000000000E+00  0.45593999997E+02  0.45594000000E+02  0.51100000000E-03 0. -1.
         11   -1    0    0    0    0 -0.00000000000E+00 -0.00000000000E+00 -0.45593999997E+02  0.45594000000E+02  0.51100000000E-03 0.  1.
    9900012    2    1    2    0    0 -0.28890378682E+01 -0.30048404797E+02 -0.10269770016E+02  0.59301931776E+02  0.49999977655E+02 0.  0.
         12    1    1    2    0    0  0.28890378682E+01  0.30048404797E+02  0.10269770016E+02  0.31886068224E+02  0.00000000000E+00 0. -1.
         11    1    3    3    0    0 -0.22781536297E+02 -0.86075650450E+01  0.55274084121E+01  0.24972801526E+02  0.51100000000E-03 0. -1.
        -11    1    3    3    0    0  0.18367468055E+02 -0.14624585369E+02 -0.12626163755E+02  0.26658251845E+02  0.51100000000E-03 0.  1.
         12    1    3    3    0    0  0.15250303737E+01 -0.68162543823E+01 -0.31710146723E+01  0.76708784045E+01  0.00000000000E+00 0. -1.
</event>
<event>
 7    1  0.7821043E-012  0.5930187E+02  0.7816164E-02  0.1266605E+00
        -11   -1    0    0    0    0  0.00000000000E+00  0.00000000000E+00  0.45593999997E+02  0.45594000000E+02  0.51100000000E-03 0. -1.
         11   -1    0    0    0    0 -0.00000000000E+00 -0.00000000000E+00 -0.45593999997E+02  0.45594000000E+02  0.51100000000E-03 0.  1.
    9900012    2    1    2    0    0 -0.15262640396E+02  0.25722160662E+02 -0.11052030526E+02  0.59301872613E+02  0.49999869756E+02 0.  0.
         12    1    1    2    0    0  0.15262640396E+02 -0.25722160662E+02  0.11052030526E+02  0.31886127387E+02  0.00000000000E+00 0. -1.
         11    1    3    3    0    0 -0.67787844797E+01 -0.43277348351E+01  0.43446671622E-01  0.80425801644E+01  0.51100000000E-03 0. -1.
        -11    1    3    3    0    0  0.18796812578E+01  0.16667640362E+02 -0.24483888956E+02  0.29678346577E+02  0.51100000000E-03 0.  1.
        -12    1    3    3    0    0 -0.10363537174E+02  0.13382255135E+02  0.13388411759E+02  0.21580945871E+02  0.00000000000E+00 0.  1.
</event>
<event>
 7    1  0.9515597E-012  0.5930197E+02  0.7816164E-02  0.1266605E+00
        -11   -1    0    0    0    0  0.00000000000E+00  0.00000000000E+00  0.45593999997E+02  0.45594000000E+02  0.51100000000E-03 0. -1.
         11   -1    0    0    0    0 -0.00000000000E+00 -0.00000000000E+00 -0.45593999997E+02  0.45594000000E+02  0.51100000000E-03 0.  1.
    9900012    2    1    2    0    0 -0.23842947204E+02  0.21163893975E+02 -0.56783462982E+00  0.59301968956E+02  0.50000045463E+02 0.  0.
         12    1    1    2    0    0  0.23842947204E+02 -0.21163893975E+02  0.56783462982E+00  0.31886031044E+02  0.00000000000E+00 0. -1.
         11    1    3    3    0    0 -0.28453088659E+01  0.20878474014E+02  0.52733495846E+01  0.21721295445E+02  0.51100000000E-03 0. -1.
        -11    1    3    3    0    0 -0.29036977790E+02 -0.22140529694E-01 -0.53049161731E+01  0.29517599923E+02  0.51100000000E-03 0.  1.
         12    1    3    3    0    0  0.80393394512E+01  0.30756049024E+00 -0.53626804134E+00  0.80630735876E+01  0.00000000000E+00 0. -1.
</event>
<event>
 7    1  0.7821043E-012  0.5930195E+02  0.7816164E-02  0.1266605E+00
        -11   -1    0    0    0    0  0.00000000000E+00  0.00000000000E+00  0.45593999997E+02  0.45594000000E+02  0.51100000000E-03 0.  1.
         11   -1    0    0    0    0 -0.00000000000E+00 -0.00000000000E+00 -0.45593999997E+02  0.45594000000E+02  0.51100000000E-03 0. -1.
    9900012    2    1    2    0    0  0.21069491940E+01 -0.14500973045E+02 -0.28319656960E+02  0.59301946239E+02  0.50000004032E+02 0.  0.
         12    1    1    2    0    0 -0.21069491940E+01  0.14500973045E+02  0.28319656960E+02  0.31886053761E+02  0.00000000000E+00 0. -1.
         11    1    3    3    0    0  0.15280831733E+02  0.91205327249E+01 -0.15151183215E+02  0.23371912389E+02  0.51100000000E-03 0. -1.
        -11    1    3    3    0    0 -0.77412563841E+01 -0.26019208460E+02 -0.87273621032E+01  0.28514787546E+02  0.51100000000E-03 0.  1.
         12    1    3    3    0    0 -0.54326261550E+01  0.23977026900E+01 -0.44411116421E+01  0.74152463038E+01  0.00000000000E+00 0. -1.
</event>
<event>
 7    1  0.7821043E-012  0.5930199E+02  0.7816164E-02  0.1266605E+00
        -11   -1    0    0    0    0  0.00000000000E+00  0.00000000000E+00  0.45593999997E+02  0.45594000000E+02  0.51100000000E-03 0. -1.
         11   -1    0    0    0    0 -0.00000000000E+00 -0.00000000000E+00 -0.45593999997E+02  0.45594000000E+02  0.51100000000E-03 0.  1.
    9900012    2    1    2    0    0  0.18355917965E+02  0.18205805116E+02 -0.18663507508E+02  0.59301990893E+02  0.50000085471E+02 0.  0.
         12    1    1    2    0    0 -0.18355917965E+02 -0.18205805116E+02  0.18663507508E+02  0.31886009107E+02  0.00000000000E+00 0. -1.
         11    1    3    3    0    0  0.54396726732E+01  0.19452394444E+02 -0.16843189551E+01  0.20268759681E+02  0.51100000000E-03 0. -1.
        -11    1    3    3    0    0 -0.55434942210E+01 -0.10988444345E+02 -0.12779386295E+02  0.17742292739E+02  0.51100000000E-03 0.  1.
         12    1    3    3    0    0  0.18459739513E+02  0.97418550180E+01 -0.41998022577E+01  0.21290938474E+02  0.00000000000E+00 0. -1.
</event>
<event>
 7    1  0.7821043E-012  0.5930195E+02  0.7816164E-02  0.1266605E+00
        -11   -1    0    0    0    0  0.00000000000E+00  0.00000000000E+00  0.45593999997E+02  0.45594000000E+02  0.51100000000E-03 0.  1.
         11   -1    0    0    0    0 -0.00000000000E+00 -0.00000000000E+00 -0.45593999997E+02  0.45594000000E+02  0.51100000000E-03 0. -1.
    9900012    2    1    2    0    0 -0.20169056815E+02  0.16107755573E+02  0.18720829755E+02  0.59301951183E+02  0.50000013050E+02 0.  0.
         12    1    1    2    0    0  0.20169056815E+02 -0.16107755573E+02 -0.18720829755E+02  0.31886048817E+02  0.00000000000E+00 0. -1.
         11    1    3    3    0    0 -0.94124401914E+01  0.14503885803E+02 -0.13310868217E+02  0.21820539561E+02  0.51100000000E-03 0. -1.
        -11    1    3    3    0    0  0.12578234697E+01  0.39885025545E+01  0.19554585139E+02  0.19996801563E+02  0.51100000000E-03 0.  1.
         12    1    3    3    0    0 -0.12014440094E+02 -0.23846327849E+01  0.12477112834E+02  0.17484610060E+02  0.00000000000E+00 0. -1.
</event>
<event>
 7    1  0.7821043E-012  0.5930176E+02  0.7816164E-02  0.1266605E+00
        -11   -1    0    0    0    0  0.00000000000E+00  0.00000000000E+00  0.45593999997E+02  0.45594000000E+02  0.51100000000E-03 0. -1.
         11   -1    0    0    0    0 -0.00000000000E+00 -0.00000000000E+00 -0.45593999997E+02  0.45594000000E+02  0.51100000000E-03 0.  1.
    9900012    2    1    2    0    0 -0.16459827784E+02  0.27261122753E+02  0.16241444673E+01  0.59301755478E+02  0.49999656130E+02 0.  0.
         12    1    1    2    0    0  0.16459827784E+02 -0.27261122753E+02 -0.16241444673E+01  0.31886244522E+02  0.00000000000E+00 0. -1.
         11    1    3    3    0    0 -0.51905294827E+01  0.10506933746E+02  0.94085321263E+01  0.15028563806E+02  0.51100000000E-03 0. -1.
        -11    1    3    3    0    0  0.98322469927E+00 -0.12029291486E+02 -0.14125731125E+00  0.12070233567E+02  0.51100000000E-03 0.  1.
        -12    1    3    3    0    0 -0.12252523001E+02  0.28783480493E+02 -0.76431303477E+01  0.32202958105E+02  0.00000000000E+00 0.  1.
</event>
<event>
 7    1  0.7821043E-012  0.5930194E+02  0.7816164E-02  0.1266605E+00
        -11   -1    0    0    0    0  0.00000000000E+00  0.00000000000E+00  0.45593999997E+02  0.45594000000E+02  0.51100000000E-03 0.  1.
         11   -1    0    0    0    0 -0.00000000000E+00 -0.00000000000E+00 -0.45593999997E+02  0.45594000000E+02  0.51100000000E-03 0. -1.
    9900012    2    1    2    0    0 -0.18683445310E+02  0.21402326909E+02  0.14477231539E+02  0.59301937860E+02  0.49999988752E+02 0.  0.
         12    1    1    2    0    0  0.18683445310E+02 -0.21402326909E+02 -0.14477231539E+02  0.31886062140E+02  0.00000000000E+00 0. -1.
         11    1    3    3    0    0 -0.16356610814E+02 -0.38150754895E+01  0.11300236367E+02  0.20243242342E+02  0.51100000000E-03 0. -1.
        -11    1    3    3    0    0  0.96531869840E+01  0.21525411570E+02 -0.49690131895E+01  0.24108472671E+02  0.51100000000E-03 0.  1.
        -12    1    3    3    0    0 -0.11980021480E+02  0.36919908279E+01  0.81460083619E+01  0.14950222847E+02  0.00000000000E+00 0.  1.
</event>
<event>
 7    1  0.7821043E-012  0.5930194E+02  0.7816164E-02  0.1266605E+00
        -11   -1    0    0    0    0  0.00000000000E+00  0.00000000000E+00  0.45593999997E+02  0.45594000000E+02  0.51100000000E-03 0.  1.
         11   -1    0    0    0    0 -0.00000000000E+00 -0.00000000000E+00 -0.45593999997E+02  0.45594000000E+02  0.51100000000E-03 0. -1.
    9900012    2    1    2    0    0 -0.24327481377E+02  0.14773196220E+02  0.14375232162E+02  0.59301937584E+02  0.49999988247E+02 0.  0.
         12    1    1    2    0    0  0.24327481377E+02 -0.14773196220E+02 -0.14375232162E+02  0.31886062416E+02  0.00000000000E+00 0. -1.
         11    1    3    3    0    0 -0.15134923279E+02  0.54681616104E+01 -0.37140808591E+01  0.16515480342E+02  0.51100000000E-03 0. -1.
        -11    1    3    3    0    0  0.11257766251E+02  0.53188314774E+01  0.18078447860E+02  0.21951253872E+02  0.51100000000E-03 0.  1.
        -12    1    3    3    0    0 -0.20450324349E+02  0.39862031319E+01  0.10865160767E-01  0.20835203370E+02  0.00000000000E+00 0.  1.
</event>
<event>
 7    1  0.7821043E-012  0.5930198E+02  0.7816164E-02  0.1266605E+00
        -11   -1    0    0    0    0  0.00000000000E+00  0.00000000000E+00  0.45593999997E+02  0.45594000000E+02  0.51100000000E-03 0. -1.
         11   -1    0    0    0    0 -0.00000000000E+00 -0.00000000000E+00 -0.45593999997E+02  0.45594000000E+02  0.51100000000E-03 0.  1.
    9900012    2    1    2    0    0  0.15157067148E+02  0.17550448242E+02 -0.21885228254E+02  0.59301982159E+02  0.50000069541E+02 0.  0.
         12    1    1    2    0    0 -0.15157067148E+02 -0.17550448242E+02  0.21885228254E+02  0.31886017841E+02  0.00000000000E+00 0. -1.
         11    1    3    3    0    0 -0.22906580049E+01 -0.11226446333E+02 -0.10168534710E+02  0.15319246384E+02  0.51100000000E-03 0. -1.
        -11    1    3    3    0    0  0.80944807861E+01  0.21960961381E+02  0.47239042343E+01  0.23877179805E+02  0.51100000000E-03 0.  1.
        -12    1    3    3    0    0  0.93532443673E+01  0.68159331945E+01 -0.16440597779E+02  0.20105555969E+02  0.00000000000E+00 0.  1.
</event>
<event>
 7    1  0.7821043E-012  0.5930202E+02  0.7816164E-02  0.1266605E+00
        -11   -1    0    0    0    0  0.00000000000E+00  0.00000000000E+00  0.45593999997E+02  0.45594000000E+02  0.51100000000E-03 0.  1.
         11   -1    0    0    0    0 -0.00000000000E+00 -0.00000000000E+00 -0.45593999997E+02  0.45594000000E+02  0.51100000000E-03 0. -1.
    9900012    2    1    2    0    0 -0.27819845343E+02  0.56789059850E+01  0.14509383198E+02  0.59302016106E+02  0.50000131453E+02 0.  0.
         12    1    1    2    0    0  0.27819845343E+02 -0.56789059850E+01 -0.14509383198E+02  0.31885983894E+02  0.00000000000E+00 0. -1.
         11    1    3    3    0    0 -0.68200759184E+01  0.14893664117E+02 -0.13488820339E+01  0.16436366671E+02  0.51100000000E-03 0. -1.
        -11    1    3    3    0    0  0.78137821542E+01 -0.48179498147E+01 -0.93440081865E+00  0.92271846801E+01  0.51100000000E-03 0.  1.
        -12    1    3    3    0    0 -0.28813551579E+02 -0.43968083170E+01  0.16792666051E+02  0.33638464755E+02  0.00000000000E+00 0.  1.
</event>
<event>
 7    1  0.7821043E-012  0.5930195E+02  0.7816164E-02  0.1266605E+00
        -11   -1    0    0    0    0  0.00000000000E+00  0.00000000000E+00  0.45593999997E+02  0.45594000000E+02  0.51100000000E-03 0. -1.
         11   -1    0    0    0    0 -0.00000000000E+00 -0.00000000000E+00 -0.45593999997E+02  0.45594000000E+02  0.51100000000E-03 0.  1.
    9900012    2    1    2    0    0 -0.29472181583E+02 -0.20344261956E+01 -0.11998831623E+02  0.59301947602E+02  0.50000006519E+02 0.  0.
         12    1    1    2    0    0  0.29472181583E+02  0.20344261956E+01  0.11998831623E+02  0.31886052398E+02  0.00000000000E+00 0. -1.
         11    1    3    3    0    0 -0.23970402031E+02 -0.21709577284E+02 -0.67112728622E+00  0.32347122460E+02  0.51100000000E-03 0. -1.
        -11    1    3    3    0    0 -0.77659781969E+01  0.10471457807E+02 -0.11631985185E+02  0.17471832347E+02  0.51100000000E-03 0.  1.
         12    1    3    3    0    0  0.22641986455E+01  0.92036932808E+01  0.30428084819E+00  0.94829927949E+01  0.00000000000E+00 0. -1.
</event>
<event>
 7    1  0.7821043E-012  0.5930192E+02  0.7816164E-02  0.1266605E+00
        -11   -1    0    0    0    0  0.00000000000E+00  0.00000000000E+00  0.45593999997E+02  0.45594000000E+02  0.51100000000E-03 0. -1.
         11   -1    0    0    0    0 -0.00000000000E+00 -0.00000000000E+00 -0.45593999997E+02  0.45594000000E+02  0.51100000000E-03 0.  1.
    9900012    2    1    2    0    0 -0.27418284760E+02 -0.81972622506E+01  0.14062878361E+02  0.59301921606E+02  0.49999959107E+02 0.  0.
         12    1    1    2    0    0  0.27418284760E+02  0.81972622506E+01 -0.14062878361E+02  0.31886078394E+02  0.00000000000E+00 0. -1.
         11    1    3    3    0    0 -0.11815988789E+02 -0.22945090558E+02  0.65294865150E+01  0.26621963980E+02  0.51100000000E-03 0.  1.
        -11    1    3    3    0    0 -0.15300075814E+02  0.17100711314E+02 -0.18316334373E+01  0.23019155690E+02  0.51100000000E-03 0. -1.
         12    1    3    3    0    0 -0.30222015701E+00 -0.23528830071E+01  0.93650252834E+01  0.96608019350E+01  0.00000000000E+00 0. -1.
</event>
<event>
 7    1  0.7821043E-012  0.5930193E+02  0.7816164E-02  0.1266605E+00
        -11   -1    0    0    0    0  0.00000000000E+00  0.00000000000E+00  0.45593999997E+02  0.45594000000E+02  0.51100000000E-03 0.  1.
         11   -1    0    0    0    0 -0.00000000000E+00 -0.00000000000E+00 -0.45593999997E+02  0.45594000000E+02  0.51100000000E-03 0. -1.
    9900012    2    1    2    0    0  0.15685555981E+02 -0.11692962039E+02  0.25178550605E+02  0.59301930342E+02  0.49999975041E+02 0.  0.
         12    1    1    2    0    0 -0.15685555981E+02  0.11692962039E+02 -0.25178550605E+02  0.31886069658E+02  0.00000000000E+00 0. -1.
         11    1    3    3    0    0  0.21793562273E+02 -0.88215564236E+01  0.80672289275E+00  0.23525093334E+02  0.51100000000E-03 0. -1.
        -11    1    3    3    0    0 -0.15053782294E+02 -0.66402489512E+01  0.16161729380E+02  0.23063190679E+02  0.51100000000E-03 0.  1.
         12    1    3    3    0    0  0.89457760008E+01  0.37688433360E+01  0.82100983324E+01  0.12713646329E+02  0.00000000000E+00 0. -1.
</event>
<event>
 7    1  0.7821043E-012  0.5930201E+02  0.7816164E-02  0.1266605E+00
        -11   -1    0    0    0    0  0.00000000000E+00  0.00000000000E+00  0.45593999997E+02  0.45594000000E+02  0.51100000000E-03 0.  1.
         11   -1    0    0    0    0 -0.00000000000E+00 -0.00000000000E+00 -0.45593999997E+02  0.45594000000E+02  0.51100000000E-03 0. -1.
    9900012    2    1    2    0    0  0.13823990262E+02  0.15707192497E+02  0.24060299029E+02  0.59302006331E+02  0.50000113625E+02 0.  0.
         12    1    1    2    0    0 -0.13823990262E+02 -0.15707192497E+02 -0.24060299029E+02  0.31885993669E+02  0.00000000000E+00 0. -1.
         11    1    3    3    0    0 -0.10971800826E+02 -0.12744428825E+01  0.17744264338E+02  0.20901280707E+02  0.51100000000E-03 0. -1.
        -11    1    3    3    0    0  0.90370952929E+01  0.12794887031E+02  0.13408541998E+02  0.20619583513E+02  0.51100000000E-03 0.  1.
         12    1    3    3    0    0  0.15758695795E+02  0.41867483485E+01 -0.70925073063E+01  0.17781142111E+02  0.00000000000E+00 0. -1.
</event>
<event>
 7    1  0.7821043E-012  0.5930191E+02  0.7816164E-02  0.1266605E+00
        -11   -1    0    0    0    0  0.00000000000E+00  0.00000000000E+00  0.45593999997E+02  0.45594000000E+02  0.51100000000E-03 0. -1.
         11   -1    0    0    0    0 -0.00000000000E+00 -0.00000000000E+00 -0.45593999997E+02  0.45594000000E+02  0.51100000000E-03 0.  1.
    9900012    2    1    2    0    0 -0.97825327633E+01  0.10433837593E+02 -0.28498415480E+02  0.59301912140E+02  0.49999941844E+02 0.  0.
         12    1    1    2    0    0  0.97825327633E+01 -0.10433837593E+02  0.28498415480E+02  0.31886087860E+02  0.00000000000E+00 0. -1.
         11    1    3    3    0    0  0.17315202900E+02  0.37580738646E+01 -0.62089351994E+01  0.18774723625E+02  0.51100000000E-03 0. -1.
        -11    1    3    3    0    0 -0.27613739984E+02  0.66051657449E+01 -0.24961387476E+02  0.37804995906E+02  0.51100000000E-03 0.  1.
        -12    1    3    3    0    0  0.51600432100E+00  0.70597983402E-01  0.26719071957E+01  0.27221926084E+01  0.00000000000E+00 0.  1.
</event>
<event>
 7    1  0.7821043E-012  0.5930195E+02  0.7816164E-02  0.1266605E+00
        -11   -1    0    0    0    0  0.00000000000E+00  0.00000000000E+00  0.45593999997E+02  0.45594000000E+02  0.51100000000E-03 0.  1.
         11   -1    0    0    0    0 -0.00000000000E+00 -0.00000000000E+00 -0.45593999997E+02  0.45594000000E+02  0.51100000000E-03 0. -1.
    9900012    2    1    2    0    0  0.30023167760E+02  0.34259110205E+01  0.10178047047E+02  0.59301951164E+02  0.50000013015E+02 0.  0.
         12    1    1    2    0    0 -0.30023167760E+02 -0.34259110205E+01 -0.10178047047E+02  0.31886048836E+02  0.00000000000E+00 0. -1.
         11    1    3    3    0    0  0.24761771167E+02  0.19073616715E+02  0.28347673233E+00  0.31257455514E+02  0.51100000000E-03 0. -1.
        -11    1    3    3    0    0  0.11717496218E+02 -0.15874661986E+02  0.81918489033E+01  0.21363777744E+02  0.51100000000E-03 0.  1.
         12    1    3    3    0    0 -0.64560996250E+01  0.22695629099E+00  0.17027214116E+01  0.66807179054E+01  0.00000000000E+00 0. -1.
</event>
<event>
 7    1  0.7821043E-012  0.5930195E+02  0.7816164E-02  0.1266605E+00
        -11   -1    0    0    0    0  0.00000000000E+00  0.00000000000E+00  0.45593999997E+02  0.45594000000E+02  0.51100000000E-03 0.  1.
         11   -1    0    0    0    0 -0.00000000000E+00 -0.00000000000E+00 -0.45593999997E+02  0.45594000000E+02  0.51100000000E-03 0. -1.
    9900012    2    1    2    0    0 -0.69998711436E+01  0.11493748938E+02  0.28907013471E+02  0.59301954643E+02  0.50000019359E+02 0.  0.
         12    1    1    2    0    0  0.69998711436E+01 -0.11493748938E+02 -0.28907013471E+02  0.31886045357E+02  0.00000000000E+00 0. -1.
         11    1    3    3    0    0 -0.13083101354E+02  0.12480205276E+02  0.41536960407E+00  0.18085784389E+02  0.51100000000E-03 0. -1.
        -11    1    3    3    0    0  0.15142871854E+02 -0.85115890469E+01  0.12709685345E+02  0.21524168228E+02  0.51100000000E-03 0.  1.
        -12    1    3    3    0    0 -0.90596416430E+01  0.75251327088E+01  0.15781958523E+02  0.19692002026E+02  0.00000000000E+00 0.  1.
</event>
<event>
 7    1  0.7821043E-012  0.5930197E+02  0.7816164E-02  0.1266605E+00
        -11   -1    0    0    0    0  0.00000000000E+00  0.00000000000E+00  0.45593999997E+02  0.45594000000E+02  0.51100000000E-03 0. -1.
         11   -1    0    0    0    0 -0.00000000000E+00 -0.00000000000E+00 -0.45593999997E+02  0.45594000000E+02  0.51100000000E-03 0.  1.
    9900012    2    1    2    0    0  0.18295462311E+02 -0.11289838769E+02 -0.23548560545E+02  0.59301966939E+02  0.50000041785E+02 0.  0.
         12    1    1    2    0    0 -0.18295462311E+02  0.11289838769E+02  0.23548560545E+02  0.31886033061E+02  0.00000000000E+00 0. -1.
         11    1    3    3    0    0 -0.10366333384E+02  0.38689430896E+01 -0.18556327354E+02  0.21604788209E+02  0.51100000000E-03 0. -1.
        -11    1    3    3    0    0  0.20134105399E+02 -0.36550392536E+01 -0.96696354994E+01  0.22632793975E+02  0.51100000000E-03 0.  1.
         12    1    3    3    0    0  0.85276902955E+01 -0.11503742605E+02  0.46774023077E+01  0.15064384755E+02  0.00000000000E+00 0. -1.
</event>
<event>
 7    1  0.7821043E-012  0.5930196E+02  0.7816164E-02  0.1266605E+00
        -11   -1    0    0    0    0  0.00000000000E+00  0.00000000000E+00  0.45593999997E+02  0.45594000000E+02  0.51100000000E-03 0. -1.
         11   -1    0    0    0    0 -0.00000000000E+00 -0.00000000000E+00 -0.45593999997E+02  0.45594000000E+02  0.51100000000E-03 0.  1.
    9900012    2    1    2    0    0 -0.24220653999E+02 -0.26996260807E+01 -0.20561897520E+02  0.59301957744E+02  0.50000025016E+02 0.  0.
         12    1    1    2    0    0  0.24220653999E+02  0.26996260807E+01  0.20561897520E+02  0.31886042256E+02  0.00000000000E+00 0. -1.
         11    1    3    3    0    0  0.70221988620E-01 -0.69312579760E+01 -0.13888338386E+02  0.15522023439E+02  0.51100000000E-03 0. -1.
        -11    1    3    3    0    0 -0.13261472919E+02  0.19501822737E+02  0.59043932001E+00  0.23591023143E+02  0.51100000000E-03 0.  1.
        -12    1    3    3    0    0 -0.11029403068E+02 -0.15270190842E+02 -0.72639984544E+01  0.20188911163E+02  0.00000000000E+00 0.  1.
</event>
<event>
 7    1  0.7821043E-012  0.5930194E+02  0.7816164E-02  0.1266605E+00
        -11   -1    0    0    0    0  0.00000000000E+00  0.00000000000E+00  0.45593999997E+02  0.45594000000E+02  0.51100000000E-03 0.  1.
         11   -1    0    0    0    0 -0.00000000000E+00 -0.00000000000E+00 -0.45593999997E+02  0.45594000000E+02  0.51100000000E-03 0. -1.
    9900012    2    1    2    0    0 -0.33814799856E+01 -0.13754175782E+01  0.31676407229E+02  0.59301937914E+02  0.49999988850E+02 0.  0.
         12    1    1    2    0    0  0.33814799856E+01  0.13754175782E+01 -0.31676407229E+02  0.31886062086E+02  0.00000000000E+00 0. -1.
         11    1    3    3    0    0  0.78070052092E+01 -0.32461983379E+01 -0.13635139099E+01  0.85642457011E+01  0.51100000000E-03 0. -1.
        -11    1    3    3    0    0 -0.15895212441E+02  0.12657924927E+02  0.33249238886E+02  0.38966559108E+02  0.51100000000E-03 0.  1.
        -12    1    3    3    0    0  0.47067272457E+01 -0.10787144167E+02 -0.20931774704E+00  0.11771133105E+02  0.00000000000E+00 0.  1.
</event>
<event>
 7    1  0.7821043E-012  0.5930193E+02  0.7816164E-02  0.1266605E+00
        -11   -1    0    0    0    0  0.00000000000E+00  0.00000000000E+00  0.45593999997E+02  0.45594000000E+02  0.51100000000E-03 0.  1.
         11   -1    0    0    0    0 -0.00000000000E+00 -0.00000000000E+00 -0.45593999997E+02  0.45594000000E+02  0.51100000000E-03 0. -1.
    9900012    2    1    2    0    0  0.63562962418E+01 -0.91537047165E+00  0.31232690227E+02  0.59301931822E+02  0.49999977740E+02 0.  0.
         12    1    1    2    0    0 -0.63562962418E+01  0.91537047165E+00 -0.31232690227E+02  0.31886068178E+02  0.00000000000E+00 0. -1.
         11    1    3    3    0    0 -0.18203376935E+01  0.48794572675E+01  0.35407266970E+02  0.35788228332E+02  0.51100000000E-03 0.  1.
        -11    1    3    3    0    0  0.10992285874E+02  0.14870149844E+01 -0.90442597180E+01  0.14312239392E+02  0.51100000000E-03 0. -1.
         12    1    3    3    0    0 -0.28156519387E+01 -0.72818427236E+01  0.48696829747E+01  0.92014640990E+01  0.00000000000E+00 0. -1.
</event>
<event>
 7    1  0.7821043E-012  0.5930184E+02  0.7816164E-02  0.1266605E+00
        -11   -1    0    0    0    0  0.00000000000E+00  0.00000000000E+00  0.45593999997E+02  0.45594000000E+02  0.51100000000E-03 0.  1.
         11   -1    0    0    0    0 -0.00000000000E+00 -0.00000000000E+00 -0.45593999997E+02  0.45594000000E+02  0.51100000000E-03 0. -1.
    9900012    2    1    2    0    0  0.11901404416E+02 -0.21806701458E+02  0.19988778243E+02  0.59301844521E+02  0.49999818523E+02 0.  0.
         12    1    1    2    0    0 -0.11901404416E+02  0.21806701458E+02 -0.19988778243E+02  0.31886155479E+02  0.00000000000E+00 0. -1.
         11    1    3    3    0    0 -0.80356545468E+01 -0.11312032727E+02 -0.11639510487E+02  0.18111102480E+02  0.51100000000E-03 0. -1.
        -11    1    3    3    0    0  0.18078177445E+02 -0.25971247667E+01  0.21348347828E+02  0.28094795106E+02  0.51100000000E-03 0.  1.
         12    1    3    3    0    0  0.18588815181E+01 -0.78975439646E+01  0.10279940902E+02  0.13095946935E+02  0.00000000000E+00 0. -1.
</event>
<event>
 7    1  0.7821043E-012  0.5930189E+02  0.7816164E-02  0.1266605E+00
        -11   -1    0    0    0    0  0.00000000000E+00  0.00000000000E+00  0.45593999997E+02  0.45594000000E+02  0.51100000000E-03 0.  1.
         11   -1    0    0    0    0 -0.00000000000E+00 -0.00000000000E+00 -0.45593999997E+02  0.45594000000E+02  0.51100000000E-03 0. -1.
    9900012    2    1    2    0    0 -0.28463283900E+02 -0.13247463866E+02 -0.55740585877E+01  0.59301890824E+02  0.49999902969E+02 0.  0.
         12    1    1    2    0    0  0.28463283900E+02  0.13247463866E+02  0.55740585877E+01  0.31886109176E+02  0.00000000000E+00 0. -1.
         11    1    3    3    0    0 -0.42681621478E+01 -0.90882243890E+01  0.15387297843E+02  0.18373403763E+02  0.51100000000E-03 0.  1.
        -11    1    3    3    0    0  0.62760296975E+00 -0.54835131387E+01 -0.14098713688E+02  0.15140559096E+02  0.51100000000E-03 0. -1.
         12    1    3    3    0    0 -0.24822724722E+02  0.13242736617E+01 -0.68626427422E+01  0.25787927965E+02  0.00000000000E+00 0. -1.
</event>
<event>
 7    1  0.7821043E-012  0.5930195E+02  0.7816164E-02  0.1266605E+00
        -11   -1    0    0    0    0  0.00000000000E+00  0.00000000000E+00  0.45593999997E+02  0.45594000000E+02  0.51100000000E-03 0.  1.
         11   -1    0    0    0    0 -0.00000000000E+00 -0.00000000000E+00 -0.45593999997E+02  0.45594000000E+02  0.51100000000E-03 0. -1.
    9900012    2    1    2    0    0  0.29214969538E+02  0.12484865856E+01  0.12714056376E+02  0.59301946726E+02  0.50000004921E+02 0.  0.
         12    1    1    2    0    0 -0.29214969538E+02 -0.12484865856E+01 -0.12714056376E+02  0.31886053274E+02  0.00000000000E+00 0. -1.
         11    1    3    3    0    0 -0.23087752256E+01 -0.17388111692E+01 -0.12588706545E+02  0.12916247136E+02  0.51100000000E-03 0. -1.
        -11    1    3    3    0    0  0.26006060977E+01 -0.50717753404E+01  0.12513510508E+02  0.13750418272E+02  0.51100000000E-03 0.  1.
         12    1    3    3    0    0  0.28923138666E+02  0.80590730952E+01  0.12789252413E+02  0.32635281318E+02  0.00000000000E+00 0. -1.
</event>
<event>
 7    1  0.7821043E-012  0.5930197E+02  0.7816164E-02  0.1266605E+00
        -11   -1    0    0    0    0  0.00000000000E+00  0.00000000000E+00  0.45593999997E+02  0.45594000000E+02  0.51100000000E-03 0.  1.
         11   -1    0    0    0    0 -0.00000000000E+00 -0.00000000000E+00 -0.45593999997E+02  0.45594000000E+02  0.51100000000E-03 0. -1.
    9900012    2    1    2    0    0  0.11342639428E+02  0.29039161929E+01  0.29658566643E+02  0.59301972123E+02  0.50000051238E+02 0.  0.
         12    1    1    2    0    0 -0.11342639428E+02 -0.29039161929E+01 -0.29658566643E+02  0.31886027877E+02  0.00000000000E+00 0. -1.
         11    1    3    3    0    0 -0.69133328285E+01 -0.79489812772E+01  0.17629876510E+02  0.20537600156E+02  0.51100000000E-03 0. -1.
        -11    1    3    3    0    0  0.15622148586E+02  0.15237184192E+02  0.19796495156E+02  0.29463953049E+02  0.51100000000E-03 0.  1.
        -12    1    3    3    0    0  0.26338236710E+01 -0.43842867220E+01 -0.77678050222E+01  0.93004189182E+01  0.00000000000E+00 0.  1.
</event>
<event>
 7    1  0.7821043E-012  0.5930166E+02  0.7816164E-02  0.1266606E+00
        -11   -1    0    0    0    0  0.00000000000E+00  0.00000000000E+00  0.45593999997E+02  0.45594000000E+02  0.51100000000E-03 0.  1.
         11   -1    0    0    0    0 -0.00000000000E+00 -0.00000000000E+00 -0.45593999997E+02  0.45594000000E+02  0.51100000000E-03 0. -1.
    9900012    2    1    2    0    0 -0.11617972241E+02  0.58901316781E+01 -0.29104424297E+02  0.59301663681E+02  0.49999488713E+02 0.  0.
         12    1    1    2    0    0  0.11617972241E+02 -0.58901316781E+01  0.29104424297E+02  0.31886336319E+02  0.00000000000E+00 0. -1.
         11    1    3    3    0    0  0.17964280546E+00  0.28128047150E+01  0.97852132777E+01  0.10183051657E+02  0.51100000000E-03 0. -1.
        -11    1    3    3    0    0 -0.18007430509E+02 -0.59670675467E+01 -0.23090315136E+02  0.29883709642E+02  0.51100000000E-03 0.  1.
         12    1    3    3    0    0  0.62098154625E+01  0.90443945099E+01 -0.15799322439E+02  0.19234902382E+02  0.00000000000E+00 0. -1.
</event>
<event>
 7    1  0.7821043E-012  0.5930194E+02  0.7816164E-02  0.1266605E+00
        -11   -1    0    0    0    0  0.00000000000E+00  0.00000000000E+00  0.45593999997E+02  0.45594000000E+02  0.51100000000E-03 0. -1.
         11   -1    0    0    0    0 -0.00000000000E+00 -0.00000000000E+00 -0.45593999997E+02  0.45594000000E+02  0.51100000000E-03 0.  1.
    9900012    2    1    2    0    0  0.16936536770E+02  0.14099210545E+02 -0.23045322725E+02  0.59301938543E+02  0.49999989997E+02 0.  0.
         12    1    1    2    0    0 -0.16936536770E+02 -0.14099210545E+02  0.23045322725E+02  0.31886061457E+02  0.00000000000E+00 0. -1.
         11    1    3    3    0    0 -0.59871612902E+01  0.11990619307E+02  0.11352753985E+02  0.17564341006E+02  0.51100000000E-03 0. -1.
        -11    1    3    3    0    0  0.11308422208E+02  0.30147293326E+01 -0.14006253022E+02  0.18252236294E+02  0.51100000000E-03 0.  1.
         12    1    3    3    0    0  0.11615275852E+02 -0.90613809412E+00 -0.20391823688E+02  0.23485361242E+02  0.00000000000E+00 0. -1.
</event>
<event>
 7    1  0.7821043E-012  0.5930189E+02  0.7816164E-02  0.1266605E+00
        -11   -1    0    0    0    0  0.00000000000E+00  0.00000000000E+00  0.45593999997E+02  0.45594000000E+02  0.51100000000E-03 0. -1.
         11   -1    0    0    0    0 -0.00000000000E+00 -0.00000000000E+00 -0.45593999997E+02  0.45594000000E+02  0.51100000000E-03 0.  1.
    9900012    2    1    2    0    0 -0.30927602356E+02  0.76827009339E+01 -0.10878018747E+01  0.59301893401E+02  0.49999907668E+02 0.  0.
         12    1    1    2    0    0  0.30927602356E+02 -0.76827009339E+01  0.10878018747E+01  0.31886106599E+02  0.00000000000E+00 0. -1.
         11    1    3    3    0    0 -0.27682921226E+01  0.39033078144E+01  0.17179337422E+02  0.17833364452E+02  0.51100000000E-03 0. -1.
        -11    1    3    3    0    0 -0.74771674496E+01 -0.46194280747E+01 -0.16966980902E+02  0.19108259732E+02  0.51100000000E-03 0.  1.
        -12    1    3    3    0    0 -0.20682142784E+02  0.83988211942E+01 -0.13001583947E+01  0.22360269217E+02  0.00000000000E+00 0.  1.
</event>
<event>
 7    1  0.7821043E-012  0.5930196E+02  0.7816164E-02  0.1266605E+00
        -11   -1    0    0    0    0  0.00000000000E+00  0.00000000000E+00  0.45593999997E+02  0.45594000000E+02  0.51100000000E-03 0. -1.
         11   -1    0    0    0    0 -0.00000000000E+00 -0.00000000000E+00 -0.45593999997E+02  0.45594000000E+02  0.51100000000E-03 0.  1.
    9900012    2    1    2    0    0  0.21029158084E+02 -0.16812959057E+02 -0.17082701091E+02  0.59301956681E+02  0.50000023076E+02 0.  0.
         12    1    1    2    0    0 -0.21029158084E+02  0.16812959057E+02  0.17082701091E+02  0.31886043319E+02  0.00000000000E+00 0. -1.
         11    1    3    3    0    0 -0.10274967713E+02  0.24124483408E+01  0.53354388922E+01  0.11826317133E+02  0.51100000000E-03 0. -1.
        -11    1    3    3    0    0  0.19635158044E+02 -0.15705746694E+02 -0.41039656391E+01  0.25476507705E+02  0.51100000000E-03 0.  1.
         12    1    3    3    0    0  0.11668967753E+02 -0.35196607042E+01 -0.18314174344E+02  0.21999131842E+02  0.00000000000E+00 0. -1.
</event>
<event>
 7    1  0.7821043E-012  0.5930196E+02  0.7816164E-02  0.1266605E+00
        -11   -1    0    0    0    0  0.00000000000E+00  0.00000000000E+00  0.45593999997E+02  0.45594000000E+02  0.51100000000E-03 0.  1.
         11   -1    0    0    0    0 -0.00000000000E+00 -0.00000000000E+00 -0.45593999997E+02  0.45594000000E+02  0.51100000000E-03 0. -1.
    9900012    2    1    2    0    0  0.30464558920E+02 -0.88272261018E+01  0.32726864323E+01  0.59301956857E+02  0.50000023397E+02 0.  0.
         12    1    1    2    0    0 -0.30464558920E+02  0.88272261018E+01 -0.32726864323E+01  0.31886043143E+02  0.00000000000E+00 0. -1.
         11    1    3    3    0    0  0.13246394876E+02 -0.97284240770E+01  0.21722727835E+01  0.16577936589E+02  0.51100000000E-03 0. -1.
        -11    1    3    3    0    0  0.12854774731E+02  0.16877182718E+02 -0.93041482288E+01  0.23165744202E+02  0.51100000000E-03 0.  1.
         12    1    3    3    0    0  0.43633893125E+01 -0.15975984743E+02  0.10404561878E+02  0.19558276066E+02  0.00000000000E+00 0. -1.
</event>
<event>
 7    1  0.7821043E-012  0.5930195E+02  0.7816164E-02  0.1266605E+00
        -11   -1    0    0    0    0  0.00000000000E+00  0.00000000000E+00  0.45593999997E+02  0.45594000000E+02  0.51100000000E-03 0. -1.
         11   -1    0    0    0    0 -0.00000000000E+00 -0.00000000000E+00 -0.45593999997E+02  0.45594000000E+02  0.51100000000E-03 0.  1.
    9900012    2    1    2    0    0 -0.67852892182E+01  0.27233859074E+02 -0.15132642279E+02  0.59301951450E+02  0.50000013536E+02 0.  0.
         12    1    1    2    0    0  0.67852892182E+01 -0.27233859074E+02  0.15132642279E+02  0.31886048550E+02  0.00000000000E+00 0. -1.
         11    1    3    3    0    0  0.15025040366E+02  0.11035113457E+02 -0.22904647628E+02  0.29532159594E+02  0.51100000000E-03 0. -1.
        -11    1    3    3    0    0 -0.23946949149E+01  0.35425285642E+01  0.47598340055E+01  0.63984445286E+01  0.51100000000E-03 0.  1.
         12    1    3    3    0    0 -0.19415634670E+02  0.12656217052E+02  0.30121713441E+01  0.23371347328E+02  0.00000000000E+00 0. -1.
</event>
<event>
 7    1  0.7821043E-012  0.5930193E+02  0.7816164E-02  0.1266605E+00
        -11   -1    0    0    0    0  0.00000000000E+00  0.00000000000E+00  0.45593999997E+02  0.45594000000E+02  0.51100000000E-03 0.  1.
         11   -1    0    0    0    0 -0.00000000000E+00 -0.00000000000E+00 -0.45593999997E+02  0.45594000000E+02  0.51100000000E-03 0. -1.
    9900012    2    1    2    0    0 -0.23531026374E+02  0.69897112709E+01  0.20350829690E+02  0.59301928825E+02  0.49999972274E+02 0.  0.
         12    1    1    2    0    0  0.23531026374E+02 -0.69897112709E+01 -0.20350829690E+02  0.31886071175E+02  0.00000000000E+00 0. -1.
         11    1    3    3    0    0 -0.14695595596E+02  0.96401944036E+01  0.10190291115E+01  0.17604894168E+02  0.51100000000E-03 0. -1.
        -11    1    3    3    0    0  0.13649336999E+02 -0.39133706182E+01  0.52616956821E+01  0.15142797357E+02  0.51100000000E-03 0.  1.
        -12    1    3    3    0    0 -0.22484767777E+02  0.12628874855E+01  0.14070104897E+02  0.26554237300E+02  0.00000000000E+00 0.  1.
</event>
<event>
 7    1  0.7821043E-012  0.5930196E+02  0.7816164E-02  0.1266605E+00
        -11   -1    0    0    0    0  0.00000000000E+00  0.00000000000E+00  0.45593999997E+02  0.45594000000E+02  0.51100000000E-03 0.  1.
         11   -1    0    0    0    0 -0.00000000000E+00 -0.00000000000E+00 -0.45593999997E+02  0.45594000000E+02  0.51100000000E-03 0. -1.
    9900012    2    1    2    0    0 -0.93209239133E+01 -0.11430492881E+02  0.28269841343E+02  0.59301957290E+02  0.50000024188E+02 0.  0.
         12    1    1    2    0    0  0.93209239133E+01  0.11430492881E+02 -0.28269841343E+02  0.31886042710E+02  0.00000000000E+00 0. -1.
         11    1    3    3    0    0  0.40109854404E+01 -0.20608204790E+02  0.11400818636E+02  0.23890683848E+02  0.51100000000E-03 0. -1.
        -11    1    3    3    0    0 -0.18997196992E+02  0.27913591908E+01  0.34527314817E+01  0.19509139771E+02  0.51100000000E-03 0.  1.
        -12    1    3    3    0    0  0.56652876381E+01  0.63863527180E+01  0.13416291225E+02  0.15902133671E+02  0.00000000000E+00 0.  1.
</event>
<event>
 7    1  0.7821043E-012  0.5930183E+02  0.7816164E-02  0.1266605E+00
        -11   -1    0    0    0    0  0.00000000000E+00  0.00000000000E+00  0.45593999997E+02  0.45594000000E+02  0.51100000000E-03 0.  1.
         11   -1    0    0    0    0 -0.00000000000E+00 -0.00000000000E+00 -0.45593999997E+02  0.45594000000E+02  0.51100000000E-03 0. -1.
    9900012    2    1    2    0    0 -0.29378021786E+02 -0.10844457052E+02  0.60047569483E+01  0.59301834994E+02  0.49999801148E+02 0.  0.
         12    1    1    2    0    0  0.29378021786E+02  0.10844457052E+02 -0.60047569483E+01  0.31886165006E+02  0.00000000000E+00 0. -1.
         11    1    3    3    0    0  0.37014547479E+01 -0.37808255064E+01 -0.16231831538E+02  0.17072427013E+02  0.51100000000E-03 0. -1.
        -11    1    3    3    0    0 -0.25838180244E+02 -0.86689056124E+01  0.12484125266E+02  0.29976905557E+02  0.51100000000E-03 0.  1.
         12    1    3    3    0    0 -0.72412962897E+01  0.16052740671E+01  0.97524632202E+01  0.12252502424E+02  0.00000000000E+00 0. -1.
</event>
<event>
 7    1  0.7821043E-012  0.5930188E+02  0.7816164E-02  0.1266605E+00
        -11   -1    0    0    0    0  0.00000000000E+00  0.00000000000E+00  0.45593999997E+02  0.45594000000E+02  0.51100000000E-03 0.  1.
         11   -1    0    0    0    0 -0.00000000000E+00 -0.00000000000E+00 -0.45593999997E+02  0.45594000000E+02  0.51100000000E-03 0. -1.
    9900012    2    1    2    0    0  0.13819931788E+02 -0.11996640349E+02  0.26111584557E+02  0.59301878531E+02  0.49999880549E+02 0.  0.
         12    1    1    2    0    0 -0.13819931788E+02  0.11996640349E+02 -0.26111584557E+02  0.31886121469E+02  0.00000000000E+00 0. -1.
         11    1    3    3    0    0 -0.82539499640E+01 -0.19899812642E+02  0.12070061166E+02  0.24694465170E+02  0.51100000000E-03 0. -1.
        -11    1    3    3    0    0  0.20459587549E+02  0.28087325065E+01  0.18439968230E+02  0.27686027696E+02  0.51100000000E-03 0.  1.
        -12    1    3    3    0    0  0.16142942028E+01  0.50944397867E+01 -0.43984448397E+01  0.69213856649E+01  0.00000000000E+00 0.  1.
</event>
<event>
 7    1  0.7821043E-012  0.5930193E+02  0.7816164E-02  0.1266605E+00
        -11   -1    0    0    0    0  0.00000000000E+00  0.00000000000E+00  0.45593999997E+02  0.45594000000E+02  0.51100000000E-03 0. -1.
         11   -1    0    0    0    0 -0.00000000000E+00 -0.00000000000E+00 -0.45593999997E+02  0.45594000000E+02  0.51100000000E-03 0.  1.
    9900012    2    1    2    0    0  0.22454433299E+02 -0.12408671724E+02 -0.18935280189E+02  0.59301928675E+02  0.49999972000E+02 0.  0.
         12    1    1    2    0    0 -0.22454433299E+02  0.12408671724E+02  0.18935280189E+02  0.31886071325E+02  0.00000000000E+00 0. -1.
         11    1    3    3    0    0 -0.56068606376E+01  0.36865810811E+01 -0.20711061310E+02  0.21770985902E+02  0.51100000000E-03 0. -1.
        -11    1    3    3    0    0  0.24224533865E+02 -0.15028431792E+02  0.84721958387E+01  0.29739870640E+02  0.51100000000E-03 0.  1.
         12    1    3    3    0    0  0.38367600718E+01 -0.10668210136E+01 -0.66964147173E+01  0.77910721335E+01  0.00000000000E+00 0. -1.
</event>
<event>
 7    1  0.7821043E-012  0.5930195E+02  0.7816164E-02  0.1266605E+00
        -11   -1    0    0    0    0  0.00000000000E+00  0.00000000000E+00  0.45593999997E+02  0.45594000000E+02  0.51100000000E-03 0.  1.
         11   -1    0    0    0    0 -0.00000000000E+00 -0.00000000000E+00 -0.45593999997E+02  0.45594000000E+02  0.51100000000E-03 0. -1.
    9900012    2    1    2    0    0 -0.25748805658E+02  0.10155933836E+02  0.15829589629E+02  0.59301954577E+02  0.50000019239E+02 0.  0.
         12    1    1    2    0    0  0.25748805658E+02 -0.10155933836E+02 -0.15829589629E+02  0.31886045423E+02  0.00000000000E+00 0. -1.
         11    1    3    3    0    0  0.53727704784E+01  0.31499371115E+01  0.93157748984E+00  0.62973489105E+01  0.51100000000E-03 0. -1.
        -11    1    3    3    0    0 -0.17900885081E+02 -0.15994842745E+02  0.10102775511E+02  0.26045014003E+02  0.51100000000E-03 0.  1.
        -12    1    3    3    0    0 -0.13220691056E+02  0.23000839470E+02  0.47952366286E+01  0.26959591663E+02  0.00000000000E+00 0.  1.
</event>
<event>
 7    1  0.7821043E-012  0.5930194E+02  0.7816164E-02  0.1266605E+00
        -11   -1    0    0    0    0  0.00000000000E+00  0.00000000000E+00  0.45593999997E+02  0.45594000000E+02  0.51100000000E-03 0.  1.
         11   -1    0    0    0    0 -0.00000000000E+00 -0.00000000000E+00 -0.45593999997E+02  0.45594000000E+02  0.51100000000E-03 0. -1.
    9900012    2    1    2    0    0  0.11671863639E+02 -0.11606027716E+02  0.27309131166E+02  0.59301938387E+02  0.49999989713E+02 0.  0.
         12    1    1    2    0    0 -0.11671863639E+02  0.11606027716E+02 -0.27309131166E+02  0.31886061613E+02  0.00000000000E+00 0. -1.
         11    1    3    3    0    0  0.34684692937E+01  0.32207852647E+01  0.13877561402E+02  0.14662552564E+02  0.51100000000E-03 0. -1.
        -11    1    3    3    0    0  0.12237366700E+00 -0.27340508964E+02  0.11331316434E+02  0.29595897319E+02  0.51100000000E-03 0.  1.
        -12    1    3    3    0    0  0.80810206786E+01  0.12513695982E+02  0.21002533295E+01  0.15043488505E+02  0.00000000000E+00 0.  1.
</event>
<event>
 7    1  0.7821043E-012  0.5930194E+02  0.7816164E-02  0.1266605E+00
        -11   -1    0    0    0    0  0.00000000000E+00  0.00000000000E+00  0.45593999997E+02  0.45594000000E+02  0.51100000000E-03 0.  1.
         11   -1    0    0    0    0 -0.00000000000E+00 -0.00000000000E+00 -0.45593999997E+02  0.45594000000E+02  0.51100000000E-03 0. -1.
    9900012    2    1    2    0    0  0.11936841767E+02  0.29027051789E+02  0.56269611365E+01  0.59301943195E+02  0.49999998482E+02 0.  0.
         12    1    1    2    0    0 -0.11936841767E+02 -0.29027051789E+02 -0.56269611365E+01  0.31886056805E+02  0.00000000000E+00 0. -1.
         11    1    3    3    0    0 -0.10192491418E+01  0.16122517335E+02 -0.19998140656E+02  0.25707976661E+02  0.51100000000E-03 0. -1.
        -11    1    3    3    0    0  0.14698041228E+02  0.12367737752E+02  0.20220124709E+02  0.27889904921E+02  0.51100000000E-03 0.  1.
         12    1    3    3    0    0 -0.17419503187E+01  0.53679670121E+00  0.54049770839E+01  0.57040616133E+01  0.00000000000E+00 0. -1.
</event>
<event>
 7    1  0.7821043E-012  0.5930194E+02  0.7816164E-02  0.1266605E+00
        -11   -1    0    0    0    0  0.00000000000E+00  0.00000000000E+00  0.45593999997E+02  0.45594000000E+02  0.51100000000E-03 0.  1.
         11   -1    0    0    0    0 -0.00000000000E+00 -0.00000000000E+00 -0.45593999997E+02  0.45594000000E+02  0.51100000000E-03 0. -1.
    9900012    2    1    2    0    0  0.63600639554E+00  0.18558720909E+02  0.25920850615E+02  0.59301935293E+02  0.49999984070E+02 0.  0.
         12    1    1    2    0    0 -0.63600639554E+00 -0.18558720909E+02 -0.25920850615E+02  0.31886064707E+02  0.00000000000E+00 0. -1.
         11    1    3    3    0    0  0.98206984652E+00  0.13617378513E+02  0.14990963389E+02  0.20276253163E+02  0.51100000000E-03 0.  1.
        -11    1    3    3    0    0 -0.12524159405E+01 -0.14974602845E+02 -0.21521530454E+01  0.15180218676E+02  0.51100000000E-03 0. -1.
        -12    1    3    3    0    0  0.90635248956E+00  0.19915945241E+02  0.13082040271E+02  0.23845463454E+02  0.00000000000E+00 0.  1.
</event>
<event>
 7    1  0.7821043E-012  0.5930197E+02  0.7816164E-02  0.1266605E+00
        -11   -1    0    0    0    0  0.00000000000E+00  0.00000000000E+00  0.45593999997E+02  0.45594000000E+02  0.51100000000E-03 0.  1.
         11   -1    0    0    0    0 -0.00000000000E+00 -0.00000000000E+00 -0.45593999997E+02  0.45594000000E+02  0.51100000000E-03 0. -1.
    9900012    2    1    2    0    0 -0.14533471348E+00  0.28003982613E+02  0.15247117289E+02  0.59301972496E+02  0.50000051919E+02 0.  0.
         12    1    1    2    0    0  0.14533471348E+00 -0.28003982613E+02 -0.15247117289E+02  0.31886027504E+02  0.00000000000E+00 0. -1.
         11    1    3    3    0    0 -0.29255352714E+01  0.37259115556E+02  0.11066271944E+02  0.38977722146E+02  0.51100000000E-03 0.  1.
        -11    1    3    3    0    0  0.54191326894E+01 -0.12973355715E+02 -0.11446626678E+00  0.14060158619E+02  0.51100000000E-03 0. -1.
         12    1    3    3    0    0 -0.26389321315E+01  0.37182227718E+01  0.42953116110E+01  0.62640917307E+01  0.00000000000E+00 0. -1.
</event>
<event>
 7    1  0.7821043E-012  0.5930195E+02  0.7816164E-02  0.1266605E+00
        -11   -1    0    0    0    0  0.00000000000E+00  0.00000000000E+00  0.45593999997E+02  0.45594000000E+02  0.51100000000E-03 0. -1.
         11   -1    0    0    0    0 -0.00000000000E+00 -0.00000000000E+00 -0.45593999997E+02  0.45594000000E+02  0.51100000000E-03 0.  1.
    9900012    2    1    2    0    0  0.15585932885E+02 -0.14318249755E+02 -0.23849252897E+02  0.59301945937E+02  0.50000003483E+02 0.  0.
         12    1    1    2    0    0 -0.15585932885E+02  0.14318249755E+02  0.23849252897E+02  0.31886054063E+02  0.00000000000E+00 0. -1.
         11    1    3    3    0    0 -0.23216294617E+01  0.31385667786E+01  0.85635325745E+01  0.94114109036E+01  0.51100000000E-03 0. -1.
        -11    1    3    3    0    0  0.19971050149E+02 -0.11742211927E+02 -0.36018169821E+02  0.42825587474E+02  0.51100000000E-03 0.  1.
        -12    1    3    3    0    0 -0.20634878023E+01 -0.57146046069E+01  0.36053843488E+01  0.70649475600E+01  0.00000000000E+00 0.  1.
</event>
<event>
 7    1  0.7821043E-012  0.5930190E+02  0.7816164E-02  0.1266605E+00
        -11   -1    0    0    0    0  0.00000000000E+00  0.00000000000E+00  0.45593999997E+02  0.45594000000E+02  0.51100000000E-03 0.  1.
         11   -1    0    0    0    0 -0.00000000000E+00 -0.00000000000E+00 -0.45593999997E+02  0.45594000000E+02  0.51100000000E-03 0. -1.
    9900012    2    1    2    0    0 -0.16713583862E+02 -0.79074695159E+01  0.25977901241E+02  0.59301900951E+02  0.49999921439E+02 0.  0.
         12    1    1    2    0    0  0.16713583862E+02  0.79074695159E+01 -0.25977901241E+02  0.31886099049E+02  0.00000000000E+00 0. -1.
         11    1    3    3    0    0  0.45260447738E+01  0.42743282233E+01  0.27655404702E+02  0.28347422679E+02  0.51100000000E-03 0. -1.
        -11    1    3    3    0    0 -0.19767767618E+02 -0.13857530484E+02  0.43478614223E+01  0.24529567606E+02  0.51100000000E-03 0.  1.
         12    1    3    3    0    0 -0.14718610176E+01  0.16757327452E+01 -0.60253648837E+01  0.64249106663E+01  0.00000000000E+00 0. -1.
</event>
<event>
 7    1  0.7821043E-012  0.5930198E+02  0.7816164E-02  0.1266605E+00
        -11   -1    0    0    0    0  0.00000000000E+00  0.00000000000E+00  0.45593999997E+02  0.45594000000E+02  0.51100000000E-03 0.  1.
         11   -1    0    0    0    0 -0.00000000000E+00 -0.00000000000E+00 -0.45593999997E+02  0.45594000000E+02  0.51100000000E-03 0. -1.
    9900012    2    1    2    0    0 -0.76165852788E+00 -0.16829883669E+02  0.27072000766E+02  0.59301979027E+02  0.50000063830E+02 0.  0.
         12    1    1    2    0    0  0.76165852788E+00  0.16829883669E+02 -0.27072000766E+02  0.31886020973E+02  0.00000000000E+00 0. -1.
         11    1    3    3    0    0  0.92451878605E+00  0.11260515109E+02  0.97189196542E+01  0.14903400116E+02  0.51100000000E-03 0. -1.
        -11    1    3    3    0    0 -0.36483613244E+01 -0.14753214991E+02 -0.68689767053E+01  0.16677851605E+02  0.51100000000E-03 0.  1.
        -12    1    3    3    0    0  0.19621840105E+01 -0.13337183787E+02  0.24222057817E+02  0.27720727306E+02  0.00000000000E+00 0.  1.
</event>
<event>
 7    1  0.7821043E-012  0.5930192E+02  0.7816164E-02  0.1266605E+00
        -11   -1    0    0    0    0  0.00000000000E+00  0.00000000000E+00  0.45593999997E+02  0.45594000000E+02  0.51100000000E-03 0.  1.
         11   -1    0    0    0    0 -0.00000000000E+00 -0.00000000000E+00 -0.45593999997E+02  0.45594000000E+02  0.51100000000E-03 0. -1.
    9900012    2    1    2    0    0 -0.70259144307E+01 -0.79480756327E+01  0.30069700867E+02  0.59301916984E+02  0.49999950679E+02 0.  0.
         12    1    1    2    0    0  0.70259144307E+01  0.79480756327E+01 -0.30069700867E+02  0.31886083016E+02  0.00000000000E+00 0. -1.
         11    1    3    3    0    0 -0.16779547845E+02  0.79018697472E+01 -0.36070371210E+01  0.18894535941E+02  0.51100000000E-03 0. -1.
        -11    1    3    3    0    0  0.15607364239E+01  0.25115845165E+00  0.12379173643E+02  0.12479700281E+02  0.51100000000E-03 0.  1.
         12    1    3    3    0    0  0.81928969905E+01 -0.16101103831E+02  0.21297564345E+02  0.27927680762E+02  0.00000000000E+00 0. -1.
</event>
<event>
 7    1  0.8290923E-012  0.5930195E+02  0.7816164E-02  0.1266605E+00
        -11   -1    0    0    0    0  0.00000000000E+00  0.00000000000E+00  0.45593999997E+02  0.45594000000E+02  0.51100000000E-03 0. -1.
         11   -1    0    0    0    0 -0.00000000000E+00 -0.00000000000E+00 -0.45593999997E+02  0.45594000000E+02  0.51100000000E-03 0.  1.
    9900012    2    1    2    0    0 -0.31841914635E+02  0.52356843288E+00  0.15932251430E+01  0.59301952614E+02  0.50000015660E+02 0.  0.
         12    1    1    2    0    0  0.31841914635E+02 -0.52356843288E+00 -0.15932251430E+01  0.31886047386E+02  0.00000000000E+00 0. -1.
         11    1    3    3    0    0 -0.14257110874E+02  0.25280506765E+01  0.20366792201E+02  0.24989247198E+02  0.51100000000E-03 0. -1.
        -11    1    3    3    0    0 -0.20627313460E+02 -0.68501607214E+01 -0.10210164761E+02  0.24013709151E+02  0.51100000000E-03 0.  1.
         12    1    3    3    0    0  0.30425096983E+01  0.48456784778E+01 -0.85634022973E+01  0.10298996266E+02  0.00000000000E+00 0. -1.
</event>
<event>
 7    1  0.7821043E-012  0.5930196E+02  0.7816164E-02  0.1266605E+00
        -11   -1    0    0    0    0  0.00000000000E+00  0.00000000000E+00  0.45593999997E+02  0.45594000000E+02  0.51100000000E-03 0.  1.
         11   -1    0    0    0    0 -0.00000000000E+00 -0.00000000000E+00 -0.45593999997E+02  0.45594000000E+02  0.51100000000E-03 0. -1.
    9900012    2    1    2    0    0  0.21031431708E+02  0.15044557418E+02  0.18656353128E+02  0.59301963250E+02  0.50000035056E+02 0.  0.
         12    1    1    2    0    0 -0.21031431708E+02 -0.15044557418E+02 -0.18656353128E+02  0.31886036750E+02  0.00000000000E+00 0. -1.
         11    1    3    3    0    0  0.25704849890E+02  0.16915671751E+02  0.25507135864E+01  0.30876939595E+02  0.51100000000E-03 0. -1.
        -11    1    3    3    0    0  0.45248308151E+01  0.45647963025E+01  0.15951485493E+02  0.17197713479E+02  0.51100000000E-03 0.  1.
         12    1    3    3    0    0 -0.91982489970E+01 -0.64359106357E+01  0.15415404780E+00  0.11227310176E+02  0.00000000000E+00 0. -1.
</event>
<event>
 7    1  0.7821043E-012  0.5930197E+02  0.7816164E-02  0.1266605E+00
        -11   -1    0    0    0    0  0.00000000000E+00  0.00000000000E+00  0.45593999997E+02  0.45594000000E+02  0.51100000000E-03 0. -1.
         11   -1    0    0    0    0 -0.00000000000E+00 -0.00000000000E+00 -0.45593999997E+02  0.45594000000E+02  0.51100000000E-03 0.  1.
    9900012    2    1    2    0    0  0.31740055586E+02  0.28960428998E+01  0.94904976949E+00  0.59301970323E+02  0.50000047956E+02 0.  0.
         12    1    1    2    0    0 -0.31740055586E+02 -0.28960428998E+01 -0.94904976949E+00  0.31886029677E+02  0.00000000000E+00 0. -1.
         11    1    3    3    0    0  0.10617501114E+02  0.16404354852E+02  0.19053394152E+01  0.19633250025E+02  0.51100000000E-03 0. -1.
        -11    1    3    3    0    0 -0.11342921778E+01 -0.16919964064E+02 -0.22930272186E+01  0.17112269773E+02  0.51100000000E-03 0.  1.
        -12    1    3    3    0    0  0.22256846650E+02  0.34116521125E+01  0.13367375729E+01  0.22556450525E+02  0.00000000000E+00 0.  1.
</event>
<event>
 7    1  0.7821043E-012  0.5930202E+02  0.7816164E-02  0.1266604E+00
        -11   -1    0    0    0    0  0.00000000000E+00  0.00000000000E+00  0.45593999997E+02  0.45594000000E+02  0.51100000000E-03 0. -1.
         11   -1    0    0    0    0 -0.00000000000E+00 -0.00000000000E+00 -0.45593999997E+02  0.45594000000E+02  0.51100000000E-03 0.  1.
    9900012    2    1    2    0    0 -0.22674588110E+02  0.21878956105E+02  0.48877286294E+01  0.59302022559E+02  0.50000143223E+02 0.  0.
         12    1    1    2    0    0  0.22674588110E+02 -0.21878956105E+02 -0.48877286294E+01  0.31885977441E+02  0.00000000000E+00 0. -1.
         11    1    3    3    0    0 -0.40501752991E+00  0.19532683801E+02 -0.96131419995E+01  0.21773889755E+02  0.51100000000E-03 0. -1.
        -11    1    3    3    0    0 -0.19242202738E+02  0.82950708253E+01  0.19934330014E+02  0.28921412130E+02  0.51100000000E-03 0.  1.
         12    1    3    3    0    0 -0.30273678413E+01 -0.59487985215E+01 -0.54334593846E+01  0.86067206752E+01  0.00000000000E+00 0. -1.
</event>
<event>
 7    1  0.7821043E-012  0.5930196E+02  0.7816164E-02  0.1266605E+00
        -11   -1    0    0    0    0  0.00000000000E+00  0.00000000000E+00  0.45593999997E+02  0.45594000000E+02  0.51100000000E-03 0.  1.
         11   -1    0    0    0    0 -0.00000000000E+00 -0.00000000000E+00 -0.45593999997E+02  0.45594000000E+02  0.51100000000E-03 0. -1.
    9900012    2    1    2    0    0  0.37319405762E+01 -0.98065070892E+01  0.30110210812E+02  0.59301956707E+02  0.50000023124E+02 0.  0.
         12    1    1    2    0    0 -0.37319405762E+01  0.98065070892E+01 -0.30110210812E+02  0.31886043293E+02  0.00000000000E+00 0. -1.
         11    1    3    3    0    0  0.66784745015E+01  0.97770438084E+00  0.30980696162E+00  0.67567675806E+01  0.51100000000E-03 0. -1.
        -11    1    3    3    0    0  0.15988855595E+01 -0.26566896925E+02  0.21065036889E+02  0.33942484097E+02  0.51100000000E-03 0.  1.
        -12    1    3    3    0    0 -0.45454194848E+01  0.15782685455E+02  0.87353669614E+01  0.18602705030E+02  0.00000000000E+00 0.  1.
</event>
<event>
 7    1  0.7821043E-012  0.5930194E+02  0.7816164E-02  0.1266605E+00
        -11   -1    0    0    0    0  0.00000000000E+00  0.00000000000E+00  0.45593999997E+02  0.45594000000E+02  0.51100000000E-03 0.  1.
         11   -1    0    0    0    0 -0.00000000000E+00 -0.00000000000E+00 -0.45593999997E+02  0.45594000000E+02  0.51100000000E-03 0. -1.
    9900012    2    1    2    0    0 -0.38955830317E+01 -0.17840192323E+02  0.26139481378E+02  0.59301944804E+02  0.50000001415E+02 0.  0.
         12    1    1    2    0    0  0.38955830317E+01  0.17840192323E+02 -0.26139481378E+02  0.31886055196E+02  0.00000000000E+00 0. -1.
         11    1    3    3    0    0  0.54263160888E+01 -0.18238139317E+02  0.15842440027E+01  0.19094094934E+02  0.51100000000E-03 0. -1.
        -11    1    3    3    0    0  0.66003724298E+01  0.10397171721E+02  0.56656318051E+01  0.13556012689E+02  0.51100000000E-03 0.  1.
        -12    1    3    3    0    0 -0.15922271550E+02 -0.99992247279E+01  0.18889605570E+02  0.26651837180E+02  0.00000000000E+00 0.  1.
</event>
<event>
 7    1  0.7821043E-012  0.5930203E+02  0.7816164E-02  0.1266604E+00
        -11   -1    0    0    0    0  0.00000000000E+00  0.00000000000E+00  0.45593999997E+02  0.45594000000E+02  0.51100000000E-03 0.  1.
         11   -1    0    0    0    0 -0.00000000000E+00 -0.00000000000E+00 -0.45593999997E+02  0.45594000000E+02  0.51100000000E-03 0. -1.
    9900012    2    1    2    0    0 -0.17242019244E+02  0.81632022855E+01  0.25549750726E+02  0.59302033473E+02  0.50000163127E+02 0.  0.
         12    1    1    2    0    0  0.17242019244E+02 -0.81632022855E+01 -0.25549750726E+02  0.31885966527E+02  0.00000000000E+00 0. -1.
         11    1    3    3    0    0  0.69136794666E+01 -0.14607421345E+02  0.62448086241E+00  0.16172992881E+02  0.51100000000E-03 0. -1.
        -11    1    3    3    0    0 -0.11920896927E+02  0.75567374006E+01  0.43591745541E+01  0.14772084035E+02  0.51100000000E-03 0.  1.
         12    1    3    3    0    0 -0.12234801784E+02  0.15213886230E+02  0.20566095310E+02  0.28356956557E+02  0.00000000000E+00 0. -1.
</event>
<event>
 7    1  0.7821043E-012  0.5930197E+02  0.7816164E-02  0.1266605E+00
        -11   -1    0    0    0    0  0.00000000000E+00  0.00000000000E+00  0.45593999997E+02  0.45594000000E+02  0.51100000000E-03 0.  1.
         11   -1    0    0    0    0 -0.00000000000E+00 -0.00000000000E+00 -0.45593999997E+02  0.45594000000E+02  0.51100000000E-03 0. -1.
    9900012    2    1    2    0    0 -0.11855892149E+02  0.23202357694E+02  0.18379536861E+02  0.59301969259E+02  0.50000046016E+02 0.  0.
         12    1    1    2    0    0  0.11855892149E+02 -0.23202357694E+02 -0.18379536861E+02  0.31886030741E+02  0.00000000000E+00 0. -1.
         11    1    3    3    0    0  0.85278268193E+01  0.96809438163E+00  0.65925591305E+01  0.10822332149E+02  0.51100000000E-03 0. -1.
        -11    1    3    3    0    0 -0.25357879970E+02  0.66513534957E+01 -0.30538953878E+01  0.26392969844E+02  0.51100000000E-03 0.  1.
        -12    1    3    3    0    0  0.49741610012E+01  0.15582909817E+02  0.14840873118E+02  0.22086667266E+02  0.00000000000E+00 0.  1.
</event>
<event>
 7    1  0.7821043E-012  0.5930195E+02  0.7816164E-02  0.1266605E+00
        -11   -1    0    0    0    0  0.00000000000E+00  0.00000000000E+00  0.45593999997E+02  0.45594000000E+02  0.51100000000E-03 0. -1.
         11   -1    0    0    0    0 -0.00000000000E+00 -0.00000000000E+00 -0.45593999997E+02  0.45594000000E+02  0.51100000000E-03 0.  1.
    9900012    2    1    2    0    0  0.27500034131E+02  0.13694332015E+02  0.85401301153E+01  0.59301946169E+02  0.50000003905E+02 0.  0.
         12    1    1    2    0    0 -0.27500034131E+02 -0.13694332015E+02 -0.85401301153E+01  0.31886053831E+02  0.00000000000E+00 0. -1.
         11    1    3    3    0    0 -0.81371397117E+00  0.17575302821E+02  0.18904189859E+02  0.25824829025E+02  0.51100000000E-03 0. -1.
        -11    1    3    3    0    0  0.23098884287E+02  0.88355161409E+00 -0.30621444501E+01  0.23317715318E+02  0.51100000000E-03 0.  1.
         12    1    3    3    0    0  0.52148638154E+01 -0.47645224202E+01 -0.73019152940E+01  0.10159401826E+02  0.00000000000E+00 0. -1.
</event>
<event>
 7    1  0.7821043E-012  0.5930194E+02  0.7816164E-02  0.1266605E+00
        -11   -1    0    0    0    0  0.00000000000E+00  0.00000000000E+00  0.45593999997E+02  0.45594000000E+02  0.51100000000E-03 0. -1.
         11   -1    0    0    0    0 -0.00000000000E+00 -0.00000000000E+00 -0.45593999997E+02  0.45594000000E+02  0.51100000000E-03 0.  1.
    9900012    2    1    2    0    0 -0.53241991462E+01 -0.87533479460E+01 -0.30195239720E+02  0.59301941940E+02  0.49999996193E+02 0.  0.
         12    1    1    2    0    0  0.53241991462E+01  0.87533479460E+01  0.30195239720E+02  0.31886058060E+02  0.00000000000E+00 0. -1.
         11    1    3    3    0    0  0.89196395283E+01 -0.18976795066E+02 -0.41033648126E+01  0.21366242612E+02  0.51100000000E-03 0. -1.
        -11    1    3    3    0    0 -0.23910156015E+01  0.14569085763E+02 -0.12086323543E+02  0.19080210497E+02  0.51100000000E-03 0.  1.
         12    1    3    3    0    0 -0.11852823073E+02 -0.43456386428E+01 -0.14005551365E+02  0.18855488831E+02  0.00000000000E+00 0. -1.
</event>
<event>
 7    1  0.7821043E-012  0.5930195E+02  0.7816164E-02  0.1266605E+00
        -11   -1    0    0    0    0  0.00000000000E+00  0.00000000000E+00  0.45593999997E+02  0.45594000000E+02  0.51100000000E-03 0. -1.
         11   -1    0    0    0    0 -0.00000000000E+00 -0.00000000000E+00 -0.45593999997E+02  0.45594000000E+02  0.51100000000E-03 0.  1.
    9900012    2    1    2    0    0  0.28050959441E+02  0.50473500414E+01  0.14296428505E+02  0.59301953898E+02  0.50000018001E+02 0.  0.
         12    1    1    2    0    0 -0.28050959441E+02 -0.50473500414E+01 -0.14296428505E+02  0.31886046102E+02  0.00000000000E+00 0. -1.
         11    1    3    3    0    0  0.34852856631E+02  0.12993054530E+02  0.23566958213E+02  0.44033425952E+02  0.51100000000E-03 0. -1.
        -11    1    3    3    0    0 -0.12982400783E+01 -0.43548724897E+00 -0.47016840518E+01  0.48970306951E+01  0.51100000000E-03 0.  1.
         12    1    3    3    0    0 -0.55036571118E+01 -0.75102172398E+01 -0.45688456567E+01  0.10371497251E+02  0.00000000000E+00 0. -1.
</event>
<event>
 7    1  0.7821043E-012  0.5930197E+02  0.7816164E-02  0.1266605E+00
        -11   -1    0    0    0    0  0.00000000000E+00  0.00000000000E+00  0.45593999997E+02  0.45594000000E+02  0.51100000000E-03 0.  1.
         11   -1    0    0    0    0 -0.00000000000E+00 -0.00000000000E+00 -0.45593999997E+02  0.45594000000E+02  0.51100000000E-03 0. -1.
    9900012    2    1    2    0    0  0.82670442920E+01  0.30733045814E+02 -0.19634145474E+01  0.59301966647E+02  0.50000041252E+02 0.  0.
         12    1    1    2    0    0 -0.82670442920E+01 -0.30733045814E+02  0.19634145474E+01  0.31886033353E+02  0.00000000000E+00 0. -1.
         11    1    3    3    0    0 -0.59271981131E+01  0.34590283783E+02 -0.15551408784E+02  0.38385748984E+02  0.51100000000E-03 0. -1.
        -11    1    3    3    0    0  0.17389590507E+01 -0.23507561618E+01  0.86837320934E+00  0.30502631696E+01  0.51100000000E-03 0.  1.
         12    1    3    3    0    0  0.12455283354E+02 -0.15064818074E+01  0.12719621027E+02  0.17865954493E+02  0.00000000000E+00 0. -1.
</event>
<event>
 7    1  0.8146422E-012  0.5930193E+02  0.7816164E-02  0.1266605E+00
        -11   -1    0    0    0    0  0.00000000000E+00  0.00000000000E+00  0.45593999997E+02  0.45594000000E+02  0.51100000000E-03 0. -1.
         11   -1    0    0    0    0 -0.00000000000E+00 -0.00000000000E+00 -0.45593999997E+02  0.45594000000E+02  0.51100000000E-03 0.  1.
    9900012    2    1    2    0    0 -0.28172873933E+02 -0.25815343273E+00 -0.14931299355E+02  0.59301934560E+02  0.49999982733E+02 0.  0.
         12    1    1    2    0    0  0.28172873933E+02  0.25815343273E+00  0.14931299355E+02  0.31886065440E+02  0.00000000000E+00 0. -1.
         11    1    3    3    0    0  0.56097507551E+01  0.52295152534E+01  0.59151179394E+01  0.96853370523E+01  0.51100000000E-03 0. -1.
        -11    1    3    3    0    0 -0.25539412047E+02 -0.13719521840E+02 -0.41927635011E+01  0.29292765544E+02  0.51100000000E-03 0.  1.
        -12    1    3    3    0    0 -0.82432126415E+01  0.82318531539E+01 -0.16653653793E+02  0.20323831963E+02  0.00000000000E+00 0.  1.
</event>
<event>
 7    1  0.7821043E-012  0.5930197E+02  0.7816164E-02  0.1266605E+00
        -11   -1    0    0    0    0  0.00000000000E+00  0.00000000000E+00  0.45593999997E+02  0.45594000000E+02  0.51100000000E-03 0.  1.
         11   -1    0    0    0    0 -0.00000000000E+00 -0.00000000000E+00 -0.45593999997E+02  0.45594000000E+02  0.51100000000E-03 0. -1.
    9900012    2    1    2    0    0 -0.44718053820E+01  0.29463782818E+02  0.11340531514E+02  0.59301965497E+02  0.50000039155E+02 0.  0.
         12    1    1    2    0    0  0.44718053820E+01 -0.29463782818E+02 -0.11340531514E+02  0.31886034503E+02  0.00000000000E+00 0. -1.
         11    1    3    3    0    0 -0.13225468791E+02 -0.54322613335E+01  0.95290858889E+01  0.17182140905E+02  0.51100000000E-03 0. -1.
        -11    1    3    3    0    0  0.50489672532E+01  0.37118779924E+02  0.31607092651E+01  0.37593695970E+02  0.51100000000E-03 0.  1.
         12    1    3    3    0    0  0.37046961562E+01 -0.22227357731E+01 -0.13492636402E+01  0.45261286215E+01  0.00000000000E+00 0. -1.
</event>
<event>
 7    1  0.7821043E-012  0.5930191E+02  0.7816164E-02  0.1266605E+00
        -11   -1    0    0    0    0  0.00000000000E+00  0.00000000000E+00  0.45593999997E+02  0.45594000000E+02  0.51100000000E-03 0. -1.
         11   -1    0    0    0    0 -0.00000000000E+00 -0.00000000000E+00 -0.45593999997E+02  0.45594000000E+02  0.51100000000E-03 0.  1.
    9900012    2    1    2    0    0 -0.57369701073E+01 -0.12679658220E+02 -0.28688602973E+02  0.59301913706E+02  0.49999944700E+02 0.  0.
         12    1    1    2    0    0  0.57369701073E+01  0.12679658220E+02  0.28688602973E+02  0.31886086294E+02  0.00000000000E+00 0. -1.
         11    1    3    3    0    0  0.61956144537E+01 -0.19102588880E+02  0.31263544738E+01  0.20324089966E+02  0.51100000000E-03 0. -1.
        -11    1    3    3    0    0 -0.16461467853E+02  0.35078593257E+01 -0.26621208386E+02  0.31495614569E+02  0.51100000000E-03 0.  1.
        -12    1    3    3    0    0  0.45288832918E+01  0.29150713350E+01 -0.51937490616E+01  0.74822091707E+01  0.00000000000E+00 0.  1.
</event>
<event>
 7    1  0.7821043E-012  0.5930192E+02  0.7816164E-02  0.1266605E+00
        -11   -1    0    0    0    0  0.00000000000E+00  0.00000000000E+00  0.45593999997E+02  0.45594000000E+02  0.51100000000E-03 0. -1.
         11   -1    0    0    0    0 -0.00000000000E+00 -0.00000000000E+00 -0.45593999997E+02  0.45594000000E+02  0.51100000000E-03 0.  1.
    9900012    2    1    2    0    0  0.19443050830E+01  0.88756288306E+01 -0.30564113037E+02  0.59301919727E+02  0.49999955682E+02 0.  0.
         12    1    1    2    0    0 -0.19443050830E+01 -0.88756288306E+01  0.30564113037E+02  0.31886080273E+02  0.00000000000E+00 0. -1.
         11    1    3    3    0    0 -0.46526360046E+01 -0.12449900616E+02 -0.20384043984E+02  0.24334261783E+02  0.51100000000E-03 0.  1.
        -11    1    3    3    0    0  0.96654753882E+01  0.19105860900E+02  0.26642035024E+01  0.21576684540E+02  0.51100000000E-03 0. -1.
        -12    1    3    3    0    0 -0.30685343007E+01  0.22196685471E+01 -0.12844272556E+02  0.13390973404E+02  0.00000000000E+00 0.  1.
</event>
<event>
 7    1  0.7821043E-012  0.5930196E+02  0.7816164E-02  0.1266605E+00
        -11   -1    0    0    0    0  0.00000000000E+00  0.00000000000E+00  0.45593999997E+02  0.45594000000E+02  0.51100000000E-03 0.  1.
         11   -1    0    0    0    0 -0.00000000000E+00 -0.00000000000E+00 -0.45593999997E+02  0.45594000000E+02  0.51100000000E-03 0. -1.
    9900012    2    1    2    0    0 -0.21544899722E+02 -0.22155727720E+02  0.78524231622E+01  0.59301960353E+02  0.50000029774E+02 0.  0.
         12    1    1    2    0    0  0.21544899722E+02  0.22155727720E+02 -0.78524231622E+01  0.31886039647E+02  0.00000000000E+00 0. -1.
         11    1    3    3    0    0  0.28296757211E+01  0.73972124701E+01  0.82828067634E+01  0.11459960958E+02  0.51100000000E-03 0. -1.
        -11    1    3    3    0    0  0.70150686691E+00 -0.21486853183E+02 -0.10662763910E+00  0.21498566029E+02  0.51100000000E-03 0.  1.
         12    1    3    3    0    0 -0.25076082310E+02 -0.80660870072E+01 -0.32375596211E+00  0.26343433367E+02  0.00000000000E+00 0. -1.
</event>
<event>
 7    1  0.7821043E-012  0.5930196E+02  0.7816164E-02  0.1266605E+00
        -11   -1    0    0    0    0  0.00000000000E+00  0.00000000000E+00  0.45593999997E+02  0.45594000000E+02  0.51100000000E-03 0.  1.
         11   -1    0    0    0    0 -0.00000000000E+00 -0.00000000000E+00 -0.45593999997E+02  0.45594000000E+02  0.51100000000E-03 0. -1.
    9900012    2    1    2    0    0 -0.25243045636E+01 -0.31300412454E+02 -0.55345909954E+01  0.59301958684E+02  0.50000026729E+02 0.  0.
         12    1    1    2    0    0  0.25243045636E+01  0.31300412454E+02  0.55345909954E+01  0.31886041316E+02  0.00000000000E+00 0. -1.
         11    1    3    3    0    0 -0.78140327558E+00  0.77980533637E+01  0.56230706918E+01  0.96456804638E+01  0.51100000000E-03 0. -1.
        -11    1    3    3    0    0 -0.13638550415E+02 -0.29724916398E+02 -0.41433982015E+01  0.32965868125E+02  0.51100000000E-03 0.  1.
        -12    1    3    3    0    0  0.11895649127E+02 -0.93735494199E+01 -0.70142634857E+01  0.16690410095E+02  0.00000000000E+00 0.  1.
</event>
<event>
 7    1  0.7821043E-012  0.5930196E+02  0.7816164E-02  0.1266605E+00
        -11   -1    0    0    0    0  0.00000000000E+00  0.00000000000E+00  0.45593999997E+02  0.45594000000E+02  0.51100000000E-03 0.  1.
         11   -1    0    0    0    0 -0.00000000000E+00 -0.00000000000E+00 -0.45593999997E+02  0.45594000000E+02  0.51100000000E-03 0. -1.
    9900012    2    1    2    0    0  0.16493747189E+02  0.25732563779E+02 -0.90835605677E+01  0.59301959048E+02  0.50000027394E+02 0.  0.
         12    1    1    2    0    0 -0.16493747189E+02 -0.25732563779E+02  0.90835605677E+01  0.31886040952E+02  0.00000000000E+00 0. -1.
         11    1    3    3    0    0  0.28445885599E+02  0.16214232128E+02 -0.20199171281E+02  0.38471759145E+02  0.51100000000E-03 0. -1.
        -11    1    3    3    0    0 -0.27648167914E+01 -0.12458556030E+00  0.59177970696E+01  0.65329974644E+01  0.51100000000E-03 0.  1.
         12    1    3    3    0    0 -0.91873216190E+01  0.96429172122E+01  0.51978136439E+01  0.14297202439E+02  0.00000000000E+00 0. -1.
</event>
<event>
 7    1  0.7821043E-012  0.5930196E+02  0.7816164E-02  0.1266605E+00
        -11   -1    0    0    0    0  0.00000000000E+00  0.00000000000E+00  0.45593999997E+02  0.45594000000E+02  0.51100000000E-03 0.  1.
         11   -1    0    0    0    0 -0.00000000000E+00 -0.00000000000E+00 -0.45593999997E+02  0.45594000000E+02  0.51100000000E-03 0. -1.
    9900012    2    1    2    0    0 -0.89098305571E+01 -0.28084911505E+02  0.12189032043E+02  0.59301955451E+02  0.50000020834E+02 0.  0.
         12    1    1    2    0    0  0.89098305571E+01  0.28084911505E+02 -0.12189032043E+02  0.31886044549E+02  0.00000000000E+00 0. -1.
         11    1    3    3    0    0  0.93568891796E+01  0.58928056417E+01  0.90993758549E+01  0.14320446036E+02  0.51100000000E-03 0. -1.
        -11    1    3    3    0    0 -0.18796242600E+02 -0.12275710145E+02 -0.24340042932E+01  0.22581323536E+02  0.51100000000E-03 0.  1.
         12    1    3    3    0    0  0.52952286346E+00 -0.21702007001E+02  0.55236604816E+01  0.22400185880E+02  0.00000000000E+00 0. -1.
</event>
<event>
 7    1  0.7821043E-012  0.5930192E+02  0.7816164E-02  0.1266605E+00
        -11   -1    0    0    0    0  0.00000000000E+00  0.00000000000E+00  0.45593999997E+02  0.45594000000E+02  0.51100000000E-03 0. -1.
         11   -1    0    0    0    0 -0.00000000000E+00 -0.00000000000E+00 -0.45593999997E+02  0.45594000000E+02  0.51100000000E-03 0.  1.
    9900012    2    1    2    0    0  0.17014497588E+02 -0.21759738438E+02 -0.15929303340E+02  0.59301920749E+02  0.49999957546E+02 0.  0.
         12    1    1    2    0    0 -0.17014497588E+02  0.21759738438E+02  0.15929303340E+02  0.31886079251E+02  0.00000000000E+00 0. -1.
         11    1    3    3    0    0  0.23588218221E+02 -0.31046699233E+02 -0.31898143304E+01  0.39121304782E+02  0.51100000000E-03 0.  1.
        -11    1    3    3    0    0 -0.47133859121E+01  0.10832025166E+02 -0.13205139538E+02  0.17717914280E+02  0.51100000000E-03 0. -1.
        -12    1    3    3    0    0 -0.18603347206E+01 -0.15450643713E+01  0.46565052886E+00  0.24627016870E+01  0.00000000000E+00 0.  1.
</event>
<event>
 7    1  0.7821043E-012  0.5930194E+02  0.7816164E-02  0.1266605E+00
        -11   -1    0    0    0    0  0.00000000000E+00  0.00000000000E+00  0.45593999997E+02  0.45594000000E+02  0.51100000000E-03 0.  1.
         11   -1    0    0    0    0 -0.00000000000E+00 -0.00000000000E+00 -0.45593999997E+02  0.45594000000E+02  0.51100000000E-03 0. -1.
    9900012    2    1    2    0    0  0.16403727096E+02  0.24969985597E+02 -0.11141743207E+02  0.59301939016E+02  0.49999990860E+02 0.  0.
         12    1    1    2    0    0 -0.16403727096E+02 -0.24969985597E+02  0.11141743207E+02  0.31886060984E+02  0.00000000000E+00 0. -1.
         11    1    3    3    0    0 -0.51334860950E+01  0.29952488200E+02 -0.89496343353E+01  0.31679649365E+02  0.51100000000E-03 0. -1.
        -11    1    3    3    0    0  0.27099043617E+01 -0.21956556729E+01  0.59694855673E+01  0.69136997102E+01  0.51100000000E-03 0.  1.
         12    1    3    3    0    0  0.18827308830E+02 -0.27868469298E+01 -0.81615944389E+01  0.20708589941E+02  0.00000000000E+00 0. -1.
</event>
<event>
 7    1  0.7821043E-012  0.5930182E+02  0.7816164E-02  0.1266605E+00
        -11   -1    0    0    0    0  0.00000000000E+00  0.00000000000E+00  0.45593999997E+02  0.45594000000E+02  0.51100000000E-03 0.  1.
         11   -1    0    0    0    0 -0.00000000000E+00 -0.00000000000E+00 -0.45593999997E+02  0.45594000000E+02  0.51100000000E-03 0. -1.
    9900012    2    1    2    0    0  0.10309766238E+02 -0.10192885832E+02  0.28399686685E+02  0.59301821093E+02  0.49999775797E+02 0.  0.
         12    1    1    2    0    0 -0.10309766238E+02  0.10192885832E+02 -0.28399686685E+02  0.31886178907E+02  0.00000000000E+00 0. -1.
         11    1    3    3    0    0  0.13803950907E+02 -0.48739142585E+01  0.54053457989E+01  0.15605187096E+02  0.51100000000E-03 0. -1.
        -11    1    3    3    0    0 -0.18700522683E+02  0.42008955354E+01  0.13010127013E+02  0.23165070194E+02  0.51100000000E-03 0.  1.
        -12    1    3    3    0    0  0.15206338014E+02 -0.95198671090E+01  0.99842138725E+01  0.20531563803E+02  0.00000000000E+00 0.  1.
</event>
<event>
 7    1  0.7821043E-012  0.5930194E+02  0.7816164E-02  0.1266605E+00
        -11   -1    0    0    0    0  0.00000000000E+00  0.00000000000E+00  0.45593999997E+02  0.45594000000E+02  0.51100000000E-03 0.  1.
         11   -1    0    0    0    0 -0.00000000000E+00 -0.00000000000E+00 -0.45593999997E+02  0.45594000000E+02  0.51100000000E-03 0. -1.
    9900012    2    1    2    0    0 -0.80246467086E+01 -0.63403091932E+01  0.30201431072E+02  0.59301938558E+02  0.49999990025E+02 0.  0.
         12    1    1    2    0    0  0.80246467086E+01  0.63403091932E+01 -0.30201431072E+02  0.31886061442E+02  0.00000000000E+00 0. -1.
         11    1    3    3    0    0 -0.14527059286E+02  0.12118088480E+02 -0.31687240178E+01  0.19181353760E+02  0.51100000000E-03 0. -1.
        -11    1    3    3    0    0  0.94674308006E+01 -0.14352657861E+02  0.25151781449E+02  0.30467082958E+02  0.51100000000E-03 0.  1.
        -12    1    3    3    0    0 -0.29650182232E+01 -0.41057398123E+01  0.82183736406E+01  0.96535018396E+01  0.00000000000E+00 0.  1.
</event>
<event>
 7    1  0.7821043E-012  0.5930192E+02  0.7816164E-02  0.1266605E+00
        -11   -1    0    0    0    0  0.00000000000E+00  0.00000000000E+00  0.45593999997E+02  0.45594000000E+02  0.51100000000E-03 0. -1.
         11   -1    0    0    0    0 -0.00000000000E+00 -0.00000000000E+00 -0.45593999997E+02  0.45594000000E+02  0.51100000000E-03 0.  1.
    9900012    2    1    2    0    0 -0.22864315188E+02  0.25641905529E+01 -0.22076459399E+02  0.59301920877E+02  0.49999957779E+02 0.  0.
         12    1    1    2    0    0  0.22864315188E+02 -0.25641905529E+01  0.22076459399E+02  0.31886079123E+02  0.00000000000E+00 0. -1.
         11    1    3    3    0    0 -0.22703501287E+02  0.74165255437E+01 -0.36005167755E+01  0.24154037823E+02  0.51100000000E-03 0. -1.
        -11    1    3    3    0    0 -0.45274684275E+00 -0.17081721607E+02 -0.14106251131E+02  0.22157989846E+02  0.51100000000E-03 0.  1.
         12    1    3    3    0    0  0.29193294134E+00  0.12229386616E+02 -0.43696914925E+01  0.12989893209E+02  0.00000000000E+00 0. -1.
</event>
<event>
 7    1  0.7821043E-012  0.5930196E+02  0.7816164E-02  0.1266605E+00
        -11   -1    0    0    0    0  0.00000000000E+00  0.00000000000E+00  0.45593999997E+02  0.45594000000E+02  0.51100000000E-03 0. -1.
         11   -1    0    0    0    0 -0.00000000000E+00 -0.00000000000E+00 -0.45593999997E+02  0.45594000000E+02  0.51100000000E-03 0.  1.
    9900012    2    1    2    0    0  0.10459355156E+02 -0.19522247190E+02 -0.22939120039E+02  0.59301961146E+02  0.50000031220E+02 0.  0.
         12    1    1    2    0    0 -0.10459355156E+02  0.19522247190E+02  0.22939120039E+02  0.31886038854E+02  0.00000000000E+00 0. -1.
         11    1    3    3    0    0 -0.81594480964E+01 -0.22662303920E-01 -0.65336661037E+00  0.81855968021E+01  0.51100000000E-03 0. -1.
        -11    1    3    3    0    0  0.14273905579E+02 -0.27334251633E+02 -0.44488552720E+01  0.31156026805E+02  0.51100000000E-03 0.  1.
        -12    1    3    3    0    0  0.43448976737E+01  0.78346667468E+01 -0.17836898156E+02  0.19960337539E+02  0.00000000000E+00 0.  1.
</event>
<event>
 7    1  0.7821043E-012  0.5930195E+02  0.7816164E-02  0.1266605E+00
        -11   -1    0    0    0    0  0.00000000000E+00  0.00000000000E+00  0.45593999997E+02  0.45594000000E+02  0.51100000000E-03 0. -1.
         11   -1    0    0    0    0 -0.00000000000E+00 -0.00000000000E+00 -0.45593999997E+02  0.45594000000E+02  0.51100000000E-03 0.  1.
    9900012    2    1    2    0    0 -0.41966794003E+01  0.31254350691E+02 -0.47195014921E+01  0.59301948983E+02  0.50000009037E+02 0.  0.
         12    1    1    2    0    0  0.41966794003E+01 -0.31254350691E+02  0.47195014921E+01  0.31886051017E+02  0.00000000000E+00 0. -1.
         11    1    3    3    0    0 -0.10587970012E+02  0.14829448852E+02 -0.17449547872E+02  0.25229038495E+02  0.51100000000E-03 0. -1.
        -11    1    3    3    0    0 -0.57924195247E+01  0.17607968194E+02  0.11396594628E+02  0.21759481548E+02  0.51100000000E-03 0.  1.
        -12    1    3    3    0    0  0.12183710136E+02 -0.11830663540E+01  0.13334517512E+01  0.12313428939E+02  0.00000000000E+00 0.  1.
</event>
<event>
 7    1  0.7821043E-012  0.5930195E+02  0.7816164E-02  0.1266605E+00
        -11   -1    0    0    0    0  0.00000000000E+00  0.00000000000E+00  0.45593999997E+02  0.45594000000E+02  0.51100000000E-03 0. -1.
         11   -1    0    0    0    0 -0.00000000000E+00 -0.00000000000E+00 -0.45593999997E+02  0.45594000000E+02  0.51100000000E-03 0.  1.
    9900012    2    1    2    0    0  0.47046108850E+01 -0.29148804973E+02 -0.12038845470E+02  0.59301952970E+02  0.50000016308E+02 0.  0.
         12    1    1    2    0    0 -0.47046108850E+01  0.29148804973E+02  0.12038845470E+02  0.31886047030E+02  0.00000000000E+00 0. -1.
         11    1    3    3    0    0 -0.75963681660E+00 -0.13075529469E+02  0.12645368092E+02  0.18205819219E+02  0.51100000000E-03 0. -1.
        -11    1    3    3    0    0  0.10353643182E+02  0.23489811237E+01 -0.18000493420E+02  0.20898167458E+02  0.51100000000E-03 0.  1.
        -12    1    3    3    0    0 -0.48893954802E+01 -0.18422256628E+02 -0.66837201423E+01  0.20197966293E+02  0.00000000000E+00 0.  1.
</event>
<event>
 7    1  0.7821043E-012  0.5930195E+02  0.7816164E-02  0.1266605E+00
        -11   -1    0    0    0    0  0.00000000000E+00  0.00000000000E+00  0.45593999997E+02  0.45594000000E+02  0.51100000000E-03 0.  1.
         11   -1    0    0    0    0 -0.00000000000E+00 -0.00000000000E+00 -0.45593999997E+02  0.45594000000E+02  0.51100000000E-03 0. -1.
    9900012    2    1    2    0    0  0.25161068369E+02  0.17529420337E+02  0.87384181149E+01  0.59301954620E+02  0.50000019318E+02 0.  0.
         12    1    1    2    0    0 -0.25161068369E+02 -0.17529420337E+02 -0.87384181149E+01  0.31886045380E+02  0.00000000000E+00 0. -1.
         11    1    3    3    0    0 -0.23499721295E+01 -0.62093406521E+01 -0.15370628227E-01  0.66391653738E+01  0.51100000000E-03 0. -1.
        -11    1    3    3    0    0  0.29134925332E+02  0.21388627530E+01 -0.22638003457E+00  0.29214206410E+02  0.51100000000E-03 0.  1.
        -12    1    3    3    0    0 -0.16238848339E+01  0.21599898236E+02  0.89801687777E+01  0.23448582837E+02  0.00000000000E+00 0.  1.
</event>
<event>
 7    1  0.7821043E-012  0.5930194E+02  0.7816164E-02  0.1266605E+00
        -11   -1    0    0    0    0  0.00000000000E+00  0.00000000000E+00  0.45593999997E+02  0.45594000000E+02  0.51100000000E-03 0.  1.
         11   -1    0    0    0    0 -0.00000000000E+00 -0.00000000000E+00 -0.45593999997E+02  0.45594000000E+02  0.51100000000E-03 0. -1.
    9900012    2    1    2    0    0 -0.12030404648E+02  0.85622162173E+01  0.28260900473E+02  0.59301942262E+02  0.49999996779E+02 0.  0.
         12    1    1    2    0    0  0.12030404648E+02 -0.85622162173E+01 -0.28260900473E+02  0.31886057738E+02  0.00000000000E+00 0. -1.
         11    1    3    3    0    0 -0.22640816698E+02 -0.47875226395E+01 -0.51627378588E+00  0.23147213497E+02  0.51100000000E-03 0. -1.
        -11    1    3    3    0    0  0.30397948000E+01  0.68658986293E+01  0.23911769559E+02  0.25062993439E+02  0.51100000000E-03 0.  1.
         12    1    3    3    0    0  0.75706172501E+01  0.64838402275E+01  0.48654046998E+01  0.11091735326E+02  0.00000000000E+00 0. -1.
</event>
<event>
 7    1  0.7821043E-012  0.5930191E+02  0.7816164E-02  0.1266605E+00
        -11   -1    0    0    0    0  0.00000000000E+00  0.00000000000E+00  0.45593999997E+02  0.45594000000E+02  0.51100000000E-03 0.  1.
         11   -1    0    0    0    0 -0.00000000000E+00 -0.00000000000E+00 -0.45593999997E+02  0.45594000000E+02  0.51100000000E-03 0. -1.
    9900012    2    1    2    0    0  0.56834841857E+01 -0.26563043041E+02  0.16698058951E+02  0.59301914934E+02  0.49999946940E+02 0.  0.
         12    1    1    2    0    0 -0.56834841857E+01  0.26563043041E+02 -0.16698058951E+02  0.31886085066E+02  0.00000000000E+00 0. -1.
         11    1    3    3    0    0 -0.15722553655E+02 -0.21373868626E+01 -0.81723424460E+01  0.17848089460E+02  0.51100000000E-03 0. -1.
        -11    1    3    3    0    0  0.18904936866E+02 -0.19195862714E+02  0.17713052555E+02  0.32243294098E+02  0.51100000000E-03 0.  1.
         12    1    3    3    0    0  0.25011009755E+01 -0.52297934650E+01  0.71573488427E+01  0.92105313762E+01  0.00000000000E+00 0. -1.
</event>
<event>
 7    1  0.7821043E-012  0.5930196E+02  0.7816164E-02  0.1266605E+00
        -11   -1    0    0    0    0  0.00000000000E+00  0.00000000000E+00  0.45593999997E+02  0.45594000000E+02  0.51100000000E-03 0.  1.
         11   -1    0    0    0    0 -0.00000000000E+00 -0.00000000000E+00 -0.45593999997E+02  0.45594000000E+02  0.51100000000E-03 0. -1.
    9900012    2    1    2    0    0  0.16589709906E+02  0.27208372089E+02  0.10978928878E+01  0.59301963004E+02  0.50000034608E+02 0.  0.
         12    1    1    2    0    0 -0.16589709906E+02 -0.27208372089E+02 -0.10978928878E+01  0.31886036996E+02  0.00000000000E+00 0. -1.
         11    1    3    3    0    0  0.24419697608E+02  0.23416618166E+01  0.13163792872E+02  0.27840446375E+02  0.51100000000E-03 0. -1.
        -11    1    3    3    0    0 -0.23815445970E+01  0.18237416409E+02 -0.24193335286E+01  0.18550695052E+02  0.51100000000E-03 0.  1.
         12    1    3    3    0    0 -0.54484431044E+01  0.66292938641E+01 -0.96465664560E+01  0.12910821577E+02  0.00000000000E+00 0. -1.
</event>
<event>
 7    1  0.7821043E-012  0.5930194E+02  0.7816164E-02  0.1266605E+00
        -11   -1    0    0    0    0  0.00000000000E+00  0.00000000000E+00  0.45593999997E+02  0.45594000000E+02  0.51100000000E-03 0. -1.
         11   -1    0    0    0    0 -0.00000000000E+00 -0.00000000000E+00 -0.45593999997E+02  0.45594000000E+02  0.51100000000E-03 0.  1.
    9900012    2    1    2    0    0 -0.25533116523E+02  0.19098399944E+02 -0.17833658144E+00  0.59301941546E+02  0.49999995474E+02 0.  0.
         12    1    1    2    0    0  0.25533116523E+02 -0.19098399944E+02  0.17833658144E+00  0.31886058454E+02  0.00000000000E+00 0. -1.
         11    1    3    3    0    0 -0.12911593007E+02  0.23651041975E+02  0.80157594630E+01  0.28112869304E+02  0.51100000000E-03 0. -1.
        -11    1    3    3    0    0 -0.20358660532E+02  0.33283998685E+00 -0.84252697296E+01  0.22035675877E+02  0.51100000000E-03 0.  1.
         12    1    3    3    0    0  0.77371370150E+01 -0.48854820178E+01  0.23117368513E+00  0.91533963646E+01  0.00000000000E+00 0. -1.
</event>
<event>
 7    1  0.7821043E-012  0.5930190E+02  0.7816164E-02  0.1266605E+00
        -11   -1    0    0    0    0  0.00000000000E+00  0.00000000000E+00  0.45593999997E+02  0.45594000000E+02  0.51100000000E-03 0.  1.
         11   -1    0    0    0    0 -0.00000000000E+00 -0.00000000000E+00 -0.45593999997E+02  0.45594000000E+02  0.51100000000E-03 0. -1.
    9900012    2    1    2    0    0 -0.27198631023E+02  0.98625544896E+01  0.13404766928E+02  0.59301901352E+02  0.49999922170E+02 0.  0.
         12    1    1    2    0    0  0.27198631023E+02 -0.98625544896E+01 -0.13404766928E+02  0.31886098648E+02  0.00000000000E+00 0. -1.
         11    1    3    3    0    0 -0.17394767539E+02 -0.94672957188E+01  0.22415696812E+01  0.19930686412E+02  0.51100000000E-03 0. -1.
        -11    1    3    3    0    0 -0.15217014004E+02  0.24285022317E+02  0.13486713249E+02  0.31673510362E+02  0.51100000000E-03 0.  1.
        -12    1    3    3    0    0  0.54131505192E+01 -0.49551721083E+01 -0.23235160025E+01  0.76977045786E+01  0.00000000000E+00 0.  1.
</event>
<event>
 7    1  0.7821043E-012  0.5930195E+02  0.7816164E-02  0.1266605E+00
        -11   -1    0    0    0    0  0.00000000000E+00  0.00000000000E+00  0.45593999997E+02  0.45594000000E+02  0.51100000000E-03 0. -1.
         11   -1    0    0    0    0 -0.00000000000E+00 -0.00000000000E+00 -0.45593999997E+02  0.45594000000E+02  0.51100000000E-03 0.  1.
    9900012    2    1    2    0    0  0.27387480389E+02  0.16049187659E+02 -0.30115875146E+01  0.59301950293E+02  0.50000011426E+02 0.  0.
         12    1    1    2    0    0 -0.27387480389E+02 -0.16049187659E+02  0.30115875146E+01  0.31886049707E+02  0.00000000000E+00 0. -1.
         11    1    3    3    0    0  0.17677556762E+02  0.10265387263E+02  0.51581387881E+01  0.21082708193E+02  0.51100000000E-03 0. -1.
        -11    1    3    3    0    0  0.40834365139E+01  0.17243003655E+02 -0.15461870338E+02  0.23517335381E+02  0.51100000000E-03 0.  1.
        -12    1    3    3    0    0  0.56264871129E+01 -0.11459203258E+02  0.72921440358E+01  0.14701906719E+02  0.00000000000E+00 0.  1.
</event>
<event>
 7    1  0.7821043E-012  0.5930182E+02  0.7816164E-02  0.1266605E+00
        -11   -1    0    0    0    0  0.00000000000E+00  0.00000000000E+00  0.45593999997E+02  0.45594000000E+02  0.51100000000E-03 0.  1.
         11   -1    0    0    0    0 -0.00000000000E+00 -0.00000000000E+00 -0.45593999997E+02  0.45594000000E+02  0.51100000000E-03 0. -1.
    9900012    2    1    2    0    0 -0.23787206030E+02 -0.18189968564E+02  0.10955480389E+02  0.59301816823E+02  0.49999768008E+02 0.  0.
         12    1    1    2    0    0  0.23787206030E+02  0.18189968564E+02 -0.10955480389E+02  0.31886183177E+02  0.00000000000E+00 0. -1.
         11    1    3    3    0    0 -0.22453886211E+02  0.11256399747E+02  0.77652728204E+01  0.26290359515E+02  0.51100000000E-03 0. -1.
        -11    1    3    3    0    0 -0.10374336371E+01 -0.15528456439E+02  0.89418873496E+01  0.17948999347E+02  0.51100000000E-03 0.  1.
         12    1    3    3    0    0 -0.29588618227E+00 -0.13917911871E+02 -0.57516797813E+01  0.15062457960E+02  0.00000000000E+00 0. -1.
</event>
<event>
 7    1  0.7821043E-012  0.5930195E+02  0.7816164E-02  0.1266605E+00
        -11   -1    0    0    0    0  0.00000000000E+00  0.00000000000E+00  0.45593999997E+02  0.45594000000E+02  0.51100000000E-03 0. -1.
         11   -1    0    0    0    0 -0.00000000000E+00 -0.00000000000E+00 -0.45593999997E+02  0.45594000000E+02  0.51100000000E-03 0.  1.
    9900012    2    1    2    0    0 -0.18159057755E+02  0.22053257817E+02 -0.14164140547E+02  0.59301946052E+02  0.50000003692E+02 0.  0.
         12    1    1    2    0    0  0.18159057755E+02 -0.22053257817E+02  0.14164140547E+02  0.31886053948E+02  0.00000000000E+00 0. -1.
         11    1    3    3    0    0 -0.11690198569E+01 -0.53499889050E+01  0.94086036524E+00  0.55564563525E+01  0.51100000000E-03 0. -1.
        -11    1    3    3    0    0 -0.19908417970E+02  0.19885573987E+02  0.80163082279E+01  0.29258201529E+02  0.51100000000E-03 0.  1.
        -12    1    3    3    0    0  0.29183800715E+01  0.75176727350E+01 -0.23121309140E+02  0.24487288170E+02  0.00000000000E+00 0.  1.
</event>
<event>
 7    1  0.7821043E-012  0.5930195E+02  0.7816164E-02  0.1266605E+00
        -11   -1    0    0    0    0  0.00000000000E+00  0.00000000000E+00  0.45593999997E+02  0.45594000000E+02  0.51100000000E-03 0. -1.
         11   -1    0    0    0    0 -0.00000000000E+00 -0.00000000000E+00 -0.45593999997E+02  0.45594000000E+02  0.51100000000E-03 0.  1.
    9900012    2    1    2    0    0 -0.57653495156E+01 -0.21801003538E+02 -0.22543230691E+02  0.59301948813E+02  0.50000008727E+02 0.  0.
         12    1    1    2    0    0  0.57653495156E+01  0.21801003538E+02  0.22543230691E+02  0.31886051187E+02  0.00000000000E+00 0. -1.
         11    1    3    3    0    0 -0.12635900074E+02 -0.28212705260E+02  0.78580394363E+00  0.30923133685E+02  0.51100000000E-03 0. -1.
        -11    1    3    3    0    0  0.84110995580E+00  0.70658442101E+01 -0.20474566446E+02  0.21675827361E+02  0.51100000000E-03 0.  1.
         12    1    3    3    0    0  0.60294406024E+01 -0.65414248832E+00 -0.28544681881E+01  0.67029877674E+01  0.00000000000E+00 0. -1.
</event>
<event>
 7    1  0.7821043E-012  0.5930195E+02  0.7816164E-02  0.1266605E+00
        -11   -1    0    0    0    0  0.00000000000E+00  0.00000000000E+00  0.45593999997E+02  0.45594000000E+02  0.51100000000E-03 0.  1.
         11   -1    0    0    0    0 -0.00000000000E+00 -0.00000000000E+00 -0.45593999997E+02  0.45594000000E+02  0.51100000000E-03 0. -1.
    9900012    2    1    2    0    0 -0.25958671326E+02 -0.18328071950E+02 -0.26361827772E+01  0.59301948221E+02  0.50000007648E+02 0.  0.
         12    1    1    2    0    0  0.25958671326E+02  0.18328071950E+02  0.26361827772E+01  0.31886051779E+02  0.00000000000E+00 0. -1.
         11    1    3    3    0    0 -0.26620271494E+01 -0.22781658689E+02  0.10754003941E+02  0.25332567225E+02  0.51100000000E-03 0. -1.
        -11    1    3    3    0    0 -0.60291508185E+01  0.38142440224E+01  0.50176356171E+01  0.87221433433E+01  0.51100000000E-03 0.  1.
         12    1    3    3    0    0 -0.17267493358E+02  0.63934271731E+00 -0.18407822335E+02  0.25247237653E+02  0.00000000000E+00 0. -1.
</event>
<event>
 7    1  0.7821043E-012  0.5930194E+02  0.7816164E-02  0.1266605E+00
        -11   -1    0    0    0    0  0.00000000000E+00  0.00000000000E+00  0.45593999997E+02  0.45594000000E+02  0.51100000000E-03 0.  1.
         11   -1    0    0    0    0 -0.00000000000E+00 -0.00000000000E+00 -0.45593999997E+02  0.45594000000E+02  0.51100000000E-03 0. -1.
    9900012    2    1    2    0    0 -0.21862120871E+02  0.95478607796E+01  0.21156717225E+02  0.59301942574E+02  0.49999997349E+02 0.  0.
         12    1    1    2    0    0  0.21862120871E+02 -0.95478607796E+01 -0.21156717225E+02  0.31886057426E+02  0.00000000000E+00 0. -1.
         11    1    3    3    0    0 -0.87906100729E+01 -0.87065811441E+01 -0.11588562322E+02  0.16952113662E+02  0.51100000000E-03 0. -1.
        -11    1    3    3    0    0 -0.15267946462E+02  0.17115104174E+02  0.32615083431E+02  0.39872053465E+02  0.51100000000E-03 0.  1.
        -12    1    3    3    0    0  0.21964356637E+01  0.11393377501E+01  0.13019611537E+00  0.24777754462E+01  0.00000000000E+00 0.  1.
</event>
<event>
 7    1  0.7821043E-012  0.5930196E+02  0.7816164E-02  0.1266605E+00
        -11   -1    0    0    0    0  0.00000000000E+00  0.00000000000E+00  0.45593999997E+02  0.45594000000E+02  0.51100000000E-03 0. -1.
         11   -1    0    0    0    0 -0.00000000000E+00 -0.00000000000E+00 -0.45593999997E+02  0.45594000000E+02  0.51100000000E-03 0.  1.
    9900012    2    1    2    0    0  0.29443701427E+02  0.64064256843E+00 -0.12222008060E+02  0.59301961400E+02  0.50000031682E+02 0.  0.
         12    1    1    2    0    0 -0.29443701427E+02 -0.64064256843E+00  0.12222008060E+02  0.31886038600E+02  0.00000000000E+00 0. -1.
         11    1    3    3    0    0  0.14966264115E+02  0.34981780527E+01  0.80017634471E+01  0.17327854159E+02  0.51100000000E-03 0. -1.
        -11    1    3    3    0    0  0.40485637758E+01  0.91593852210E+00 -0.28078572153E+02  0.28383728199E+02  0.51100000000E-03 0.  1.
        -12    1    3    3    0    0  0.10428873536E+02 -0.37734740064E+01  0.78548006461E+01  0.13590379042E+02  0.00000000000E+00 0.  1.
</event>
<event>
 7    1  0.7821043E-012  0.5930194E+02  0.7816164E-02  0.1266605E+00
        -11   -1    0    0    0    0  0.00000000000E+00  0.00000000000E+00  0.45593999997E+02  0.45594000000E+02  0.51100000000E-03 0.  1.
         11   -1    0    0    0    0 -0.00000000000E+00 -0.00000000000E+00 -0.45593999997E+02  0.45594000000E+02  0.51100000000E-03 0. -1.
    9900012    2    1    2    0    0 -0.29260501869E+02  0.12393725561E+02  0.26342565428E+01  0.59301941755E+02  0.49999995854E+02 0.  0.
         12    1    1    2    0    0  0.29260501869E+02 -0.12393725561E+02 -0.26342565428E+01  0.31886058245E+02  0.00000000000E+00 0. -1.
         11    1    3    3    0    0 -0.15742654755E+02  0.16550029887E+02 -0.93029156042E+01  0.24663310949E+02  0.51100000000E-03 0.  1.
        -11    1    3    3    0    0  0.88566931257E+01 -0.36391993231E+01  0.66031204015E+01  0.11631250325E+02  0.51100000000E-03 0. -1.
        -12    1    3    3    0    0 -0.22374540240E+02 -0.51710500260E+00  0.53340517455E+01  0.23007380480E+02  0.00000000000E+00 0.  1.
</event>
