<event>
 7    1  0.9978258E-013  0.5052887E+02  0.7816164E-02  0.1300439E+00
        -11   -1    0    0    0    0  0.00000000000E+00  0.00000000000E+00  0.45593999997E+02  0.45594000000E+02  0.51100000000E-03 0. -1.
         11   -1    0    0    0    0 -0.00000000000E+00 -0.00000000000E+00 -0.45593999997E+02  0.45594000000E+02  0.51100000000E-03 0.  1.
    9900012    2    1    2    0    0  0.33758089220E+02 -0.22613099989E+02 -0.14846979524E+01  0.50528865640E+02  0.30000017601E+02 0.  0.
        -12    1    1    2    0    0 -0.33758089220E+02  0.22613099989E+02  0.14846979524E+01  0.40659134360E+02  0.00000000000E+00 0.  1.
         11    1    3    3    0    0 -0.17455717427E+00 -0.60762040898E+01  0.40493843018E+01  0.73039879404E+01  0.51100000000E-03 0. -1.
        -11    1    3    3    0    0  0.28836640052E+02 -0.20456606804E+02 -0.81517900428E+01  0.36283277864E+02  0.51100000000E-03 0.  1.
        -12    1    3    3    0    0  0.50960063422E+01  0.39197109049E+01  0.26177077886E+01  0.69415998360E+01  0.00000000000E+00 0.  1.
</event>
<event>
 7    1  0.9978258E-013  0.5052887E+02  0.7816164E-02  0.1300439E+00
        -11   -1    0    0    0    0  0.00000000000E+00  0.00000000000E+00  0.45593999997E+02  0.45594000000E+02  0.51100000000E-03 0. -1.
         11   -1    0    0    0    0 -0.00000000000E+00 -0.00000000000E+00 -0.45593999997E+02  0.45594000000E+02  0.51100000000E-03 0.  1.
    9900012    2    1    2    0    0 -0.69447146157E+01 -0.38212302138E+02 -0.12031462235E+02  0.50528865980E+02  0.30000018632E+02 0.  0.
        -12    1    1    2    0    0  0.69447146157E+01  0.38212302138E+02  0.12031462235E+02  0.40659134020E+02  0.00000000000E+00 0.  1.
         11    1    3    3    0    0  0.21030142773E+01 -0.27514632055E+02  0.38409842701E+01  0.27860918984E+02  0.51100000000E-03 0. -1.
        -11    1    3    3    0    0 -0.99536697601E+01 -0.71941420271E+01 -0.13893311175E+02  0.18543336185E+02  0.51100000000E-03 0.  1.
         12    1    3    3    0    0  0.90594086711E+00 -0.35035280553E+01 -0.19791353301E+01  0.41246108113E+01  0.00000000000E+00 0. -1.
</event>
<event>
 7    1  0.1152177E-012  0.5052886E+02  0.7816164E-02  0.1300439E+00
        -11   -1    0    0    0    0  0.00000000000E+00  0.00000000000E+00  0.45593999997E+02  0.45594000000E+02  0.51100000000E-03 0. -1.
         11   -1    0    0    0    0 -0.00000000000E+00 -0.00000000000E+00 -0.45593999997E+02  0.45594000000E+02  0.51100000000E-03 0.  1.
    9900012    2    1    2    0    0  0.74237518600E-01  0.23461442535E+02  0.33207241494E+02  0.50528859765E+02  0.29999999743E+02 0.  0.
        -12    1    1    2    0    0 -0.74237518600E-01 -0.23461442535E+02 -0.33207241494E+02  0.40659140235E+02  0.00000000000E+00 0.  1.
         11    1    3    3    0    0 -0.42729488137E+01  0.92174715117E+01  0.13896483722E+02  0.17214300239E+02  0.51100000000E-03 0. -1.
        -11    1    3    3    0    0  0.11901081232E+02  0.65125358697E+01  0.17830154007E+02  0.22404536374E+02  0.51100000000E-03 0.  1.
        -12    1    3    3    0    0 -0.75538948993E+01  0.77314351531E+01  0.14806037642E+01  0.10910023152E+02  0.00000000000E+00 0.  1.
</event>
<event>
 7    1  0.9978258E-013  0.5052886E+02  0.7816164E-02  0.1300439E+00
        -11   -1    0    0    0    0  0.00000000000E+00  0.00000000000E+00  0.45593999997E+02  0.45594000000E+02  0.51100000000E-03 0. -1.
         11   -1    0    0    0    0 -0.00000000000E+00 -0.00000000000E+00 -0.45593999997E+02  0.45594000000E+02  0.51100000000E-03 0.  1.
    9900012    2    1    2    0    0  0.52338490330E+01  0.36415878876E+02  0.17310573641E+02  0.50528863637E+02  0.30000011511E+02 0.  0.
        -12    1    1    2    0    0 -0.52338490330E+01 -0.36415878876E+02 -0.17310573641E+02  0.40659136363E+02  0.00000000000E+00 0.  1.
         11    1    3    3    0    0  0.30728897540E+01  0.19607048890E+02  0.22406041316E+02  0.29931750789E+02  0.51100000000E-03 0. -1.
        -11    1    3    3    0    0 -0.13158845429E+01  0.10348039427E+02  0.17328617138E+01  0.10574321827E+02  0.51100000000E-03 0.  1.
         12    1    3    3    0    0  0.34768438219E+01  0.64607905588E+01 -0.68283293888E+01  0.10022791021E+02  0.00000000000E+00 0. -1.
</event>
<event>
 7    1  0.9978258E-013  0.5052887E+02  0.7816164E-02  0.1300439E+00
        -11   -1    0    0    0    0  0.00000000000E+00  0.00000000000E+00  0.45593999997E+02  0.45594000000E+02  0.51100000000E-03 0.  1.
         11   -1    0    0    0    0 -0.00000000000E+00 -0.00000000000E+00 -0.45593999997E+02  0.45594000000E+02  0.51100000000E-03 0. -1.
    9900012    2    1    2    0    0  0.26967410915E+02  0.25785884629E+02 -0.16155863787E+02  0.50528867787E+02  0.30000024127E+02 0.  0.
        -12    1    1    2    0    0 -0.26967410915E+02 -0.25785884629E+02  0.16155863787E+02  0.40659132213E+02  0.00000000000E+00 0.  1.
         11    1    3    3    0    0  0.23821610351E+02  0.15060869699E+02 -0.34546037256E+01  0.28394245948E+02  0.51100000000E-03 0. -1.
        -11    1    3    3    0    0 -0.53861792526E+00  0.10956922257E+02 -0.14373749245E+02  0.18081728961E+02  0.51100000000E-03 0.  1.
         12    1    3    3    0    0  0.36844184894E+01 -0.23190732695E+00  0.16724891832E+01  0.40528928781E+01  0.00000000000E+00 0. -1.
</event>
<event>
 7    1  0.9978258E-013  0.5052886E+02  0.7816164E-02  0.1300439E+00
        -11   -1    0    0    0    0  0.00000000000E+00  0.00000000000E+00  0.45593999997E+02  0.45594000000E+02  0.51100000000E-03 0.  1.
         11   -1    0    0    0    0 -0.00000000000E+00 -0.00000000000E+00 -0.45593999997E+02  0.45594000000E+02  0.51100000000E-03 0. -1.
    9900012    2    1    2    0    0 -0.29171530603E+02  0.21373946497E+02 -0.18583372142E+02  0.50528861953E+02  0.30000006392E+02 0.  0.
        -12    1    1    2    0    0  0.29171530603E+02 -0.21373946497E+02  0.18583372142E+02  0.40659138047E+02  0.00000000000E+00 0.  1.
         11    1    3    3    0    0 -0.13891011276E+02  0.97557832151E+01 -0.14186136971E+02  0.22121979632E+02  0.51100000000E-03 0. -1.
        -11    1    3    3    0    0 -0.88340744196E+01 -0.79786212748E+00  0.62292181614E+01  0.10838847447E+02  0.51100000000E-03 0.  1.
         12    1    3    3    0    0 -0.64464449078E+01  0.12416025409E+02 -0.10626453332E+02  0.17568034874E+02  0.00000000000E+00 0. -1.
</event>
<event>
 7    1  0.9978258E-013  0.5052887E+02  0.7816164E-02  0.1300439E+00
        -11   -1    0    0    0    0  0.00000000000E+00  0.00000000000E+00  0.45593999997E+02  0.45594000000E+02  0.51100000000E-03 0.  1.
         11   -1    0    0    0    0 -0.00000000000E+00 -0.00000000000E+00 -0.45593999997E+02  0.45594000000E+02  0.51100000000E-03 0. -1.
    9900012    2    1    2    0    0  0.32741077837E+02 -0.12528177030E+00 -0.24107483217E+02  0.50528872851E+02  0.30000039518E+02 0.  0.
        -12    1    1    2    0    0 -0.32741077837E+02  0.12528177030E+00  0.24107483217E+02  0.40659127149E+02  0.00000000000E+00 0.  1.
         11    1    3    3    0    0  0.33718926594E+01 -0.29096773431E+01 -0.16090861447E+02  0.16695858909E+02  0.51100000000E-03 0. -1.
        -11    1    3    3    0    0  0.20858402793E+02 -0.35444918675E+01 -0.11305344581E+01  0.21187602462E+02  0.51100000000E-03 0.  1.
        -12    1    3    3    0    0  0.85107823847E+01  0.63288874403E+01 -0.68860873122E+01  0.12645411480E+02  0.00000000000E+00 0.  1.
</event>
<event>
 7    1  0.9978258E-013  0.5052884E+02  0.7816164E-02  0.1300439E+00
        -11   -1    0    0    0    0  0.00000000000E+00  0.00000000000E+00  0.45593999997E+02  0.45594000000E+02  0.51100000000E-03 0. -1.
         11   -1    0    0    0    0 -0.00000000000E+00 -0.00000000000E+00 -0.45593999997E+02  0.45594000000E+02  0.51100000000E-03 0.  1.
    9900012    2    1    2    0    0 -0.24834453338E+02  0.20835294667E+02  0.24541959195E+02  0.50528839438E+02  0.29999937957E+02 0.  0.
        -12    1    1    2    0    0  0.24834453338E+02 -0.20835294667E+02 -0.24541959195E+02  0.40659160562E+02  0.00000000000E+00 0.  1.
         11    1    3    3    0    0 -0.13839258364E+02  0.12860893630E+02  0.72613676177E+01  0.20239938660E+02  0.51100000000E-03 0. -1.
        -11    1    3    3    0    0  0.53213602752E+00  0.88059892354E+01  0.16493728792E+02  0.18704857788E+02  0.51100000000E-03 0.  1.
        -12    1    3    3    0    0 -0.11527331001E+02 -0.83158819875E+00  0.78686278583E+00  0.11584042990E+02  0.00000000000E+00 0.  1.
</event>
<event>
 7    1  0.9978258E-013  0.5052886E+02  0.7816164E-02  0.1300439E+00
        -11   -1    0    0    0    0  0.00000000000E+00  0.00000000000E+00  0.45593999997E+02  0.45594000000E+02  0.51100000000E-03 0. -1.
         11   -1    0    0    0    0 -0.00000000000E+00 -0.00000000000E+00 -0.45593999997E+02  0.45594000000E+02  0.51100000000E-03 0.  1.
    9900012    2    1    2    0    0 -0.32305417685E+02 -0.37740162321E+01 -0.24398406581E+02  0.50528862601E+02  0.30000008362E+02 0.  0.
        -12    1    1    2    0    0  0.32305417685E+02  0.37740162321E+01  0.24398406581E+02  0.40659137399E+02  0.00000000000E+00 0.  1.
         11    1    3    3    0    0 -0.31956378547E+02 -0.88492723368E+01 -0.10128984677E+02  0.34671545705E+02  0.51100000000E-03 0. -1.
        -11    1    3    3    0    0  0.13168677841E+01 -0.23269384891E+00 -0.23587527796E+01  0.27114575646E+01  0.51100000000E-03 0.  1.
         12    1    3    3    0    0 -0.16659069225E+01  0.53079499536E+01 -0.11910669124E+02  0.13145859331E+02  0.00000000000E+00 0. -1.
</event>
<event>
 7    1  0.9978258E-013  0.5052885E+02  0.7816164E-02  0.1300439E+00
        -11   -1    0    0    0    0  0.00000000000E+00  0.00000000000E+00  0.45593999997E+02  0.45594000000E+02  0.51100000000E-03 0.  1.
         11   -1    0    0    0    0 -0.00000000000E+00 -0.00000000000E+00 -0.45593999997E+02  0.45594000000E+02  0.51100000000E-03 0. -1.
    9900012    2    1    2    0    0 -0.34560947899E+01  0.36302435604E+02 -0.17982066307E+02  0.50528854280E+02  0.29999983070E+02 0.  0.
        -12    1    1    2    0    0  0.34560947899E+01 -0.36302435604E+02  0.17982066307E+02  0.40659145720E+02  0.00000000000E+00 0.  1.
         11    1    3    3    0    0  0.45274694079E-01  0.30971062277E+02 -0.22113746077E+02  0.38055571395E+02  0.51100000000E-03 0. -1.
        -11    1    3    3    0    0 -0.60880007336E+01  0.32765178107E+01  0.55621471037E+01  0.88733760520E+01  0.51100000000E-03 0.  1.
         12    1    3    3    0    0  0.25866312496E+01  0.20548555164E+01 -0.14304673340E+01  0.35999068333E+01  0.00000000000E+00 0. -1.
</event>
<event>
 7    1  0.9978258E-013  0.5052880E+02  0.7816164E-02  0.1300439E+00
        -11   -1    0    0    0    0  0.00000000000E+00  0.00000000000E+00  0.45593999997E+02  0.45594000000E+02  0.51100000000E-03 0.  1.
         11   -1    0    0    0    0 -0.00000000000E+00 -0.00000000000E+00 -0.45593999997E+02  0.45594000000E+02  0.51100000000E-03 0. -1.
    9900012    2    1    2    0    0  0.32981388736E+02 -0.15127964875E+02 -0.18345112349E+02  0.50528800902E+02  0.29999820821E+02 0.  0.
        -12    1    1    2    0    0 -0.32981388736E+02  0.15127964875E+02  0.18345112349E+02  0.40659199098E+02  0.00000000000E+00 0.  1.
         11    1    3    3    0    0  0.27363746640E+02 -0.14253279373E+02 -0.99369702880E+01  0.32414101589E+02  0.51100000000E-03 0. -1.
        -11    1    3    3    0    0  0.15982866245E+01  0.54131727801E+01 -0.90055229413E+01  0.10628095003E+02  0.51100000000E-03 0.  1.
         12    1    3    3    0    0  0.40193554715E+01 -0.62878582818E+01  0.59738088028E+00  0.74866043100E+01  0.00000000000E+00 0. -1.
</event>
<event>
 7    1  0.9978258E-013  0.5052886E+02  0.7816164E-02  0.1300439E+00
        -11   -1    0    0    0    0  0.00000000000E+00  0.00000000000E+00  0.45593999997E+02  0.45594000000E+02  0.51100000000E-03 0.  1.
         11   -1    0    0    0    0 -0.00000000000E+00 -0.00000000000E+00 -0.45593999997E+02  0.45594000000E+02  0.51100000000E-03 0. -1.
    9900012    2    1    2    0    0  0.29754614194E+02 -0.24411061456E+02 -0.13112154509E+02  0.50528861014E+02  0.30000003539E+02 0.  0.
        -12    1    1    2    0    0 -0.29754614194E+02  0.24411061456E+02  0.13112154509E+02  0.40659138986E+02  0.00000000000E+00 0.  1.
         11    1    3    3    0    0  0.94356898599E+01 -0.11096945443E+02  0.57853381035E+01  0.15673052623E+02  0.51100000000E-03 0. -1.
        -11    1    3    3    0    0  0.21270304630E+02 -0.65302400682E+01 -0.12708057121E+02  0.25623516747E+02  0.51100000000E-03 0.  1.
        -12    1    3    3    0    0 -0.95138029689E+00 -0.67838759449E+01 -0.61894354916E+01  0.92322916445E+01  0.00000000000E+00 0.  1.
</event>
<event>
 7    1  0.9978258E-013  0.5052886E+02  0.7816164E-02  0.1300439E+00
        -11   -1    0    0    0    0  0.00000000000E+00  0.00000000000E+00  0.45593999997E+02  0.45594000000E+02  0.51100000000E-03 0.  1.
         11   -1    0    0    0    0 -0.00000000000E+00 -0.00000000000E+00 -0.45593999997E+02  0.45594000000E+02  0.51100000000E-03 0. -1.
    9900012    2    1    2    0    0  0.38331718861E+02 -0.17008920055E+01 -0.13451838296E+02  0.50528860092E+02  0.30000000737E+02 0.  0.
        -12    1    1    2    0    0 -0.38331718861E+02  0.17008920055E+01  0.13451838296E+02  0.40659139908E+02  0.00000000000E+00 0.  1.
         11    1    3    3    0    0  0.23482074374E+02 -0.51767790523E+01  0.54792155705E+01  0.24662292306E+02  0.51100000000E-03 0. -1.
        -11    1    3    3    0    0  0.33511153265E+01  0.30113331550E+01 -0.11009771477E+02  0.11895930797E+02  0.51100000000E-03 0.  1.
        -12    1    3    3    0    0  0.11498529161E+02  0.46455389182E+00 -0.79212823903E+01  0.13970636989E+02  0.00000000000E+00 0.  1.
</event>
<event>
 7    1  0.9978258E-013  0.5052886E+02  0.7816164E-02  0.1300439E+00
        -11   -1    0    0    0    0  0.00000000000E+00  0.00000000000E+00  0.45593999997E+02  0.45594000000E+02  0.51100000000E-03 0.  1.
         11   -1    0    0    0    0 -0.00000000000E+00 -0.00000000000E+00 -0.45593999997E+02  0.45594000000E+02  0.51100000000E-03 0. -1.
    9900012    2    1    2    0    0  0.15992395040E+02 -0.36701489887E+02 -0.70999880914E+01  0.50528857240E+02  0.29999992068E+02 0.  0.
        -12    1    1    2    0    0 -0.15992395040E+02  0.36701489887E+02  0.70999880914E+01  0.40659142760E+02  0.00000000000E+00 0.  1.
         11    1    3    3    0    0  0.10408981871E+02 -0.64618488126E+01 -0.56401346797E+01  0.13487531766E+02  0.51100000000E-03 0. -1.
        -11    1    3    3    0    0 -0.14921051798E+00 -0.23866638236E+02 -0.91153148305E+01  0.25548535167E+02  0.51100000000E-03 0.  1.
        -12    1    3    3    0    0  0.57326236876E+01 -0.63730028380E+01  0.76554614188E+01  0.11492790307E+02  0.00000000000E+00 0.  1.
</event>
<event>
 7    1  0.9978258E-013  0.5052887E+02  0.7816164E-02  0.1300439E+00
        -11   -1    0    0    0    0  0.00000000000E+00  0.00000000000E+00  0.45593999997E+02  0.45594000000E+02  0.51100000000E-03 0.  1.
         11   -1    0    0    0    0 -0.00000000000E+00 -0.00000000000E+00 -0.45593999997E+02  0.45594000000E+02  0.51100000000E-03 0. -1.
    9900012    2    1    2    0    0  0.17712029127E+02 -0.32419719024E+02 -0.16982653988E+02  0.50528871949E+02  0.30000036775E+02 0.  0.
        -12    1    1    2    0    0 -0.17712029127E+02  0.32419719024E+02  0.16982653988E+02  0.40659128051E+02  0.00000000000E+00 0.  1.
         11    1    3    3    0    0 -0.96134105937E+00 -0.17016859294E+01 -0.10895063209E+01  0.22376183587E+01  0.51100000000E-03 0. -1.
        -11    1    3    3    0    0  0.16938156787E+01 -0.26266108831E+02 -0.15875524393E+02  0.30737757883E+02  0.51100000000E-03 0.  1.
        -12    1    3    3    0    0  0.16979554508E+02 -0.44519242639E+01 -0.17623273840E-01  0.17553495707E+02  0.00000000000E+00 0.  1.
</event>
<event>
 7    1  0.9978258E-013  0.5052886E+02  0.7816164E-02  0.1300439E+00
        -11   -1    0    0    0    0  0.00000000000E+00  0.00000000000E+00  0.45593999997E+02  0.45594000000E+02  0.51100000000E-03 0.  1.
         11   -1    0    0    0    0 -0.00000000000E+00 -0.00000000000E+00 -0.45593999997E+02  0.45594000000E+02  0.51100000000E-03 0. -1.
    9900012    2    1    2    0    0 -0.45754953503E+01  0.36087885917E+02 -0.18163017108E+02  0.50528857632E+02  0.29999993258E+02 0.  0.
        -12    1    1    2    0    0  0.45754953503E+01 -0.36087885917E+02  0.18163017108E+02  0.40659142368E+02  0.00000000000E+00 0.  1.
         11    1    3    3    0    0 -0.72579771052E+01  0.16868668022E+01 -0.81012858990E+01  0.11007024337E+02  0.51100000000E-03 0.  1.
        -11    1    3    3    0    0  0.86616528812E+01  0.27349792387E+02 -0.96483788710E+01  0.30267583144E+02  0.51100000000E-03 0. -1.
         12    1    3    3    0    0 -0.59791711262E+01  0.70512267270E+01 -0.41335233833E+00  0.92542501516E+01  0.00000000000E+00 0. -1.
</event>
<event>
 7    1  0.9978258E-013  0.5052886E+02  0.7816164E-02  0.1300439E+00
        -11   -1    0    0    0    0  0.00000000000E+00  0.00000000000E+00  0.45593999997E+02  0.45594000000E+02  0.51100000000E-03 0.  1.
         11   -1    0    0    0    0 -0.00000000000E+00 -0.00000000000E+00 -0.45593999997E+02  0.45594000000E+02  0.51100000000E-03 0. -1.
    9900012    2    1    2    0    0  0.85782625011E+00  0.26453148183E+01 -0.40563927335E+02  0.50528858872E+02  0.29999997028E+02 0.  0.
        -12    1    1    2    0    0 -0.85782625011E+00 -0.26453148183E+01  0.40563927335E+02  0.40659141128E+02  0.00000000000E+00 0.  1.
         11    1    3    3    0    0 -0.59803470888E+01  0.10220596640E+02 -0.35425058970E+02  0.37351839985E+02  0.51100000000E-03 0. -1.
        -11    1    3    3    0    0  0.71237372110E+01 -0.44317912208E+01 -0.17968386274E+01  0.85800369807E+01  0.51100000000E-03 0.  1.
         12    1    3    3    0    0 -0.28556387211E+00 -0.31434906005E+01 -0.33420297385E+01  0.45969819070E+01  0.00000000000E+00 0. -1.
</event>
<event>
 7    1  0.9978258E-013  0.5052887E+02  0.7816164E-02  0.1300439E+00
        -11   -1    0    0    0    0  0.00000000000E+00  0.00000000000E+00  0.45593999997E+02  0.45594000000E+02  0.51100000000E-03 0.  1.
         11   -1    0    0    0    0 -0.00000000000E+00 -0.00000000000E+00 -0.45593999997E+02  0.45594000000E+02  0.51100000000E-03 0. -1.
    9900012    2    1    2    0    0  0.19326503759E+02 -0.36862732430E+01 -0.35581774551E+02  0.50528867715E+02  0.30000023906E+02 0.  0.
        -12    1    1    2    0    0 -0.19326503759E+02  0.36862732430E+01  0.35581774551E+02  0.40659132285E+02  0.00000000000E+00 0.  1.
         11    1    3    3    0    0  0.11455151544E+01 -0.66213273191E+00 -0.26241312457E+02  0.26274647561E+02  0.51100000000E-03 0. -1.
        -11    1    3    3    0    0  0.26727975201E+01  0.44082476698E+01 -0.16226701021E+01  0.54045862582E+01  0.51100000000E-03 0.  1.
         12    1    3    3    0    0  0.15508191084E+02 -0.74323881809E+01 -0.77177919922E+01  0.18849633896E+02  0.00000000000E+00 0. -1.
</event>
<event>
 7    1  0.9978258E-013  0.5052889E+02  0.7816164E-02  0.1300439E+00
        -11   -1    0    0    0    0  0.00000000000E+00  0.00000000000E+00  0.45593999997E+02  0.45594000000E+02  0.51100000000E-03 0. -1.
         11   -1    0    0    0    0 -0.00000000000E+00 -0.00000000000E+00 -0.45593999997E+02  0.45594000000E+02  0.51100000000E-03 0.  1.
    9900012    2    1    2    0    0  0.19921035163E+02  0.35288951671E+02 -0.33174518171E+01  0.50528889846E+02  0.30000091176E+02 0.  0.
        -12    1    1    2    0    0 -0.19921035163E+02 -0.35288951671E+02  0.33174518171E+01  0.40659110154E+02  0.00000000000E+00 0.  1.
         11    1    3    3    0    0  0.24386695354E+02  0.25022978794E+02 -0.22471939906E+01  0.35013001287E+02  0.51100000000E-03 0. -1.
        -11    1    3    3    0    0 -0.21699089418E+01  0.53603653619E-03  0.34428322042E+01  0.40695944454E+01  0.51100000000E-03 0.  1.
         12    1    3    3    0    0 -0.22957512497E+01  0.10265436840E+02 -0.45130900306E+01  0.11446294114E+02  0.00000000000E+00 0. -1.
</event>
<event>
 7    1  0.9978258E-013  0.5052888E+02  0.7816164E-02  0.1300439E+00
        -11   -1    0    0    0    0  0.00000000000E+00  0.00000000000E+00  0.45593999997E+02  0.45594000000E+02  0.51100000000E-03 0.  1.
         11   -1    0    0    0    0 -0.00000000000E+00 -0.00000000000E+00 -0.45593999997E+02  0.45594000000E+02  0.51100000000E-03 0. -1.
    9900012    2    1    2    0    0  0.84317088413E+01 -0.23473039755E+02 -0.32110535147E+02  0.50528883227E+02  0.30000071056E+02 0.  0.
        -12    1    1    2    0    0 -0.84317088413E+01  0.23473039755E+02  0.32110535147E+02  0.40659116773E+02  0.00000000000E+00 0.  1.
         11    1    3    3    0    0 -0.35544238414E+01 -0.33364696631E+01 -0.11270524921E+02  0.12279686108E+02  0.51100000000E-03 0. -1.
        -11    1    3    3    0    0  0.13149562335E+02 -0.78141353453E+01 -0.20865887960E+02  0.25871934242E+02  0.51100000000E-03 0.  1.
        -12    1    3    3    0    0 -0.11634296522E+01 -0.12322434747E+02  0.25877734229E-01  0.12377262876E+02  0.00000000000E+00 0.  1.
</event>
<event>
 7    1  0.9978258E-013  0.5052886E+02  0.7816164E-02  0.1300439E+00
        -11   -1    0    0    0    0  0.00000000000E+00  0.00000000000E+00  0.45593999997E+02  0.45594000000E+02  0.51100000000E-03 0.  1.
         11   -1    0    0    0    0 -0.00000000000E+00 -0.00000000000E+00 -0.45593999997E+02  0.45594000000E+02  0.51100000000E-03 0. -1.
    9900012    2    1    2    0    0  0.69764330115E+01  0.13490921575E+02 -0.37715910652E+02  0.50528862050E+02  0.30000006688E+02 0.  0.
        -12    1    1    2    0    0 -0.69764330115E+01 -0.13490921575E+02  0.37715910652E+02  0.40659137950E+02  0.00000000000E+00 0.  1.
         11    1    3    3    0    0 -0.41351181171E+01  0.87689695806E+01 -0.48472267847E+01  0.10839263679E+02  0.51100000000E-03 0. -1.
        -11    1    3    3    0    0  0.15525542330E+02  0.65742911796E+01 -0.28956676325E+02  0.33507504729E+02  0.51100000000E-03 0.  1.
        -12    1    3    3    0    0 -0.44139912011E+01 -0.18523391850E+01 -0.39120075425E+01  0.61820936416E+01  0.00000000000E+00 0.  1.
</event>
<event>
 7    1  0.9978258E-013  0.5052886E+02  0.7816164E-02  0.1300439E+00
        -11   -1    0    0    0    0  0.00000000000E+00  0.00000000000E+00  0.45593999997E+02  0.45594000000E+02  0.51100000000E-03 0.  1.
         11   -1    0    0    0    0 -0.00000000000E+00 -0.00000000000E+00 -0.45593999997E+02  0.45594000000E+02  0.51100000000E-03 0. -1.
    9900012    2    1    2    0    0  0.21926945478E+02  0.22112002940E+00 -0.34239248217E+02  0.50528856496E+02  0.29999989804E+02 0.  0.
        -12    1    1    2    0    0 -0.21926945478E+02 -0.22112002940E+00  0.34239248217E+02  0.40659143504E+02  0.00000000000E+00 0.  1.
         11    1    3    3    0    0  0.72872510846E+01 -0.11595179955E+02 -0.16072839699E+02  0.21116069776E+02  0.51100000000E-03 0. -1.
        -11    1    3    3    0    0  0.12611990987E+00  0.81075677481E+01 -0.55283090984E+01  0.98138047041E+01  0.51100000000E-03 0.  1.
         12    1    3    3    0    0  0.14513574484E+02  0.37087322360E+01 -0.12638099420E+02  0.19598982015E+02  0.00000000000E+00 0. -1.
</event>
<event>
 7    1  0.9978258E-013  0.5052888E+02  0.7816164E-02  0.1300439E+00
        -11   -1    0    0    0    0  0.00000000000E+00  0.00000000000E+00  0.45593999997E+02  0.45594000000E+02  0.51100000000E-03 0.  1.
         11   -1    0    0    0    0 -0.00000000000E+00 -0.00000000000E+00 -0.45593999997E+02  0.45594000000E+02  0.51100000000E-03 0. -1.
    9900012    2    1    2    0    0 -0.90946513379E+01 -0.38312454760E+02  0.10129527931E+02  0.50528877914E+02  0.30000054907E+02 0.  0.
        -12    1    1    2    0    0  0.90946513379E+01  0.38312454760E+02 -0.10129527931E+02  0.40659122086E+02  0.00000000000E+00 0.  1.
         11    1    3    3    0    0 -0.11554533655E+02 -0.34292774492E+01 -0.10172935575E+01  0.12095539602E+02  0.51100000000E-03 0. -1.
        -11    1    3    3    0    0  0.28180039124E+01 -0.27802036346E+01  0.38236978350E+01  0.55037572343E+01  0.51100000000E-03 0.  1.
         12    1    3    3    0    0 -0.35812159525E+00 -0.32102973676E+02  0.73231236534E+01  0.32929581078E+02  0.00000000000E+00 0. -1.
</event>
<event>
 7    1  0.9978258E-013  0.5052886E+02  0.7816164E-02  0.1300439E+00
        -11   -1    0    0    0    0  0.00000000000E+00  0.00000000000E+00  0.45593999997E+02  0.45594000000E+02  0.51100000000E-03 0.  1.
         11   -1    0    0    0    0 -0.00000000000E+00 -0.00000000000E+00 -0.45593999997E+02  0.45594000000E+02  0.51100000000E-03 0. -1.
    9900012    2    1    2    0    0  0.21373333145E+02  0.31221353396E+01 -0.34447038827E+02  0.50528861018E+02  0.30000003551E+02 0.  0.
        -12    1    1    2    0    0 -0.21373333145E+02 -0.31221353396E+01  0.34447038827E+02  0.40659138982E+02  0.00000000000E+00 0.  1.
         11    1    3    3    0    0  0.13650621104E+02  0.39557283632E+01 -0.29064201131E+02  0.32352975614E+02  0.51100000000E-03 0. -1.
        -11    1    3    3    0    0  0.10114837833E+02  0.29807027404E+01  0.74576816291E+00  0.10571220537E+02  0.51100000000E-03 0.  1.
         12    1    3    3    0    0 -0.23921257924E+01 -0.38142957640E+01 -0.61286058582E+01  0.76046648675E+01  0.00000000000E+00 0. -1.
</event>
<event>
 7    1  0.9978258E-013  0.5052886E+02  0.7816164E-02  0.1300439E+00
        -11   -1    0    0    0    0  0.00000000000E+00  0.00000000000E+00  0.45593999997E+02  0.45594000000E+02  0.51100000000E-03 0.  1.
         11   -1    0    0    0    0 -0.00000000000E+00 -0.00000000000E+00 -0.45593999997E+02  0.45594000000E+02  0.51100000000E-03 0. -1.
    9900012    2    1    2    0    0 -0.16605853490E+02 -0.10699234277E+02 -0.35537833291E+02  0.50528861061E+02  0.30000003682E+02 0.  0.
        -12    1    1    2    0    0  0.16605853490E+02  0.10699234277E+02  0.35537833291E+02  0.40659138939E+02  0.00000000000E+00 0.  1.
         11    1    3    3    0    0 -0.19811461384E+02 -0.86325483240E+01 -0.12050666684E+02  0.24743351845E+02  0.51100000000E-03 0. -1.
        -11    1    3    3    0    0  0.12067023964E+01  0.39773311608E+01 -0.74489957335E+01  0.85301132193E+01  0.51100000000E-03 0.  1.
        -12    1    3    3    0    0  0.19989054979E+01 -0.60440171137E+01 -0.16038170873E+02  0.17255395997E+02  0.00000000000E+00 0.  1.
</event>
<event>
 7    1  0.9978258E-013  0.5052888E+02  0.7816164E-02  0.1300439E+00
        -11   -1    0    0    0    0  0.00000000000E+00  0.00000000000E+00  0.45593999997E+02  0.45594000000E+02  0.51100000000E-03 0.  1.
         11   -1    0    0    0    0 -0.00000000000E+00 -0.00000000000E+00 -0.45593999997E+02  0.45594000000E+02  0.51100000000E-03 0. -1.
    9900012    2    1    2    0    0  0.30305263566E+02 -0.37664392609E+01 -0.26843419668E+02  0.50528877482E+02  0.30000053593E+02 0.  0.
        -12    1    1    2    0    0 -0.30305263566E+02  0.37664392609E+01  0.26843419668E+02  0.40659122518E+02  0.00000000000E+00 0.  1.
         11    1    3    3    0    0  0.10700615987E-02 -0.70955157142E+01 -0.53723876703E+01  0.88999378614E+01  0.51100000000E-03 0. -1.
        -11    1    3    3    0    0  0.19886239474E+02  0.85872881394E+01 -0.20655393790E+02  0.29930742238E+02  0.51100000000E-03 0.  1.
         12    1    3    3    0    0  0.10417954031E+02 -0.52582116860E+01 -0.81563820704E+00  0.11698197383E+02  0.00000000000E+00 0. -1.
</event>
<event>
 7    1  0.9978258E-013  0.5052887E+02  0.7816164E-02  0.1300439E+00
        -11   -1    0    0    0    0  0.00000000000E+00  0.00000000000E+00  0.45593999997E+02  0.45594000000E+02  0.51100000000E-03 0.  1.
         11   -1    0    0    0    0 -0.00000000000E+00 -0.00000000000E+00 -0.45593999997E+02  0.45594000000E+02  0.51100000000E-03 0. -1.
    9900012    2    1    2    0    0 -0.11327601440E+02  0.65240199491E+01 -0.38500491583E+02  0.50528865199E+02  0.30000016258E+02 0.  0.
        -12    1    1    2    0    0  0.11327601440E+02 -0.65240199491E+01  0.38500491583E+02  0.40659134801E+02  0.00000000000E+00 0.  1.
         11    1    3    3    0    0  0.16942310071E+01 -0.51146065872E+01 -0.21637145037E+02  0.22297884762E+02  0.51100000000E-03 0. -1.
        -11    1    3    3    0    0 -0.10684961178E+01  0.50325884789E+01  0.14877518747E+01  0.53555612828E+01  0.51100000000E-03 0.  1.
         12    1    3    3    0    0 -0.11953336330E+02  0.66060380574E+01 -0.18351098420E+02  0.22875419154E+02  0.00000000000E+00 0. -1.
</event>
<event>
 7    1  0.9978258E-013  0.5052886E+02  0.7816164E-02  0.1300439E+00
        -11   -1    0    0    0    0  0.00000000000E+00  0.00000000000E+00  0.45593999997E+02  0.45594000000E+02  0.51100000000E-03 0. -1.
         11   -1    0    0    0    0 -0.00000000000E+00 -0.00000000000E+00 -0.45593999997E+02  0.45594000000E+02  0.51100000000E-03 0.  1.
    9900012    2    1    2    0    0  0.17185259713E+02  0.22074731843E+02  0.29504898363E+02  0.50528856320E+02  0.29999989271E+02 0.  0.
        -12    1    1    2    0    0 -0.17185259713E+02 -0.22074731843E+02 -0.29504898363E+02  0.40659143680E+02  0.00000000000E+00 0.  1.
         11    1    3    3    0    0  0.83690067278E+01  0.19361799861E+02  0.17089474529E+02  0.27147185994E+02  0.51100000000E-03 0. -1.
        -11    1    3    3    0    0  0.10992264682E+02 -0.34634251795E+00  0.63335918147E+00  0.11015942088E+02  0.51100000000E-03 0.  1.
         12    1    3    3    0    0 -0.21760116970E+01  0.30592744999E+01  0.11782064653E+02  0.12365728238E+02  0.00000000000E+00 0. -1.
</event>
<event>
 7    1  0.9978258E-013  0.5052885E+02  0.7816164E-02  0.1300439E+00
        -11   -1    0    0    0    0  0.00000000000E+00  0.00000000000E+00  0.45593999997E+02  0.45594000000E+02  0.51100000000E-03 0. -1.
         11   -1    0    0    0    0 -0.00000000000E+00 -0.00000000000E+00 -0.45593999997E+02  0.45594000000E+02  0.51100000000E-03 0.  1.
    9900012    2    1    2    0    0  0.34232705054E+02  0.98171084541E+01  0.19619183536E+02  0.50528854948E+02  0.29999985101E+02 0.  0.
        -12    1    1    2    0    0 -0.34232705054E+02 -0.98171084541E+01 -0.19619183536E+02  0.40659145052E+02  0.00000000000E+00 0.  1.
         11    1    3    3    0    0  0.52400972290E+01  0.12951351747E+02  0.10016666608E+02  0.17190978484E+02  0.51100000000E-03 0. -1.
        -11    1    3    3    0    0  0.83864420824E+00 -0.36452387246E+01  0.15646882553E+01  0.40545454819E+01  0.51100000000E-03 0.  1.
         12    1    3    3    0    0  0.28153963617E+02  0.51099543194E+00  0.80378286720E+01  0.29283330982E+02  0.00000000000E+00 0. -1.
</event>
<event>
 7    1  0.9978258E-013  0.5052886E+02  0.7816164E-02  0.1300439E+00
        -11   -1    0    0    0    0  0.00000000000E+00  0.00000000000E+00  0.45593999997E+02  0.45594000000E+02  0.51100000000E-03 0.  1.
         11   -1    0    0    0    0 -0.00000000000E+00 -0.00000000000E+00 -0.45593999997E+02  0.45594000000E+02  0.51100000000E-03 0. -1.
    9900012    2    1    2    0    0 -0.60871339322E+01 -0.13576122515E+02 -0.37839149947E+02  0.50528861166E+02  0.30000003999E+02 0.  0.
        -12    1    1    2    0    0  0.60871339322E+01  0.13576122515E+02  0.37839149947E+02  0.40659138834E+02  0.00000000000E+00 0.  1.
         11    1    3    3    0    0 -0.62966863765E+01  0.11581693917E+01 -0.81009753294E+01  0.10325474188E+02  0.51100000000E-03 0. -1.
        -11    1    3    3    0    0  0.81197300131E+01 -0.16896276141E+02 -0.18987212336E+02  0.26681986349E+02  0.51100000000E-03 0.  1.
        -12    1    3    3    0    0 -0.79101775688E+01  0.21619842344E+01 -0.10750962281E+02  0.13521400629E+02  0.00000000000E+00 0.  1.
</event>
<event>
 7    1  0.9978258E-013  0.5052886E+02  0.7816164E-02  0.1300439E+00
        -11   -1    0    0    0    0  0.00000000000E+00  0.00000000000E+00  0.45593999997E+02  0.45594000000E+02  0.51100000000E-03 0.  1.
         11   -1    0    0    0    0 -0.00000000000E+00 -0.00000000000E+00 -0.45593999997E+02  0.45594000000E+02  0.51100000000E-03 0. -1.
    9900012    2    1    2    0    0 -0.22669576639E+02 -0.41296032727E+01 -0.33499290393E+02  0.50528858531E+02  0.29999995990E+02 0.  0.
        -12    1    1    2    0    0  0.22669576639E+02  0.41296032727E+01  0.33499290393E+02  0.40659141469E+02  0.00000000000E+00 0.  1.
         11    1    3    3    0    0 -0.13454958927E+02  0.41639538696E+00 -0.60507953884E+01  0.14758774676E+02  0.51100000000E-03 0. -1.
        -11    1    3    3    0    0  0.33302055864E+01 -0.89407905732E+01 -0.98177635113E+01  0.13690014096E+02  0.51100000000E-03 0.  1.
        -12    1    3    3    0    0 -0.12544823299E+02  0.43947919135E+01 -0.17630731493E+02  0.22080069759E+02  0.00000000000E+00 0.  1.
</event>
<event>
 7    1  0.9978258E-013  0.5052886E+02  0.7816164E-02  0.1300439E+00
        -11   -1    0    0    0    0  0.00000000000E+00  0.00000000000E+00  0.45593999997E+02  0.45594000000E+02  0.51100000000E-03 0.  1.
         11   -1    0    0    0    0 -0.00000000000E+00 -0.00000000000E+00 -0.45593999997E+02  0.45594000000E+02  0.51100000000E-03 0. -1.
    9900012    2    1    2    0    0  0.24295085802E+02  0.19647153354E+02 -0.26017381568E+02  0.50528856223E+02  0.29999988975E+02 0.  0.
        -12    1    1    2    0    0 -0.24295085802E+02 -0.19647153354E+02  0.26017381568E+02  0.40659143777E+02  0.00000000000E+00 0.  1.
         11    1    3    3    0    0 -0.16664172427E+01 -0.14064286088E+01 -0.13108948446E+02  0.13289075117E+02  0.51100000000E-03 0. -1.
        -11    1    3    3    0    0  0.10104462169E+02  0.75362244414E+01  0.22884917964E+00  0.12607426651E+02  0.51100000000E-03 0.  1.
         12    1    3    3    0    0  0.15857040875E+02  0.13517357522E+02 -0.13137282302E+02  0.24632354454E+02  0.00000000000E+00 0. -1.
</event>
<event>
 7    1  0.9978258E-013  0.5052886E+02  0.7816164E-02  0.1300439E+00
        -11   -1    0    0    0    0  0.00000000000E+00  0.00000000000E+00  0.45593999997E+02  0.45594000000E+02  0.51100000000E-03 0.  1.
         11   -1    0    0    0    0 -0.00000000000E+00 -0.00000000000E+00 -0.45593999997E+02  0.45594000000E+02  0.51100000000E-03 0. -1.
    9900012    2    1    2    0    0 -0.69414773861E-01 -0.24090762693E+02 -0.32753567240E+02  0.50528857947E+02  0.29999994215E+02 0.  0.
        -12    1    1    2    0    0  0.69414773861E-01  0.24090762693E+02  0.32753567240E+02  0.40659142053E+02  0.00000000000E+00 0.  1.
         11    1    3    3    0    0  0.15182799474E+01 -0.12831590454E+02 -0.20037459323E+02  0.23842287306E+02  0.51100000000E-03 0. -1.
        -11    1    3    3    0    0 -0.86415758219E+01 -0.97755954032E+01 -0.12027133992E+01  0.13102885864E+02  0.51100000000E-03 0.  1.
        -12    1    3    3    0    0  0.70538811006E+01 -0.14835768352E+01 -0.11513394518E+02  0.13583684777E+02  0.00000000000E+00 0.  1.
</event>
<event>
 7    1  0.9978258E-013  0.5052886E+02  0.7816164E-02  0.1300439E+00
        -11   -1    0    0    0    0  0.00000000000E+00  0.00000000000E+00  0.45593999997E+02  0.45594000000E+02  0.51100000000E-03 0.  1.
         11   -1    0    0    0    0 -0.00000000000E+00 -0.00000000000E+00 -0.45593999997E+02  0.45594000000E+02  0.51100000000E-03 0. -1.
    9900012    2    1    2    0    0 -0.38765903640E+02 -0.64998411349E+01 -0.10398203363E+02  0.50528857695E+02  0.29999993450E+02 0.  0.
        -12    1    1    2    0    0  0.38765903640E+02  0.64998411349E+01  0.10398203363E+02  0.40659142305E+02  0.00000000000E+00 0.  1.
         11    1    3    3    0    0 -0.37839431103E+02 -0.78316729108E+01 -0.75347738914E+01  0.39369156260E+02  0.51100000000E-03 0. -1.
        -11    1    3    3    0    0  0.43331937671E+01  0.29912219166E+01 -0.12202650715E+01  0.54049073889E+01  0.51100000000E-03 0.  1.
        -12    1    3    3    0    0 -0.52596663039E+01 -0.16593901406E+01 -0.16431644002E+01  0.57547940461E+01  0.00000000000E+00 0.  1.
</event>
<event>
 7    1  0.9978258E-013  0.5052886E+02  0.7816164E-02  0.1300439E+00
        -11   -1    0    0    0    0  0.00000000000E+00  0.00000000000E+00  0.45593999997E+02  0.45594000000E+02  0.51100000000E-03 0.  1.
         11   -1    0    0    0    0 -0.00000000000E+00 -0.00000000000E+00 -0.45593999997E+02  0.45594000000E+02  0.51100000000E-03 0. -1.
    9900012    2    1    2    0    0  0.29911752701E+02  0.27485799631E+02  0.17272105296E+01  0.50528863423E+02  0.30000010860E+02 0.  0.
        -12    1    1    2    0    0 -0.29911752701E+02 -0.27485799631E+02 -0.17272105296E+01  0.40659136577E+02  0.00000000000E+00 0.  1.
         11    1    3    3    0    0  0.11392833819E+02  0.26419693003E+01 -0.50367130698E+01  0.12733622541E+02  0.51100000000E-03 0. -1.
        -11    1    3    3    0    0  0.20235790472E+02  0.27045411145E+02  0.42607159542E+01  0.34045486936E+02  0.51100000000E-03 0.  1.
        -12    1    3    3    0    0 -0.17168715898E+01 -0.22015808142E+01  0.25032076452E+01  0.37497539456E+01  0.00000000000E+00 0.  1.
</event>
<event>
 7    1  0.9978258E-013  0.5052883E+02  0.7816164E-02  0.1300439E+00
        -11   -1    0    0    0    0  0.00000000000E+00  0.00000000000E+00  0.45593999997E+02  0.45594000000E+02  0.51100000000E-03 0.  1.
         11   -1    0    0    0    0 -0.00000000000E+00 -0.00000000000E+00 -0.45593999997E+02  0.45594000000E+02  0.51100000000E-03 0. -1.
    9900012    2    1    2    0    0 -0.40491824602E+02 -0.12235765190E+00  0.36830898890E+01  0.50528831512E+02  0.29999913865E+02 0.  0.
        -12    1    1    2    0    0  0.40491824602E+02  0.12235765190E+00 -0.36830898890E+01  0.40659168488E+02  0.00000000000E+00 0.  1.
         11    1    3    3    0    0 -0.90457941544E+01 -0.80275171436E+01 -0.92960703634E+01  0.15253994488E+02  0.51100000000E-03 0. -1.
        -11    1    3    3    0    0 -0.14929999290E+02  0.28819102680E+01  0.85833166341E+01  0.17460916651E+02  0.51100000000E-03 0.  1.
         12    1    3    3    0    0 -0.16516031157E+02  0.50232492237E+01  0.43958436183E+01  0.17813920374E+02  0.00000000000E+00 0. -1.
</event>
<event>
 7    1  0.9978258E-013  0.5052887E+02  0.7816164E-02  0.1300439E+00
        -11   -1    0    0    0    0  0.00000000000E+00  0.00000000000E+00  0.45593999997E+02  0.45594000000E+02  0.51100000000E-03 0.  1.
         11   -1    0    0    0    0 -0.00000000000E+00 -0.00000000000E+00 -0.45593999997E+02  0.45594000000E+02  0.51100000000E-03 0. -1.
    9900012    2    1    2    0    0 -0.14430770476E+02  0.28041062202E+02 -0.25663526427E+02  0.50528869480E+02  0.30000029273E+02 0.  0.
        -12    1    1    2    0    0  0.14430770476E+02 -0.28041062202E+02  0.25663526427E+02  0.40659130520E+02  0.00000000000E+00 0.  1.
         11    1    3    3    0    0 -0.13874331218E+02  0.17348003560E+02 -0.44525526495E+00  0.22218203050E+02  0.51100000000E-03 0. -1.
        -11    1    3    3    0    0  0.14761297356E+01  0.27578022960E+01 -0.14428956201E+02  0.14764118999E+02  0.51100000000E-03 0.  1.
         12    1    3    3    0    0 -0.20325689938E+01  0.79352563458E+01 -0.10789314961E+02  0.13546547431E+02  0.00000000000E+00 0. -1.
</event>
<event>
 7    1  0.9978258E-013  0.5052885E+02  0.7816164E-02  0.1300439E+00
        -11   -1    0    0    0    0  0.00000000000E+00  0.00000000000E+00  0.45593999997E+02  0.45594000000E+02  0.51100000000E-03 0.  1.
         11   -1    0    0    0    0 -0.00000000000E+00 -0.00000000000E+00 -0.45593999997E+02  0.45594000000E+02  0.51100000000E-03 0. -1.
    9900012    2    1    2    0    0 -0.33641364856E+02  0.16980873354E+02 -0.15266792693E+02  0.50528850373E+02  0.29999971193E+02 0.  0.
        -12    1    1    2    0    0  0.33641364856E+02 -0.16980873354E+02  0.15266792693E+02  0.40659149627E+02  0.00000000000E+00 0.  1.
         11    1    3    3    0    0 -0.17952445184E+02  0.14079820301E+01 -0.76870594682E+01  0.19579672750E+02  0.51100000000E-03 0. -1.
        -11    1    3    3    0    0 -0.11600527861E+02  0.10756066961E+02  0.52334967270E+01  0.16662974266E+02  0.51100000000E-03 0.  1.
        -12    1    3    3    0    0 -0.40883918115E+01  0.48168243629E+01 -0.12813229952E+02  0.14286203357E+02  0.00000000000E+00 0.  1.
</event>
<event>
 7    1  0.9978258E-013  0.5052883E+02  0.7816164E-02  0.1300439E+00
        -11   -1    0    0    0    0  0.00000000000E+00  0.00000000000E+00  0.45593999997E+02  0.45594000000E+02  0.51100000000E-03 0.  1.
         11   -1    0    0    0    0 -0.00000000000E+00 -0.00000000000E+00 -0.45593999997E+02  0.45594000000E+02  0.51100000000E-03 0. -1.
    9900012    2    1    2    0    0  0.22455302332E+02  0.23348547643E+02 -0.24571796926E+02  0.50528825340E+02  0.29999895104E+02 0.  0.
        -12    1    1    2    0    0 -0.22455302332E+02 -0.23348547643E+02  0.24571796926E+02  0.40659174660E+02  0.00000000000E+00 0.  1.
         11    1    3    3    0    0  0.92559077450E+01  0.17456906701E+02 -0.11939565164E+02  0.23086113496E+02  0.51100000000E-03 0.  1.
        -11    1    3    3    0    0  0.15540021683E+02 -0.46201518870E+00 -0.32675481618E+01  0.15886554163E+02  0.51100000000E-03 0. -1.
        -12    1    3    3    0    0 -0.23406270960E+01  0.63536561307E+01 -0.93646835996E+01  0.11556157681E+02  0.00000000000E+00 0.  1.
</event>
<event>
 7    1  0.9978258E-013  0.5052877E+02  0.7816164E-02  0.1300439E+00
        -11   -1    0    0    0    0  0.00000000000E+00  0.00000000000E+00  0.45593999997E+02  0.45594000000E+02  0.51100000000E-03 0.  1.
         11   -1    0    0    0    0 -0.00000000000E+00 -0.00000000000E+00 -0.45593999997E+02  0.45594000000E+02  0.51100000000E-03 0. -1.
    9900012    2    1    2    0    0 -0.38495198386E+02 -0.11386567733E+02 -0.64528359317E+01  0.50528765931E+02  0.29999714523E+02 0.  0.
        -12    1    1    2    0    0  0.38495198386E+02  0.11386567733E+02  0.64528359317E+01  0.40659234069E+02  0.00000000000E+00 0.  1.
         11    1    3    3    0    0 -0.24319262468E+01  0.31551588614E+01 -0.53826255499E+01  0.66964132775E+01  0.51100000000E-03 0. -1.
        -11    1    3    3    0    0 -0.34421001061E+02 -0.16751458960E+02 -0.54422312623E+01  0.38665676933E+02  0.51100000000E-03 0.  1.
        -12    1    3    3    0    0 -0.16422710783E+01  0.22097323660E+01  0.43720208805E+01  0.51666757208E+01  0.00000000000E+00 0.  1.
</event>
<event>
 7    1  0.9978258E-013  0.5052886E+02  0.7816164E-02  0.1300439E+00
        -11   -1    0    0    0    0  0.00000000000E+00  0.00000000000E+00  0.45593999997E+02  0.45594000000E+02  0.51100000000E-03 0. -1.
         11   -1    0    0    0    0 -0.00000000000E+00 -0.00000000000E+00 -0.45593999997E+02  0.45594000000E+02  0.51100000000E-03 0.  1.
    9900012    2    1    2    0    0  0.27334659462E+02 -0.29104147557E+02  0.76766131433E+01  0.50528863237E+02  0.30000010296E+02 0.  0.
        -12    1    1    2    0    0 -0.27334659462E+02  0.29104147557E+02 -0.76766131433E+01  0.40659136763E+02  0.00000000000E+00 0.  1.
         11    1    3    3    0    0 -0.37936946049E+01  0.29643654785E+00 -0.38235929949E+01  0.53944283324E+01  0.51100000000E-03 0.  1.
        -11    1    3    3    0    0  0.18956957507E+02 -0.17015985632E+02  0.11042258832E+02  0.27764032224E+02  0.51100000000E-03 0. -1.
        -12    1    3    3    0    0  0.12171396560E+02 -0.12384598473E+02  0.45794730618E+00  0.17370402681E+02  0.00000000000E+00 0.  1.
</event>
<event>
 7    1  0.9978258E-013  0.5052885E+02  0.7816164E-02  0.1300439E+00
        -11   -1    0    0    0    0  0.00000000000E+00  0.00000000000E+00  0.45593999997E+02  0.45594000000E+02  0.51100000000E-03 0.  1.
         11   -1    0    0    0    0 -0.00000000000E+00 -0.00000000000E+00 -0.45593999997E+02  0.45594000000E+02  0.51100000000E-03 0. -1.
    9900012    2    1    2    0    0  0.19458087814E+01  0.35373965861E+02 -0.19951511675E+02  0.50528850345E+02  0.29999971109E+02 0.  0.
        -12    1    1    2    0    0 -0.19458087814E+01 -0.35373965861E+02  0.19951511675E+02  0.40659149655E+02  0.00000000000E+00 0.  1.
         11    1    3    3    0    0  0.12833691109E+01  0.16030085167E+02 -0.11583783041E+02  0.19819048830E+02  0.51100000000E-03 0. -1.
        -11    1    3    3    0    0  0.99081698274E+01  0.39233644635E+01  0.48700394548E+00  0.10667792234E+02  0.51100000000E-03 0.  1.
        -12    1    3    3    0    0 -0.92457301569E+01  0.15420516230E+02 -0.88547325798E+01  0.20042009281E+02  0.00000000000E+00 0.  1.
</event>
<event>
 7    1  0.1260646E-012  0.5052886E+02  0.7816164E-02  0.1300439E+00
        -11   -1    0    0    0    0  0.00000000000E+00  0.00000000000E+00  0.45593999997E+02  0.45594000000E+02  0.51100000000E-03 0. -1.
         11   -1    0    0    0    0 -0.00000000000E+00 -0.00000000000E+00 -0.45593999997E+02  0.45594000000E+02  0.51100000000E-03 0.  1.
    9900012    2    1    2    0    0 -0.14354324909E+02  0.18036710480E+01  0.37998236926E+02  0.50528857334E+02  0.29999992352E+02 0.  0.
        -12    1    1    2    0    0  0.14354324909E+02 -0.18036710480E+01 -0.37998236926E+02  0.40659142666E+02  0.00000000000E+00 0.  1.
         11    1    3    3    0    0 -0.12704910950E+02  0.56374303702E+01  0.22101473330E+02  0.26108820483E+02  0.51100000000E-03 0. -1.
        -11    1    3    3    0    0  0.60422520079E+00 -0.21238619368E+00 -0.40103130959E+01  0.40611337551E+01  0.51100000000E-03 0.  1.
         12    1    3    3    0    0 -0.22536391592E+01 -0.36213731286E+01  0.19907076693E+02  0.20358903095E+02  0.00000000000E+00 0. -1.
</event>
<event>
 7    1  0.9978258E-013  0.5052885E+02  0.7816164E-02  0.1300439E+00
        -11   -1    0    0    0    0  0.00000000000E+00  0.00000000000E+00  0.45593999997E+02  0.45594000000E+02  0.51100000000E-03 0.  1.
         11   -1    0    0    0    0 -0.00000000000E+00 -0.00000000000E+00 -0.45593999997E+02  0.45594000000E+02  0.51100000000E-03 0. -1.
    9900012    2    1    2    0    0 -0.33961863178E+02 -0.19639784655E+02 -0.10678834518E+02  0.50528846068E+02  0.29999958107E+02 0.  0.
        -12    1    1    2    0    0  0.33961863178E+02  0.19639784655E+02  0.10678834518E+02  0.40659153932E+02  0.00000000000E+00 0.  1.
         11    1    3    3    0    0 -0.96133551255E+01 -0.98942021146E+01 -0.13587838499E+02  0.19363398141E+02  0.51100000000E-03 0. -1.
        -11    1    3    3    0    0 -0.25135958470E+02 -0.43031390351E+01  0.29029369366E+01  0.25666329244E+02  0.51100000000E-03 0.  1.
        -12    1    3    3    0    0  0.78745041713E+00 -0.54424435054E+01  0.60670439776E-02  0.54991186819E+01  0.00000000000E+00 0.  1.
</event>
<event>
 7    1  0.9978258E-013  0.5052885E+02  0.7816164E-02  0.1300439E+00
        -11   -1    0    0    0    0  0.00000000000E+00  0.00000000000E+00  0.45593999997E+02  0.45594000000E+02  0.51100000000E-03 0. -1.
         11   -1    0    0    0    0 -0.00000000000E+00 -0.00000000000E+00 -0.45593999997E+02  0.45594000000E+02  0.51100000000E-03 0.  1.
    9900012    2    1    2    0    0  0.38161420925E+02 -0.10428496027E+02  0.93871467027E+01  0.50528854662E+02  0.29999984230E+02 0.  0.
        -12    1    1    2    0    0 -0.38161420925E+02  0.10428496027E+02 -0.93871467027E+01  0.40659145338E+02  0.00000000000E+00 0.  1.
         11    1    3    3    0    0  0.79500010286E+01 -0.13621981822E+02  0.45369668560E+01  0.16411732804E+02  0.51100000000E-03 0. -1.
        -11    1    3    3    0    0  0.31429758843E+02  0.12422950430E+01  0.47824839303E+01  0.31815800959E+02  0.51100000000E-03 0.  1.
        -12    1    3    3    0    0 -0.12183389461E+01  0.19511907520E+01  0.67695916437E-01  0.23013208979E+01  0.00000000000E+00 0.  1.
</event>
<event>
 7    1  0.9978258E-013  0.5052886E+02  0.7816164E-02  0.1300439E+00
        -11   -1    0    0    0    0  0.00000000000E+00  0.00000000000E+00  0.45593999997E+02  0.45594000000E+02  0.51100000000E-03 0.  1.
         11   -1    0    0    0    0 -0.00000000000E+00 -0.00000000000E+00 -0.45593999997E+02  0.45594000000E+02  0.51100000000E-03 0. -1.
    9900012    2    1    2    0    0 -0.16864362700E+02 -0.31884878228E+02 -0.18764684439E+02  0.50528861163E+02  0.30000003992E+02 0.  0.
        -12    1    1    2    0    0  0.16864362700E+02  0.31884878228E+02  0.18764684439E+02  0.40659138837E+02  0.00000000000E+00 0.  1.
         11    1    3    3    0    0  0.47150801115E+01 -0.13778368315E+02 -0.11227896703E+02  0.18388612740E+02  0.51100000000E-03 0. -1.
        -11    1    3    3    0    0 -0.11756107691E+02 -0.33202407276E+01 -0.76019518031E+01  0.14388180497E+02  0.51100000000E-03 0.  1.
         12    1    3    3    0    0 -0.98233351200E+01 -0.14786269185E+02  0.65164066945E-01  0.17752067926E+02  0.00000000000E+00 0. -1.
</event>
<event>
 7    1  0.9978258E-013  0.5052885E+02  0.7816164E-02  0.1300439E+00
        -11   -1    0    0    0    0  0.00000000000E+00  0.00000000000E+00  0.45593999997E+02  0.45594000000E+02  0.51100000000E-03 0.  1.
         11   -1    0    0    0    0 -0.00000000000E+00 -0.00000000000E+00 -0.45593999997E+02  0.45594000000E+02  0.51100000000E-03 0. -1.
    9900012    2    1    2    0    0  0.34256454289E+02 -0.45897568984E+01 -0.21414858744E+02  0.50528847231E+02  0.29999961644E+02 0.  0.
        -12    1    1    2    0    0 -0.34256454289E+02  0.45897568984E+01  0.21414858744E+02  0.40659152769E+02  0.00000000000E+00 0.  1.
         11    1    3    3    0    0  0.14216748353E+02  0.72842796241E+01 -0.80744121104E+00  0.15994643633E+02  0.51100000000E-03 0. -1.
        -11    1    3    3    0    0  0.14848535689E+02 -0.87513072797E+01 -0.52379364159E+01  0.18013893787E+02  0.51100000000E-03 0.  1.
         12    1    3    3    0    0  0.51911702475E+01 -0.31227292428E+01 -0.15369481117E+02  0.16520309812E+02  0.00000000000E+00 0. -1.
</event>
<event>
 7    1  0.9978258E-013  0.5052886E+02  0.7816164E-02  0.1300439E+00
        -11   -1    0    0    0    0  0.00000000000E+00  0.00000000000E+00  0.45593999997E+02  0.45594000000E+02  0.51100000000E-03 0.  1.
         11   -1    0    0    0    0 -0.00000000000E+00 -0.00000000000E+00 -0.45593999997E+02  0.45594000000E+02  0.51100000000E-03 0. -1.
    9900012    2    1    2    0    0  0.73151784316E+01 -0.58553366991E+01 -0.39564739312E+02  0.50528863264E+02  0.30000010376E+02 0.  0.
        -12    1    1    2    0    0 -0.73151784316E+01  0.58553366991E+01  0.39564739312E+02  0.40659136736E+02  0.00000000000E+00 0.  1.
         11    1    3    3    0    0 -0.35343591421E+01  0.47238718326E+00 -0.24064131388E+02  0.24326883563E+02  0.51100000000E-03 0. -1.
        -11    1    3    3    0    0  0.13181064325E+02 -0.27182365694E+01 -0.16971548859E+02  0.21660164767E+02  0.51100000000E-03 0.  1.
        -12    1    3    3    0    0 -0.23315267512E+01 -0.36094873130E+01  0.14709409355E+01  0.45418149335E+01  0.00000000000E+00 0.  1.
</event>
<event>
 7    1  0.9978258E-013  0.5052880E+02  0.7816164E-02  0.1300439E+00
        -11   -1    0    0    0    0  0.00000000000E+00  0.00000000000E+00  0.45593999997E+02  0.45594000000E+02  0.51100000000E-03 0.  1.
         11   -1    0    0    0    0 -0.00000000000E+00 -0.00000000000E+00 -0.45593999997E+02  0.45594000000E+02  0.51100000000E-03 0. -1.
    9900012    2    1    2    0    0  0.14896657261E+02 -0.10246998030E+02 -0.36417838851E+02  0.50528802360E+02  0.29999825252E+02 0.  0.
        -12    1    1    2    0    0 -0.14896657261E+02  0.10246998030E+02  0.36417838851E+02  0.40659197640E+02  0.00000000000E+00 0.  1.
         11    1    3    3    0    0 -0.63719975307E+01 -0.85051887038E+01 -0.10068383657E+02  0.14639430902E+02  0.51100000000E-03 0. -1.
        -11    1    3    3    0    0  0.14098713706E+02  0.28090170366E+01 -0.10146748335E+02  0.17596045207E+02  0.51100000000E-03 0.  1.
        -12    1    3    3    0    0  0.71699410862E+01 -0.45508263627E+01 -0.16202706859E+02  0.18293326251E+02  0.00000000000E+00 0.  1.
</event>
<event>
 7    1  0.9978258E-013  0.5052885E+02  0.7816164E-02  0.1300439E+00
        -11   -1    0    0    0    0  0.00000000000E+00  0.00000000000E+00  0.45593999997E+02  0.45594000000E+02  0.51100000000E-03 0.  1.
         11   -1    0    0    0    0 -0.00000000000E+00 -0.00000000000E+00 -0.45593999997E+02  0.45594000000E+02  0.51100000000E-03 0. -1.
    9900012    2    1    2    0    0 -0.32742466067E+02 -0.49340765425E+01 -0.23595596625E+02  0.50528851268E+02  0.29999973915E+02 0.  0.
        -12    1    1    2    0    0  0.32742466067E+02  0.49340765425E+01  0.23595596625E+02  0.40659148732E+02  0.00000000000E+00 0.  1.
         11    1    3    3    0    0 -0.39829420459E+01  0.87491736580E+01 -0.12735188654E+02  0.15956092797E+02  0.51100000000E-03 0. -1.
        -11    1    3    3    0    0 -0.15762835608E+02 -0.10710856573E+02 -0.36096084168E+01  0.19396358115E+02  0.51100000000E-03 0.  1.
         12    1    3    3    0    0 -0.12996688413E+02 -0.29723936270E+01 -0.72507995547E+01  0.15176400356E+02  0.00000000000E+00 0. -1.
</event>
<event>
 7    1  0.9978258E-013  0.5052887E+02  0.7816164E-02  0.1300439E+00
        -11   -1    0    0    0    0  0.00000000000E+00  0.00000000000E+00  0.45593999997E+02  0.45594000000E+02  0.51100000000E-03 0.  1.
         11   -1    0    0    0    0 -0.00000000000E+00 -0.00000000000E+00 -0.45593999997E+02  0.45594000000E+02  0.51100000000E-03 0. -1.
    9900012    2    1    2    0    0 -0.11938321637E+02  0.38865181723E+02  0.37314700877E+00  0.50528866800E+02  0.30000021127E+02 0.  0.
        -12    1    1    2    0    0  0.11938321637E+02 -0.38865181723E+02 -0.37314700877E+00  0.40659133200E+02  0.00000000000E+00 0.  1.
         11    1    3    3    0    0 -0.22617718660E+01  0.28023613211E+02 -0.82391565486E+01  0.29297136554E+02  0.51100000000E-03 0. -1.
        -11    1    3    3    0    0 -0.72564628691E+01  0.20228286535E+01  0.94080843318E+01  0.12052391472E+02  0.51100000000E-03 0.  1.
        -12    1    3    3    0    0 -0.24200869022E+01  0.88187398584E+01 -0.79578077440E+00  0.91793387749E+01  0.00000000000E+00 0.  1.
</event>
<event>
 7    1  0.9978258E-013  0.5052887E+02  0.7816164E-02  0.1300439E+00
        -11   -1    0    0    0    0  0.00000000000E+00  0.00000000000E+00  0.45593999997E+02  0.45594000000E+02  0.51100000000E-03 0. -1.
         11   -1    0    0    0    0 -0.00000000000E+00 -0.00000000000E+00 -0.45593999997E+02  0.45594000000E+02  0.51100000000E-03 0.  1.
    9900012    2    1    2    0    0  0.39212298750E+02  0.95258482318E+01  0.49818770317E+01  0.50528865029E+02  0.30000015742E+02 0.  0.
        -12    1    1    2    0    0 -0.39212298750E+02 -0.95258482318E+01 -0.49818770317E+01  0.40659134971E+02  0.00000000000E+00 0.  1.
         11    1    3    3    0    0  0.35446911602E+02  0.46554007383E+01  0.69422423709E+01  0.36419102508E+02  0.51100000000E-03 0. -1.
        -11    1    3    3    0    0 -0.22236154467E+01  0.36010652948E+01 -0.55755932231E+01  0.69999554972E+01  0.51100000000E-03 0.  1.
        -12    1    3    3    0    0  0.59890025957E+01  0.12693821988E+01  0.36152278838E+01  0.71098070234E+01  0.00000000000E+00 0.  1.
</event>
<event>
 7    1  0.9978258E-013  0.5052888E+02  0.7816164E-02  0.1300439E+00
        -11   -1    0    0    0    0  0.00000000000E+00  0.00000000000E+00  0.45593999997E+02  0.45594000000E+02  0.51100000000E-03 0.  1.
         11   -1    0    0    0    0 -0.00000000000E+00 -0.00000000000E+00 -0.45593999997E+02  0.45594000000E+02  0.51100000000E-03 0. -1.
    9900012    2    1    2    0    0  0.12045939586E+02 -0.91537806732E+01 -0.37739471907E+02  0.50528879241E+02  0.30000058940E+02 0.  0.
        -12    1    1    2    0    0 -0.12045939586E+02  0.91537806732E+01  0.37739471907E+02  0.40659120759E+02  0.00000000000E+00 0.  1.
         11    1    3    3    0    0 -0.59561986318E+01 -0.31962357276E+01 -0.79688240361E+00  0.68064121822E+01  0.51100000000E-03 0. -1.
        -11    1    3    3    0    0  0.13606267450E+02 -0.10185407120E+02 -0.23931892012E+02  0.29353168273E+02  0.51100000000E-03 0.  1.
        -12    1    3    3    0    0  0.43958707680E+01  0.42278621745E+01 -0.13010697491E+02  0.14369298785E+02  0.00000000000E+00 0.  1.
</event>
<event>
 7    1  0.9978258E-013  0.5052891E+02  0.7816164E-02  0.1300439E+00
        -11   -1    0    0    0    0  0.00000000000E+00  0.00000000000E+00  0.45593999997E+02  0.45594000000E+02  0.51100000000E-03 0.  1.
         11   -1    0    0    0    0 -0.00000000000E+00 -0.00000000000E+00 -0.45593999997E+02  0.45594000000E+02  0.51100000000E-03 0. -1.
    9900012    2    1    2    0    0 -0.12876803419E+02  0.27756757675E+02 -0.26775213361E+02  0.50528908600E+02  0.30000148180E+02 0.  0.
        -12    1    1    2    0    0  0.12876803419E+02 -0.27756757675E+02  0.26775213361E+02  0.40659091400E+02  0.00000000000E+00 0.  1.
         11    1    3    3    0    0 -0.27920284310E+01  0.10948623900E+02 -0.18961176374E+02  0.22072471493E+02  0.51100000000E-03 0. -1.
        -11    1    3    3    0    0  0.22142081182E+01  0.14630990482E+02 -0.31881498696E+01  0.15137136450E+02  0.51100000000E-03 0.  1.
         12    1    3    3    0    0 -0.12298983106E+02  0.21771432939E+01 -0.46258871178E+01  0.13319300657E+02  0.00000000000E+00 0. -1.
</event>
<event>
 7    1  0.9978258E-013  0.5052886E+02  0.7816164E-02  0.1300439E+00
        -11   -1    0    0    0    0  0.00000000000E+00  0.00000000000E+00  0.45593999997E+02  0.45594000000E+02  0.51100000000E-03 0. -1.
         11   -1    0    0    0    0 -0.00000000000E+00 -0.00000000000E+00 -0.45593999997E+02  0.45594000000E+02  0.51100000000E-03 0.  1.
    9900012    2    1    2    0    0  0.10619790282E+02  0.39244058478E+02 -0.53777458660E+00  0.50528864828E+02  0.30000015131E+02 0.  0.
        -12    1    1    2    0    0 -0.10619790282E+02 -0.39244058478E+02  0.53777458660E+00  0.40659135172E+02  0.00000000000E+00 0.  1.
         11    1    3    3    0    0  0.20189776130E+01  0.97992184758E+01  0.10232956045E+02  0.14311336172E+02  0.51100000000E-03 0. -1.
        -11    1    3    3    0    0  0.94290880109E+01  0.28690145188E+02 -0.53349705458E+01  0.30667475322E+02  0.51100000000E-03 0.  1.
        -12    1    3    3    0    0 -0.82827534177E+00  0.75469481366E+00 -0.54357600857E+01  0.55500533342E+01  0.00000000000E+00 0.  1.
</event>
<event>
 7    1  0.9978258E-013  0.5052884E+02  0.7816164E-02  0.1300439E+00
        -11   -1    0    0    0    0  0.00000000000E+00  0.00000000000E+00  0.45593999997E+02  0.45594000000E+02  0.51100000000E-03 0.  1.
         11   -1    0    0    0    0 -0.00000000000E+00 -0.00000000000E+00 -0.45593999997E+02  0.45594000000E+02  0.51100000000E-03 0. -1.
    9900012    2    1    2    0    0  0.35602328416E+01  0.20114086940E+02 -0.35155587731E+02  0.50528842360E+02  0.29999946837E+02 0.  0.
        -12    1    1    2    0    0 -0.35602328416E+01 -0.20114086940E+02  0.35155587731E+02  0.40659157640E+02  0.00000000000E+00 0.  1.
         11    1    3    3    0    0  0.18176574038E+01 -0.35174709475E+01 -0.47387087919E+01  0.61750985077E+01  0.51100000000E-03 0. -1.
        -11    1    3    3    0    0  0.52279652244E+01  0.25924787065E+02 -0.20077741996E+02  0.33204546807E+02  0.51100000000E-03 0.  1.
        -12    1    3    3    0    0 -0.34853897866E+01 -0.22932291775E+01 -0.10339136943E+02  0.11149197045E+02  0.00000000000E+00 0.  1.
</event>
<event>
 7    1  0.9978258E-013  0.5052884E+02  0.7816164E-02  0.1300439E+00
        -11   -1    0    0    0    0  0.00000000000E+00  0.00000000000E+00  0.45593999997E+02  0.45594000000E+02  0.51100000000E-03 0.  1.
         11   -1    0    0    0    0 -0.00000000000E+00 -0.00000000000E+00 -0.45593999997E+02  0.45594000000E+02  0.51100000000E-03 0. -1.
    9900012    2    1    2    0    0  0.26656469953E+02 -0.30699002114E+02  0.41332687417E+00  0.50528844078E+02  0.29999952061E+02 0.  0.
        -12    1    1    2    0    0 -0.26656469953E+02  0.30699002114E+02 -0.41332687417E+00  0.40659155922E+02  0.00000000000E+00 0.  1.
         11    1    3    3    0    0  0.13673252403E+02 -0.31382610451E+02 -0.50338661507E+01  0.34600084952E+02  0.51100000000E-03 0. -1.
        -11    1    3    3    0    0  0.80491160154E+00  0.58236388512E+00  0.34464445291E+01  0.35867827553E+01  0.51100000000E-03 0.  1.
         12    1    3    3    0    0  0.12178305948E+02  0.10124445153E+00  0.20007484958E+01  0.12341976371E+02  0.00000000000E+00 0. -1.
</event>
<event>
 7    1  0.9978258E-013  0.5052886E+02  0.7816164E-02  0.1300439E+00
        -11   -1    0    0    0    0  0.00000000000E+00  0.00000000000E+00  0.45593999997E+02  0.45594000000E+02  0.51100000000E-03 0.  1.
         11   -1    0    0    0    0 -0.00000000000E+00 -0.00000000000E+00 -0.45593999997E+02  0.45594000000E+02  0.51100000000E-03 0. -1.
    9900012    2    1    2    0    0  0.28958481954E+02 -0.27840502691E+02 -0.62831841789E+01  0.50528859938E+02  0.30000000268E+02 0.  0.
        -12    1    1    2    0    0 -0.28958481954E+02  0.27840502691E+02  0.62831841789E+01  0.40659140062E+02  0.00000000000E+00 0.  1.
         11    1    3    3    0    0 -0.26654127131E+01 -0.25615565715E+01  0.53134474636E+01  0.64729221538E+01  0.51100000000E-03 0. -1.
        -11    1    3    3    0    0  0.47060613472E+01 -0.83615391418E+01 -0.71235989476E+01  0.11950230644E+02  0.51100000000E-03 0.  1.
         12    1    3    3    0    0  0.26917833319E+02 -0.16917406978E+02 -0.44730326949E+01  0.32105707140E+02  0.00000000000E+00 0. -1.
</event>
<event>
 7    1  0.9978258E-013  0.5052886E+02  0.7816164E-02  0.1300439E+00
        -11   -1    0    0    0    0  0.00000000000E+00  0.00000000000E+00  0.45593999997E+02  0.45594000000E+02  0.51100000000E-03 0. -1.
         11   -1    0    0    0    0 -0.00000000000E+00 -0.00000000000E+00 -0.45593999997E+02  0.45594000000E+02  0.51100000000E-03 0.  1.
    9900012    2    1    2    0    0 -0.16054093588E+02  0.97311016195E+00  0.37342803417E+02  0.50528857960E+02  0.29999994257E+02 0.  0.
        -12    1    1    2    0    0  0.16054093588E+02 -0.97311016195E+00 -0.37342803417E+02  0.40659142040E+02  0.00000000000E+00 0.  1.
         11    1    3    3    0    0 -0.15310775346E+02 -0.10213553807E+01  0.41594782273E+01  0.15898561818E+02  0.51100000000E-03 0. -1.
        -11    1    3    3    0    0 -0.12913359112E+01  0.26418195175E+01  0.22944546966E+01  0.37297830251E+01  0.51100000000E-03 0.  1.
         12    1    3    3    0    0  0.54801766892E+00 -0.64735397486E+00  0.30888870493E+02  0.30900513117E+02  0.00000000000E+00 0. -1.
</event>
<event>
 7    1  0.9978258E-013  0.5052885E+02  0.7816164E-02  0.1300439E+00
        -11   -1    0    0    0    0  0.00000000000E+00  0.00000000000E+00  0.45593999997E+02  0.45594000000E+02  0.51100000000E-03 0.  1.
         11   -1    0    0    0    0 -0.00000000000E+00 -0.00000000000E+00 -0.45593999997E+02  0.45594000000E+02  0.51100000000E-03 0. -1.
    9900012    2    1    2    0    0  0.78727594556E+01  0.11325597417E+02 -0.38248101064E+02  0.50528846869E+02  0.29999960544E+02 0.  0.
        -12    1    1    2    0    0 -0.78727594556E+01 -0.11325597417E+02  0.38248101064E+02  0.40659153131E+02  0.00000000000E+00 0.  1.
         11    1    3    3    0    0  0.22762022068E+01  0.38751322617E+01 -0.23487845872E+02  0.23913942596E+02  0.51100000000E-03 0. -1.
        -11    1    3    3    0    0 -0.24042922628E+01  0.11284931809E+02 -0.30709893670E+01  0.11939902980E+02  0.51100000000E-03 0.  1.
        -12    1    3    3    0    0  0.80008495115E+01 -0.38344666534E+01 -0.11689265825E+02  0.14675001293E+02  0.00000000000E+00 0.  1.
</event>
<event>
 7    1  0.9978258E-013  0.5052886E+02  0.7816164E-02  0.1300439E+00
        -11   -1    0    0    0    0  0.00000000000E+00  0.00000000000E+00  0.45593999997E+02  0.45594000000E+02  0.51100000000E-03 0.  1.
         11   -1    0    0    0    0 -0.00000000000E+00 -0.00000000000E+00 -0.45593999997E+02  0.45594000000E+02  0.51100000000E-03 0. -1.
    9900012    2    1    2    0    0  0.31912224287E+02 -0.24156262126E+02 -0.71589599864E+01  0.50528858753E+02  0.29999996666E+02 0.  0.
        -12    1    1    2    0    0 -0.31912224287E+02  0.24156262126E+02  0.71589599864E+01  0.40659141247E+02  0.00000000000E+00 0.  1.
         11    1    3    3    0    0  0.16859168070E+02 -0.21933991632E+02 -0.82930501130E+01  0.28880897101E+02  0.51100000000E-03 0. -1.
        -11    1    3    3    0    0  0.37223873984E+01  0.22123065168E+01 -0.61087936170E+01  0.74878453366E+01  0.51100000000E-03 0.  1.
         12    1    3    3    0    0  0.11330668818E+02 -0.44345770114E+01  0.72428837437E+01  0.14160116315E+02  0.00000000000E+00 0. -1.
</event>
<event>
 7    1  0.9978258E-013  0.5052886E+02  0.7816164E-02  0.1300439E+00
        -11   -1    0    0    0    0  0.00000000000E+00  0.00000000000E+00  0.45593999997E+02  0.45594000000E+02  0.51100000000E-03 0.  1.
         11   -1    0    0    0    0 -0.00000000000E+00 -0.00000000000E+00 -0.45593999997E+02  0.45594000000E+02  0.51100000000E-03 0. -1.
    9900012    2    1    2    0    0 -0.34606772647E+02  0.15606335812E+02 -0.14559515641E+02  0.50528856794E+02  0.29999990711E+02 0.  0.
        -12    1    1    2    0    0  0.34606772647E+02 -0.15606335812E+02  0.14559515641E+02  0.40659143206E+02  0.00000000000E+00 0.  1.
         11    1    3    3    0    0 -0.21003523388E+02  0.17404333957E+01 -0.18815949785E+02  0.28252735614E+02  0.51100000000E-03 0. -1.
        -11    1    3    3    0    0  0.11183694528E+01  0.30900415619E+01  0.21122747664E+01  0.39065089322E+01  0.51100000000E-03 0.  1.
         12    1    3    3    0    0 -0.14721618712E+02  0.10775860855E+02  0.21441593780E+01  0.18369612247E+02  0.00000000000E+00 0. -1.
</event>
<event>
 7    1  0.9978258E-013  0.5052885E+02  0.7816164E-02  0.1300439E+00
        -11   -1    0    0    0    0  0.00000000000E+00  0.00000000000E+00  0.45593999997E+02  0.45594000000E+02  0.51100000000E-03 0. -1.
         11   -1    0    0    0    0 -0.00000000000E+00 -0.00000000000E+00 -0.45593999997E+02  0.45594000000E+02  0.51100000000E-03 0.  1.
    9900012    2    1    2    0    0 -0.44251210680E+01  0.18188666774E+02  0.36093729901E+02  0.50528848095E+02  0.29999964270E+02 0.  0.
        -12    1    1    2    0    0  0.44251210680E+01 -0.18188666774E+02 -0.36093729901E+02  0.40659151905E+02  0.00000000000E+00 0.  1.
         11    1    3    3    0    0 -0.87487685425E+01  0.90897926177E+00  0.13243108047E+01  0.88949982393E+01  0.51100000000E-03 0. -1.
        -11    1    3    3    0    0  0.81355086363E+01  0.96033523191E+01  0.28046081556E+02  0.30740747672E+02  0.51100000000E-03 0.  1.
         12    1    3    3    0    0 -0.38118611619E+01  0.76763351930E+01  0.67233375402E+01  0.10893102184E+02  0.00000000000E+00 0. -1.
</event>
<event>
 7    1  0.9978258E-013  0.5052886E+02  0.7816164E-02  0.1300439E+00
        -11   -1    0    0    0    0  0.00000000000E+00  0.00000000000E+00  0.45593999997E+02  0.45594000000E+02  0.51100000000E-03 0.  1.
         11   -1    0    0    0    0 -0.00000000000E+00 -0.00000000000E+00 -0.45593999997E+02  0.45594000000E+02  0.51100000000E-03 0. -1.
    9900012    2    1    2    0    0  0.16481559252E+02 -0.20456744294E+02 -0.31032972946E+02  0.50528860900E+02  0.30000003193E+02 0.  0.
        -12    1    1    2    0    0 -0.16481559252E+02  0.20456744294E+02  0.31032972946E+02  0.40659139100E+02  0.00000000000E+00 0.  1.
         11    1    3    3    0    0  0.12462164201E+02 -0.10850906999E+02 -0.12067385275E+02  0.20461415076E+02  0.51100000000E-03 0. -1.
        -11    1    3    3    0    0 -0.19906814489E+01 -0.96713806876E+01  0.30748815568E+00  0.98789152371E+01  0.51100000000E-03 0.  1.
        -12    1    3    3    0    0  0.60100765002E+01  0.65543392796E-01 -0.19273075826E+02  0.20188530587E+02  0.00000000000E+00 0.  1.
</event>
<event>
 7    1  0.9978258E-013  0.5052886E+02  0.7816164E-02  0.1300439E+00
        -11   -1    0    0    0    0  0.00000000000E+00  0.00000000000E+00  0.45593999997E+02  0.45594000000E+02  0.51100000000E-03 0.  1.
         11   -1    0    0    0    0 -0.00000000000E+00 -0.00000000000E+00 -0.45593999997E+02  0.45594000000E+02  0.51100000000E-03 0. -1.
    9900012    2    1    2    0    0 -0.36020088452E+02 -0.12781407475E+01 -0.18817144983E+02  0.50528863743E+02  0.30000011833E+02 0.  0.
        -12    1    1    2    0    0  0.36020088452E+02  0.12781407475E+01  0.18817144983E+02  0.40659136257E+02  0.00000000000E+00 0.  1.
         11    1    3    3    0    0 -0.19150917857E+02 -0.11871953910E+02 -0.92273255277E+01  0.24348397915E+02  0.51100000000E-03 0. -1.
        -11    1    3    3    0    0 -0.11367801917E+02  0.12104109789E+02 -0.11461028991E+02  0.20176510601E+02  0.51100000000E-03 0.  1.
        -12    1    3    3    0    0 -0.55013686784E+01 -0.15102966272E+01  0.18712095361E+01  0.60039552269E+01  0.00000000000E+00 0.  1.
</event>
<event>
 7    1  0.9978258E-013  0.5052887E+02  0.7816164E-02  0.1300439E+00
        -11   -1    0    0    0    0  0.00000000000E+00  0.00000000000E+00  0.45593999997E+02  0.45594000000E+02  0.51100000000E-03 0.  1.
         11   -1    0    0    0    0 -0.00000000000E+00 -0.00000000000E+00 -0.45593999997E+02  0.45594000000E+02  0.51100000000E-03 0. -1.
    9900012    2    1    2    0    0  0.87085616167E+01 -0.29348658963E+01 -0.39606978298E+02  0.50528865563E+02  0.30000017364E+02 0.  0.
        -12    1    1    2    0    0 -0.87085616167E+01  0.29348658963E+01  0.39606978298E+02  0.40659134437E+02  0.00000000000E+00 0.  1.
         11    1    3    3    0    0  0.60208166450E+01  0.12681927550E+01 -0.38910997063E+02  0.39394469646E+02  0.51100000000E-03 0. -1.
        -11    1    3    3    0    0  0.58960973648E+01 -0.31853751966E+01 -0.26910531656E+01  0.72216581669E+01  0.51100000000E-03 0.  1.
         12    1    3    3    0    0 -0.32083523931E+01 -0.10176834547E+01  0.19950719306E+01  0.39127377500E+01  0.00000000000E+00 0. -1.
</event>
<event>
 7    1  0.9978258E-013  0.5052886E+02  0.7816164E-02  0.1300439E+00
        -11   -1    0    0    0    0  0.00000000000E+00  0.00000000000E+00  0.45593999997E+02  0.45594000000E+02  0.51100000000E-03 0. -1.
         11   -1    0    0    0    0 -0.00000000000E+00 -0.00000000000E+00 -0.45593999997E+02  0.45594000000E+02  0.51100000000E-03 0.  1.
    9900012    2    1    2    0    0 -0.32221688510E+02 -0.92947326335E+01  0.22989917399E+02  0.50528861210E+02  0.30000004133E+02 0.  0.
        -12    1    1    2    0    0  0.32221688510E+02  0.92947326335E+01 -0.22989917399E+02  0.40659138790E+02  0.00000000000E+00 0.  1.
         11    1    3    3    0    0 -0.57959035077E+00 -0.29809121345E+01 -0.51999017130E+01  0.60216891496E+01  0.51100000000E-03 0. -1.
        -11    1    3    3    0    0 -0.19760920930E+02  0.19941804844E+01  0.14763808607E+02  0.24747541224E+02  0.51100000000E-03 0.  1.
         12    1    3    3    0    0 -0.11881177229E+02 -0.83080009835E+01  0.13426010506E+02  0.19759630836E+02  0.00000000000E+00 0. -1.
</event>
<event>
 7    1  0.9978258E-013  0.5052885E+02  0.7816164E-02  0.1300439E+00
        -11   -1    0    0    0    0  0.00000000000E+00  0.00000000000E+00  0.45593999997E+02  0.45594000000E+02  0.51100000000E-03 0.  1.
         11   -1    0    0    0    0 -0.00000000000E+00 -0.00000000000E+00 -0.45593999997E+02  0.45594000000E+02  0.51100000000E-03 0. -1.
    9900012    2    1    2    0    0 -0.17310470132E+02 -0.36393766149E+02 -0.53859205040E+01  0.50528846905E+02  0.29999960653E+02 0.  0.
        -12    1    1    2    0    0  0.17310470132E+02  0.36393766149E+02  0.53859205040E+01  0.40659153095E+02  0.00000000000E+00 0.  1.
         11    1    3    3    0    0  0.28181030273E+01  0.17314137605E+01 -0.40088098456E+01  0.51971198680E+01  0.51100000000E-03 0. -1.
        -11    1    3    3    0    0 -0.17037745635E+02 -0.17407310715E+02 -0.11055568963E+01  0.24382811548E+02  0.51100000000E-03 0.  1.
        -12    1    3    3    0    0 -0.30908275244E+01 -0.20717869194E+02 -0.27155376204E+00  0.20948915489E+02  0.00000000000E+00 0.  1.
</event>
<event>
 7    1  0.9978258E-013  0.5052885E+02  0.7816164E-02  0.1300439E+00
        -11   -1    0    0    0    0  0.00000000000E+00  0.00000000000E+00  0.45593999997E+02  0.45594000000E+02  0.51100000000E-03 0.  1.
         11   -1    0    0    0    0 -0.00000000000E+00 -0.00000000000E+00 -0.45593999997E+02  0.45594000000E+02  0.51100000000E-03 0. -1.
    9900012    2    1    2    0    0 -0.15910992975E+02 -0.12976026880E+02 -0.35094578438E+02  0.50528850885E+02  0.29999972750E+02 0.  0.
        -12    1    1    2    0    0  0.15910992975E+02  0.12976026880E+02  0.35094578438E+02  0.40659149115E+02  0.00000000000E+00 0.  1.
         11    1    3    3    0    0 -0.17009177307E+01 -0.27204648923E+00 -0.18888717907E+02  0.18967097692E+02  0.51100000000E-03 0. -1.
        -11    1    3    3    0    0 -0.30774945465E+01 -0.55079136181E+01  0.39454144186E+01  0.74413963947E+01  0.51100000000E-03 0.  1.
        -12    1    3    3    0    0 -0.11132580697E+02 -0.71960667722E+01 -0.20151274950E+02  0.24120356798E+02  0.00000000000E+00 0.  1.
</event>
<event>
 7    1  0.9978258E-013  0.5052886E+02  0.7816164E-02  0.1300439E+00
        -11   -1    0    0    0    0  0.00000000000E+00  0.00000000000E+00  0.45593999997E+02  0.45594000000E+02  0.51100000000E-03 0.  1.
         11   -1    0    0    0    0 -0.00000000000E+00 -0.00000000000E+00 -0.45593999997E+02  0.45594000000E+02  0.51100000000E-03 0. -1.
    9900012    2    1    2    0    0  0.11771641584E+02 -0.29933541324E+02 -0.24871212205E+02  0.50528860335E+02  0.30000001475E+02 0.  0.
        -12    1    1    2    0    0 -0.11771641584E+02  0.29933541324E+02  0.24871212205E+02  0.40659139665E+02  0.00000000000E+00 0.  1.
         11    1    3    3    0    0 -0.17675803863E+01 -0.21127810764E+02 -0.86473882473E+01  0.22897293549E+02  0.51100000000E-03 0. -1.
        -11    1    3    3    0    0  0.87138471452E+01  0.55597535438E+00 -0.55132315548E+00  0.87489541173E+01  0.51100000000E-03 0.  1.
         12    1    3    3    0    0  0.48253748247E+01 -0.93617059143E+01 -0.15672500802E+02  0.18882612669E+02  0.00000000000E+00 0. -1.
</event>
<event>
 7    1  0.9978258E-013  0.5052886E+02  0.7816164E-02  0.1300439E+00
        -11   -1    0    0    0    0  0.00000000000E+00  0.00000000000E+00  0.45593999997E+02  0.45594000000E+02  0.51100000000E-03 0.  1.
         11   -1    0    0    0    0 -0.00000000000E+00 -0.00000000000E+00 -0.45593999997E+02  0.45594000000E+02  0.51100000000E-03 0. -1.
    9900012    2    1    2    0    0 -0.12284692015E+02  0.89857775785E+01 -0.37702891237E+02  0.50528857557E+02  0.29999993030E+02 0.  0.
        -12    1    1    2    0    0  0.12284692015E+02 -0.89857775785E+01  0.37702891237E+02  0.40659142443E+02  0.00000000000E+00 0.  1.
         11    1    3    3    0    0  0.26249770902E+01  0.33987959152E+00 -0.29893972011E+01  0.39928083786E+01  0.51100000000E-03 0. -1.
        -11    1    3    3    0    0 -0.20942589232E+02  0.59988231334E+01 -0.16987068645E+02  0.27624960166E+02  0.51100000000E-03 0.  1.
        -12    1    3    3    0    0  0.60329201267E+01  0.26470748536E+01 -0.17726425390E+02  0.18911089013E+02  0.00000000000E+00 0.  1.
</event>
<event>
 7    1  0.9978258E-013  0.5052888E+02  0.7816164E-02  0.1300439E+00
        -11   -1    0    0    0    0  0.00000000000E+00  0.00000000000E+00  0.45593999997E+02  0.45594000000E+02  0.51100000000E-03 0.  1.
         11   -1    0    0    0    0 -0.00000000000E+00 -0.00000000000E+00 -0.45593999997E+02  0.45594000000E+02  0.51100000000E-03 0. -1.
    9900012    2    1    2    0    0 -0.37158202678E+02  0.16251240640E+02  0.28860727447E+01  0.50528877229E+02  0.30000052826E+02 0.  0.
        -12    1    1    2    0    0  0.37158202678E+02 -0.16251240640E+02 -0.28860727447E+01  0.40659122771E+02  0.00000000000E+00 0.  1.
         11    1    3    3    0    0  0.48069821639E+00 -0.15971362646E+01 -0.24518321668E+01  0.29653661255E+01  0.51100000000E-03 0. -1.
        -11    1    3    3    0    0 -0.36295744879E+02  0.21207435079E+02  0.11824332151E+01  0.42053948061E+02  0.51100000000E-03 0.  1.
        -12    1    3    3    0    0 -0.13431560153E+01 -0.33590581744E+01  0.41554716964E+01  0.55095630426E+01  0.00000000000E+00 0.  1.
</event>
<event>
 7    1  0.9978258E-013  0.5052887E+02  0.7816164E-02  0.1300439E+00
        -11   -1    0    0    0    0  0.00000000000E+00  0.00000000000E+00  0.45593999997E+02  0.45594000000E+02  0.51100000000E-03 0.  1.
         11   -1    0    0    0    0 -0.00000000000E+00 -0.00000000000E+00 -0.45593999997E+02  0.45594000000E+02  0.51100000000E-03 0. -1.
    9900012    2    1    2    0    0  0.19700771438E+02  0.34947976994E+02 -0.66093118970E+01  0.50528874394E+02  0.30000044209E+02 0.  0.
        -12    1    1    2    0    0 -0.19700771438E+02 -0.34947976994E+02  0.66093118970E+01  0.40659125606E+02  0.00000000000E+00 0.  1.
         11    1    3    3    0    0  0.11299389069E+02  0.26311598587E+02 -0.18069751271E+02  0.33859892569E+02  0.51100000000E-03 0. -1.
        -11    1    3    3    0    0  0.66121321645E+01  0.64529351763E+01  0.93471688670E+01  0.13142687329E+02  0.51100000000E-03 0.  1.
         12    1    3    3    0    0  0.17892502044E+01  0.21834432314E+01  0.21132705068E+01  0.35262944961E+01  0.00000000000E+00 0. -1.
</event>
<event>
 7    1  0.9978258E-013  0.5052886E+02  0.7816164E-02  0.1300439E+00
        -11   -1    0    0    0    0  0.00000000000E+00  0.00000000000E+00  0.45593999997E+02  0.45594000000E+02  0.51100000000E-03 0. -1.
         11   -1    0    0    0    0 -0.00000000000E+00 -0.00000000000E+00 -0.45593999997E+02  0.45594000000E+02  0.51100000000E-03 0.  1.
    9900012    2    1    2    0    0  0.28022988322E+02  0.13521793932E+02  0.26173242293E+02  0.50528863293E+02  0.30000010466E+02 0.  0.
        -12    1    1    2    0    0 -0.28022988322E+02 -0.13521793932E+02 -0.26173242293E+02  0.40659136707E+02  0.00000000000E+00 0.  1.
         11    1    3    3    0    0  0.71501750643E+01 -0.18510691976E+01  0.18716351563E+01  0.76193489908E+01  0.51100000000E-03 0. -1.
        -11    1    3    3    0    0  0.66003662768E+01  0.19434187944E+02  0.13931813377E+02  0.24806207293E+02  0.51100000000E-03 0.  1.
        -12    1    3    3    0    0  0.14272446981E+02 -0.40613248141E+01  0.10369793760E+02  0.18103307010E+02  0.00000000000E+00 0.  1.
</event>
<event>
 7    1  0.9978258E-013  0.5052886E+02  0.7816164E-02  0.1300439E+00
        -11   -1    0    0    0    0  0.00000000000E+00  0.00000000000E+00  0.45593999997E+02  0.45594000000E+02  0.51100000000E-03 0.  1.
         11   -1    0    0    0    0 -0.00000000000E+00 -0.00000000000E+00 -0.45593999997E+02  0.45594000000E+02  0.51100000000E-03 0. -1.
    9900012    2    1    2    0    0  0.44528759716E+01  0.58662182592E+01 -0.39986562053E+02  0.50528858766E+02  0.29999996704E+02 0.  0.
        -12    1    1    2    0    0 -0.44528759716E+01 -0.58662182592E+01  0.39986562053E+02  0.40659141234E+02  0.00000000000E+00 0.  1.
         11    1    3    3    0    0 -0.53185246144E+01 -0.10746358202E+01 -0.31437199117E+02  0.31902022425E+02  0.51100000000E-03 0. -1.
        -11    1    3    3    0    0  0.54989409360E+01  0.92343418055E+01 -0.28015230726E+01  0.11106752531E+02  0.51100000000E-03 0.  1.
        -12    1    3    3    0    0  0.42724596500E+01 -0.22934877261E+01 -0.57478398636E+01  0.75200838099E+01  0.00000000000E+00 0.  1.
</event>
<event>
 7    1  0.9978258E-013  0.5052886E+02  0.7816164E-02  0.1300439E+00
        -11   -1    0    0    0    0  0.00000000000E+00  0.00000000000E+00  0.45593999997E+02  0.45594000000E+02  0.51100000000E-03 0.  1.
         11   -1    0    0    0    0 -0.00000000000E+00 -0.00000000000E+00 -0.45593999997E+02  0.45594000000E+02  0.51100000000E-03 0. -1.
    9900012    2    1    2    0    0  0.28472040921E+02 -0.39031935793E+01 -0.28762363247E+02  0.50528861127E+02  0.30000003882E+02 0.  0.
        -12    1    1    2    0    0 -0.28472040921E+02  0.39031935793E+01  0.28762363247E+02  0.40659138873E+02  0.00000000000E+00 0.  1.
         11    1    3    3    0    0  0.19305064928E+02 -0.56811736335E+01 -0.28342098761E+02  0.34759686825E+02  0.51100000000E-03 0. -1.
        -11    1    3    3    0    0 -0.14134616611E+01  0.28587498031E+01  0.32161096008E+01  0.45292036308E+01  0.51100000000E-03 0.  1.
         12    1    3    3    0    0  0.10580437654E+02 -0.10807697489E+01 -0.36363740869E+01  0.11239970672E+02  0.00000000000E+00 0. -1.
</event>
<event>
 7    1  0.9978258E-013  0.5052886E+02  0.7816164E-02  0.1300439E+00
        -11   -1    0    0    0    0  0.00000000000E+00  0.00000000000E+00  0.45593999997E+02  0.45594000000E+02  0.51100000000E-03 0.  1.
         11   -1    0    0    0    0 -0.00000000000E+00 -0.00000000000E+00 -0.45593999997E+02  0.45594000000E+02  0.51100000000E-03 0. -1.
    9900012    2    1    2    0    0  0.39986861473E+02  0.71926582002E+01  0.15755774920E+01  0.50528857524E+02  0.29999992931E+02 0.  0.
        -12    1    1    2    0    0 -0.39986861473E+02 -0.71926582002E+01 -0.15755774920E+01  0.40659142476E+02  0.00000000000E+00 0.  1.
         11    1    3    3    0    0  0.35545917324E+02 -0.43886522208E+01 -0.15035247712E+01  0.35847358253E+02  0.51100000000E-03 0. -1.
        -11    1    3    3    0    0  0.64221572482E+01  0.79738784929E+01  0.21255737680E+01  0.10456811466E+02  0.51100000000E-03 0.  1.
         12    1    3    3    0    0 -0.19812130992E+01  0.36074319282E+01  0.95352849517E+00  0.42246878053E+01  0.00000000000E+00 0. -1.
</event>
<event>
 7    1  0.9978258E-013  0.5052886E+02  0.7816164E-02  0.1300439E+00
        -11   -1    0    0    0    0  0.00000000000E+00  0.00000000000E+00  0.45593999997E+02  0.45594000000E+02  0.51100000000E-03 0. -1.
         11   -1    0    0    0    0 -0.00000000000E+00 -0.00000000000E+00 -0.45593999997E+02  0.45594000000E+02  0.51100000000E-03 0.  1.
    9900012    2    1    2    0    0 -0.19162864785E+02  0.15192743019E+02  0.32482778592E+02  0.50528859180E+02  0.29999997962E+02 0.  0.
        -12    1    1    2    0    0  0.19162864785E+02 -0.15192743019E+02 -0.32482778592E+02  0.40659140820E+02  0.00000000000E+00 0.  1.
         11    1    3    3    0    0 -0.11381496042E+02 -0.71269227020E+01  0.52368296038E+01  0.14413738721E+02  0.51100000000E-03 0. -1.
        -11    1    3    3    0    0 -0.19046684494E+01  0.77436885739E+01  0.97869498286E+01  0.12624454913E+02  0.51100000000E-03 0.  1.
         12    1    3    3    0    0 -0.58767002930E+01  0.14575977147E+02  0.17458999160E+02  0.23490665546E+02  0.00000000000E+00 0. -1.
</event>
<event>
 7    1  0.9978258E-013  0.5052887E+02  0.7816164E-02  0.1300439E+00
        -11   -1    0    0    0    0  0.00000000000E+00  0.00000000000E+00  0.45593999997E+02  0.45594000000E+02  0.51100000000E-03 0.  1.
         11   -1    0    0    0    0 -0.00000000000E+00 -0.00000000000E+00 -0.45593999997E+02  0.45594000000E+02  0.51100000000E-03 0. -1.
    9900012    2    1    2    0    0  0.33091273540E+02 -0.22076540625E+02 -0.84118344119E+01  0.50528868324E+02  0.30000025758E+02 0.  0.
        -12    1    1    2    0    0 -0.33091273540E+02  0.22076540625E+02  0.84118344119E+01  0.40659131676E+02  0.00000000000E+00 0.  1.
         11    1    3    3    0    0  0.28766564390E+02 -0.66514531249E+01  0.53796496510E+00  0.29530432812E+02  0.51100000000E-03 0. -1.
        -11    1    3    3    0    0  0.42889771202E+01 -0.72449502292E+01 -0.96282357048E+01  0.12790134933E+02  0.51100000000E-03 0.  1.
         12    1    3    3    0    0  0.35732029714E-01 -0.81801372707E+01  0.67843632776E+00  0.82083005791E+01  0.00000000000E+00 0. -1.
</event>
<event>
 7    1  0.9978258E-013  0.5052880E+02  0.7816164E-02  0.1300439E+00
        -11   -1    0    0    0    0  0.00000000000E+00  0.00000000000E+00  0.45593999997E+02  0.45594000000E+02  0.51100000000E-03 0.  1.
         11   -1    0    0    0    0 -0.00000000000E+00 -0.00000000000E+00 -0.45593999997E+02  0.45594000000E+02  0.51100000000E-03 0. -1.
    9900012    2    1    2    0    0  0.15503260883E+02  0.11815883654E+01 -0.37568913017E+02  0.50528800865E+02  0.29999820708E+02 0.  0.
        -12    1    1    2    0    0 -0.15503260883E+02 -0.11815883654E+01  0.37568913017E+02  0.40659199135E+02  0.00000000000E+00 0.  1.
         11    1    3    3    0    0  0.11857620723E+02 -0.39159872200E+01 -0.24230814393E+02  0.27259319352E+02  0.51100000000E-03 0. -1.
        -11    1    3    3    0    0  0.17616125275E+01  0.11387579199E+02 -0.11866123825E+02  0.16540409112E+02  0.51100000000E-03 0.  1.
        -12    1    3    3    0    0  0.18840276331E+01 -0.62900036132E+01 -0.14719747992E+01  0.67290724016E+01  0.00000000000E+00 0.  1.
</event>
<event>
 7    1  0.9978258E-013  0.5052887E+02  0.7816164E-02  0.1300439E+00
        -11   -1    0    0    0    0  0.00000000000E+00  0.00000000000E+00  0.45593999997E+02  0.45594000000E+02  0.51100000000E-03 0.  1.
         11   -1    0    0    0    0 -0.00000000000E+00 -0.00000000000E+00 -0.45593999997E+02  0.45594000000E+02  0.51100000000E-03 0. -1.
    9900012    2    1    2    0    0 -0.32304207170E+02 -0.14688126913E+02 -0.19845965783E+02  0.50528865344E+02  0.30000016699E+02 0.  0.
        -12    1    1    2    0    0  0.32304207170E+02  0.14688126913E+02  0.19845965783E+02  0.40659134656E+02  0.00000000000E+00 0.  1.
         11    1    3    3    0    0 -0.54096461010E+01 -0.50017651697E+01 -0.96861979400E+01  0.12169813332E+02  0.51100000000E-03 0. -1.
        -11    1    3    3    0    0 -0.26442083098E+02 -0.13542294669E+01 -0.17850807315E+01  0.26536846261E+02  0.51100000000E-03 0.  1.
        -12    1    3    3    0    0 -0.45247797183E+00 -0.83321322763E+01 -0.83746871120E+01  0.11822205751E+02  0.00000000000E+00 0.  1.
</event>
<event>
 7    1  0.9978258E-013  0.5052886E+02  0.7816164E-02  0.1300439E+00
        -11   -1    0    0    0    0  0.00000000000E+00  0.00000000000E+00  0.45593999997E+02  0.45594000000E+02  0.51100000000E-03 0.  1.
         11   -1    0    0    0    0 -0.00000000000E+00 -0.00000000000E+00 -0.45593999997E+02  0.45594000000E+02  0.51100000000E-03 0. -1.
    9900012    2    1    2    0    0  0.12435960558E+02  0.27960949619E+02 -0.26771208111E+02  0.50528863237E+02  0.30000010296E+02 0.  0.
        -12    1    1    2    0    0 -0.12435960558E+02 -0.27960949619E+02  0.26771208111E+02  0.40659136763E+02  0.00000000000E+00 0.  1.
         11    1    3    3    0    0  0.15972991183E+02  0.13364611748E+02 -0.18255410578E+02  0.27694932932E+02  0.51100000000E-03 0. -1.
        -11    1    3    3    0    0 -0.84858049764E+01  0.74618774680E+01 -0.85185782320E+01  0.14151136944E+02  0.51100000000E-03 0.  1.
         12    1    3    3    0    0  0.49487743520E+01  0.71344604029E+01  0.27806988509E-02  0.86827933615E+01  0.00000000000E+00 0. -1.
</event>
<event>
 7    1  0.9978258E-013  0.5052886E+02  0.7816164E-02  0.1300439E+00
        -11   -1    0    0    0    0  0.00000000000E+00  0.00000000000E+00  0.45593999997E+02  0.45594000000E+02  0.51100000000E-03 0.  1.
         11   -1    0    0    0    0 -0.00000000000E+00 -0.00000000000E+00 -0.45593999997E+02  0.45594000000E+02  0.51100000000E-03 0. -1.
    9900012    2    1    2    0    0  0.15170695635E+02  0.29977328403E+02 -0.22899236615E+02  0.50528864965E+02  0.30000015547E+02 0.  0.
        -12    1    1    2    0    0 -0.15170695635E+02 -0.29977328403E+02  0.22899236615E+02  0.40659135035E+02  0.00000000000E+00 0.  1.
         11    1    3    3    0    0  0.10468813548E+02  0.15670459660E+02 -0.50192521143E+01  0.19502621750E+02  0.51100000000E-03 0. -1.
        -11    1    3    3    0    0 -0.60928250844E+01  0.12520961963E+01  0.23543776846E+00  0.62246038909E+01  0.51100000000E-03 0.  1.
        -12    1    3    3    0    0  0.10794707172E+02  0.13054772546E+02 -0.18115422270E+02  0.24801639324E+02  0.00000000000E+00 0.  1.
</event>
<event>
 7    1  0.9978258E-013  0.5052884E+02  0.7816164E-02  0.1300439E+00
        -11   -1    0    0    0    0  0.00000000000E+00  0.00000000000E+00  0.45593999997E+02  0.45594000000E+02  0.51100000000E-03 0.  1.
         11   -1    0    0    0    0 -0.00000000000E+00 -0.00000000000E+00 -0.45593999997E+02  0.45594000000E+02  0.51100000000E-03 0. -1.
    9900012    2    1    2    0    0 -0.19730753862E+02 -0.20376665195E+01 -0.35492426105E+02  0.50528843054E+02  0.29999948946E+02 0.  0.
        -12    1    1    2    0    0  0.19730753862E+02  0.20376665195E+01  0.35492426105E+02  0.40659156946E+02  0.00000000000E+00 0.  1.
         11    1    3    3    0    0  0.19285615821E+01  0.63974486033E+01 -0.44535551049E+01  0.80299969951E+01  0.51100000000E-03 0. -1.
        -11    1    3    3    0    0 -0.11715722654E+02 -0.13054365575E+01 -0.27249450765E+02  0.29689979609E+02  0.51100000000E-03 0.  1.
        -12    1    3    3    0    0 -0.99435927899E+01 -0.71296785652E+01 -0.37894202349E+01  0.12808866450E+02  0.00000000000E+00 0.  1.
</event>
<event>
 7    1  0.9978258E-013  0.5052886E+02  0.7816164E-02  0.1300439E+00
        -11   -1    0    0    0    0  0.00000000000E+00  0.00000000000E+00  0.45593999997E+02  0.45594000000E+02  0.51100000000E-03 0.  1.
         11   -1    0    0    0    0 -0.00000000000E+00 -0.00000000000E+00 -0.45593999997E+02  0.45594000000E+02  0.51100000000E-03 0. -1.
    9900012    2    1    2    0    0  0.12692201327E+02 -0.36817549706E+02 -0.11685106029E+02  0.50528860267E+02  0.30000001267E+02 0.  0.
        -12    1    1    2    0    0 -0.12692201327E+02  0.36817549706E+02  0.11685106029E+02  0.40659139733E+02  0.00000000000E+00 0.  1.
         11    1    3    3    0    0  0.82116593860E+01 -0.20878605735E+02 -0.59289263570E+01  0.23205596207E+02  0.51100000000E-03 0. -1.
        -11    1    3    3    0    0 -0.72881674813E+01 -0.56028167801E+01 -0.70813002404E+01  0.11604040437E+02  0.51100000000E-03 0.  1.
        -12    1    3    3    0    0  0.11768709423E+02 -0.10336127191E+02  0.13251205681E+01  0.15719223623E+02  0.00000000000E+00 0.  1.
</event>
<event>
 7    1  0.9978258E-013  0.5052886E+02  0.7816164E-02  0.1300439E+00
        -11   -1    0    0    0    0  0.00000000000E+00  0.00000000000E+00  0.45593999997E+02  0.45594000000E+02  0.51100000000E-03 0.  1.
         11   -1    0    0    0    0 -0.00000000000E+00 -0.00000000000E+00 -0.45593999997E+02  0.45594000000E+02  0.51100000000E-03 0. -1.
    9900012    2    1    2    0    0  0.14617248625E+02  0.34676226726E+02 -0.15396782018E+02  0.50528861374E+02  0.30000004632E+02 0.  0.
        -12    1    1    2    0    0 -0.14617248625E+02 -0.34676226726E+02  0.15396782018E+02  0.40659138626E+02  0.00000000000E+00 0.  1.
         11    1    3    3    0    0  0.27861464929E+01  0.35953070429E+01 -0.28925788634E+01  0.53903485745E+01  0.51100000000E-03 0. -1.
        -11    1    3    3    0    0  0.84930044050E+01  0.69583611755E+00 -0.11809210376E+02  0.14562718211E+02  0.51100000000E-03 0.  1.
        -12    1    3    3    0    0  0.33380977272E+01  0.30385083566E+02 -0.69499277809E+00  0.30575794588E+02  0.00000000000E+00 0.  1.
</event>
<event>
 7    1  0.9978258E-013  0.5052886E+02  0.7816164E-02  0.1300439E+00
        -11   -1    0    0    0    0  0.00000000000E+00  0.00000000000E+00  0.45593999997E+02  0.45594000000E+02  0.51100000000E-03 0.  1.
         11   -1    0    0    0    0 -0.00000000000E+00 -0.00000000000E+00 -0.45593999997E+02  0.45594000000E+02  0.51100000000E-03 0. -1.
    9900012    2    1    2    0    0 -0.13629431203E+02  0.35991140050E+02 -0.13116477899E+02  0.50528861427E+02  0.30000004794E+02 0.  0.
        -12    1    1    2    0    0  0.13629431203E+02 -0.35991140050E+02  0.13116477899E+02  0.40659138573E+02  0.00000000000E+00 0.  1.
         11    1    3    3    0    0  0.96542760554E+00  0.40669337710E+01  0.56302159761E+01  0.70122273892E+01  0.51100000000E-03 0.  1.
        -11    1    3    3    0    0 -0.14527015465E+02  0.20027683464E+02 -0.48309811359E+01  0.25208741783E+02  0.51100000000E-03 0. -1.
         12    1    3    3    0    0 -0.67843343432E-01  0.11896522815E+02 -0.13915712739E+02  0.18307892255E+02  0.00000000000E+00 0. -1.
</event>
<event>
 7    1  0.9978258E-013  0.5052889E+02  0.7816164E-02  0.1300439E+00
        -11   -1    0    0    0    0  0.00000000000E+00  0.00000000000E+00  0.45593999997E+02  0.45594000000E+02  0.51100000000E-03 0.  1.
         11   -1    0    0    0    0 -0.00000000000E+00 -0.00000000000E+00 -0.45593999997E+02  0.45594000000E+02  0.51100000000E-03 0. -1.
    9900012    2    1    2    0    0 -0.20256518082E+02 -0.34847658239E+02 -0.53364296799E+01  0.50528889198E+02  0.30000089205E+02 0.  0.
        -12    1    1    2    0    0  0.20256518082E+02  0.34847658239E+02  0.53364296799E+01  0.40659110802E+02  0.00000000000E+00 0.  1.
         11    1    3    3    0    0  0.38517067923E+01 -0.17972310535E+02 -0.87232921219E+01  0.20345402844E+02  0.51100000000E-03 0. -1.
        -11    1    3    3    0    0 -0.19184858958E+02 -0.15247882908E+02  0.44052296807E+01  0.24899052095E+02  0.51100000000E-03 0.  1.
        -12    1    3    3    0    0 -0.49233659162E+01 -0.16274647957E+01 -0.10183672387E+01  0.52844342592E+01  0.00000000000E+00 0.  1.
</event>
<event>
 7    1  0.9978258E-013  0.5052886E+02  0.7816164E-02  0.1300439E+00
        -11   -1    0    0    0    0  0.00000000000E+00  0.00000000000E+00  0.45593999997E+02  0.45594000000E+02  0.51100000000E-03 0.  1.
         11   -1    0    0    0    0 -0.00000000000E+00 -0.00000000000E+00 -0.45593999997E+02  0.45594000000E+02  0.51100000000E-03 0. -1.
    9900012    2    1    2    0    0 -0.89086398977E+01  0.31164018427E+02 -0.24548024304E+02  0.50528863185E+02  0.30000010136E+02 0.  0.
        -12    1    1    2    0    0  0.89086398977E+01 -0.31164018427E+02  0.24548024304E+02  0.40659136815E+02  0.00000000000E+00 0.  1.
         11    1    3    3    0    0  0.48433173826E+01  0.88465890870E+01  0.12125017006E+01  0.10158248982E+02  0.51100000000E-03 0.  1.
        -11    1    3    3    0    0 -0.48067537932E+01  0.20886754906E+02 -0.21506318404E+02  0.30362528618E+02  0.51100000000E-03 0. -1.
        -12    1    3    3    0    0 -0.89452034871E+01  0.14306744339E+01 -0.42542076008E+01  0.10008085585E+02  0.00000000000E+00 0.  1.
</event>
<event>
 7    1  0.9978258E-013  0.5052886E+02  0.7816164E-02  0.1300439E+00
        -11   -1    0    0    0    0  0.00000000000E+00  0.00000000000E+00  0.45593999997E+02  0.45594000000E+02  0.51100000000E-03 0. -1.
         11   -1    0    0    0    0 -0.00000000000E+00 -0.00000000000E+00 -0.45593999997E+02  0.45594000000E+02  0.51100000000E-03 0.  1.
    9900012    2    1    2    0    0 -0.20424553416E+02 -0.34816200755E+02  0.48821356145E+01  0.50528862461E+02  0.30000007937E+02 0.  0.
        -12    1    1    2    0    0  0.20424553416E+02  0.34816200755E+02 -0.48821356145E+01  0.40659137539E+02  0.00000000000E+00 0.  1.
         11    1    3    3    0    0 -0.18674983237E+02 -0.26870566142E+02  0.71682216877E+01  0.33498742157E+02  0.51100000000E-03 0. -1.
        -11    1    3    3    0    0  0.19658015043E+01  0.39377653278E+01 -0.99872728579E+00  0.45130729868E+01  0.51100000000E-03 0.  1.
        -12    1    3    3    0    0 -0.37153716835E+01 -0.11883399941E+02 -0.12873587874E+01  0.12517047317E+02  0.00000000000E+00 0.  1.
</event>
<event>
 7    1  0.9978258E-013  0.5052886E+02  0.7816164E-02  0.1300439E+00
        -11   -1    0    0    0    0  0.00000000000E+00  0.00000000000E+00  0.45593999997E+02  0.45594000000E+02  0.51100000000E-03 0.  1.
         11   -1    0    0    0    0 -0.00000000000E+00 -0.00000000000E+00 -0.45593999997E+02  0.45594000000E+02  0.51100000000E-03 0. -1.
    9900012    2    1    2    0    0 -0.68032219132E+01 -0.27702963575E+01 -0.39990088499E+02  0.50528861439E+02  0.30000004831E+02 0.  0.
        -12    1    1    2    0    0  0.68032219132E+01  0.27702963575E+01  0.39990088499E+02  0.40659138561E+02  0.00000000000E+00 0.  1.
         11    1    3    3    0    0 -0.13655027709E+02 -0.19820355728E+01 -0.13248507000E+02  0.19128805104E+02  0.51100000000E-03 0. -1.
        -11    1    3    3    0    0  0.10731823352E+02  0.23603764804E+01 -0.14620487554E+02  0.18289397644E+02  0.51100000000E-03 0.  1.
        -12    1    3    3    0    0 -0.38800175568E+01 -0.31486372651E+01 -0.12121093946E+02  0.13110658691E+02  0.00000000000E+00 0.  1.
</event>
<event>
 7    1  0.9978258E-013  0.5052886E+02  0.7816164E-02  0.1300439E+00
        -11   -1    0    0    0    0  0.00000000000E+00  0.00000000000E+00  0.45593999997E+02  0.45594000000E+02  0.51100000000E-03 0.  1.
         11   -1    0    0    0    0 -0.00000000000E+00 -0.00000000000E+00 -0.45593999997E+02  0.45594000000E+02  0.51100000000E-03 0. -1.
    9900012    2    1    2    0    0 -0.37914939477E+02  0.60341209062E+01 -0.13387014759E+02  0.50528863084E+02  0.30000009829E+02 0.  0.
        -12    1    1    2    0    0  0.37914939477E+02 -0.60341209062E+01  0.13387014759E+02  0.40659136916E+02  0.00000000000E+00 0.  1.
         11    1    3    3    0    0 -0.24040014698E+02  0.90849786234E+01  0.76496946668E+00  0.25710782209E+02  0.51100000000E-03 0. -1.
        -11    1    3    3    0    0 -0.35769868038E+00 -0.55113416041E+01 -0.66068446238E+00  0.55623141626E+01  0.51100000000E-03 0.  1.
         12    1    3    3    0    0 -0.13517226098E+02  0.24604838868E+01 -0.13491299764E+02  0.19255766712E+02  0.00000000000E+00 0. -1.
</event>
<event>
 7    1  0.9978258E-013  0.5052886E+02  0.7816164E-02  0.1300439E+00
        -11   -1    0    0    0    0  0.00000000000E+00  0.00000000000E+00  0.45593999997E+02  0.45594000000E+02  0.51100000000E-03 0. -1.
         11   -1    0    0    0    0 -0.00000000000E+00 -0.00000000000E+00 -0.45593999997E+02  0.45594000000E+02  0.51100000000E-03 0.  1.
    9900012    2    1    2    0    0 -0.22311019527E+02  0.29661382374E+02  0.16600800445E+02  0.50528858690E+02  0.29999996474E+02 0.  0.
        -12    1    1    2    0    0  0.22311019527E+02 -0.29661382374E+02 -0.16600800445E+02  0.40659141310E+02  0.00000000000E+00 0.  1.
         11    1    3    3    0    0  0.38244747457E+00 -0.15292207738E-01  0.15322159447E+01  0.15792991752E+01  0.51100000000E-03 0. -1.
        -11    1    3    3    0    0 -0.13381625149E+02 -0.19577714703E+01  0.56276589932E+01  0.14648252686E+02  0.51100000000E-03 0.  1.
        -12    1    3    3    0    0 -0.93118418527E+01  0.31634446052E+02  0.94409255070E+01  0.34301306829E+02  0.00000000000E+00 0.  1.
</event>
<event>
 7    1  0.9978258E-013  0.5052886E+02  0.7816164E-02  0.1300439E+00
        -11   -1    0    0    0    0  0.00000000000E+00  0.00000000000E+00  0.45593999997E+02  0.45594000000E+02  0.51100000000E-03 0.  1.
         11   -1    0    0    0    0 -0.00000000000E+00 -0.00000000000E+00 -0.45593999997E+02  0.45594000000E+02  0.51100000000E-03 0. -1.
    9900012    2    1    2    0    0 -0.74002342902E+01 -0.30342760816E+02  0.26033042495E+02  0.50528857079E+02  0.29999991579E+02 0.  0.
        -12    1    1    2    0    0  0.74002342902E+01  0.30342760816E+02 -0.26033042495E+02  0.40659142921E+02  0.00000000000E+00 0.  1.
         11    1    3    3    0    0 -0.83756410717E+01 -0.33569568477E+02  0.17967519600E+02  0.38985882726E+02  0.51100000000E-03 0. -1.
        -11    1    3    3    0    0  0.15770770669E+00  0.55963925252E+01  0.65378738848E+01  0.86074546884E+01  0.51100000000E-03 0.  1.
         12    1    3    3    0    0  0.81769907480E+00 -0.23695848637E+01  0.15276490104E+01  0.29355196647E+01  0.00000000000E+00 0. -1.
</event>
<event>
 7    1  0.9978258E-013  0.5052887E+02  0.7816164E-02  0.1300439E+00
        -11   -1    0    0    0    0  0.00000000000E+00  0.00000000000E+00  0.45593999997E+02  0.45594000000E+02  0.51100000000E-03 0.  1.
         11   -1    0    0    0    0 -0.00000000000E+00 -0.00000000000E+00 -0.45593999997E+02  0.45594000000E+02  0.51100000000E-03 0. -1.
    9900012    2    1    2    0    0  0.16626637373E+02  0.24744617213E+02 -0.27648219140E+02  0.50528866058E+02  0.30000018869E+02 0.  0.
        -12    1    1    2    0    0 -0.16626637373E+02 -0.24744617213E+02  0.27648219140E+02  0.40659133942E+02  0.00000000000E+00 0.  1.
         11    1    3    3    0    0  0.22841000456E+02  0.11193446123E+02 -0.12546104718E+02  0.28362109967E+02  0.51100000000E-03 0. -1.
        -11    1    3    3    0    0 -0.40456189006E+01  0.13347883157E+02 -0.13841926954E+02  0.19650240689E+02  0.51100000000E-03 0.  1.
         12    1    3    3    0    0 -0.21687441822E+01  0.20328793238E+00 -0.12601874682E+01  0.25165154016E+01  0.00000000000E+00 0. -1.
</event>
<event>
 7    1  0.9978258E-013  0.5052889E+02  0.7816164E-02  0.1300439E+00
        -11   -1    0    0    0    0  0.00000000000E+00  0.00000000000E+00  0.45593999997E+02  0.45594000000E+02  0.51100000000E-03 0.  1.
         11   -1    0    0    0    0 -0.00000000000E+00 -0.00000000000E+00 -0.45593999997E+02  0.45594000000E+02  0.51100000000E-03 0. -1.
    9900012    2    1    2    0    0  0.13307075676E+02  0.16982705173E+01 -0.38382296451E+02  0.50528891960E+02  0.30000097600E+02 0.  0.
        -12    1    1    2    0    0 -0.13307075676E+02 -0.16982705173E+01  0.38382296451E+02  0.40659108040E+02  0.00000000000E+00 0.  1.
         11    1    3    3    0    0  0.12576721142E+02  0.68423215796E+01 -0.21982075569E+02  0.26233622050E+02  0.51100000000E-03 0. -1.
        -11    1    3    3    0    0 -0.81589476240E+01 -0.17363302656E+01 -0.66484065124E+01  0.10666985448E+02  0.51100000000E-03 0.  1.
        -12    1    3    3    0    0  0.88893021580E+01 -0.34077207967E+01 -0.97518143691E+01  0.13628284462E+02  0.00000000000E+00 0.  1.
</event>
<event>
 7    1  0.9978258E-013  0.5052886E+02  0.7816164E-02  0.1300439E+00
        -11   -1    0    0    0    0  0.00000000000E+00  0.00000000000E+00  0.45593999997E+02  0.45594000000E+02  0.51100000000E-03 0. -1.
         11   -1    0    0    0    0 -0.00000000000E+00 -0.00000000000E+00 -0.45593999997E+02  0.45594000000E+02  0.51100000000E-03 0.  1.
    9900012    2    1    2    0    0 -0.11657767374E+02  0.26990025401E+02  0.28085595165E+02  0.50528859982E+02  0.30000000400E+02 0.  0.
        -12    1    1    2    0    0  0.11657767374E+02 -0.26990025401E+02 -0.28085595165E+02  0.40659140018E+02  0.00000000000E+00 0.  1.
         11    1    3    3    0    0 -0.13330602924E+02  0.74582446104E+01  0.28692826411E+00  0.15277850473E+02  0.51100000000E-03 0. -1.
        -11    1    3    3    0    0  0.34649157637E+01  0.19050501732E+02  0.22763714410E+02  0.29885012154E+02  0.51100000000E-03 0.  1.
        -12    1    3    3    0    0 -0.17920802137E+01  0.48127905858E+00  0.50349524907E+01  0.53659973545E+01  0.00000000000E+00 0.  1.
</event>
<event>
 7    1  0.9978258E-013  0.5052887E+02  0.7816164E-02  0.1300439E+00
        -11   -1    0    0    0    0  0.00000000000E+00  0.00000000000E+00  0.45593999997E+02  0.45594000000E+02  0.51100000000E-03 0. -1.
         11   -1    0    0    0    0 -0.00000000000E+00 -0.00000000000E+00 -0.45593999997E+02  0.45594000000E+02  0.51100000000E-03 0.  1.
    9900012    2    1    2    0    0  0.29497165030E+00 -0.14357165540E+02  0.38038795477E+02  0.50528866070E+02  0.30000018906E+02 0.  0.
        -12    1    1    2    0    0 -0.29497165030E+00  0.14357165540E+02 -0.38038795477E+02  0.40659133930E+02  0.00000000000E+00 0.  1.
         11    1    3    3    0    0 -0.35258871156E+01  0.71518992640E+01  0.10003566660E+02  0.12792688897E+02  0.51100000000E-03 0. -1.
        -11    1    3    3    0    0 -0.23474836435E+01 -0.18002214291E+02  0.19689630213E+02  0.26781933034E+02  0.51100000000E-03 0.  1.
        -12    1    3    3    0    0  0.61683424094E+01 -0.35068505130E+01  0.83455986043E+01  0.10954244139E+02  0.00000000000E+00 0.  1.
</event>
<event>
 7    1  0.9978258E-013  0.5052874E+02  0.7816164E-02  0.1300439E+00
        -11   -1    0    0    0    0  0.00000000000E+00  0.00000000000E+00  0.45593999997E+02  0.45594000000E+02  0.51100000000E-03 0.  1.
         11   -1    0    0    0    0 -0.00000000000E+00 -0.00000000000E+00 -0.45593999997E+02  0.45594000000E+02  0.51100000000E-03 0. -1.
    9900012    2    1    2    0    0  0.33967403410E+02 -0.89497713202E+00 -0.22329125249E+02  0.50528741364E+02  0.29999639848E+02 0.  0.
        -12    1    1    2    0    0 -0.33967403410E+02  0.89497713202E+00  0.22329125249E+02  0.40659258636E+02  0.00000000000E+00 0.  1.
         11    1    3    3    0    0  0.12378119038E+02  0.80660100726E+01  0.18882269634E+01  0.14894420121E+02  0.51100000000E-03 0. -1.
        -11    1    3    3    0    0  0.87686285137E+01 -0.66653279525E+01 -0.42736866116E+01  0.11814391234E+02  0.51100000000E-03 0.  1.
         12    1    3    3    0    0  0.12820655858E+02 -0.22956592522E+01 -0.19943665600E+02  0.23819930008E+02  0.00000000000E+00 0. -1.
</event>
<event>
 7    1  0.9978258E-013  0.5052886E+02  0.7816164E-02  0.1300439E+00
        -11   -1    0    0    0    0  0.00000000000E+00  0.00000000000E+00  0.45593999997E+02  0.45594000000E+02  0.51100000000E-03 0. -1.
         11   -1    0    0    0    0 -0.00000000000E+00 -0.00000000000E+00 -0.45593999997E+02  0.45594000000E+02  0.51100000000E-03 0.  1.
    9900012    2    1    2    0    0  0.14284264882E+02  0.37818881082E+02  0.43425648972E+01  0.50528857616E+02  0.29999993210E+02 0.  0.
        -12    1    1    2    0    0 -0.14284264882E+02 -0.37818881082E+02 -0.43425648972E+01  0.40659142384E+02  0.00000000000E+00 0.  1.
         11    1    3    3    0    0 -0.62987169882E+01  0.33767577094E+01  0.21785521764E+01  0.74714401671E+01  0.51100000000E-03 0.  1.
        -11    1    3    3    0    0  0.18322640453E+02  0.16272022990E+02  0.32260071423E+01  0.24716492625E+02  0.51100000000E-03 0. -1.
         12    1    3    3    0    0  0.22603414173E+01  0.18170100383E+02 -0.10619944215E+01  0.18340924824E+02  0.00000000000E+00 0. -1.
</event>
<event>
 7    1  0.9978258E-013  0.5052888E+02  0.7816164E-02  0.1300439E+00
        -11   -1    0    0    0    0  0.00000000000E+00  0.00000000000E+00  0.45593999997E+02  0.45594000000E+02  0.51100000000E-03 0.  1.
         11   -1    0    0    0    0 -0.00000000000E+00 -0.00000000000E+00 -0.45593999997E+02  0.45594000000E+02  0.51100000000E-03 0. -1.
    9900012    2    1    2    0    0 -0.12842285928E+02 -0.34705932744E+02 -0.16844530202E+02  0.50528877122E+02  0.30000052500E+02 0.  0.
        -12    1    1    2    0    0  0.12842285928E+02  0.34705932744E+02  0.16844530202E+02  0.40659122878E+02  0.00000000000E+00 0.  1.
         11    1    3    3    0    0 -0.20737111930E+01 -0.93334530261E+01  0.25559631213E+00  0.95644630397E+01  0.51100000000E-03 0. -1.
        -11    1    3    3    0    0 -0.82188219787E+00  0.62633283496E+00 -0.12747836888E+02  0.12789649282E+02  0.51100000000E-03 0.  1.
        -12    1    3    3    0    0 -0.99466925367E+01 -0.25998812553E+02 -0.43522896262E+01  0.28174764801E+02  0.00000000000E+00 0.  1.
</event>
<event>
 7    1  0.9978258E-013  0.5052887E+02  0.7816164E-02  0.1300439E+00
        -11   -1    0    0    0    0  0.00000000000E+00  0.00000000000E+00  0.45593999997E+02  0.45594000000E+02  0.51100000000E-03 0. -1.
         11   -1    0    0    0    0 -0.00000000000E+00 -0.00000000000E+00 -0.45593999997E+02  0.45594000000E+02  0.51100000000E-03 0.  1.
    9900012    2    1    2    0    0 -0.20775161239E+01  0.35565682762E+02 -0.19594162527E+02  0.50528867339E+02  0.30000022764E+02 0.  0.
        -12    1    1    2    0    0  0.20775161239E+01 -0.35565682762E+02  0.19594162527E+02  0.40659132661E+02  0.00000000000E+00 0.  1.
         11    1    3    3    0    0  0.94762923527E+01  0.95820752898E+01 -0.10662729759E+02  0.17184588729E+02  0.51100000000E-03 0. -1.
        -11    1    3    3    0    0 -0.13910112334E+02  0.21742075560E+02 -0.11015783150E+02  0.28063438019E+02  0.51100000000E-03 0.  1.
         12    1    3    3    0    0  0.23563038573E+01  0.42415319122E+01  0.20843503815E+01  0.52808405906E+01  0.00000000000E+00 0. -1.
</event>
<event>
 7    1  0.9978258E-013  0.5052886E+02  0.7816164E-02  0.1300439E+00
        -11   -1    0    0    0    0  0.00000000000E+00  0.00000000000E+00  0.45593999997E+02  0.45594000000E+02  0.51100000000E-03 0.  1.
         11   -1    0    0    0    0 -0.00000000000E+00 -0.00000000000E+00 -0.45593999997E+02  0.45594000000E+02  0.51100000000E-03 0. -1.
    9900012    2    1    2    0    0  0.48425823465E+01  0.40343701992E+02 -0.14494831684E+01  0.50528857170E+02  0.29999991855E+02 0.  0.
        -12    1    1    2    0    0 -0.48425823465E+01 -0.40343701992E+02  0.14494831684E+01  0.40659142830E+02  0.00000000000E+00 0.  1.
         11    1    3    3    0    0 -0.24271843564E+01  0.12889598567E+02 -0.90822541398E+01  0.15953692853E+02  0.51100000000E-03 0. -1.
        -11    1    3    3    0    0  0.84825291702E+01  0.29011119779E+02  0.96736844231E+01  0.31736076357E+02  0.51100000000E-03 0.  1.
        -12    1    3    3    0    0 -0.12127624672E+01 -0.15570163544E+01 -0.20409134517E+01  0.28390879604E+01  0.00000000000E+00 0.  1.
</event>
<event>
 7    1  0.9978258E-013  0.5052886E+02  0.7816164E-02  0.1300439E+00
        -11   -1    0    0    0    0  0.00000000000E+00  0.00000000000E+00  0.45593999997E+02  0.45594000000E+02  0.51100000000E-03 0. -1.
         11   -1    0    0    0    0 -0.00000000000E+00 -0.00000000000E+00 -0.45593999997E+02  0.45594000000E+02  0.51100000000E-03 0.  1.
    9900012    2    1    2    0    0  0.40337016131E+02 -0.33865190659E+01  0.38238993366E+01  0.50528860956E+02  0.30000003360E+02 0.  0.
        -12    1    1    2    0    0 -0.40337016131E+02  0.33865190659E+01 -0.38238993366E+01  0.40659139044E+02  0.00000000000E+00 0.  1.
         11    1    3    3    0    0  0.11707124181E+02 -0.14865879763E+01  0.70568837456E+01  0.13750138503E+02  0.51100000000E-03 0. -1.
        -11    1    3    3    0    0  0.18767761228E+02 -0.38774538376E+01 -0.12680208951E+02  0.22979364853E+02  0.51100000000E-03 0.  1.
        -12    1    3    3    0    0  0.98621307218E+01  0.19775227480E+01  0.94472245419E+01  0.13799357599E+02  0.00000000000E+00 0.  1.
</event>
<event>
 7    1  0.9978258E-013  0.5052886E+02  0.7816164E-02  0.1300439E+00
        -11   -1    0    0    0    0  0.00000000000E+00  0.00000000000E+00  0.45593999997E+02  0.45594000000E+02  0.51100000000E-03 0.  1.
         11   -1    0    0    0    0 -0.00000000000E+00 -0.00000000000E+00 -0.45593999997E+02  0.45594000000E+02  0.51100000000E-03 0. -1.
    9900012    2    1    2    0    0  0.17596203594E+02 -0.33301621122E+01 -0.36502730517E+02  0.50528859628E+02  0.29999999326E+02 0.  0.
        -12    1    1    2    0    0 -0.17596203594E+02  0.33301621122E+01  0.36502730517E+02  0.40659140372E+02  0.00000000000E+00 0.  1.
         11    1    3    3    0    0  0.13483252282E+02 -0.35528068694E+00 -0.86267026158E+01  0.16010756220E+02  0.51100000000E-03 0. -1.
        -11    1    3    3    0    0 -0.68180342055E+01  0.21479337203E+01 -0.52364409177E+01  0.88611242763E+01  0.51100000000E-03 0.  1.
        -12    1    3    3    0    0  0.10930985517E+02 -0.51228151456E+01 -0.22639586983E+02  0.25656979132E+02  0.00000000000E+00 0.  1.
</event>
<event>
 7    1  0.9978258E-013  0.5052886E+02  0.7816164E-02  0.1300439E+00
        -11   -1    0    0    0    0  0.00000000000E+00  0.00000000000E+00  0.45593999997E+02  0.45594000000E+02  0.51100000000E-03 0.  1.
         11   -1    0    0    0    0 -0.00000000000E+00 -0.00000000000E+00 -0.45593999997E+02  0.45594000000E+02  0.51100000000E-03 0. -1.
    9900012    2    1    2    0    0 -0.39441638846E+02 -0.91087710762E+01 -0.38148058995E+01  0.50528864134E+02  0.30000013020E+02 0.  0.
        -12    1    1    2    0    0  0.39441638846E+02  0.91087710762E+01  0.38148058995E+01  0.40659135866E+02  0.00000000000E+00 0.  1.
         11    1    3    3    0    0 -0.18193757465E+02  0.71091077470E+01 -0.55932070610E+01  0.20318370731E+02  0.51100000000E-03 0. -1.
        -11    1    3    3    0    0 -0.21962445208E+02 -0.11196527593E+02  0.34010669954E+01  0.24885306641E+02  0.51100000000E-03 0.  1.
        -12    1    3    3    0    0  0.71456382740E+00 -0.50213512299E+01 -0.16226658339E+01  0.53251867616E+01  0.00000000000E+00 0.  1.
</event>
<event>
 7    1  0.9978258E-013  0.5052886E+02  0.7816164E-02  0.1300439E+00
        -11   -1    0    0    0    0  0.00000000000E+00  0.00000000000E+00  0.45593999997E+02  0.45594000000E+02  0.51100000000E-03 0.  1.
         11   -1    0    0    0    0 -0.00000000000E+00 -0.00000000000E+00 -0.45593999997E+02  0.45594000000E+02  0.51100000000E-03 0. -1.
    9900012    2    1    2    0    0  0.68436688585E+01  0.28880525288E+02 -0.27789301508E+02  0.50528858068E+02  0.29999994582E+02 0.  0.
        -12    1    1    2    0    0 -0.68436688585E+01 -0.28880525288E+02  0.27789301508E+02  0.40659141932E+02  0.00000000000E+00 0.  1.
         11    1    3    3    0    0 -0.70732701130E+01  0.38025312063E+01 -0.39780423629E+01  0.89618756390E+01  0.51100000000E-03 0. -1.
        -11    1    3    3    0    0  0.12815435405E+02  0.18968469445E+02 -0.74597710390E+01  0.24076677552E+02  0.51100000000E-03 0.  1.
        -12    1    3    3    0    0  0.11015035670E+01  0.61095246365E+01 -0.16351488107E+02  0.17490304877E+02  0.00000000000E+00 0.  1.
</event>
<event>
 7    1  0.9978258E-013  0.5052886E+02  0.7816164E-02  0.1300439E+00
        -11   -1    0    0    0    0  0.00000000000E+00  0.00000000000E+00  0.45593999997E+02  0.45594000000E+02  0.51100000000E-03 0.  1.
         11   -1    0    0    0    0 -0.00000000000E+00 -0.00000000000E+00 -0.45593999997E+02  0.45594000000E+02  0.51100000000E-03 0. -1.
    9900012    2    1    2    0    0  0.79659935972E+01 -0.27578857271E+02 -0.28794354271E+02  0.50528864984E+02  0.30000015605E+02 0.  0.
        -12    1    1    2    0    0 -0.79659935972E+01  0.27578857271E+02  0.28794354271E+02  0.40659135016E+02  0.00000000000E+00 0.  1.
         11    1    3    3    0    0  0.18876963604E+01 -0.19277578128E+02 -0.15957068556E+02  0.25096144189E+02  0.51100000000E-03 0. -1.
        -11    1    3    3    0    0  0.12963314724E+01  0.55478874312E+01  0.36700256185E+00  0.57091349062E+01  0.51100000000E-03 0.  1.
        -12    1    3    3    0    0  0.47819657644E+01 -0.13849166575E+02 -0.13204288278E+02  0.19723585888E+02  0.00000000000E+00 0.  1.
</event>
<event>
 7    1  0.9978258E-013  0.5052886E+02  0.7816164E-02  0.1300439E+00
        -11   -1    0    0    0    0  0.00000000000E+00  0.00000000000E+00  0.45593999997E+02  0.45594000000E+02  0.51100000000E-03 0. -1.
         11   -1    0    0    0    0 -0.00000000000E+00 -0.00000000000E+00 -0.45593999997E+02  0.45594000000E+02  0.51100000000E-03 0.  1.
    9900012    2    1    2    0    0  0.10955056105E+02 -0.26758767672E+02  0.28585320198E+02  0.50528862867E+02  0.30000009169E+02 0.  0.
        -12    1    1    2    0    0 -0.10955056105E+02  0.26758767672E+02 -0.28585320198E+02  0.40659137133E+02  0.00000000000E+00 0.  1.
         11    1    3    3    0    0 -0.74028907009E+01 -0.14436770477E+01  0.10322280169E+01  0.76126532226E+01  0.51100000000E-03 0. -1.
        -11    1    3    3    0    0  0.85388619677E+01 -0.52736288993E+01  0.50967807330E+01  0.11256131643E+02  0.51100000000E-03 0.  1.
         12    1    3    3    0    0  0.98190848379E+01 -0.20041461725E+02  0.22456311448E+02  0.31660078001E+02  0.00000000000E+00 0. -1.
</event>
<event>
 7    1  0.9978258E-013  0.5052886E+02  0.7816164E-02  0.1300439E+00
        -11   -1    0    0    0    0  0.00000000000E+00  0.00000000000E+00  0.45593999997E+02  0.45594000000E+02  0.51100000000E-03 0. -1.
         11   -1    0    0    0    0 -0.00000000000E+00 -0.00000000000E+00 -0.45593999997E+02  0.45594000000E+02  0.51100000000E-03 0.  1.
    9900012    2    1    2    0    0 -0.10238181330E+01  0.34671337286E+02  0.21213568870E+02  0.50528864041E+02  0.30000012739E+02 0.  0.
        -12    1    1    2    0    0  0.10238181330E+01 -0.34671337286E+02 -0.21213568870E+02  0.40659135959E+02  0.00000000000E+00 0.  1.
         11    1    3    3    0    0 -0.93067309423E+00  0.35007397066E+02  0.11300337215E+02  0.36797848078E+02  0.51100000000E-03 0. -1.
        -11    1    3    3    0    0  0.28617873922E+01 -0.35746790353E+01  0.73291702051E+01  0.86420422031E+01  0.51100000000E-03 0.  1.
         12    1    3    3    0    0 -0.29549324310E+01  0.32386192548E+01  0.25840614501E+01  0.50889737597E+01  0.00000000000E+00 0. -1.
</event>
<event>
 7    1  0.9978258E-013  0.5052886E+02  0.7816164E-02  0.1300439E+00
        -11   -1    0    0    0    0  0.00000000000E+00  0.00000000000E+00  0.45593999997E+02  0.45594000000E+02  0.51100000000E-03 0.  1.
         11   -1    0    0    0    0 -0.00000000000E+00 -0.00000000000E+00 -0.45593999997E+02  0.45594000000E+02  0.51100000000E-03 0. -1.
    9900012    2    1    2    0    0  0.15880861242E+02  0.19712662789E+02 -0.31817834917E+02  0.50528862690E+02  0.30000008632E+02 0.  0.
        -12    1    1    2    0    0 -0.15880861242E+02 -0.19712662789E+02  0.31817834917E+02  0.40659137310E+02  0.00000000000E+00 0.  1.
         11    1    3    3    0    0 -0.40739031471E+01  0.10787635168E+02 -0.85273289778E+01  0.14341725807E+02  0.51100000000E-03 0. -1.
        -11    1    3    3    0    0  0.15608735735E+02  0.67721380138E+01 -0.57056851549E+01  0.17945732859E+02  0.51100000000E-03 0.  1.
        -12    1    3    3    0    0  0.43460286540E+01  0.21528896074E+01 -0.17584820784E+02  0.18241404023E+02  0.00000000000E+00 0.  1.
</event>
<event>
 7    1  0.9978258E-013  0.5052886E+02  0.7816164E-02  0.1300439E+00
        -11   -1    0    0    0    0  0.00000000000E+00  0.00000000000E+00  0.45593999997E+02  0.45594000000E+02  0.51100000000E-03 0.  1.
         11   -1    0    0    0    0 -0.00000000000E+00 -0.00000000000E+00 -0.45593999997E+02  0.45594000000E+02  0.51100000000E-03 0. -1.
    9900012    2    1    2    0    0 -0.35637545100E+02 -0.17990724537E+02 -0.77113638151E+01  0.50528856846E+02  0.29999990870E+02 0.  0.
        -12    1    1    2    0    0  0.35637545100E+02  0.17990724537E+02  0.77113638151E+01  0.40659143154E+02  0.00000000000E+00 0.  1.
         11    1    3    3    0    0 -0.12655910892E+02 -0.15558291505E+02 -0.95813434855E+01  0.22226890433E+02  0.51100000000E-03 0. -1.
        -11    1    3    3    0    0 -0.23841477427E+01 -0.11849649773E+01  0.66128620106E+01  0.71286917937E+01  0.51100000000E-03 0.  1.
         12    1    3    3    0    0 -0.20597486465E+02 -0.12474680549E+01 -0.47428823402E+01  0.21173274620E+02  0.00000000000E+00 0. -1.
</event>
<event>
 7    1  0.9978258E-013  0.5052886E+02  0.7816164E-02  0.1300439E+00
        -11   -1    0    0    0    0  0.00000000000E+00  0.00000000000E+00  0.45593999997E+02  0.45594000000E+02  0.51100000000E-03 0.  1.
         11   -1    0    0    0    0 -0.00000000000E+00 -0.00000000000E+00 -0.45593999997E+02  0.45594000000E+02  0.51100000000E-03 0. -1.
    9900012    2    1    2    0    0 -0.10010444719E+02 -0.29482461441E+02 -0.26148444708E+02  0.50528859616E+02  0.29999999289E+02 0.  0.
        -12    1    1    2    0    0  0.10010444719E+02  0.29482461441E+02  0.26148444708E+02  0.40659140384E+02  0.00000000000E+00 0.  1.
         11    1    3    3    0    0 -0.13712434824E+01 -0.21291308115E+02 -0.86808666481E+01  0.23033835025E+02  0.51100000000E-03 0. -1.
        -11    1    3    3    0    0 -0.62462195049E+01  0.61739644045E+00 -0.17258926941E+02  0.18364830407E+02  0.51100000000E-03 0.  1.
        -12    1    3    3    0    0 -0.23929817322E+01 -0.88085497661E+01 -0.20865111950E+00  0.91301941843E+01  0.00000000000E+00 0.  1.
</event>
<event>
 7    1  0.9978258E-013  0.5052888E+02  0.7816164E-02  0.1300439E+00
        -11   -1    0    0    0    0  0.00000000000E+00  0.00000000000E+00  0.45593999997E+02  0.45594000000E+02  0.51100000000E-03 0.  1.
         11   -1    0    0    0    0 -0.00000000000E+00 -0.00000000000E+00 -0.45593999997E+02  0.45594000000E+02  0.51100000000E-03 0. -1.
    9900012    2    1    2    0    0  0.20909138021E+02 -0.34641815803E+02  0.39895490921E+01  0.50528881012E+02  0.30000064325E+02 0.  0.
        -12    1    1    2    0    0 -0.20909138021E+02  0.34641815803E+02 -0.39895490921E+01  0.40659118988E+02  0.00000000000E+00 0.  1.
         11    1    3    3    0    0 -0.11569899158E+01 -0.25907689735E+02  0.30250850731E+01  0.26109349916E+02  0.51100000000E-03 0. -1.
        -11    1    3    3    0    0  0.64753248285E+01  0.27924479164E-01 -0.36701608313E+00  0.64857777080E+01  0.51100000000E-03 0.  1.
         12    1    3    3    0    0  0.15590803108E+02 -0.87620505476E+01  0.13314801022E+01  0.17933753389E+02  0.00000000000E+00 0. -1.
</event>
<event>
 7    1  0.9978258E-013  0.5052886E+02  0.7816164E-02  0.1300439E+00
        -11   -1    0    0    0    0  0.00000000000E+00  0.00000000000E+00  0.45593999997E+02  0.45594000000E+02  0.51100000000E-03 0. -1.
         11   -1    0    0    0    0 -0.00000000000E+00 -0.00000000000E+00 -0.45593999997E+02  0.45594000000E+02  0.51100000000E-03 0.  1.
    9900012    2    1    2    0    0 -0.36609799358E+02 -0.98368295429E+01  0.14701189250E+02  0.50528860931E+02  0.30000003285E+02 0.  0.
        -12    1    1    2    0    0  0.36609799358E+02  0.98368295429E+01 -0.14701189250E+02  0.40659139069E+02  0.00000000000E+00 0.  1.
         11    1    3    3    0    0 -0.19677061968E+02 -0.12597070102E+02  0.17460488596E+02  0.29167475124E+02  0.51100000000E-03 0. -1.
        -11    1    3    3    0    0 -0.18095362750E+02  0.34450092670E+01 -0.46879946135E+01  0.19007565222E+02  0.51100000000E-03 0.  1.
        -12    1    3    3    0    0  0.11626253598E+01 -0.68476870753E+00  0.19286952679E+01  0.23538205850E+01  0.00000000000E+00 0.  1.
</event>
<event>
 7    1  0.9978258E-013  0.5052880E+02  0.7816164E-02  0.1300439E+00
        -11   -1    0    0    0    0  0.00000000000E+00  0.00000000000E+00  0.45593999997E+02  0.45594000000E+02  0.51100000000E-03 0. -1.
         11   -1    0    0    0    0 -0.00000000000E+00 -0.00000000000E+00 -0.45593999997E+02  0.45594000000E+02  0.51100000000E-03 0.  1.
    9900012    2    1    2    0    0 -0.21180558846E+02  0.33688780719E+02  0.83439017141E+01  0.50528797903E+02  0.29999811706E+02 0.  0.
        -12    1    1    2    0    0  0.21180558846E+02 -0.33688780719E+02 -0.83439017141E+01  0.40659202097E+02  0.00000000000E+00 0.  1.
         11    1    3    3    0    0 -0.14624057425E+02  0.26569268165E+01  0.97493388687E+01  0.17775599127E+02  0.51100000000E-03 0. -1.
        -11    1    3    3    0    0 -0.32320137400E+01  0.66028674527E+01 -0.32339464192E+01  0.80313249914E+01  0.51100000000E-03 0.  1.
         12    1    3    3    0    0 -0.33244876804E+01  0.24428986450E+02  0.18285092645E+01  0.24721873785E+02  0.00000000000E+00 0. -1.
</event>
<event>
 7    1  0.9978258E-013  0.5052885E+02  0.7816164E-02  0.1300439E+00
        -11   -1    0    0    0    0  0.00000000000E+00  0.00000000000E+00  0.45593999997E+02  0.45594000000E+02  0.51100000000E-03 0.  1.
         11   -1    0    0    0    0 -0.00000000000E+00 -0.00000000000E+00 -0.45593999997E+02  0.45594000000E+02  0.51100000000E-03 0. -1.
    9900012    2    1    2    0    0  0.82802620889E+01 -0.33870715384E+02 -0.20913590859E+02  0.50528851171E+02  0.29999973619E+02 0.  0.
        -12    1    1    2    0    0 -0.82802620889E+01  0.33870715384E+02  0.20913590859E+02  0.40659148829E+02  0.00000000000E+00 0.  1.
         11    1    3    3    0    0  0.11511693719E+02 -0.22788386500E+02 -0.89986790733E+00  0.25546808296E+02  0.51100000000E-03 0. -1.
        -11    1    3    3    0    0  0.19422501667E+01 -0.32181579565E+01 -0.12017068019E+01  0.39462609951E+01  0.51100000000E-03 0.  1.
         12    1    3    3    0    0 -0.51736817970E+01 -0.78641709274E+01 -0.18812016149E+02  0.21035781880E+02  0.00000000000E+00 0. -1.
</event>
<event>
 7    1  0.9978258E-013  0.5052889E+02  0.7816164E-02  0.1300439E+00
        -11   -1    0    0    0    0  0.00000000000E+00  0.00000000000E+00  0.45593999997E+02  0.45594000000E+02  0.51100000000E-03 0.  1.
         11   -1    0    0    0    0 -0.00000000000E+00 -0.00000000000E+00 -0.45593999997E+02  0.45594000000E+02  0.51100000000E-03 0. -1.
    9900012    2    1    2    0    0 -0.26129517353E+02  0.72763288674E+01 -0.30289706672E+02  0.50528893159E+02  0.30000101245E+02 0.  0.
        -12    1    1    2    0    0  0.26129517353E+02 -0.72763288674E+01  0.30289706672E+02  0.40659106841E+02  0.00000000000E+00 0.  1.
         11    1    3    3    0    0 -0.20250395006E+02  0.55251858754E+01 -0.36189870316E+02  0.41836740917E+02  0.51100000000E-03 0. -1.
        -11    1    3    3    0    0 -0.23144662434E+01  0.12752142569E+00  0.31287593342E+01  0.38938606727E+01  0.51100000000E-03 0.  1.
         12    1    3    3    0    0 -0.35646561037E+01  0.16236215662E+01  0.27714043099E+01  0.47982915685E+01  0.00000000000E+00 0. -1.
</event>
<event>
 7    1  0.9978258E-013  0.5052882E+02  0.7816164E-02  0.1300439E+00
        -11   -1    0    0    0    0  0.00000000000E+00  0.00000000000E+00  0.45593999997E+02  0.45594000000E+02  0.51100000000E-03 0.  1.
         11   -1    0    0    0    0 -0.00000000000E+00 -0.00000000000E+00 -0.45593999997E+02  0.45594000000E+02  0.51100000000E-03 0. -1.
    9900012    2    1    2    0    0  0.22464227762E+02  0.33056527468E+02 -0.74694764149E+01  0.50528823729E+02  0.29999890205E+02 0.  0.
        -12    1    1    2    0    0 -0.22464227762E+02 -0.33056527468E+02  0.74694764149E+01  0.40659176271E+02  0.00000000000E+00 0.  1.
         11    1    3    3    0    0  0.12253056878E+02  0.16282572723E+02  0.40381551815E+01  0.20774173266E+02  0.51100000000E-03 0. -1.
        -11    1    3    3    0    0 -0.19815368910E+00  0.85548700227E+00 -0.10680882887E+02  0.10716920379E+02  0.51100000000E-03 0.  1.
        -12    1    3    3    0    0  0.10409324573E+02  0.15918467742E+02 -0.82674870936E+00  0.19037730084E+02  0.00000000000E+00 0.  1.
</event>
<event>
 7    1  0.9978258E-013  0.5052886E+02  0.7816164E-02  0.1300439E+00
        -11   -1    0    0    0    0  0.00000000000E+00  0.00000000000E+00  0.45593999997E+02  0.45594000000E+02  0.51100000000E-03 0. -1.
         11   -1    0    0    0    0 -0.00000000000E+00 -0.00000000000E+00 -0.45593999997E+02  0.45594000000E+02  0.51100000000E-03 0.  1.
    9900012    2    1    2    0    0 -0.11798841680E+02 -0.28619868102E+01  0.38804148932E+02  0.50528860710E+02  0.30000002613E+02 0.  0.
        -12    1    1    2    0    0  0.11798841680E+02  0.28619868102E+01 -0.38804148932E+02  0.40659139290E+02  0.00000000000E+00 0.  1.
         11    1    3    3    0    0 -0.11982787605E+02  0.17807933595E+01  0.41217238368E+01  0.12796367900E+02  0.51100000000E-03 0. -1.
        -11    1    3    3    0    0 -0.31953000587E+01 -0.60715868049E+01  0.32983122893E+02  0.33689174891E+02  0.51100000000E-03 0.  1.
        -12    1    3    3    0    0  0.33792459834E+01  0.14288066352E+01  0.16993022020E+01  0.40433179186E+01  0.00000000000E+00 0.  1.
</event>
<event>
 7    1  0.9978258E-013  0.5052884E+02  0.7816164E-02  0.1300439E+00
        -11   -1    0    0    0    0  0.00000000000E+00  0.00000000000E+00  0.45593999997E+02  0.45594000000E+02  0.51100000000E-03 0.  1.
         11   -1    0    0    0    0 -0.00000000000E+00 -0.00000000000E+00 -0.45593999997E+02  0.45594000000E+02  0.51100000000E-03 0. -1.
    9900012    2    1    2    0    0 -0.27829279243E+02  0.26647264176E+02 -0.12985449317E+02  0.50528839099E+02  0.29999936924E+02 0.  0.
        -12    1    1    2    0    0  0.27829279243E+02 -0.26647264176E+02  0.12985449317E+02  0.40659160901E+02  0.00000000000E+00 0.  1.
         11    1    3    3    0    0  0.26338371201E+01  0.22479922309E+01  0.38489981213E+00  0.34840658966E+01  0.51100000000E-03 0.  1.
        -11    1    3    3    0    0 -0.25133799534E+02  0.24148473100E+02 -0.25104240446E+01  0.34945083505E+02  0.51100000000E-03 0. -1.
        -12    1    3    3    0    0 -0.53293168294E+01  0.25079884546E+00 -0.10859925084E+02  0.12099689697E+02  0.00000000000E+00 0.  1.
</event>
<event>
 7    1  0.9978258E-013  0.5052886E+02  0.7816164E-02  0.1300439E+00
        -11   -1    0    0    0    0  0.00000000000E+00  0.00000000000E+00  0.45593999997E+02  0.45594000000E+02  0.51100000000E-03 0.  1.
         11   -1    0    0    0    0 -0.00000000000E+00 -0.00000000000E+00 -0.45593999997E+02  0.45594000000E+02  0.51100000000E-03 0. -1.
    9900012    2    1    2    0    0 -0.33684455501E+01  0.28193718322E+02 -0.29102121232E+02  0.50528860333E+02  0.30000001469E+02 0.  0.
        -12    1    1    2    0    0  0.33684455501E+01 -0.28193718322E+02  0.29102121232E+02  0.40659139667E+02  0.00000000000E+00 0.  1.
         11    1    3    3    0    0  0.54212757699E+01  0.13820400580E+02 -0.90544888402E+01  0.17389004330E+02  0.51100000000E-03 0. -1.
        -11    1    3    3    0    0 -0.99138386603E+01  0.21299615242E+00 -0.19043185023E+01  0.10097326060E+02  0.51100000000E-03 0.  1.
        -12    1    3    3    0    0  0.11241173404E+01  0.14160321590E+02 -0.18143313889E+02  0.23042529944E+02  0.00000000000E+00 0.  1.
</event>
<event>
 7    1  0.9978258E-013  0.5052889E+02  0.7816164E-02  0.1300439E+00
        -11   -1    0    0    0    0  0.00000000000E+00  0.00000000000E+00  0.45593999997E+02  0.45594000000E+02  0.51100000000E-03 0.  1.
         11   -1    0    0    0    0 -0.00000000000E+00 -0.00000000000E+00 -0.45593999997E+02  0.45594000000E+02  0.51100000000E-03 0. -1.
    9900012    2    1    2    0    0 -0.38081911043E+02  0.11837494359E+02  0.79249677014E+01  0.50528888666E+02  0.30000087588E+02 0.  0.
        -12    1    1    2    0    0  0.38081911043E+02 -0.11837494359E+02 -0.79249677014E+01  0.40659111334E+02  0.00000000000E+00 0.  1.
         11    1    3    3    0    0 -0.21403611060E+02  0.15295678742E+02 -0.23847269692E+01  0.26415133495E+02  0.51100000000E-03 0. -1.
        -11    1    3    3    0    0 -0.34595870765E+01 -0.25460078848E+01  0.99736913326E+01  0.10859347031E+02  0.51100000000E-03 0.  1.
        -12    1    3    3    0    0 -0.13218712907E+02 -0.91217649800E+00  0.33600333790E+00  0.13254408139E+02  0.00000000000E+00 0.  1.
</event>
<event>
 7    1  0.9978258E-013  0.5052886E+02  0.7816164E-02  0.1300439E+00
        -11   -1    0    0    0    0  0.00000000000E+00  0.00000000000E+00  0.45593999997E+02  0.45594000000E+02  0.51100000000E-03 0.  1.
         11   -1    0    0    0    0 -0.00000000000E+00 -0.00000000000E+00 -0.45593999997E+02  0.45594000000E+02  0.51100000000E-03 0. -1.
    9900012    2    1    2    0    0 -0.11132231702E+02  0.39057509463E+02 -0.19364238992E+01  0.50528863688E+02  0.30000011667E+02 0.  0.
        -12    1    1    2    0    0  0.11132231702E+02 -0.39057509463E+02  0.19364238992E+01  0.40659136312E+02  0.00000000000E+00 0.  1.
         11    1    3    3    0    0 -0.18979100193E+00  0.18272154784E+02 -0.13211674535E+02  0.22548969053E+02  0.51100000000E-03 0. -1.
        -11    1    3    3    0    0 -0.12224974409E+02  0.16938003957E+02  0.68640296731E+01  0.21987743881E+02  0.51100000000E-03 0.  1.
         12    1    3    3    0    0  0.12825337089E+01  0.38473507217E+01  0.44112209622E+01  0.59921507547E+01  0.00000000000E+00 0. -1.
</event>
<event>
 7    1  0.9978258E-013  0.5052886E+02  0.7816164E-02  0.1300439E+00
        -11   -1    0    0    0    0  0.00000000000E+00  0.00000000000E+00  0.45593999997E+02  0.45594000000E+02  0.51100000000E-03 0. -1.
         11   -1    0    0    0    0 -0.00000000000E+00 -0.00000000000E+00 -0.45593999997E+02  0.45594000000E+02  0.51100000000E-03 0.  1.
    9900012    2    1    2    0    0  0.16052900035E+02 -0.25737077135E+02 -0.27075320233E+02  0.50528859519E+02  0.29999998993E+02 0.  0.
        -12    1    1    2    0    0 -0.16052900035E+02  0.25737077135E+02  0.27075320233E+02  0.40659140481E+02  0.00000000000E+00 0.  1.
         11    1    3    3    0    0  0.97045765240E+01 -0.28537273656E+02 -0.27010757190E+02  0.40473890319E+02  0.51100000000E-03 0. -1.
        -11    1    3    3    0    0  0.85694767428E+00  0.28828869481E+01  0.25771116486E+01  0.39606692847E+01  0.51100000000E-03 0.  1.
         12    1    3    3    0    0  0.54913758368E+01 -0.82690426728E-01 -0.26416746907E+01  0.60942999154E+01  0.00000000000E+00 0. -1.
</event>
<event>
 7    1  0.9978258E-013  0.5052886E+02  0.7816164E-02  0.1300439E+00
        -11   -1    0    0    0    0  0.00000000000E+00  0.00000000000E+00  0.45593999997E+02  0.45594000000E+02  0.51100000000E-03 0.  1.
         11   -1    0    0    0    0 -0.00000000000E+00 -0.00000000000E+00 -0.45593999997E+02  0.45594000000E+02  0.51100000000E-03 0. -1.
    9900012    2    1    2    0    0  0.65652299369E+01  0.21269611928E+02 -0.34024502321E+02  0.50528863341E+02  0.30000010610E+02 0.  0.
        -12    1    1    2    0    0 -0.65652299369E+01 -0.21269611928E+02  0.34024502321E+02  0.40659136659E+02  0.00000000000E+00 0.  1.
         11    1    3    3    0    0 -0.53550733553E+01  0.18362291223E+02 -0.14286861012E+02  0.23873938666E+02  0.51100000000E-03 0. -1.
        -11    1    3    3    0    0  0.94590064625E+01  0.63905549175E+01 -0.19225569030E+02  0.22359215107E+02  0.51100000000E-03 0.  1.
         12    1    3    3    0    0  0.24612968297E+01 -0.34832342129E+01 -0.51207227883E+00  0.42957095670E+01  0.00000000000E+00 0. -1.
</event>
<event>
 7    1  0.9978258E-013  0.5052887E+02  0.7816164E-02  0.1300439E+00
        -11   -1    0    0    0    0  0.00000000000E+00  0.00000000000E+00  0.45593999997E+02  0.45594000000E+02  0.51100000000E-03 0.  1.
         11   -1    0    0    0    0 -0.00000000000E+00 -0.00000000000E+00 -0.45593999997E+02  0.45594000000E+02  0.51100000000E-03 0. -1.
    9900012    2    1    2    0    0  0.24298199436E+02  0.25249871362E+02 -0.20620539533E+02  0.50528866337E+02  0.30000019718E+02 0.  0.
        -12    1    1    2    0    0 -0.24298199436E+02 -0.25249871362E+02  0.20620539533E+02  0.40659133663E+02  0.00000000000E+00 0.  1.
         11    1    3    3    0    0  0.13794327416E+02  0.46418514732E+01 -0.56193611731E+01  0.15601521535E+02  0.51100000000E-03 0. -1.
        -11    1    3    3    0    0 -0.60565034455E+01  0.14802101812E+01 -0.32489191437E+01  0.70304859028E+01  0.51100000000E-03 0.  1.
        -12    1    3    3    0    0  0.16560375465E+02  0.19127809708E+02 -0.11752259216E+02  0.27896858899E+02  0.00000000000E+00 0.  1.
</event>
<event>
 7    1  0.9978258E-013  0.5052886E+02  0.7816164E-02  0.1300439E+00
        -11   -1    0    0    0    0  0.00000000000E+00  0.00000000000E+00  0.45593999997E+02  0.45594000000E+02  0.51100000000E-03 0.  1.
         11   -1    0    0    0    0 -0.00000000000E+00 -0.00000000000E+00 -0.45593999997E+02  0.45594000000E+02  0.51100000000E-03 0. -1.
    9900012    2    1    2    0    0  0.32857058539E+01  0.21776599772E+02 -0.34178202664E+02  0.50528859602E+02  0.29999999246E+02 0.  0.
        -12    1    1    2    0    0 -0.32857058539E+01 -0.21776599772E+02  0.34178202664E+02  0.40659140398E+02  0.00000000000E+00 0.  1.
         11    1    3    3    0    0 -0.22322129663E+01  0.66776653470E+01 -0.12478944478E+02  0.14328225457E+02  0.51100000000E-03 0. -1.
        -11    1    3    3    0    0  0.13186643510E+02  0.10666553929E+02 -0.56635043155E+01  0.17881225382E+02  0.51100000000E-03 0.  1.
        -12    1    3    3    0    0 -0.76687246895E+01  0.44323804963E+01 -0.16035753870E+02  0.18319408763E+02  0.00000000000E+00 0.  1.
</event>
<event>
 7    1  0.9978258E-013  0.5052885E+02  0.7816164E-02  0.1300439E+00
        -11   -1    0    0    0    0  0.00000000000E+00  0.00000000000E+00  0.45593999997E+02  0.45594000000E+02  0.51100000000E-03 0.  1.
         11   -1    0    0    0    0 -0.00000000000E+00 -0.00000000000E+00 -0.45593999997E+02  0.45594000000E+02  0.51100000000E-03 0. -1.
    9900012    2    1    2    0    0 -0.47206022194E+01 -0.10946887262E+02 -0.38872198640E+02  0.50528852774E+02  0.29999978492E+02 0.  0.
        -12    1    1    2    0    0  0.47206022194E+01  0.10946887262E+02  0.38872198640E+02  0.40659147226E+02  0.00000000000E+00 0.  1.
         11    1    3    3    0    0 -0.98598592838E+01  0.78497469404E+00 -0.20030903474E+02  0.22339877006E+02  0.51100000000E-03 0. -1.
        -11    1    3    3    0    0  0.56379571049E+01 -0.12691207198E+02 -0.21343211537E+02  0.25463424346E+02  0.51100000000E-03 0.  1.
        -12    1    3    3    0    0 -0.49870004052E+00  0.95934524128E+00  0.25019163719E+01  0.27255514221E+01  0.00000000000E+00 0.  1.
</event>
<event>
 7    1  0.9978258E-013  0.5052886E+02  0.7816164E-02  0.1300439E+00
        -11   -1    0    0    0    0  0.00000000000E+00  0.00000000000E+00  0.45593999997E+02  0.45594000000E+02  0.51100000000E-03 0.  1.
         11   -1    0    0    0    0 -0.00000000000E+00 -0.00000000000E+00 -0.45593999997E+02  0.45594000000E+02  0.51100000000E-03 0. -1.
    9900012    2    1    2    0    0 -0.37024734757E+02 -0.14899442417E+02  0.77679539200E+01  0.50528862327E+02  0.30000007530E+02 0.  0.
        -12    1    1    2    0    0  0.37024734757E+02  0.14899442417E+02 -0.77679539200E+01  0.40659137673E+02  0.00000000000E+00 0.  1.
         11    1    3    3    0    0 -0.32105593350E+02 -0.17973876541E+02  0.11579689597E+02  0.38573547590E+02  0.51100000000E-03 0. -1.
        -11    1    3    3    0    0  0.12492726724E+01 -0.18864185456E+01  0.12250715815E+01  0.25729472945E+01  0.51100000000E-03 0.  1.
         12    1    3    3    0    0 -0.61684140798E+01  0.49608526692E+01 -0.50368072588E+01  0.93823674426E+01  0.00000000000E+00 0. -1.
</event>
<event>
 7    1  0.9978258E-013  0.5052874E+02  0.7816164E-02  0.1300439E+00
        -11   -1    0    0    0    0  0.00000000000E+00  0.00000000000E+00  0.45593999997E+02  0.45594000000E+02  0.51100000000E-03 0. -1.
         11   -1    0    0    0    0 -0.00000000000E+00 -0.00000000000E+00 -0.45593999997E+02  0.45594000000E+02  0.51100000000E-03 0.  1.
    9900012    2    1    2    0    0 -0.21413490898E+02 -0.27967938372E+02  0.20308422152E+02  0.50528743003E+02  0.29999644830E+02 0.  0.
        -12    1    1    2    0    0  0.21413490898E+02  0.27967938372E+02 -0.20308422152E+02  0.40659256997E+02  0.00000000000E+00 0.  1.
         11    1    3    3    0    0 -0.18042115907E+02 -0.17045421306E+02  0.25580043640E+02  0.35642712674E+02  0.51100000000E-03 0. -1.
        -11    1    3    3    0    0 -0.46158968280E+01 -0.53030232927E+01 -0.57889596204E+01  0.91071737283E+01  0.51100000000E-03 0.  1.
         12    1    3    3    0    0  0.12445218370E+01 -0.56194937729E+01  0.51733813307E+00  0.57788566006E+01  0.00000000000E+00 0. -1.
</event>
<event>
 7    1  0.9978258E-013  0.5052886E+02  0.7816164E-02  0.1300439E+00
        -11   -1    0    0    0    0  0.00000000000E+00  0.00000000000E+00  0.45593999997E+02  0.45594000000E+02  0.51100000000E-03 0.  1.
         11   -1    0    0    0    0 -0.00000000000E+00 -0.00000000000E+00 -0.45593999997E+02  0.45594000000E+02  0.51100000000E-03 0. -1.
    9900012    2    1    2    0    0  0.34238167588E+02 -0.21851916181E+02  0.18457852023E+01  0.50528864697E+02  0.30000014734E+02 0.  0.
        -12    1    1    2    0    0 -0.34238167588E+02  0.21851916181E+02 -0.18457852023E+01  0.40659135303E+02  0.00000000000E+00 0.  1.
         11    1    3    3    0    0  0.34928134924E+02 -0.77708304163E+01 -0.49744833127E+00  0.35785581870E+02  0.51100000000E-03 0. -1.
        -11    1    3    3    0    0 -0.20682797312E+01 -0.57477017278E+01  0.90838938774E+00  0.61756803462E+01  0.51100000000E-03 0.  1.
         12    1    3    3    0    0  0.13783123948E+01 -0.83333840364E+01  0.14348441459E+01  0.85676024814E+01  0.00000000000E+00 0. -1.
</event>
<event>
 7    1  0.9978258E-013  0.5052881E+02  0.7816164E-02  0.1300439E+00
        -11   -1    0    0    0    0  0.00000000000E+00  0.00000000000E+00  0.45593999997E+02  0.45594000000E+02  0.51100000000E-03 0.  1.
         11   -1    0    0    0    0 -0.00000000000E+00 -0.00000000000E+00 -0.45593999997E+02  0.45594000000E+02  0.51100000000E-03 0. -1.
    9900012    2    1    2    0    0  0.24447769214E+02  0.12526745189E+02 -0.29975936904E+02  0.50528812135E+02  0.29999854966E+02 0.  0.
        -12    1    1    2    0    0 -0.24447769214E+02 -0.12526745189E+02  0.29975936904E+02  0.40659187865E+02  0.00000000000E+00 0.  1.
         11    1    3    3    0    0  0.11052088599E+02  0.14426025416E+01 -0.11166813714E+02  0.15777436208E+02  0.51100000000E-03 0. -1.
        -11    1    3    3    0    0  0.63319387270E+01  0.14507338159E+02 -0.16906007783E+01  0.15918996192E+02  0.51100000000E-03 0.  1.
        -12    1    3    3    0    0  0.70637418877E+01 -0.34231955123E+01 -0.17118522411E+02  0.18832379735E+02  0.00000000000E+00 0.  1.
</event>
<event>
 7    1  0.9978258E-013  0.5052886E+02  0.7816164E-02  0.1300439E+00
        -11   -1    0    0    0    0  0.00000000000E+00  0.00000000000E+00  0.45593999997E+02  0.45594000000E+02  0.51100000000E-03 0.  1.
         11   -1    0    0    0    0 -0.00000000000E+00 -0.00000000000E+00 -0.45593999997E+02  0.45594000000E+02  0.51100000000E-03 0. -1.
    9900012    2    1    2    0    0 -0.37456954287E+02 -0.12620230463E+02  0.95326723732E+01  0.50528862233E+02  0.30000007242E+02 0.  0.
        -12    1    1    2    0    0  0.37456954287E+02  0.12620230463E+02 -0.95326723732E+01  0.40659137767E+02  0.00000000000E+00 0.  1.
         11    1    3    3    0    0 -0.13918144083E+01  0.23345908364E+01 -0.53206295733E+01  0.59746599098E+01  0.51100000000E-03 0. -1.
        -11    1    3    3    0    0 -0.37084670188E+02 -0.12376314041E+02  0.12923505185E+02  0.41175999061E+02  0.51100000000E-03 0.  1.
        -12    1    3    3    0    0  0.10195303090E+01 -0.25785072588E+01  0.19297967617E+01  0.33782032615E+01  0.00000000000E+00 0.  1.
</event>
<event>
 7    1  0.9978258E-013  0.5052885E+02  0.7816164E-02  0.1300439E+00
        -11   -1    0    0    0    0  0.00000000000E+00  0.00000000000E+00  0.45593999997E+02  0.45594000000E+02  0.51100000000E-03 0. -1.
         11   -1    0    0    0    0 -0.00000000000E+00 -0.00000000000E+00 -0.45593999997E+02  0.45594000000E+02  0.51100000000E-03 0.  1.
    9900012    2    1    2    0    0 -0.26734223661E+01 -0.40121097806E+02 -0.60263408026E+01  0.50528850233E+02  0.29999970769E+02 0.  0.
        -12    1    1    2    0    0  0.26734223661E+01  0.40121097806E+02  0.60263408026E+01  0.40659149767E+02  0.00000000000E+00 0.  1.
         11    1    3    3    0    0  0.47221100914E+01 -0.43626311415E+01  0.67616262454E+01  0.93300838118E+01  0.51100000000E-03 0. -1.
        -11    1    3    3    0    0 -0.59400586061E+01 -0.37233736200E+01 -0.33552908238E+01  0.77721158079E+01  0.51100000000E-03 0.  1.
         12    1    3    3    0    0 -0.14554738513E+01 -0.32035093044E+02 -0.94326762242E+01  0.33426650614E+02  0.00000000000E+00 0. -1.
</event>
<event>
 7    1  0.9978258E-013  0.5052884E+02  0.7816164E-02  0.1300439E+00
        -11   -1    0    0    0    0  0.00000000000E+00  0.00000000000E+00  0.45593999997E+02  0.45594000000E+02  0.51100000000E-03 0. -1.
         11   -1    0    0    0    0 -0.00000000000E+00 -0.00000000000E+00 -0.45593999997E+02  0.45594000000E+02  0.51100000000E-03 0.  1.
    9900012    2    1    2    0    0 -0.77808715683E+01 -0.18686950869E+01  0.39863931538E+02  0.50528843327E+02  0.29999949776E+02 0.  0.
        -12    1    1    2    0    0  0.77808715683E+01  0.18686950869E+01 -0.39863931538E+02  0.40659156673E+02  0.00000000000E+00 0.  1.
         11    1    3    3    0    0 -0.13556397730E+02 -0.74341039238E+01  0.29487483871E+02  0.33294947453E+02  0.51100000000E-03 0. -1.
        -11    1    3    3    0    0  0.81121150153E+01  0.35605202516E+01  0.10967776993E+02  0.14098788845E+02  0.51100000000E-03 0.  1.
         12    1    3    3    0    0 -0.23365888537E+01  0.20048885853E+01 -0.59132932529E+00  0.31351070288E+01  0.00000000000E+00 0. -1.
</event>
<event>
 7    1  0.9978258E-013  0.5052886E+02  0.7816164E-02  0.1300439E+00
        -11   -1    0    0    0    0  0.00000000000E+00  0.00000000000E+00  0.45593999997E+02  0.45594000000E+02  0.51100000000E-03 0. -1.
         11   -1    0    0    0    0 -0.00000000000E+00 -0.00000000000E+00 -0.45593999997E+02  0.45594000000E+02  0.51100000000E-03 0.  1.
    9900012    2    1    2    0    0  0.25411950330E+02 -0.30302465907E+02  0.94424106421E+01  0.50528858612E+02  0.29999996238E+02 0.  0.
        -12    1    1    2    0    0 -0.25411950330E+02  0.30302465907E+02 -0.94424106421E+01  0.40659141388E+02  0.00000000000E+00 0.  1.
         11    1    3    3    0    0  0.15272674648E+02 -0.22323033457E+02  0.88578737545E+01  0.28461102251E+02  0.51100000000E-03 0. -1.
        -11    1    3    3    0    0  0.67058298144E+01  0.49052201798E+01 -0.18530093534E+01  0.85125191593E+01  0.51100000000E-03 0.  1.
        -12    1    3    3    0    0  0.34334458677E+01 -0.12884652631E+02  0.24375462410E+01  0.13555237202E+02  0.00000000000E+00 0.  1.
</event>
<event>
 7    1  0.9978258E-013  0.5052883E+02  0.7816164E-02  0.1300439E+00
        -11   -1    0    0    0    0  0.00000000000E+00  0.00000000000E+00  0.45593999997E+02  0.45594000000E+02  0.51100000000E-03 0. -1.
         11   -1    0    0    0    0 -0.00000000000E+00 -0.00000000000E+00 -0.45593999997E+02  0.45594000000E+02  0.51100000000E-03 0.  1.
    9900012    2    1    2    0    0  0.33033672865E+02 -0.20082495780E+02  0.12595157191E+02  0.50528829271E+02  0.29999907051E+02 0.  0.
        -12    1    1    2    0    0 -0.33033672865E+02  0.20082495780E+02 -0.12595157191E+02  0.40659170729E+02  0.00000000000E+00 0.  1.
         11    1    3    3    0    0  0.25124875716E+02 -0.21416166170E+02  0.20649502190E+02  0.38939870238E+02  0.51100000000E-03 0. -1.
        -11    1    3    3    0    0  0.14876150978E+01  0.11616154215E+01 -0.14903929739E+01  0.24049159121E+01  0.51100000000E-03 0.  1.
         12    1    3    3    0    0  0.64211820520E+01  0.17205496880E+00 -0.65639520252E+01  0.91840431209E+01  0.00000000000E+00 0. -1.
</event>
<event>
 7    1  0.9978258E-013  0.5052886E+02  0.7816164E-02  0.1300439E+00
        -11   -1    0    0    0    0  0.00000000000E+00  0.00000000000E+00  0.45593999997E+02  0.45594000000E+02  0.51100000000E-03 0.  1.
         11   -1    0    0    0    0 -0.00000000000E+00 -0.00000000000E+00 -0.45593999997E+02  0.45594000000E+02  0.51100000000E-03 0. -1.
    9900012    2    1    2    0    0 -0.29586383247E+02  0.25189321982E+02 -0.11971192483E+02  0.50528862466E+02  0.30000007952E+02 0.  0.
        -12    1    1    2    0    0  0.29586383247E+02 -0.25189321982E+02  0.11971192483E+02  0.40659137534E+02  0.00000000000E+00 0.  1.
         11    1    3    3    0    0 -0.32943616808E+02  0.24921937995E+02 -0.16430995544E+02  0.44456298728E+02  0.51100000000E-03 0. -1.
        -11    1    3    3    0    0  0.28236358260E+01  0.92006010995E+00  0.23068849664E+01  0.37604718312E+01  0.51100000000E-03 0.  1.
         12    1    3    3    0    0  0.53359773473E+00 -0.65267612271E+00  0.21529180945E+01  0.23120919068E+01  0.00000000000E+00 0. -1.
</event>
<event>
 7    1  0.9978258E-013  0.5052886E+02  0.7816164E-02  0.1300439E+00
        -11   -1    0    0    0    0  0.00000000000E+00  0.00000000000E+00  0.45593999997E+02  0.45594000000E+02  0.51100000000E-03 0.  1.
         11   -1    0    0    0    0 -0.00000000000E+00 -0.00000000000E+00 -0.45593999997E+02  0.45594000000E+02  0.51100000000E-03 0. -1.
    9900012    2    1    2    0    0 -0.25392760982E+02  0.16680383694E+02 -0.27021070362E+02  0.50528858912E+02  0.29999997150E+02 0.  0.
        -12    1    1    2    0    0  0.25392760982E+02 -0.16680383694E+02  0.27021070362E+02  0.40659141088E+02  0.00000000000E+00 0.  1.
         11    1    3    3    0    0 -0.55694078035E+01  0.79943019540E+01 -0.99881541089E+01  0.13953149816E+02  0.51100000000E-03 0. -1.
        -11    1    3    3    0    0 -0.85982677417E+01 -0.69438165743E+01 -0.12728483230E+02  0.16857078109E+02  0.51100000000E-03 0.  1.
        -12    1    3    3    0    0 -0.11225085437E+02  0.15629898314E+02 -0.43044330232E+01  0.19718630987E+02  0.00000000000E+00 0.  1.
</event>
<event>
 7    1  0.9978258E-013  0.5052886E+02  0.7816164E-02  0.1300439E+00
        -11   -1    0    0    0    0  0.00000000000E+00  0.00000000000E+00  0.45593999997E+02  0.45594000000E+02  0.51100000000E-03 0. -1.
         11   -1    0    0    0    0 -0.00000000000E+00 -0.00000000000E+00 -0.45593999997E+02  0.45594000000E+02  0.51100000000E-03 0.  1.
    9900012    2    1    2    0    0 -0.39462112879E+02  0.39147616375E+00 -0.97854016388E+01  0.50528859678E+02  0.29999999479E+02 0.  0.
        -12    1    1    2    0    0  0.39462112879E+02 -0.39147616375E+00  0.97854016388E+01  0.40659140322E+02  0.00000000000E+00 0.  1.
         11    1    3    3    0    0 -0.33292184674E+02  0.34155672889E+01  0.46913018032E+01  0.33794141107E+02  0.51100000000E-03 0. -1.
        -11    1    3    3    0    0 -0.65803883629E+01 -0.34850853862E+01 -0.11540087626E+02  0.13733934390E+02  0.51100000000E-03 0.  1.
         12    1    3    3    0    0  0.41046015841E+00  0.46099426102E+00 -0.29366158164E+01  0.30007841814E+01  0.00000000000E+00 0. -1.
</event>
<event>
 7    1  0.9978258E-013  0.5052898E+02  0.7816164E-02  0.1300438E+00
        -11   -1    0    0    0    0  0.00000000000E+00  0.00000000000E+00  0.45593999997E+02  0.45594000000E+02  0.51100000000E-03 0.  1.
         11   -1    0    0    0    0 -0.00000000000E+00 -0.00000000000E+00 -0.45593999997E+02  0.45594000000E+02  0.51100000000E-03 0. -1.
    9900012    2    1    2    0    0  0.22012637176E+02 -0.31491006347E+02 -0.13300987494E+02  0.50528979543E+02  0.30000363816E+02 0.  0.
        -12    1    1    2    0    0 -0.22012637176E+02  0.31491006347E+02  0.13300987494E+02  0.40659020457E+02  0.00000000000E+00 0.  1.
         11    1    3    3    0    0  0.16184910630E+02 -0.27693174500E+02 -0.10175978203E+02  0.33651356268E+02  0.51100000000E-03 0. -1.
        -11    1    3    3    0    0  0.83669173691E+01  0.32393941419E+01 -0.64215792719E+00  0.89950735257E+01  0.51100000000E-03 0.  1.
         12    1    3    3    0    0 -0.25391908231E+01 -0.70372259888E+01 -0.24828513637E+01  0.78825497492E+01  0.00000000000E+00 0. -1.
</event>
<event>
 7    1  0.9978258E-013  0.5052886E+02  0.7816164E-02  0.1300439E+00
        -11   -1    0    0    0    0  0.00000000000E+00  0.00000000000E+00  0.45593999997E+02  0.45594000000E+02  0.51100000000E-03 0. -1.
         11   -1    0    0    0    0 -0.00000000000E+00 -0.00000000000E+00 -0.45593999997E+02  0.45594000000E+02  0.51100000000E-03 0.  1.
    9900012    2    1    2    0    0 -0.19007156079E+02  0.28704635521E+02  0.21631856524E+02  0.50528864504E+02  0.30000014147E+02 0.  0.
        -12    1    1    2    0    0  0.19007156079E+02 -0.28704635521E+02 -0.21631856524E+02  0.40659135496E+02  0.00000000000E+00 0.  1.
         11    1    3    3    0    0 -0.29823803410E+01  0.11362919212E+02  0.16975467988E+02  0.20644055784E+02  0.51100000000E-03 0. -1.
        -11    1    3    3    0    0 -0.19580830680E+02  0.17022208403E+02  0.39316520665E+01  0.26241615752E+02  0.51100000000E-03 0.  1.
         12    1    3    3    0    0  0.35560549424E+01  0.31950790566E+00  0.72473646955E+00  0.36431929684E+01  0.00000000000E+00 0. -1.
</event>
<event>
 7    1  0.9978258E-013  0.5052889E+02  0.7816164E-02  0.1300439E+00
        -11   -1    0    0    0    0  0.00000000000E+00  0.00000000000E+00  0.45593999997E+02  0.45594000000E+02  0.51100000000E-03 0.  1.
         11   -1    0    0    0    0 -0.00000000000E+00 -0.00000000000E+00 -0.45593999997E+02  0.45594000000E+02  0.51100000000E-03 0. -1.
    9900012    2    1    2    0    0  0.55947250534E+01 -0.39105617113E+01 -0.40082038347E+02  0.50528889836E+02  0.30000091144E+02 0.  0.
        -12    1    1    2    0    0 -0.55947250534E+01  0.39105617113E+01  0.40082038347E+02  0.40659110164E+02  0.00000000000E+00 0.  1.
         11    1    3    3    0    0 -0.49776561184E+01 -0.55380680152E+01 -0.23429154387E+02  0.24583989370E+02  0.51100000000E-03 0. -1.
        -11    1    3    3    0    0  0.15022255780E+02 -0.34507052187E+00 -0.12714730915E+02  0.19683790918E+02  0.51100000000E-03 0.  1.
        -12    1    3    3    0    0 -0.44498746087E+01  0.19725768258E+01 -0.39381530443E+01  0.62611095476E+01  0.00000000000E+00 0.  1.
</event>
<event>
 7    1  0.9978258E-013  0.5052874E+02  0.7816164E-02  0.1300439E+00
        -11   -1    0    0    0    0  0.00000000000E+00  0.00000000000E+00  0.45593999997E+02  0.45594000000E+02  0.51100000000E-03 0.  1.
         11   -1    0    0    0    0 -0.00000000000E+00 -0.00000000000E+00 -0.45593999997E+02  0.45594000000E+02  0.51100000000E-03 0. -1.
    9900012    2    1    2    0    0 -0.15575970305E+02  0.31371309412E+02 -0.20649591049E+02  0.50528738870E+02  0.29999632267E+02 0.  0.
        -12    1    1    2    0    0  0.15575970305E+02 -0.31371309412E+02  0.20649591049E+02  0.40659261130E+02  0.00000000000E+00 0.  1.
         11    1    3    3    0    0 -0.12939692516E+02  0.14286527288E+02 -0.93118233865E+01  0.21406787695E+02  0.51100000000E-03 0. -1.
        -11    1    3    3    0    0 -0.38400522641E+00 -0.17582214259E+01  0.42167566304E+01  0.45847398331E+01  0.51100000000E-03 0.  1.
        -12    1    3    3    0    0 -0.22522725621E+01  0.18843003550E+02 -0.15554524293E+02  0.24537211342E+02  0.00000000000E+00 0.  1.
</event>
<event>
 7    1  0.9978258E-013  0.5052886E+02  0.7816164E-02  0.1300439E+00
        -11   -1    0    0    0    0  0.00000000000E+00  0.00000000000E+00  0.45593999997E+02  0.45594000000E+02  0.51100000000E-03 0.  1.
         11   -1    0    0    0    0 -0.00000000000E+00 -0.00000000000E+00 -0.45593999997E+02  0.45594000000E+02  0.51100000000E-03 0. -1.
    9900012    2    1    2    0    0  0.18104556215E+02 -0.27346434094E+02 -0.24032538370E+02  0.50528864325E+02  0.30000013601E+02 0.  0.
        -12    1    1    2    0    0 -0.18104556215E+02  0.27346434094E+02  0.24032538370E+02  0.40659135675E+02  0.00000000000E+00 0.  1.
         11    1    3    3    0    0  0.11052415047E+02 -0.76738392881E+01 -0.26205122310E+02  0.29457632684E+02  0.51100000000E-03 0. -1.
        -11    1    3    3    0    0  0.42779740963E+01 -0.10853075724E+02  0.19164870945E+01  0.11822150316E+02  0.51100000000E-03 0.  1.
         12    1    3    3    0    0  0.27741670715E+01 -0.88195190811E+01  0.25609684535E+00  0.92490813250E+01  0.00000000000E+00 0. -1.
</event>
<event>
 7    1  0.9978258E-013  0.5052886E+02  0.7816164E-02  0.1300439E+00
        -11   -1    0    0    0    0  0.00000000000E+00  0.00000000000E+00  0.45593999997E+02  0.45594000000E+02  0.51100000000E-03 0. -1.
         11   -1    0    0    0    0 -0.00000000000E+00 -0.00000000000E+00 -0.45593999997E+02  0.45594000000E+02  0.51100000000E-03 0.  1.
    9900012    2    1    2    0    0  0.39202069728E+02  0.89358406461E+01 -0.60426807451E+01  0.50528861918E+02  0.30000006286E+02 0.  0.
        -12    1    1    2    0    0 -0.39202069728E+02 -0.89358406461E+01  0.60426807451E+01  0.40659138082E+02  0.00000000000E+00 0.  1.
         11    1    3    3    0    0  0.47265517479E+01  0.58955593487E+01  0.18125618495E+01  0.77706687086E+01  0.51100000000E-03 0. -1.
        -11    1    3    3    0    0  0.29249164537E+01 -0.80656614307E+01 -0.17959591779E+01  0.87655861301E+01  0.51100000000E-03 0.  1.
        -12    1    3    3    0    0  0.31550601526E+02  0.11105942728E+02 -0.60592834167E+01  0.33992607079E+02  0.00000000000E+00 0.  1.
</event>
<event>
 7    1  0.9978258E-013  0.5052886E+02  0.7816164E-02  0.1300439E+00
        -11   -1    0    0    0    0  0.00000000000E+00  0.00000000000E+00  0.45593999997E+02  0.45594000000E+02  0.51100000000E-03 0. -1.
         11   -1    0    0    0    0 -0.00000000000E+00 -0.00000000000E+00 -0.45593999997E+02  0.45594000000E+02  0.51100000000E-03 0.  1.
    9900012    2    1    2    0    0 -0.30582405135E+02 -0.10069424490E+02  0.24829190334E+02  0.50528861962E+02  0.30000006419E+02 0.  0.
        -12    1    1    2    0    0  0.30582405135E+02  0.10069424490E+02 -0.24829190334E+02  0.40659138038E+02  0.00000000000E+00 0.  1.
         11    1    3    3    0    0 -0.28102029814E+02 -0.52757058533E+01  0.10220921542E+02  0.30364854509E+02  0.51100000000E-03 0. -1.
        -11    1    3    3    0    0  0.10937419283E+01 -0.75517060845E+01  0.13512959174E+02  0.15518524481E+02  0.51100000000E-03 0.  1.
         12    1    3    3    0    0 -0.35741172492E+01  0.27579874482E+01  0.10953096180E+01  0.46454829711E+01  0.00000000000E+00 0. -1.
</event>
<event>
 7    1  0.9978258E-013  0.5052886E+02  0.7816164E-02  0.1300439E+00
        -11   -1    0    0    0    0  0.00000000000E+00  0.00000000000E+00  0.45593999997E+02  0.45594000000E+02  0.51100000000E-03 0.  1.
         11   -1    0    0    0    0 -0.00000000000E+00 -0.00000000000E+00 -0.45593999997E+02  0.45594000000E+02  0.51100000000E-03 0. -1.
    9900012    2    1    2    0    0  0.39111524459E+02 -0.30105172691E+01 -0.10695359242E+02  0.50528864876E+02  0.30000015277E+02 0.  0.
        -12    1    1    2    0    0 -0.39111524459E+02  0.30105172691E+01  0.10695359242E+02  0.40659135124E+02  0.00000000000E+00 0.  1.
         11    1    3    3    0    0  0.33216166995E+01 -0.59599519237E+00  0.82536628459E+01  0.89169108105E+01  0.51100000000E-03 0. -1.
        -11    1    3    3    0    0  0.14622720282E+02 -0.45995121832E+01 -0.11120669057E+02  0.18938023690E+02  0.51100000000E-03 0.  1.
         12    1    3    3    0    0  0.21167187478E+02  0.21849901065E+01 -0.78283530310E+01  0.22673930375E+02  0.00000000000E+00 0. -1.
</event>
<event>
 7    1  0.9978258E-013  0.5052885E+02  0.7816164E-02  0.1300439E+00
        -11   -1    0    0    0    0  0.00000000000E+00  0.00000000000E+00  0.45593999997E+02  0.45594000000E+02  0.51100000000E-03 0. -1.
         11   -1    0    0    0    0 -0.00000000000E+00 -0.00000000000E+00 -0.45593999997E+02  0.45594000000E+02  0.51100000000E-03 0.  1.
    9900012    2    1    2    0    0 -0.19505668302E+02 -0.22939198238E+02  0.27321943057E+02  0.50528849933E+02  0.29999969856E+02 0.  0.
        -12    1    1    2    0    0  0.19505668302E+02  0.22939198238E+02 -0.27321943057E+02  0.40659150067E+02  0.00000000000E+00 0.  1.
         11    1    3    3    0    0  0.30587074506E+01 -0.15016080608E+00  0.13473521213E+02  0.13817163735E+02  0.51100000000E-03 0. -1.
        -11    1    3    3    0    0 -0.75046488295E+01 -0.13386345160E+02  0.22641240379E+01  0.15512583560E+02  0.51100000000E-03 0.  1.
         12    1    3    3    0    0 -0.15059726924E+02 -0.94026922726E+01  0.11584297807E+02  0.21199102638E+02  0.00000000000E+00 0. -1.
</event>
<event>
 7    1  0.9978258E-013  0.5052884E+02  0.7816164E-02  0.1300439E+00
        -11   -1    0    0    0    0  0.00000000000E+00  0.00000000000E+00  0.45593999997E+02  0.45594000000E+02  0.51100000000E-03 0.  1.
         11   -1    0    0    0    0 -0.00000000000E+00 -0.00000000000E+00 -0.45593999997E+02  0.45594000000E+02  0.51100000000E-03 0. -1.
    9900012    2    1    2    0    0 -0.27123138045E+02  0.10327506521E+02 -0.28475348996E+02  0.50528837333E+02  0.29999931558E+02 0.  0.
        -12    1    1    2    0    0  0.27123138045E+02 -0.10327506521E+02  0.28475348996E+02  0.40659162667E+02  0.00000000000E+00 0.  1.
         11    1    3    3    0    0 -0.13368524970E+02  0.67209320639E+01 -0.20726300463E+02  0.25563018578E+02  0.51100000000E-03 0. -1.
        -11    1    3    3    0    0  0.13853865579E+00  0.55163007242E+01  0.38816904064E+01  0.67465759695E+01  0.51100000000E-03 0.  1.
        -12    1    3    3    0    0 -0.13893151730E+02 -0.19097262668E+01 -0.11630738939E+02  0.18219242786E+02  0.00000000000E+00 0.  1.
</event>
<event>
 7    1  0.9978258E-013  0.5052887E+02  0.7816164E-02  0.1300439E+00
        -11   -1    0    0    0    0  0.00000000000E+00  0.00000000000E+00  0.45593999997E+02  0.45594000000E+02  0.51100000000E-03 0. -1.
         11   -1    0    0    0    0 -0.00000000000E+00 -0.00000000000E+00 -0.45593999997E+02  0.45594000000E+02  0.51100000000E-03 0.  1.
    9900012    2    1    2    0    0 -0.26287435310E+02  0.10029417235E+02  0.29352115828E+02  0.50528866109E+02  0.30000019023E+02 0.  0.
        -12    1    1    2    0    0  0.26287435310E+02 -0.10029417235E+02 -0.29352115828E+02  0.40659133891E+02  0.00000000000E+00 0.  1.
         11    1    3    3    0    0  0.70025056638E+00 -0.28802128297E+01  0.11574362347E+02  0.11947880180E+02  0.51100000000E-03 0. -1.
        -11    1    3    3    0    0 -0.13506749123E+02  0.62240965273E-01  0.10479908894E+01  0.13547487995E+02  0.51100000000E-03 0.  1.
         12    1    3    3    0    0 -0.13480936753E+02  0.12847389099E+02  0.16729762591E+02  0.25033497933E+02  0.00000000000E+00 0. -1.
</event>
<event>
 7    1  0.9978258E-013  0.5052886E+02  0.7816164E-02  0.1300439E+00
        -11   -1    0    0    0    0  0.00000000000E+00  0.00000000000E+00  0.45593999997E+02  0.45594000000E+02  0.51100000000E-03 0. -1.
         11   -1    0    0    0    0 -0.00000000000E+00 -0.00000000000E+00 -0.45593999997E+02  0.45594000000E+02  0.51100000000E-03 0.  1.
    9900012    2    1    2    0    0 -0.37203550956E+02  0.17126307512E+01  0.16313441682E+02  0.50528859732E+02  0.29999999642E+02 0.  0.
        -12    1    1    2    0    0  0.37203550956E+02 -0.17126307512E+01 -0.16313441682E+02  0.40659140268E+02  0.00000000000E+00 0.  1.
         11    1    3    3    0    0  0.54133424855E+00 -0.38607242523E+00  0.64345423190E+01  0.64688043565E+01  0.51100000000E-03 0. -1.
        -11    1    3    3    0    0 -0.33097228694E+02  0.80206081152E+01  0.12212463323E+02  0.36178736330E+02  0.51100000000E-03 0.  1.
        -12    1    3    3    0    0 -0.46476565102E+01 -0.59219049388E+01 -0.23335639601E+01  0.78813190454E+01  0.00000000000E+00 0.  1.
</event>
<event>
 7    1  0.9978258E-013  0.5052886E+02  0.7816164E-02  0.1300439E+00
        -11   -1    0    0    0    0  0.00000000000E+00  0.00000000000E+00  0.45593999997E+02  0.45594000000E+02  0.51100000000E-03 0.  1.
         11   -1    0    0    0    0 -0.00000000000E+00 -0.00000000000E+00 -0.45593999997E+02  0.45594000000E+02  0.51100000000E-03 0. -1.
    9900012    2    1    2    0    0 -0.77010264520E+01  0.38842055867E+02 -0.92279266168E+01  0.50528859059E+02  0.29999997597E+02 0.  0.
        -12    1    1    2    0    0  0.77010264520E+01 -0.38842055867E+02  0.92279266168E+01  0.40659140941E+02  0.00000000000E+00 0.  1.
         11    1    3    3    0    0 -0.18880904399E+00  0.84843141559E-01 -0.15035218852E+01  0.15177040338E+01  0.51100000000E-03 0. -1.
        -11    1    3    3    0    0 -0.17497547391E+02  0.28964770131E+02 -0.19980714352E+01  0.33898589398E+02  0.51100000000E-03 0.  1.
        -12    1    3    3    0    0  0.99853299830E+01  0.97924425947E+01 -0.57263332965E+01  0.15112565628E+02  0.00000000000E+00 0.  1.
</event>
<event>
 7    1  0.9978258E-013  0.5052887E+02  0.7816164E-02  0.1300439E+00
        -11   -1    0    0    0    0  0.00000000000E+00  0.00000000000E+00  0.45593999997E+02  0.45594000000E+02  0.51100000000E-03 0.  1.
         11   -1    0    0    0    0 -0.00000000000E+00 -0.00000000000E+00 -0.45593999997E+02  0.45594000000E+02  0.51100000000E-03 0. -1.
    9900012    2    1    2    0    0  0.37660886230E+02  0.14559560156E+02 -0.47792616977E+01  0.50528874506E+02  0.30000044547E+02 0.  0.
        -12    1    1    2    0    0 -0.37660886230E+02 -0.14559560156E+02  0.47792616977E+01  0.40659125494E+02  0.00000000000E+00 0.  1.
         11    1    3    3    0    0  0.10911243893E+02  0.39340704169E+01 -0.82787517153E+01  0.14250259070E+02  0.51100000000E-03 0. -1.
        -11    1    3    3    0    0  0.64419749866E+01  0.49284229455E+01  0.11197108233E+02  0.13826193529E+02  0.51100000000E-03 0.  1.
        -12    1    3    3    0    0  0.20307667351E+02  0.56970667933E+01 -0.76976182156E+01  0.22452421907E+02  0.00000000000E+00 0.  1.
</event>
<event>
 7    1  0.9978258E-013  0.5052886E+02  0.7816164E-02  0.1300439E+00
        -11   -1    0    0    0    0  0.00000000000E+00  0.00000000000E+00  0.45593999997E+02  0.45594000000E+02  0.51100000000E-03 0.  1.
         11   -1    0    0    0    0 -0.00000000000E+00 -0.00000000000E+00 -0.45593999997E+02  0.45594000000E+02  0.51100000000E-03 0. -1.
    9900012    2    1    2    0    0 -0.95262265632E+01 -0.28742343070E+02 -0.27134749672E+02  0.50528856902E+02  0.29999991040E+02 0.  0.
        -12    1    1    2    0    0  0.95262265632E+01  0.28742343070E+02  0.27134749672E+02  0.40659143098E+02  0.00000000000E+00 0.  1.
         11    1    3    3    0    0 -0.16966992444E+01  0.26801052536E+01  0.41700446174E+01  0.52393725644E+01  0.51100000000E-03 0. -1.
        -11    1    3    3    0    0 -0.84497575552E-01 -0.46745564249E+01 -0.64339136072E+01  0.79532296695E+01  0.51100000000E-03 0.  1.
         12    1    3    3    0    0 -0.77450297432E+01 -0.26747891898E+02 -0.24870880683E+02  0.37336254668E+02  0.00000000000E+00 0. -1.
</event>
<event>
 7    1  0.9978258E-013  0.5052883E+02  0.7816164E-02  0.1300439E+00
        -11   -1    0    0    0    0  0.00000000000E+00  0.00000000000E+00  0.45593999997E+02  0.45594000000E+02  0.51100000000E-03 0.  1.
         11   -1    0    0    0    0 -0.00000000000E+00 -0.00000000000E+00 -0.45593999997E+02  0.45594000000E+02  0.51100000000E-03 0. -1.
    9900012    2    1    2    0    0 -0.35714572824E+02 -0.18698733639E+02 -0.52909936848E+01  0.50528831712E+02  0.29999914472E+02 0.  0.
        -12    1    1    2    0    0  0.35714572824E+02  0.18698733639E+02  0.52909936848E+01  0.40659168288E+02  0.00000000000E+00 0.  1.
         11    1    3    3    0    0 -0.26356025291E+02 -0.85909829824E+01 -0.73618444735E+01  0.28681733072E+02  0.51100000000E-03 0. -1.
        -11    1    3    3    0    0 -0.40468757983E+01  0.18951500328E+01  0.65926151997E+01  0.79643815081E+01  0.51100000000E-03 0.  1.
         12    1    3    3    0    0 -0.53116717352E+01 -0.12002900689E+02 -0.45217644110E+01  0.13882717132E+02  0.00000000000E+00 0. -1.
</event>
<event>
 7    1  0.9978258E-013  0.5052884E+02  0.7816164E-02  0.1300439E+00
        -11   -1    0    0    0    0  0.00000000000E+00  0.00000000000E+00  0.45593999997E+02  0.45594000000E+02  0.51100000000E-03 0.  1.
         11   -1    0    0    0    0 -0.00000000000E+00 -0.00000000000E+00 -0.45593999997E+02  0.45594000000E+02  0.51100000000E-03 0. -1.
    9900012    2    1    2    0    0 -0.36961026127E+02 -0.27429564497E+01 -0.16719023574E+02  0.50528843446E+02  0.29999950137E+02 0.  0.
        -12    1    1    2    0    0  0.36961026127E+02  0.27429564497E+01  0.16719023574E+02  0.40659156554E+02  0.00000000000E+00 0.  1.
         11    1    3    3    0    0 -0.22292918947E+02  0.51587972824E+01 -0.13849621060E+02  0.26746951758E+02  0.51100000000E-03 0. -1.
        -11    1    3    3    0    0 -0.43602606420E+01 -0.43710732644E+01  0.68210880344E+01  0.92002932879E+01  0.51100000000E-03 0.  1.
        -12    1    3    3    0    0 -0.10307846538E+02 -0.35306804677E+01 -0.96904905484E+01  0.14581598399E+02  0.00000000000E+00 0.  1.
</event>
<event>
 7    1  0.9978258E-013  0.5052885E+02  0.7816164E-02  0.1300439E+00
        -11   -1    0    0    0    0  0.00000000000E+00  0.00000000000E+00  0.45593999997E+02  0.45594000000E+02  0.51100000000E-03 0.  1.
         11   -1    0    0    0    0 -0.00000000000E+00 -0.00000000000E+00 -0.45593999997E+02  0.45594000000E+02  0.51100000000E-03 0. -1.
    9900012    2    1    2    0    0  0.79323889972E+01  0.16709609210E+02 -0.36208180001E+02  0.50528854237E+02  0.29999982940E+02 0.  0.
        -12    1    1    2    0    0 -0.79323889972E+01 -0.16709609210E+02  0.36208180001E+02  0.40659145763E+02  0.00000000000E+00 0.  1.
         11    1    3    3    0    0 -0.39178281466E+01  0.17295293559E+01 -0.30206526688E+01  0.52407052947E+01  0.51100000000E-03 0. -1.
        -11    1    3    3    0    0  0.80704235681E+01  0.54521886637E+01 -0.33646357298E+02  0.35027638480E+02  0.51100000000E-03 0.  1.
        -12    1    3    3    0    0  0.37797935757E+01  0.95278911904E+01  0.45882996611E+00  0.10260510462E+02  0.00000000000E+00 0.  1.
</event>
<event>
 7    1  0.9978258E-013  0.5052885E+02  0.7816164E-02  0.1300439E+00
        -11   -1    0    0    0    0  0.00000000000E+00  0.00000000000E+00  0.45593999997E+02  0.45594000000E+02  0.51100000000E-03 0. -1.
         11   -1    0    0    0    0 -0.00000000000E+00 -0.00000000000E+00 -0.45593999997E+02  0.45594000000E+02  0.51100000000E-03 0.  1.
    9900012    2    1    2    0    0 -0.19610312450E+01 -0.28013971946E+02  0.29403024293E+02  0.50528854592E+02  0.29999984017E+02 0.  0.
        -12    1    1    2    0    0  0.19610312450E+01  0.28013971946E+02 -0.29403024293E+02  0.40659145408E+02  0.00000000000E+00 0.  1.
         11    1    3    3    0    0  0.54898588256E+01 -0.11711722996E+02  0.20331353116E+02  0.24097031462E+02  0.51100000000E-03 0. -1.
        -11    1    3    3    0    0 -0.87579101382E+01 -0.60331521868E+01 -0.24802433911E+01  0.10920234560E+02  0.51100000000E-03 0.  1.
        -12    1    3    3    0    0  0.13070200676E+01 -0.10269096763E+02  0.11551914568E+02  0.15511588570E+02  0.00000000000E+00 0.  1.
</event>
<event>
 7    1  0.9978258E-013  0.5052885E+02  0.7816164E-02  0.1300439E+00
        -11   -1    0    0    0    0  0.00000000000E+00  0.00000000000E+00  0.45593999997E+02  0.45594000000E+02  0.51100000000E-03 0. -1.
         11   -1    0    0    0    0 -0.00000000000E+00 -0.00000000000E+00 -0.45593999997E+02  0.45594000000E+02  0.51100000000E-03 0.  1.
    9900012    2    1    2    0    0 -0.23241566068E+02  0.32071397464E+02 -0.91881420284E+01  0.50528845034E+02  0.29999954966E+02 0.  0.
        -12    1    1    2    0    0  0.23241566068E+02 -0.32071397464E+02  0.91881420284E+01  0.40659154966E+02  0.00000000000E+00 0.  1.
         11    1    3    3    0    0 -0.14152116832E+02 -0.80625946248E-01 -0.14372852156E+01  0.14225143247E+02  0.51100000000E-03 0. -1.
        -11    1    3    3    0    0 -0.80155844751E+00  0.11104050513E+02 -0.79530614875E+01  0.13681871985E+02  0.51100000000E-03 0.  1.
         12    1    3    3    0    0 -0.82878907889E+01  0.21047972898E+02  0.20220467470E+00  0.22621829801E+02  0.00000000000E+00 0. -1.
</event>
<event>
 7    1  0.9978258E-013  0.5052890E+02  0.7816164E-02  0.1300439E+00
        -11   -1    0    0    0    0  0.00000000000E+00  0.00000000000E+00  0.45593999997E+02  0.45594000000E+02  0.51100000000E-03 0. -1.
         11   -1    0    0    0    0 -0.00000000000E+00 -0.00000000000E+00 -0.45593999997E+02  0.45594000000E+02  0.51100000000E-03 0.  1.
    9900012    2    1    2    0    0 -0.66626029804E+01  0.12858411246E+02  0.37992548832E+02  0.50528895423E+02  0.30000108129E+02 0.  0.
        -12    1    1    2    0    0  0.66626029804E+01 -0.12858411246E+02 -0.37992548832E+02  0.40659104577E+02  0.00000000000E+00 0.  1.
         11    1    3    3    0    0 -0.69139263974E+01 -0.59124615430E+01  0.15681731896E+02  0.18129431741E+02  0.51100000000E-03 0. -1.
        -11    1    3    3    0    0  0.61227380663E+01  0.97605300663E+01  0.63570277019E+01  0.13159318754E+02  0.51100000000E-03 0.  1.
        -12    1    3    3    0    0 -0.58714146492E+01  0.90103427224E+01  0.15953789234E+02  0.19240144929E+02  0.00000000000E+00 0.  1.
</event>
<event>
 7    1  0.9978258E-013  0.5052887E+02  0.7816164E-02  0.1300439E+00
        -11   -1    0    0    0    0  0.00000000000E+00  0.00000000000E+00  0.45593999997E+02  0.45594000000E+02  0.51100000000E-03 0. -1.
         11   -1    0    0    0    0 -0.00000000000E+00 -0.00000000000E+00 -0.45593999997E+02  0.45594000000E+02  0.51100000000E-03 0.  1.
    9900012    2    1    2    0    0  0.12197725339E+02 -0.32505137072E+02  0.21161199180E+02  0.50528870764E+02  0.30000033175E+02 0.  0.
        -12    1    1    2    0    0 -0.12197725339E+02  0.32505137072E+02 -0.21161199180E+02  0.40659129236E+02  0.00000000000E+00 0.  1.
         11    1    3    3    0    0  0.14279834239E+02 -0.17507375097E+02  0.10285049430E+02  0.24823458476E+02  0.51100000000E-03 0. -1.
        -11    1    3    3    0    0 -0.12633461813E+01  0.16597980886E+01 -0.32415503695E+01  0.38546883568E+01  0.51100000000E-03 0.  1.
        -12    1    3    3    0    0 -0.81876271915E+00 -0.16657560064E+02  0.14117700119E+02  0.21850723931E+02  0.00000000000E+00 0.  1.
</event>
<event>
 7    1  0.9978258E-013  0.5052885E+02  0.7816164E-02  0.1300439E+00
        -11   -1    0    0    0    0  0.00000000000E+00  0.00000000000E+00  0.45593999997E+02  0.45594000000E+02  0.51100000000E-03 0.  1.
         11   -1    0    0    0    0 -0.00000000000E+00 -0.00000000000E+00 -0.45593999997E+02  0.45594000000E+02  0.51100000000E-03 0. -1.
    9900012    2    1    2    0    0  0.40405609017E+02 -0.36789554139E+01 -0.26492280254E+01  0.50528851434E+02  0.29999974418E+02 0.  0.
        -12    1    1    2    0    0 -0.40405609017E+02  0.36789554139E+01  0.26492280254E+01  0.40659148566E+02  0.00000000000E+00 0.  1.
         11    1    3    3    0    0  0.29985505870E+02 -0.91434498113E+00  0.83265447424E+01  0.31133550017E+02  0.51100000000E-03 0. -1.
        -11    1    3    3    0    0  0.21671884531E+01 -0.46156813815E+01 -0.95387371101E+01  0.10816132688E+02  0.51100000000E-03 0.  1.
        -12    1    3    3    0    0  0.82529146939E+01  0.18510709487E+01 -0.14370356577E+01  0.85791687292E+01  0.00000000000E+00 0.  1.
</event>
<event>
 7    1  0.9978258E-013  0.5052886E+02  0.7816164E-02  0.1300439E+00
        -11   -1    0    0    0    0  0.00000000000E+00  0.00000000000E+00  0.45593999997E+02  0.45594000000E+02  0.51100000000E-03 0.  1.
         11   -1    0    0    0    0 -0.00000000000E+00 -0.00000000000E+00 -0.45593999997E+02  0.45594000000E+02  0.51100000000E-03 0. -1.
    9900012    2    1    2    0    0 -0.33025429787E+02  0.21155152484E+02 -0.10721293125E+02  0.50528860615E+02  0.30000002325E+02 0.  0.
        -12    1    1    2    0    0  0.33025429787E+02 -0.21155152484E+02  0.10721293125E+02  0.40659139385E+02  0.00000000000E+00 0.  1.
         11    1    3    3    0    0 -0.18948274196E+02  0.20759704005E+02  0.49958243255E+01  0.28547515940E+02  0.51100000000E-03 0. -1.
        -11    1    3    3    0    0 -0.60202643274E+01  0.29161475201E+01 -0.88817665257E+01  0.11119050131E+02  0.51100000000E-03 0.  1.
         12    1    3    3    0    0 -0.80568912639E+01 -0.25206990411E+01 -0.68353509254E+01  0.10862294544E+02  0.00000000000E+00 0. -1.
</event>
<event>
 7    1  0.9978258E-013  0.5052887E+02  0.7816164E-02  0.1300439E+00
        -11   -1    0    0    0    0  0.00000000000E+00  0.00000000000E+00  0.45593999997E+02  0.45594000000E+02  0.51100000000E-03 0. -1.
         11   -1    0    0    0    0 -0.00000000000E+00 -0.00000000000E+00 -0.45593999997E+02  0.45594000000E+02  0.51100000000E-03 0.  1.
    9900012    2    1    2    0    0 -0.96238716488E+01  0.12563080528E+01  0.39483759897E+02  0.50528874197E+02  0.30000043610E+02 0.  0.
        -12    1    1    2    0    0  0.96238716488E+01 -0.12563080528E+01 -0.39483759897E+02  0.40659125803E+02  0.00000000000E+00 0.  1.
         11    1    3    3    0    0  0.63863622144E+01  0.21806640931E+01  0.24104236717E+02  0.25031083600E+02  0.51100000000E-03 0.  1.
        -11    1    3    3    0    0 -0.16952277418E+02  0.12923005334E+01  0.10305056544E+02  0.19880742968E+02  0.51100000000E-03 0. -1.
         12    1    3    3    0    0  0.94204355468E+00 -0.22166565737E+01  0.50744666368E+01  0.56170476296E+01  0.00000000000E+00 0. -1.
</event>
<event>
 7    1  0.9978258E-013  0.5052883E+02  0.7816164E-02  0.1300439E+00
        -11   -1    0    0    0    0  0.00000000000E+00  0.00000000000E+00  0.45593999997E+02  0.45594000000E+02  0.51100000000E-03 0. -1.
         11   -1    0    0    0    0 -0.00000000000E+00 -0.00000000000E+00 -0.45593999997E+02  0.45594000000E+02  0.51100000000E-03 0.  1.
    9900012    2    1    2    0    0  0.21173816064E+02 -0.24630494484E+02  0.24457647903E+02  0.50528827774E+02  0.29999902501E+02 0.  0.
        -12    1    1    2    0    0 -0.21173816064E+02  0.24630494484E+02 -0.24457647903E+02  0.40659172226E+02  0.00000000000E+00 0.  1.
         11    1    3    3    0    0  0.25149431863E+02 -0.23457620581E+02  0.15241576150E+02  0.37617277017E+02  0.51100000000E-03 0. -1.
        -11    1    3    3    0    0  0.10949120640E+01 -0.42091506857E+00 -0.96101635007E+00  0.15164282407E+01  0.51100000000E-03 0.  1.
         12    1    3    3    0    0 -0.50705278637E+01 -0.75195883359E+00  0.10177088102E+02  0.11395122516E+02  0.00000000000E+00 0. -1.
</event>
<event>
 7    1  0.9978258E-013  0.5052886E+02  0.7816164E-02  0.1300439E+00
        -11   -1    0    0    0    0  0.00000000000E+00  0.00000000000E+00  0.45593999997E+02  0.45594000000E+02  0.51100000000E-03 0.  1.
         11   -1    0    0    0    0 -0.00000000000E+00 -0.00000000000E+00 -0.45593999997E+02  0.45594000000E+02  0.51100000000E-03 0. -1.
    9900012    2    1    2    0    0  0.13587230084E+02 -0.30778530402E+02 -0.22830570888E+02  0.50528859304E+02  0.29999998341E+02 0.  0.
        -12    1    1    2    0    0 -0.13587230084E+02  0.30778530402E+02  0.22830570888E+02  0.40659140696E+02  0.00000000000E+00 0.  1.
         11    1    3    3    0    0 -0.18893376202E+01 -0.62959051370E+01 -0.76775814767E+00  0.66179657730E+01  0.51100000000E-03 0. -1.
        -11    1    3    3    0    0  0.11912328695E+02 -0.24163008368E+01 -0.17157426942E+02  0.21026635114E+02  0.51100000000E-03 0.  1.
        -12    1    3    3    0    0  0.35642390093E+01 -0.22066324428E+02 -0.49053857975E+01  0.22884258417E+02  0.00000000000E+00 0.  1.
</event>
<event>
 7    1  0.9978258E-013  0.5052882E+02  0.7816164E-02  0.1300439E+00
        -11   -1    0    0    0    0  0.00000000000E+00  0.00000000000E+00  0.45593999997E+02  0.45594000000E+02  0.51100000000E-03 0.  1.
         11   -1    0    0    0    0 -0.00000000000E+00 -0.00000000000E+00 -0.45593999997E+02  0.45594000000E+02  0.51100000000E-03 0. -1.
    9900012    2    1    2    0    0  0.97842394483E+01  0.17040484694E+01 -0.39427579924E+02  0.50528816764E+02  0.29999869035E+02 0.  0.
        -12    1    1    2    0    0 -0.97842394483E+01 -0.17040484694E+01  0.39427579924E+02  0.40659183236E+02  0.00000000000E+00 0.  1.
         11    1    3    3    0    0  0.55957075189E+00 -0.32622830485E+01 -0.39299889722E+02  0.39439028164E+02  0.51100000000E-03 0. -1.
        -11    1    3    3    0    0  0.66853648345E+01  0.37402087038E+01 -0.17203108497E+01  0.78512886712E+01  0.51100000000E-03 0.  1.
         12    1    3    3    0    0  0.25393038620E+01  0.12261228140E+01  0.15926206475E+01  0.32384999282E+01  0.00000000000E+00 0. -1.
</event>
<event>
 7    1  0.9978258E-013  0.5052886E+02  0.7816164E-02  0.1300439E+00
        -11   -1    0    0    0    0  0.00000000000E+00  0.00000000000E+00  0.45593999997E+02  0.45594000000E+02  0.51100000000E-03 0. -1.
         11   -1    0    0    0    0 -0.00000000000E+00 -0.00000000000E+00 -0.45593999997E+02  0.45594000000E+02  0.51100000000E-03 0.  1.
    9900012    2    1    2    0    0  0.10199516083E+02  0.37927239797E+02 -0.10519512074E+02  0.50528858577E+02  0.29999996131E+02 0.  0.
        -12    1    1    2    0    0 -0.10199516083E+02 -0.37927239797E+02  0.10519512074E+02  0.40659141423E+02  0.00000000000E+00 0.  1.
         11    1    3    3    0    0  0.86222607268E+01  0.34789227585E+02 -0.55437207564E+01  0.36267982796E+02  0.51100000000E-03 0. -1.
        -11    1    3    3    0    0 -0.25647136668E+01 -0.15149336386E+01  0.29417512073E+01  0.41864878537E+01  0.51100000000E-03 0.  1.
        -12    1    3    3    0    0  0.41419690235E+01  0.46529458511E+01 -0.79175425252E+01  0.10074387928E+02  0.00000000000E+00 0.  1.
</event>
<event>
 7    1  0.9978258E-013  0.5052886E+02  0.7816164E-02  0.1300439E+00
        -11   -1    0    0    0    0  0.00000000000E+00  0.00000000000E+00  0.45593999997E+02  0.45594000000E+02  0.51100000000E-03 0. -1.
         11   -1    0    0    0    0 -0.00000000000E+00 -0.00000000000E+00 -0.45593999997E+02  0.45594000000E+02  0.51100000000E-03 0.  1.
    9900012    2    1    2    0    0 -0.34909133074E+02 -0.24657645770E+00  0.20843638217E+02  0.50528860485E+02  0.30000001931E+02 0.  0.
        -12    1    1    2    0    0  0.34909133074E+02  0.24657645770E+00 -0.20843638217E+02  0.40659139515E+02  0.00000000000E+00 0.  1.
         11    1    3    3    0    0 -0.36761720751E+02  0.62515795433E+01  0.20848212037E+02  0.42721824689E+02  0.51100000000E-03 0. -1.
        -11    1    3    3    0    0 -0.56689102920E+00 -0.11055584260E+01 -0.12547225623E+01  0.17657728738E+01  0.51100000000E-03 0.  1.
         12    1    3    3    0    0  0.24194787064E+01 -0.53925975750E+01  0.12501487427E+01  0.60412629222E+01  0.00000000000E+00 0. -1.
</event>
<event>
 7    1  0.9978258E-013  0.5052887E+02  0.7816164E-02  0.1300439E+00
        -11   -1    0    0    0    0  0.00000000000E+00  0.00000000000E+00  0.45593999997E+02  0.45594000000E+02  0.51100000000E-03 0.  1.
         11   -1    0    0    0    0 -0.00000000000E+00 -0.00000000000E+00 -0.45593999997E+02  0.45594000000E+02  0.51100000000E-03 0. -1.
    9900012    2    1    2    0    0 -0.15658523175E+02 -0.31315834462E+02 -0.20671090741E+02  0.50528870293E+02  0.30000031743E+02 0.  0.
        -12    1    1    2    0    0  0.15658523175E+02  0.31315834462E+02  0.20671090741E+02  0.40659129707E+02  0.00000000000E+00 0.  1.
         11    1    3    3    0    0  0.54290480129E+00  0.20129403783E+01  0.32527606543E+01  0.38635639927E+01  0.51100000000E-03 0. -1.
        -11    1    3    3    0    0 -0.73808249289E+01 -0.16002003084E+02 -0.26078178307E+01  0.17814078518E+02  0.51100000000E-03 0.  1.
         12    1    3    3    0    0 -0.88206030469E+01 -0.17326771756E+02 -0.21316033565E+02  0.28851227782E+02  0.00000000000E+00 0. -1.
</event>
<event>
 7    1  0.9978258E-013  0.5052885E+02  0.7816164E-02  0.1300439E+00
        -11   -1    0    0    0    0  0.00000000000E+00  0.00000000000E+00  0.45593999997E+02  0.45594000000E+02  0.51100000000E-03 0. -1.
         11   -1    0    0    0    0 -0.00000000000E+00 -0.00000000000E+00 -0.45593999997E+02  0.45594000000E+02  0.51100000000E-03 0.  1.
    9900012    2    1    2    0    0 -0.28296213033E+02  0.82459841473E+01  0.28008828638E+02  0.50528850867E+02  0.29999972694E+02 0.  0.
        -12    1    1    2    0    0  0.28296213033E+02 -0.82459841473E+01 -0.28008828638E+02  0.40659149133E+02  0.00000000000E+00 0.  1.
         11    1    3    3    0    0 -0.27920394149E+02  0.54324967723E+01  0.15036653460E+02  0.32173923885E+02  0.51100000000E-03 0. -1.
        -11    1    3    3    0    0  0.23671134582E+01  0.67526774916E+01  0.11091903308E+02  0.13199704493E+02  0.51100000000E-03 0.  1.
         12    1    3    3    0    0 -0.27429323428E+01 -0.39391901166E+01  0.18802718693E+01  0.51552224893E+01  0.00000000000E+00 0. -1.
</event>
<event>
 7    1  0.9978258E-013  0.5052887E+02  0.7816164E-02  0.1300439E+00
        -11   -1    0    0    0    0  0.00000000000E+00  0.00000000000E+00  0.45593999997E+02  0.45594000000E+02  0.51100000000E-03 0. -1.
         11   -1    0    0    0    0 -0.00000000000E+00 -0.00000000000E+00 -0.45593999997E+02  0.45594000000E+02  0.51100000000E-03 0.  1.
    9900012    2    1    2    0    0 -0.31560889035E+02  0.24023855882E+02 -0.89403507350E+01  0.50528865241E+02  0.30000016386E+02 0.  0.
        -12    1    1    2    0    0  0.31560889035E+02 -0.24023855882E+02  0.89403507350E+01  0.40659134759E+02  0.00000000000E+00 0.  1.
         11    1    3    3    0    0 -0.37983799885E+01  0.36741995374E+01 -0.55635728070E+01  0.76733809639E+01  0.51100000000E-03 0. -1.
        -11    1    3    3    0    0 -0.20691648706E+02  0.19876067719E+02  0.76990414618E+01  0.29706525105E+02  0.51100000000E-03 0.  1.
        -12    1    3    3    0    0 -0.70708603401E+01  0.47358862564E+00 -0.11075819390E+02  0.13148959171E+02  0.00000000000E+00 0.  1.
</event>
<event>
 7    1  0.9978258E-013  0.5052886E+02  0.7816164E-02  0.1300439E+00
        -11   -1    0    0    0    0  0.00000000000E+00  0.00000000000E+00  0.45593999997E+02  0.45594000000E+02  0.51100000000E-03 0. -1.
         11   -1    0    0    0    0 -0.00000000000E+00 -0.00000000000E+00 -0.45593999997E+02  0.45594000000E+02  0.51100000000E-03 0.  1.
    9900012    2    1    2    0    0  0.13135599986E+02 -0.34985784275E+02  0.16019263411E+02  0.50528857258E+02  0.29999992121E+02 0.  0.
        -12    1    1    2    0    0 -0.13135599986E+02  0.34985784275E+02 -0.16019263411E+02  0.40659142742E+02  0.00000000000E+00 0.  1.
         11    1    3    3    0    0 -0.68284551592E+01 -0.16890062106E+02  0.34866052514E+01  0.18548811666E+02  0.51100000000E-03 0. -1.
        -11    1    3    3    0    0  0.19212126501E+02 -0.14421772089E+02  0.65167183895E+01  0.24890980971E+02  0.51100000000E-03 0.  1.
        -12    1    3    3    0    0  0.75192864416E+00 -0.36739500797E+01  0.60159397703E+01  0.70890646205E+01  0.00000000000E+00 0.  1.
</event>
<event>
 7    1  0.9978258E-013  0.5052884E+02  0.7816164E-02  0.1300439E+00
        -11   -1    0    0    0    0  0.00000000000E+00  0.00000000000E+00  0.45593999997E+02  0.45594000000E+02  0.51100000000E-03 0. -1.
         11   -1    0    0    0    0 -0.00000000000E+00 -0.00000000000E+00 -0.45593999997E+02  0.45594000000E+02  0.51100000000E-03 0.  1.
    9900012    2    1    2    0    0 -0.35220040737E+02  0.11489231501E+02  0.16754502670E+02  0.50528842732E+02  0.29999947969E+02 0.  0.
        -12    1    1    2    0    0  0.35220040737E+02 -0.11489231501E+02 -0.16754502670E+02  0.40659157268E+02  0.00000000000E+00 0.  1.
         11    1    3    3    0    0 -0.72285338857E+00 -0.21059519562E+01  0.11539064951E+02  0.11751917753E+02  0.51100000000E-03 0. -1.
        -11    1    3    3    0    0 -0.17522523553E+02  0.64234921880E+01 -0.24417463976E+01  0.18821854566E+02  0.51100000000E-03 0.  1.
         12    1    3    3    0    0 -0.16974663795E+02  0.71716912693E+01  0.76571841165E+01  0.19955070414E+02  0.00000000000E+00 0. -1.
</event>
<event>
 7    1  0.9978258E-013  0.5052886E+02  0.7816164E-02  0.1300439E+00
        -11   -1    0    0    0    0  0.00000000000E+00  0.00000000000E+00  0.45593999997E+02  0.45594000000E+02  0.51100000000E-03 0.  1.
         11   -1    0    0    0    0 -0.00000000000E+00 -0.00000000000E+00 -0.45593999997E+02  0.45594000000E+02  0.51100000000E-03 0. -1.
    9900012    2    1    2    0    0 -0.14526259779E+02  0.59225661698E+01 -0.37511021147E+02  0.50528859322E+02  0.29999998395E+02 0.  0.
        -12    1    1    2    0    0  0.14526259779E+02 -0.59225661698E+01  0.37511021147E+02  0.40659140678E+02  0.00000000000E+00 0.  1.
         11    1    3    3    0    0 -0.22232256592E+02  0.36553301123E+01 -0.24018515967E+02  0.32932108662E+02  0.51100000000E-03 0. -1.
        -11    1    3    3    0    0  0.57650684246E+01  0.13663121186E+01 -0.14164657675E+02  0.15353838284E+02  0.51100000000E-03 0.  1.
         12    1    3    3    0    0  0.19409283878E+01  0.90092393887E+00  0.67215249541E+00  0.22429123762E+01  0.00000000000E+00 0. -1.
</event>
<event>
 7    1  0.9978258E-013  0.5052886E+02  0.7816164E-02  0.1300439E+00
        -11   -1    0    0    0    0  0.00000000000E+00  0.00000000000E+00  0.45593999997E+02  0.45594000000E+02  0.51100000000E-03 0.  1.
         11   -1    0    0    0    0 -0.00000000000E+00 -0.00000000000E+00 -0.45593999997E+02  0.45594000000E+02  0.51100000000E-03 0. -1.
    9900012    2    1    2    0    0 -0.23908174766E+02 -0.32419250783E+02 -0.55278194497E+01  0.50528862898E+02  0.30000009265E+02 0.  0.
        -12    1    1    2    0    0  0.23908174766E+02  0.32419250783E+02  0.55278194497E+01  0.40659137102E+02  0.00000000000E+00 0.  1.
         11    1    3    3    0    0 -0.14217950301E+02 -0.19742648741E+02 -0.10907243256E+02  0.26662525120E+02  0.51100000000E-03 0. -1.
        -11    1    3    3    0    0  0.13896122109E+01 -0.87733185890E+01  0.78589494372E+01  0.11860237252E+02  0.51100000000E-03 0.  1.
        -12    1    3    3    0    0 -0.11079836676E+02 -0.39032834536E+01 -0.24795256305E+01  0.12006100526E+02  0.00000000000E+00 0.  1.
</event>
<event>
 7    1  0.9978258E-013  0.5052893E+02  0.7816164E-02  0.1300439E+00
        -11   -1    0    0    0    0  0.00000000000E+00  0.00000000000E+00  0.45593999997E+02  0.45594000000E+02  0.51100000000E-03 0.  1.
         11   -1    0    0    0    0 -0.00000000000E+00 -0.00000000000E+00 -0.45593999997E+02  0.45594000000E+02  0.51100000000E-03 0. -1.
    9900012    2    1    2    0    0  0.28275486829E+02 -0.10181440820E+02 -0.27386045097E+02  0.50528925261E+02  0.30000198822E+02 0.  0.
        -12    1    1    2    0    0 -0.28275486829E+02  0.10181440820E+02  0.27386045097E+02  0.40659074739E+02  0.00000000000E+00 0.  1.
         11    1    3    3    0    0  0.16143425078E+02 -0.13617967461E+02 -0.17243511395E+02  0.27265324067E+02  0.51100000000E-03 0. -1.
        -11    1    3    3    0    0  0.95541761746E+01  0.76957610563E+01 -0.12707439699E+02  0.17663126693E+02  0.51100000000E-03 0.  1.
        -12    1    3    3    0    0  0.25778855764E+01 -0.42592344158E+01  0.25649059969E+01  0.56004745001E+01  0.00000000000E+00 0.  1.
</event>
<event>
 7    1  0.9978258E-013  0.5052886E+02  0.7816164E-02  0.1300439E+00
        -11   -1    0    0    0    0  0.00000000000E+00  0.00000000000E+00  0.45593999997E+02  0.45594000000E+02  0.51100000000E-03 0. -1.
         11   -1    0    0    0    0 -0.00000000000E+00 -0.00000000000E+00 -0.45593999997E+02  0.45594000000E+02  0.51100000000E-03 0.  1.
    9900012    2    1    2    0    0 -0.30056612362E+02  0.12665539385E+02  0.24276526189E+02  0.50528861318E+02  0.30000004461E+02 0.  0.
        -12    1    1    2    0    0  0.30056612362E+02 -0.12665539385E+02 -0.24276526189E+02  0.40659138682E+02  0.00000000000E+00 0.  1.
         11    1    3    3    0    0 -0.85046365808E+01  0.47718051214E+01  0.49680292931E+01  0.10944417883E+02  0.51100000000E-03 0. -1.
        -11    1    3    3    0    0  0.60407415780E+01  0.12874399106E+01  0.37584189950E+01  0.72300604381E+01  0.51100000000E-03 0.  1.
        -12    1    3    3    0    0 -0.27592717359E+02  0.66062943534E+01  0.15550077900E+02  0.32354382996E+02  0.00000000000E+00 0.  1.
</event>
<event>
 7    1  0.9978258E-013  0.5052886E+02  0.7816164E-02  0.1300439E+00
        -11   -1    0    0    0    0  0.00000000000E+00  0.00000000000E+00  0.45593999997E+02  0.45594000000E+02  0.51100000000E-03 0. -1.
         11   -1    0    0    0    0 -0.00000000000E+00 -0.00000000000E+00 -0.45593999997E+02  0.45594000000E+02  0.51100000000E-03 0.  1.
    9900012    2    1    2    0    0  0.33881930024E+01  0.23624911870E+02  0.32917305758E+02  0.50528864113E+02  0.30000012958E+02 0.  0.
        -12    1    1    2    0    0 -0.33881930024E+01 -0.23624911870E+02 -0.32917305758E+02  0.40659135887E+02  0.00000000000E+00 0.  1.
         11    1    3    3    0    0 -0.27082292399E+01 -0.45615169934E+01 -0.89624369789E-01  0.53056550666E+01  0.51100000000E-03 0. -1.
        -11    1    3    3    0    0  0.79079289853E+01  0.26887437670E+02  0.27423261459E+02  0.39211030522E+02  0.51100000000E-03 0.  1.
        -12    1    3    3    0    0 -0.18115067431E+01  0.12989911934E+01  0.55836686691E+01  0.60121785243E+01  0.00000000000E+00 0.  1.
</event>
<event>
 7    1  0.9978258E-013  0.5052885E+02  0.7816164E-02  0.1300439E+00
        -11   -1    0    0    0    0  0.00000000000E+00  0.00000000000E+00  0.45593999997E+02  0.45594000000E+02  0.51100000000E-03 0.  1.
         11   -1    0    0    0    0 -0.00000000000E+00 -0.00000000000E+00 -0.45593999997E+02  0.45594000000E+02  0.51100000000E-03 0. -1.
    9900012    2    1    2    0    0  0.87154670458E+00 -0.10907727101E+02 -0.39159016033E+02  0.50528848007E+02  0.29999964001E+02 0.  0.
        -12    1    1    2    0    0 -0.87154670458E+00  0.10907727101E+02  0.39159016033E+02  0.40659151993E+02  0.00000000000E+00 0.  1.
         11    1    3    3    0    0  0.60584888276E+01 -0.58103641097E+00 -0.13366132273E+02  0.14686605543E+02  0.51100000000E-03 0. -1.
        -11    1    3    3    0    0 -0.71722741795E+01 -0.16510735500E+02 -0.21572343435E+02  0.28096474960E+02  0.51100000000E-03 0.  1.
        -12    1    3    3    0    0  0.19853320564E+01  0.61840448097E+01 -0.42205403254E+01  0.77457675037E+01  0.00000000000E+00 0.  1.
</event>
<event>
 7    1  0.9978258E-013  0.5052887E+02  0.7816164E-02  0.1300439E+00
        -11   -1    0    0    0    0  0.00000000000E+00  0.00000000000E+00  0.45593999997E+02  0.45594000000E+02  0.51100000000E-03 0.  1.
         11   -1    0    0    0    0 -0.00000000000E+00 -0.00000000000E+00 -0.45593999997E+02  0.45594000000E+02  0.51100000000E-03 0. -1.
    9900012    2    1    2    0    0 -0.13674645511E+02 -0.72876577336E+01 -0.37590677107E+02  0.50528869531E+02  0.30000029428E+02 0.  0.
        -12    1    1    2    0    0  0.13674645511E+02  0.72876577336E+01  0.37590677107E+02  0.40659130469E+02  0.00000000000E+00 0.  1.
         11    1    3    3    0    0 -0.40005585094E+01  0.72138094206E+01 -0.14130214881E+01  0.83689990280E+01  0.51100000000E-03 0. -1.
        -11    1    3    3    0    0 -0.76443294802E+00 -0.12250956162E+02 -0.17933098469E+02  0.21731688972E+02  0.51100000000E-03 0.  1.
         12    1    3    3    0    0 -0.89096540537E+01 -0.22505109921E+01 -0.18244557150E+02  0.20428181531E+02  0.00000000000E+00 0. -1.
</event>
<event>
 7    1  0.9978258E-013  0.5052885E+02  0.7816164E-02  0.1300439E+00
        -11   -1    0    0    0    0  0.00000000000E+00  0.00000000000E+00  0.45593999997E+02  0.45594000000E+02  0.51100000000E-03 0.  1.
         11   -1    0    0    0    0 -0.00000000000E+00 -0.00000000000E+00 -0.45593999997E+02  0.45594000000E+02  0.51100000000E-03 0. -1.
    9900012    2    1    2    0    0 -0.16401167646E+02 -0.29954061280E+02 -0.22066324462E+02  0.50528846509E+02  0.29999959450E+02 0.  0.
        -12    1    1    2    0    0  0.16401167646E+02  0.29954061280E+02  0.22066324462E+02  0.40659153491E+02  0.00000000000E+00 0.  1.
         11    1    3    3    0    0 -0.17635276928E+02 -0.12875882939E+02 -0.23335059546E+02  0.31958040585E+02  0.51100000000E-03 0. -1.
        -11    1    3    3    0    0 -0.26982787425E+01 -0.51312039265E+01 -0.70227519306E+00  0.58397904599E+01  0.51100000000E-03 0.  1.
         12    1    3    3    0    0  0.39323880246E+01 -0.11946974415E+02  0.19710102770E+01  0.12731015464E+02  0.00000000000E+00 0. -1.
</event>
<event>
 7    1  0.9978258E-013  0.5052886E+02  0.7816164E-02  0.1300439E+00
        -11   -1    0    0    0    0  0.00000000000E+00  0.00000000000E+00  0.45593999997E+02  0.45594000000E+02  0.51100000000E-03 0. -1.
         11   -1    0    0    0    0 -0.00000000000E+00 -0.00000000000E+00 -0.45593999997E+02  0.45594000000E+02  0.51100000000E-03 0.  1.
    9900012    2    1    2    0    0  0.18975210880E+02  0.26226888593E+02  0.24601973371E+02  0.50528863180E+02  0.30000010122E+02 0.  0.
        -12    1    1    2    0    0 -0.18975210880E+02 -0.26226888593E+02 -0.24601973371E+02  0.40659136820E+02  0.00000000000E+00 0.  1.
         11    1    3    3    0    0 -0.63864279244E+01 -0.17798788893E+00  0.50637266703E+00  0.64089433498E+01  0.51100000000E-03 0.  1.
        -11    1    3    3    0    0  0.36449132784E+01  0.65855714691E+01  0.56517471869E+01  0.94126187061E+01  0.51100000000E-03 0. -1.
         12    1    3    3    0    0  0.21716725526E+02  0.19819305013E+02  0.18443853517E+02  0.34707301124E+02  0.00000000000E+00 0. -1.
</event>
<event>
 7    1  0.9978258E-013  0.5052887E+02  0.7816164E-02  0.1300439E+00
        -11   -1    0    0    0    0  0.00000000000E+00  0.00000000000E+00  0.45593999997E+02  0.45594000000E+02  0.51100000000E-03 0.  1.
         11   -1    0    0    0    0 -0.00000000000E+00 -0.00000000000E+00 -0.45593999997E+02  0.45594000000E+02  0.51100000000E-03 0. -1.
    9900012    2    1    2    0    0 -0.36926034692E+02  0.38858929607E-01 -0.17018555499E+02  0.50528870897E+02  0.30000033579E+02 0.  0.
        -12    1    1    2    0    0  0.36926034692E+02 -0.38858929607E-01  0.17018555499E+02  0.40659129103E+02  0.00000000000E+00 0.  1.
         11    1    3    3    0    0 -0.12327627344E+02 -0.25099099590E+01  0.57321238376E+01  0.13824879309E+02  0.51100000000E-03 0. -1.
        -11    1    3    3    0    0 -0.10285537672E+02  0.84506218823E+01 -0.10971404266E+02  0.17250420495E+02  0.51100000000E-03 0.  1.
         12    1    3    3    0    0 -0.14312869676E+02 -0.59018529937E+01 -0.11779275071E+02  0.19453571094E+02  0.00000000000E+00 0. -1.
</event>
<event>
 7    1  0.9978258E-013  0.5052886E+02  0.7816164E-02  0.1300439E+00
        -11   -1    0    0    0    0  0.00000000000E+00  0.00000000000E+00  0.45593999997E+02  0.45594000000E+02  0.51100000000E-03 0.  1.
         11   -1    0    0    0    0 -0.00000000000E+00 -0.00000000000E+00 -0.45593999997E+02  0.45594000000E+02  0.51100000000E-03 0. -1.
    9900012    2    1    2    0    0 -0.27271913875E+02  0.50995885565E+01 -0.29722084796E+02  0.50528863087E+02  0.30000009840E+02 0.  0.
        -12    1    1    2    0    0  0.27271913875E+02 -0.50995885565E+01  0.29722084796E+02  0.40659136913E+02  0.00000000000E+00 0.  1.
         11    1    3    3    0    0 -0.16321090240E+02 -0.82255671366E+01 -0.11151220199E+02  0.21409989573E+02  0.51100000000E-03 0. -1.
        -11    1    3    3    0    0  0.22286507418E+00  0.77173792491E+01 -0.13652355058E+02  0.15684208944E+02  0.51100000000E-03 0.  1.
        -12    1    3    3    0    0 -0.11173688709E+02  0.56077764440E+01 -0.49185095396E+01  0.13434664570E+02  0.00000000000E+00 0.  1.
</event>
<event>
 7    1  0.9978258E-013  0.5052879E+02  0.7816164E-02  0.1300439E+00
        -11   -1    0    0    0    0  0.00000000000E+00  0.00000000000E+00  0.45593999997E+02  0.45594000000E+02  0.51100000000E-03 0.  1.
         11   -1    0    0    0    0 -0.00000000000E+00 -0.00000000000E+00 -0.45593999997E+02  0.45594000000E+02  0.51100000000E-03 0. -1.
    9900012    2    1    2    0    0  0.40417308899E+02 -0.91912001410E+00 -0.43322109038E+01  0.50528785896E+02  0.29999775208E+02 0.  0.
        -12    1    1    2    0    0 -0.40417308899E+02  0.91912001410E+00  0.43322109038E+01  0.40659214104E+02  0.00000000000E+00 0.  1.
         11    1    3    3    0    0  0.34347100660E+02  0.28757247925E+01 -0.95647850563E+01  0.35769794943E+02  0.51100000000E-03 0. -1.
        -11    1    3    3    0    0  0.13741235800E+01  0.13224609175E+01  0.72738708746E+01  0.75197284693E+01  0.51100000000E-03 0.  1.
         12    1    3    3    0    0  0.46960846592E+01 -0.51173057241E+01 -0.20412967220E+01  0.72392624837E+01  0.00000000000E+00 0. -1.
</event>
<event>
 7    1  0.9978258E-013  0.5052887E+02  0.7816164E-02  0.1300439E+00
        -11   -1    0    0    0    0  0.00000000000E+00  0.00000000000E+00  0.45593999997E+02  0.45594000000E+02  0.51100000000E-03 0.  1.
         11   -1    0    0    0    0 -0.00000000000E+00 -0.00000000000E+00 -0.45593999997E+02  0.45594000000E+02  0.51100000000E-03 0. -1.
    9900012    2    1    2    0    0 -0.14855946547E+02 -0.55664094950E+01 -0.37436360695E+02  0.50528866161E+02  0.30000019183E+02 0.  0.
        -12    1    1    2    0    0  0.14855946547E+02  0.55664094950E+01  0.37436360695E+02  0.40659133839E+02  0.00000000000E+00 0.  1.
         11    1    3    3    0    0 -0.14943967664E+02 -0.10546900709E+02 -0.27495810709E+02  0.33023913925E+02  0.51100000000E-03 0. -1.
        -11    1    3    3    0    0  0.33934241256E+01 -0.10556975287E+01  0.17329633316E+01  0.39538571975E+01  0.51100000000E-03 0.  1.
        -12    1    3    3    0    0 -0.33054030083E+01  0.60361887425E+01 -0.11673513317E+02  0.13551095039E+02  0.00000000000E+00 0.  1.
</event>
<event>
 7    1  0.9978258E-013  0.5052886E+02  0.7816164E-02  0.1300439E+00
        -11   -1    0    0    0    0  0.00000000000E+00  0.00000000000E+00  0.45593999997E+02  0.45594000000E+02  0.51100000000E-03 0. -1.
         11   -1    0    0    0    0 -0.00000000000E+00 -0.00000000000E+00 -0.45593999997E+02  0.45594000000E+02  0.51100000000E-03 0.  1.
    9900012    2    1    2    0    0 -0.39920095060E+02  0.17836642122E+01  0.75080094692E+01  0.50528860144E+02  0.30000000894E+02 0.  0.
        -12    1    1    2    0    0  0.39920095060E+02 -0.17836642122E+01 -0.75080094692E+01  0.40659139856E+02  0.00000000000E+00 0.  1.
         11    1    3    3    0    0 -0.17856814868E+02 -0.13507021178E+01  0.16030137275E+02  0.24034465560E+02  0.51100000000E-03 0. -1.
        -11    1    3    3    0    0 -0.19806886112E+02  0.60065944373E+01 -0.94087385494E+01  0.22735792828E+02  0.51100000000E-03 0.  1.
        -12    1    3    3    0    0 -0.22563940801E+01 -0.28722281073E+01  0.88661074331E+00  0.37586017553E+01  0.00000000000E+00 0.  1.
</event>
<event>
 7    1  0.9978258E-013  0.5052886E+02  0.7816164E-02  0.1300439E+00
        -11   -1    0    0    0    0  0.00000000000E+00  0.00000000000E+00  0.45593999997E+02  0.45594000000E+02  0.51100000000E-03 0. -1.
         11   -1    0    0    0    0 -0.00000000000E+00 -0.00000000000E+00 -0.45593999997E+02  0.45594000000E+02  0.51100000000E-03 0.  1.
    9900012    2    1    2    0    0  0.53329445996E+01  0.16166492342E+02  0.36923838596E+02  0.50528860444E+02  0.30000001806E+02 0.  0.
        -12    1    1    2    0    0 -0.53329445996E+01 -0.16166492342E+02 -0.36923838596E+02  0.40659139556E+02  0.00000000000E+00 0.  1.
         11    1    3    3    0    0  0.22849906343E+00 -0.31489151926E+01  0.26225781586E+02  0.26415137682E+02  0.51100000000E-03 0. -1.
        -11    1    3    3    0    0  0.23304001671E+01  0.17847141877E+02  0.10768884184E+02  0.20974272454E+02  0.51100000000E-03 0.  1.
        -12    1    3    3    0    0  0.27740453690E+01  0.14682656576E+01 -0.70827174196E-01  0.31394503085E+01  0.00000000000E+00 0.  1.
</event>
<event>
 7    1  0.9978258E-013  0.5052886E+02  0.7816164E-02  0.1300439E+00
        -11   -1    0    0    0    0  0.00000000000E+00  0.00000000000E+00  0.45593999997E+02  0.45594000000E+02  0.51100000000E-03 0.  1.
         11   -1    0    0    0    0 -0.00000000000E+00 -0.00000000000E+00 -0.45593999997E+02  0.45594000000E+02  0.51100000000E-03 0. -1.
    9900012    2    1    2    0    0 -0.11536052328E+01  0.80948263946E+01 -0.39828490249E+02  0.50528860131E+02  0.30000000855E+02 0.  0.
        -12    1    1    2    0    0  0.11536052328E+01 -0.80948263946E+01  0.39828490249E+02  0.40659139869E+02  0.00000000000E+00 0.  1.
         11    1    3    3    0    0  0.57881331763E+01  0.11215629830E+02 -0.14304684247E+02  0.19076604253E+02  0.51100000000E-03 0. -1.
        -11    1    3    3    0    0 -0.37396890058E+01 -0.98727021218E+01 -0.11856939499E+02  0.15875847555E+02  0.51100000000E-03 0.  1.
        -12    1    3    3    0    0 -0.32020494032E+01  0.67518986863E+01 -0.13666866503E+02  0.15576408323E+02  0.00000000000E+00 0.  1.
</event>
<event>
 7    1  0.9978258E-013  0.5052886E+02  0.7816164E-02  0.1300439E+00
        -11   -1    0    0    0    0  0.00000000000E+00  0.00000000000E+00  0.45593999997E+02  0.45594000000E+02  0.51100000000E-03 0.  1.
         11   -1    0    0    0    0 -0.00000000000E+00 -0.00000000000E+00 -0.45593999997E+02  0.45594000000E+02  0.51100000000E-03 0. -1.
    9900012    2    1    2    0    0  0.97522678864E+01  0.25659110210E+02 -0.29994483050E+02  0.50528859833E+02  0.29999999948E+02 0.  0.
        -12    1    1    2    0    0 -0.97522678864E+01 -0.25659110210E+02  0.29994483050E+02  0.40659140167E+02  0.00000000000E+00 0.  1.
         11    1    3    3    0    0  0.11318133275E+02  0.17154644779E+02 -0.61796134717E+01  0.21460885379E+02  0.51100000000E-03 0. -1.
        -11    1    3    3    0    0 -0.79029775388E+01  0.55727648937E+01 -0.13223437207E+02  0.16382065021E+02  0.51100000000E-03 0.  1.
        -12    1    3    3    0    0  0.63371121507E+01  0.29317005366E+01 -0.10591432372E+02  0.12685909433E+02  0.00000000000E+00 0.  1.
</event>
<event>
 7    1  0.9978258E-013  0.5052886E+02  0.7816164E-02  0.1300439E+00
        -11   -1    0    0    0    0  0.00000000000E+00  0.00000000000E+00  0.45593999997E+02  0.45594000000E+02  0.51100000000E-03 0. -1.
         11   -1    0    0    0    0 -0.00000000000E+00 -0.00000000000E+00 -0.45593999997E+02  0.45594000000E+02  0.51100000000E-03 0.  1.
    9900012    2    1    2    0    0 -0.34187177153E+01 -0.39939982620E+02 -0.68026382707E+01  0.50528859208E+02  0.29999998049E+02 0.  0.
        -12    1    1    2    0    0  0.34187177153E+01  0.39939982620E+02  0.68026382707E+01  0.40659140792E+02  0.00000000000E+00 0.  1.
         11    1    3    3    0    0 -0.10734230937E+02 -0.22686006792E+02  0.41682288779E+00  0.25100843802E+02  0.51100000000E-03 0. -1.
        -11    1    3    3    0    0  0.73532259819E+01 -0.14399760995E+01 -0.59410111029E+01  0.95623781924E+01  0.51100000000E-03 0.  1.
        -12    1    3    3    0    0 -0.37712760358E-01 -0.15813999728E+02 -0.12784500555E+01  0.15865637214E+02  0.00000000000E+00 0.  1.
</event>
<event>
 7    1  0.9978258E-013  0.5052886E+02  0.7816164E-02  0.1300439E+00
        -11   -1    0    0    0    0  0.00000000000E+00  0.00000000000E+00  0.45593999997E+02  0.45594000000E+02  0.51100000000E-03 0.  1.
         11   -1    0    0    0    0 -0.00000000000E+00 -0.00000000000E+00 -0.45593999997E+02  0.45594000000E+02  0.51100000000E-03 0. -1.
    9900012    2    1    2    0    0  0.11390160539E+02  0.23829602515E+00 -0.39030414845E+02  0.50528858038E+02  0.29999994492E+02 0.  0.
        -12    1    1    2    0    0 -0.11390160539E+02 -0.23829602515E+00  0.39030414845E+02  0.40659141962E+02  0.00000000000E+00 0.  1.
         11    1    3    3    0    0 -0.17390969657E+01  0.99903160710E+00 -0.12223863742E+02  0.12387306707E+02  0.51100000000E-03 0. -1.
        -11    1    3    3    0    0  0.14000002194E+02  0.94461117314E+01 -0.16632246344E+02  0.23703601140E+02  0.51100000000E-03 0.  1.
        -12    1    3    3    0    0 -0.87074468999E+00 -0.10206847313E+02 -0.10174304759E+02  0.14437950191E+02  0.00000000000E+00 0.  1.
</event>
<event>
 7    1  0.9978258E-013  0.5052886E+02  0.7816164E-02  0.1300439E+00
        -11   -1    0    0    0    0  0.00000000000E+00  0.00000000000E+00  0.45593999997E+02  0.45594000000E+02  0.51100000000E-03 0. -1.
         11   -1    0    0    0    0 -0.00000000000E+00 -0.00000000000E+00 -0.45593999997E+02  0.45594000000E+02  0.51100000000E-03 0.  1.
    9900012    2    1    2    0    0  0.11884462153E+02 -0.17529939392E+02  0.34707724786E+02  0.50528863566E+02  0.30000011295E+02 0.  0.
        -12    1    1    2    0    0 -0.11884462153E+02  0.17529939392E+02 -0.34707724786E+02  0.40659136434E+02  0.00000000000E+00 0.  1.
         11    1    3    3    0    0  0.69651601959E+01 -0.79044827805E+01 -0.16410835673E+01  0.10662432186E+02  0.51100000000E-03 0. -1.
        -11    1    3    3    0    0 -0.29022572350E+01 -0.77621314050E+01  0.16950404360E+02  0.18867696977E+02  0.51100000000E-03 0.  1.
         12    1    3    3    0    0  0.78215591920E+01 -0.18633252061E+01  0.19398403994E+02  0.20998734403E+02  0.00000000000E+00 0. -1.
</event>
<event>
 7    1  0.9978258E-013  0.5052884E+02  0.7816164E-02  0.1300439E+00
        -11   -1    0    0    0    0  0.00000000000E+00  0.00000000000E+00  0.45593999997E+02  0.45594000000E+02  0.51100000000E-03 0.  1.
         11   -1    0    0    0    0 -0.00000000000E+00 -0.00000000000E+00 -0.45593999997E+02  0.45594000000E+02  0.51100000000E-03 0. -1.
    9900012    2    1    2    0    0  0.47662406648E+01  0.40195849979E+02  0.38397844383E+01  0.50528839284E+02  0.29999937487E+02 0.  0.
        -12    1    1    2    0    0 -0.47662406648E+01 -0.40195849979E+02 -0.38397844383E+01  0.40659160716E+02  0.00000000000E+00 0.  1.
         11    1    3    3    0    0 -0.41225387574E+01  0.15021708862E+02 -0.10622727013E+02  0.18854426334E+02  0.51100000000E-03 0.  1.
        -11    1    3    3    0    0  0.44761648313E+01  0.20996177219E+02  0.13892489454E+02  0.25571014312E+02  0.51100000000E-03 0. -1.
        -12    1    3    3    0    0  0.44126145909E+01  0.41779638976E+01  0.57002199671E+00  0.61033986380E+01  0.00000000000E+00 0.  1.
</event>
<event>
 7    1  0.9978258E-013  0.5052887E+02  0.7816164E-02  0.1300439E+00
        -11   -1    0    0    0    0  0.00000000000E+00  0.00000000000E+00  0.45593999997E+02  0.45594000000E+02  0.51100000000E-03 0.  1.
         11   -1    0    0    0    0 -0.00000000000E+00 -0.00000000000E+00 -0.45593999997E+02  0.45594000000E+02  0.51100000000E-03 0. -1.
    9900012    2    1    2    0    0  0.40320506825E+02 -0.25207567741E-01  0.52365253354E+01  0.50528866910E+02  0.30000021459E+02 0.  0.
        -12    1    1    2    0    0 -0.40320506825E+02  0.25207567741E-01 -0.52365253354E+01  0.40659133090E+02  0.00000000000E+00 0.  1.
         11    1    3    3    0    0  0.21682530225E+02  0.48361025758E+01 -0.57602934548E+01  0.22949967016E+02  0.51100000000E-03 0. -1.
        -11    1    3    3    0    0 -0.59050509612E+00 -0.59819466340E+01  0.30809848507E+01  0.67546169182E+01  0.51100000000E-03 0.  1.
        -12    1    3    3    0    0  0.19228481696E+02  0.11206364904E+01  0.79158339395E+01  0.20824282975E+02  0.00000000000E+00 0.  1.
</event>
<event>
 7    1  0.9978258E-013  0.5052886E+02  0.7816164E-02  0.1300439E+00
        -11   -1    0    0    0    0  0.00000000000E+00  0.00000000000E+00  0.45593999997E+02  0.45594000000E+02  0.51100000000E-03 0.  1.
         11   -1    0    0    0    0 -0.00000000000E+00 -0.00000000000E+00 -0.45593999997E+02  0.45594000000E+02  0.51100000000E-03 0. -1.
    9900012    2    1    2    0    0 -0.37746610318E+01 -0.40188093649E+02 -0.48820721265E+01  0.50528861233E+02  0.30000004204E+02 0.  0.
        -12    1    1    2    0    0  0.37746610318E+01  0.40188093649E+02  0.48820721265E+01  0.40659138767E+02  0.00000000000E+00 0.  1.
         11    1    3    3    0    0 -0.33907693901E+01 -0.38333295280E+02 -0.45906006865E+00  0.38485706184E+02  0.51100000000E-03 0. -1.
        -11    1    3    3    0    0  0.33270782311E+01  0.31809138645E+01 -0.33581509873E+01  0.56977926326E+01  0.51100000000E-03 0.  1.
        -12    1    3    3    0    0 -0.37109698729E+01 -0.50357122338E+01 -0.10648610706E+01  0.63453624167E+01  0.00000000000E+00 0.  1.
</event>
<event>
 7    1  0.9978258E-013  0.5052896E+02  0.7816164E-02  0.1300438E+00
        -11   -1    0    0    0    0  0.00000000000E+00  0.00000000000E+00  0.45593999997E+02  0.45594000000E+02  0.51100000000E-03 0. -1.
         11   -1    0    0    0    0 -0.00000000000E+00 -0.00000000000E+00 -0.45593999997E+02  0.45594000000E+02  0.51100000000E-03 0.  1.
    9900012    2    1    2    0    0  0.18709417330E+02  0.13076139661E+01  0.36074995212E+02  0.50528961268E+02  0.30000308268E+02 0.  0.
        -12    1    1    2    0    0 -0.18709417330E+02 -0.13076139661E+01 -0.36074995212E+02  0.40659038732E+02  0.00000000000E+00 0.  1.
         11    1    3    3    0    0  0.86997821838E+01  0.79319397905E+00 -0.81108221171E+00  0.87734383995E+01  0.51100000000E-03 0. -1.
        -11    1    3    3    0    0  0.97521673838E+01  0.40831207924E+01  0.36678162141E+02  0.38171510612E+02  0.51100000000E-03 0.  1.
        -12    1    3    3    0    0  0.25746776223E+00 -0.35687008053E+01  0.20791528196E+00  0.35840122560E+01  0.00000000000E+00 0.  1.
</event>
<event>
 7    1  0.9978258E-013  0.5052886E+02  0.7816164E-02  0.1300439E+00
        -11   -1    0    0    0    0  0.00000000000E+00  0.00000000000E+00  0.45593999997E+02  0.45594000000E+02  0.51100000000E-03 0.  1.
         11   -1    0    0    0    0 -0.00000000000E+00 -0.00000000000E+00 -0.45593999997E+02  0.45594000000E+02  0.51100000000E-03 0. -1.
    9900012    2    1    2    0    0 -0.15807132801E+01  0.35098968513E+02 -0.20462873291E+02  0.50528862915E+02  0.30000009317E+02 0.  0.
        -12    1    1    2    0    0  0.15807132801E+01 -0.35098968513E+02  0.20462873291E+02  0.40659137085E+02  0.00000000000E+00 0.  1.
         11    1    3    3    0    0  0.38452936684E+01 -0.38661024573E+01 -0.26708510779E+01  0.60717771161E+01  0.51100000000E-03 0.  1.
        -11    1    3    3    0    0 -0.39382681466E+00  0.13004569254E+02 -0.11289144909E+02  0.17225525074E+02  0.51100000000E-03 0. -1.
         12    1    3    3    0    0 -0.50321801339E+01  0.25960501716E+02 -0.65028773038E+01  0.27231560725E+02  0.00000000000E+00 0. -1.
</event>
<event>
 7    1  0.9978258E-013  0.5052886E+02  0.7816164E-02  0.1300439E+00
        -11   -1    0    0    0    0  0.00000000000E+00  0.00000000000E+00  0.45593999997E+02  0.45594000000E+02  0.51100000000E-03 0. -1.
         11   -1    0    0    0    0 -0.00000000000E+00 -0.00000000000E+00 -0.45593999997E+02  0.45594000000E+02  0.51100000000E-03 0.  1.
    9900012    2    1    2    0    0  0.14714754250E+02  0.32855292352E+02  0.18898982721E+02  0.50528858641E+02  0.29999996326E+02 0.  0.
        -12    1    1    2    0    0 -0.14714754250E+02 -0.32855292352E+02 -0.18898982721E+02  0.40659141359E+02  0.00000000000E+00 0.  1.
         11    1    3    3    0    0  0.11014491933E+02  0.46917037223E+01  0.12513968186E+02  0.17318502140E+02  0.51100000000E-03 0. -1.
        -11    1    3    3    0    0 -0.59907817914E+01  0.81423366945E+01  0.38742202946E+01  0.10825742306E+02  0.51100000000E-03 0.  1.
         12    1    3    3    0    0  0.96910441088E+01  0.20021251935E+02  0.25107942397E+01  0.22384614195E+02  0.00000000000E+00 0. -1.
</event>
<event>
 7    1  0.9978258E-013  0.5052885E+02  0.7816164E-02  0.1300439E+00
        -11   -1    0    0    0    0  0.00000000000E+00  0.00000000000E+00  0.45593999997E+02  0.45594000000E+02  0.51100000000E-03 0. -1.
         11   -1    0    0    0    0 -0.00000000000E+00 -0.00000000000E+00 -0.45593999997E+02  0.45594000000E+02  0.51100000000E-03 0.  1.
    9900012    2    1    2    0    0 -0.37200200300E+02 -0.14430750206E+02 -0.78144123582E+01  0.50528849807E+02  0.29999969474E+02 0.  0.
        -12    1    1    2    0    0  0.37200200300E+02  0.14430750206E+02  0.78144123582E+01  0.40659150193E+02  0.00000000000E+00 0.  1.
         11    1    3    3    0    0 -0.97038539663E+01  0.42509415825E+01 -0.81473216386E+01  0.13364659976E+02  0.51100000000E-03 0. -1.
        -11    1    3    3    0    0 -0.19473210048E+02 -0.33689092157E+01  0.16215490823E+01  0.19828890049E+02  0.51100000000E-03 0.  1.
        -12    1    3    3    0    0 -0.80231362852E+01 -0.15312782573E+02 -0.12886398019E+01  0.17335299782E+02  0.00000000000E+00 0.  1.
</event>
<event>
 7    1  0.9978258E-013  0.5052886E+02  0.7816164E-02  0.1300439E+00
        -11   -1    0    0    0    0  0.00000000000E+00  0.00000000000E+00  0.45593999997E+02  0.45594000000E+02  0.51100000000E-03 0. -1.
         11   -1    0    0    0    0 -0.00000000000E+00 -0.00000000000E+00 -0.45593999997E+02  0.45594000000E+02  0.51100000000E-03 0.  1.
    9900012    2    1    2    0    0 -0.36594470844E+02  0.16455765037E+02 -0.65740746802E+01  0.50528856413E+02  0.29999989553E+02 0.  0.
        -12    1    1    2    0    0  0.36594470844E+02 -0.16455765037E+02  0.65740746802E+01  0.40659143587E+02  0.00000000000E+00 0.  1.
         11    1    3    3    0    0 -0.24247340118E+02  0.77658123722E+01  0.34195452781E+01  0.25689192956E+02  0.51100000000E-03 0. -1.
        -11    1    3    3    0    0  0.25278475553E+01 -0.25477297494E+01 -0.37214739735E+01  0.51701362589E+01  0.51100000000E-03 0.  1.
        -12    1    3    3    0    0 -0.14874978282E+02  0.11237682414E+02 -0.62721459848E+01  0.19669527198E+02  0.00000000000E+00 0.  1.
</event>
<event>
 7    1  0.9978258E-013  0.5052884E+02  0.7816164E-02  0.1300439E+00
        -11   -1    0    0    0    0  0.00000000000E+00  0.00000000000E+00  0.45593999997E+02  0.45594000000E+02  0.51100000000E-03 0.  1.
         11   -1    0    0    0    0 -0.00000000000E+00 -0.00000000000E+00 -0.45593999997E+02  0.45594000000E+02  0.51100000000E-03 0. -1.
    9900012    2    1    2    0    0  0.27046930864E+02  0.10863441859E+02 -0.28348136209E+02  0.50528835416E+02  0.29999925730E+02 0.  0.
        -12    1    1    2    0    0 -0.27046930864E+02 -0.10863441859E+02  0.28348136209E+02  0.40659164584E+02  0.00000000000E+00 0.  1.
         11    1    3    3    0    0  0.73230258876E+01  0.18790743536E+02 -0.13068134570E+02  0.24031123407E+02  0.51100000000E-03 0. -1.
        -11    1    3    3    0    0  0.14032192851E+02 -0.45226100658E+01 -0.12410990204E+02  0.19271458588E+02  0.51100000000E-03 0.  1.
         12    1    3    3    0    0  0.56917121254E+01 -0.34046916117E+01 -0.28690114348E+01  0.72262534209E+01  0.00000000000E+00 0. -1.
</event>
<event>
 7    1  0.1123030E-012  0.5052886E+02  0.7816164E-02  0.1300439E+00
        -11   -1    0    0    0    0  0.00000000000E+00  0.00000000000E+00  0.45593999997E+02  0.45594000000E+02  0.51100000000E-03 0.  1.
         11   -1    0    0    0    0 -0.00000000000E+00 -0.00000000000E+00 -0.45593999997E+02  0.45594000000E+02  0.51100000000E-03 0. -1.
    9900012    2    1    2    0    0 -0.38240482834E+02  0.50171307092E+01 -0.12870878219E+02  0.50528860387E+02  0.30000001632E+02 0.  0.
        -12    1    1    2    0    0  0.38240482834E+02 -0.50171307092E+01  0.12870878219E+02  0.40659139613E+02  0.00000000000E+00 0.  1.
         11    1    3    3    0    0 -0.20230909663E+02  0.96083267904E+01 -0.15562069891E+02  0.27272470901E+02  0.51100000000E-03 0. -1.
        -11    1    3    3    0    0  0.93634065660E+00  0.55740455001E+00  0.34406264440E+01  0.36090641787E+01  0.51100000000E-03 0.  1.
         12    1    3    3    0    0 -0.18945913828E+02 -0.51486006312E+01 -0.74943477151E+00  0.19647325307E+02  0.00000000000E+00 0. -1.
</event>
<event>
 7    1  0.9978258E-013  0.5052887E+02  0.7816164E-02  0.1300439E+00
        -11   -1    0    0    0    0  0.00000000000E+00  0.00000000000E+00  0.45593999997E+02  0.45594000000E+02  0.51100000000E-03 0.  1.
         11   -1    0    0    0    0 -0.00000000000E+00 -0.00000000000E+00 -0.45593999997E+02  0.45594000000E+02  0.51100000000E-03 0. -1.
    9900012    2    1    2    0    0 -0.21430957935E+02 -0.27789866345E+02 -0.20532954992E+02  0.50528869781E+02  0.30000030186E+02 0.  0.
        -12    1    1    2    0    0  0.21430957935E+02  0.27789866345E+02  0.20532954992E+02  0.40659130219E+02  0.00000000000E+00 0.  1.
         11    1    3    3    0    0 -0.22759334379E+02 -0.11918764013E+02 -0.12976636217E+02  0.28782587179E+02  0.51100000000E-03 0. -1.
        -11    1    3    3    0    0 -0.35667596375E+01 -0.13165335864E+02 -0.85034743345E+01  0.16073484959E+02  0.51100000000E-03 0.  1.
         12    1    3    3    0    0  0.48951360817E+01 -0.27057664686E+01  0.94715555942E+00  0.56727976427E+01  0.00000000000E+00 0. -1.
</event>
<event>
 7    1  0.9978258E-013  0.5052886E+02  0.7816164E-02  0.1300439E+00
        -11   -1    0    0    0    0  0.00000000000E+00  0.00000000000E+00  0.45593999997E+02  0.45594000000E+02  0.51100000000E-03 0. -1.
         11   -1    0    0    0    0 -0.00000000000E+00 -0.00000000000E+00 -0.45593999997E+02  0.45594000000E+02  0.51100000000E-03 0.  1.
    9900012    2    1    2    0    0 -0.21843384164E+02 -0.20452982083E+01  0.34232284044E+02  0.50528856534E+02  0.29999989921E+02 0.  0.
        -12    1    1    2    0    0  0.21843384164E+02  0.20452982083E+01 -0.34232284044E+02  0.40659143466E+02  0.00000000000E+00 0.  1.
         11    1    3    3    0    0  0.22609679083E+01 -0.25921532093E+01  0.10296098124E+01  0.35904499397E+01  0.51100000000E-03 0.  1.
        -11    1    3    3    0    0 -0.11341035919E+02  0.11608299983E+02  0.17681134774E+02  0.23999880237E+02  0.51100000000E-03 0. -1.
        -12    1    3    3    0    0 -0.12763316153E+02 -0.11061444982E+02  0.15521539458E+02  0.22938526358E+02  0.00000000000E+00 0.  1.
</event>
<event>
 7    1  0.9978258E-013  0.5052886E+02  0.7816164E-02  0.1300439E+00
        -11   -1    0    0    0    0  0.00000000000E+00  0.00000000000E+00  0.45593999997E+02  0.45594000000E+02  0.51100000000E-03 0. -1.
         11   -1    0    0    0    0 -0.00000000000E+00 -0.00000000000E+00 -0.45593999997E+02  0.45594000000E+02  0.51100000000E-03 0.  1.
    9900012    2    1    2    0    0 -0.74189746274E+01  0.23563742413E+02  0.32293569426E+02  0.50528858749E+02  0.29999996654E+02 0.  0.
        -12    1    1    2    0    0  0.74189746274E+01 -0.23563742413E+02 -0.32293569426E+02  0.40659141251E+02  0.00000000000E+00 0.  1.
         11    1    3    3    0    0 -0.24200977842E+01  0.13851968732E+02 -0.50111464116E+00  0.14070715234E+02  0.51100000000E-03 0. -1.
        -11    1    3    3    0    0 -0.57476077949E+01 -0.41888716826E+00  0.11355967761E+02  0.12734538306E+02  0.51100000000E-03 0.  1.
         12    1    3    3    0    0  0.74873095167E+00  0.10130660849E+02  0.21438716306E+02  0.23723605209E+02  0.00000000000E+00 0. -1.
</event>
<event>
 7    1  0.9978258E-013  0.5052887E+02  0.7816164E-02  0.1300439E+00
        -11   -1    0    0    0    0  0.00000000000E+00  0.00000000000E+00  0.45593999997E+02  0.45594000000E+02  0.51100000000E-03 0. -1.
         11   -1    0    0    0    0 -0.00000000000E+00 -0.00000000000E+00 -0.45593999997E+02  0.45594000000E+02  0.51100000000E-03 0.  1.
    9900012    2    1    2    0    0  0.34443983158E+02 -0.19325659689E+02  0.96589594563E+01  0.50528873153E+02  0.30000040437E+02 0.  0.
        -12    1    1    2    0    0 -0.34443983158E+02  0.19325659689E+02 -0.96589594563E+01  0.40659126847E+02  0.00000000000E+00 0.  1.
         11    1    3    3    0    0  0.25786154149E+02 -0.15630122242E+02  0.88873232627E+00  0.30166476635E+02  0.51100000000E-03 0. -1.
        -11    1    3    3    0    0  0.63577322318E+01  0.20353441122E+01  0.11743799039E+02  0.13508523270E+02  0.51100000000E-03 0.  1.
        -12    1    3    3    0    0  0.23000967763E+01 -0.57308815583E+01 -0.29735719094E+01  0.68538732492E+01  0.00000000000E+00 0.  1.
</event>
<event>
 7    1  0.9978258E-013  0.5052885E+02  0.7816164E-02  0.1300439E+00
        -11   -1    0    0    0    0  0.00000000000E+00  0.00000000000E+00  0.45593999997E+02  0.45594000000E+02  0.51100000000E-03 0. -1.
         11   -1    0    0    0    0 -0.00000000000E+00 -0.00000000000E+00 -0.45593999997E+02  0.45594000000E+02  0.51100000000E-03 0.  1.
    9900012    2    1    2    0    0 -0.30630432450E+02  0.24278659583E+02  0.11202204056E+02  0.50528854917E+02  0.29999985004E+02 0.  0.
        -12    1    1    2    0    0  0.30630432450E+02 -0.24278659583E+02 -0.11202204056E+02  0.40659145083E+02  0.00000000000E+00 0.  1.
         11    1    3    3    0    0 -0.12905852529E+02  0.65733692693E+00  0.15939895068E+02  0.20520072524E+02  0.51100000000E-03 0. -1.
        -11    1    3    3    0    0 -0.95089331265E+01  0.12124149275E+02 -0.12821221920E+01  0.15461521349E+02  0.51100000000E-03 0.  1.
         12    1    3    3    0    0 -0.82156467946E+01  0.11497173381E+02 -0.34555688205E+01  0.14547261044E+02  0.00000000000E+00 0. -1.
</event>
<event>
 7    1  0.9978258E-013  0.5052886E+02  0.7816164E-02  0.1300439E+00
        -11   -1    0    0    0    0  0.00000000000E+00  0.00000000000E+00  0.45593999997E+02  0.45594000000E+02  0.51100000000E-03 0. -1.
         11   -1    0    0    0    0 -0.00000000000E+00 -0.00000000000E+00 -0.45593999997E+02  0.45594000000E+02  0.51100000000E-03 0.  1.
    9900012    2    1    2    0    0  0.20324888442E+01  0.13480435435E+02  0.38305514584E+02  0.50528860831E+02  0.30000002981E+02 0.  0.
        -12    1    1    2    0    0 -0.20324888442E+01 -0.13480435435E+02 -0.38305514584E+02  0.40659139169E+02  0.00000000000E+00 0.  1.
         11    1    3    3    0    0  0.12314493466E+02  0.56612738968E+01  0.71373061404E+01  0.15317895112E+02  0.51100000000E-03 0.  1.
        -11    1    3    3    0    0 -0.97381467269E+01  0.28285329102E+01  0.13757554737E+02  0.17091003853E+02  0.51100000000E-03 0. -1.
        -12    1    3    3    0    0 -0.54385789474E+00  0.49906286285E+01  0.17410653706E+02  0.18119961865E+02  0.00000000000E+00 0.  1.
</event>
<event>
 7    1  0.9978258E-013  0.5052886E+02  0.7816164E-02  0.1300439E+00
        -11   -1    0    0    0    0  0.00000000000E+00  0.00000000000E+00  0.45593999997E+02  0.45594000000E+02  0.51100000000E-03 0. -1.
         11   -1    0    0    0    0 -0.00000000000E+00 -0.00000000000E+00 -0.45593999997E+02  0.45594000000E+02  0.51100000000E-03 0.  1.
    9900012    2    1    2    0    0 -0.25127104580E+02 -0.29087202509E+02  0.13256269578E+02  0.50528863050E+02  0.30000009728E+02 0.  0.
        -12    1    1    2    0    0  0.25127104580E+02  0.29087202509E+02 -0.13256269578E+02  0.40659136950E+02  0.00000000000E+00 0.  1.
         11    1    3    3    0    0 -0.23125850759E+02 -0.24941518203E+02  0.10486682486E+02  0.35592903975E+02  0.51100000000E-03 0. -1.
        -11    1    3    3    0    0 -0.24838714801E+01  0.31154841308E+01 -0.35206174998E+01  0.53170110720E+01  0.51100000000E-03 0.  1.
        -12    1    3    3    0    0  0.48261765912E+00 -0.72611684369E+01  0.62902045921E+01  0.96189480030E+01  0.00000000000E+00 0.  1.
</event>
<event>
 7    1  0.9978258E-013  0.5052886E+02  0.7816164E-02  0.1300439E+00
        -11   -1    0    0    0    0  0.00000000000E+00  0.00000000000E+00  0.45593999997E+02  0.45594000000E+02  0.51100000000E-03 0.  1.
         11   -1    0    0    0    0 -0.00000000000E+00 -0.00000000000E+00 -0.45593999997E+02  0.45594000000E+02  0.51100000000E-03 0. -1.
    9900012    2    1    2    0    0 -0.24053701040E+02  0.32727822303E+02 -0.18640278395E+01  0.50528862205E+02  0.30000007159E+02 0.  0.
        -12    1    1    2    0    0  0.24053701040E+02 -0.32727822303E+02  0.18640278395E+01  0.40659137795E+02  0.00000000000E+00 0.  1.
         11    1    3    3    0    0  0.11387151463E+01  0.36258119112E+01  0.11839968721E+01  0.39805819994E+01  0.51100000000E-03 0. -1.
        -11    1    3    3    0    0 -0.12439658026E+02 -0.21020620616E+01 -0.23412956029E+01  0.12831423229E+02  0.51100000000E-03 0.  1.
        -12    1    3    3    0    0 -0.12752758160E+02  0.31204072454E+02 -0.70672910875E+00  0.33716856977E+02  0.00000000000E+00 0.  1.
</event>
<event>
 7    1  0.9978258E-013  0.5052886E+02  0.7816164E-02  0.1300439E+00
        -11   -1    0    0    0    0  0.00000000000E+00  0.00000000000E+00  0.45593999997E+02  0.45594000000E+02  0.51100000000E-03 0. -1.
         11   -1    0    0    0    0 -0.00000000000E+00 -0.00000000000E+00 -0.45593999997E+02  0.45594000000E+02  0.51100000000E-03 0.  1.
    9900012    2    1    2    0    0  0.37206549811E+02  0.46697476887E+00  0.16389639076E+02  0.50528859781E+02  0.29999999791E+02 0.  0.
        -12    1    1    2    0    0 -0.37206549811E+02 -0.46697476887E+00 -0.16389639076E+02  0.40659140219E+02  0.00000000000E+00 0.  1.
         11    1    3    3    0    0  0.85217596604E+01 -0.10549475704E+02  0.69929836158E+01  0.15258232055E+02  0.51100000000E-03 0.  1.
        -11    1    3    3    0    0  0.23070832676E+02  0.63442582997E+01  0.12885559596E+02  0.27176287091E+02  0.51100000000E-03 0. -1.
        -12    1    3    3    0    0  0.56139574751E+01  0.46721921735E+01 -0.34889041353E+01  0.80943406343E+01  0.00000000000E+00 0.  1.
</event>
<event>
 7    1  0.9978258E-013  0.5052884E+02  0.7816164E-02  0.1300439E+00
        -11   -1    0    0    0    0  0.00000000000E+00  0.00000000000E+00  0.45593999997E+02  0.45594000000E+02  0.51100000000E-03 0.  1.
         11   -1    0    0    0    0 -0.00000000000E+00 -0.00000000000E+00 -0.45593999997E+02  0.45594000000E+02  0.51100000000E-03 0. -1.
    9900012    2    1    2    0    0 -0.10845558702E+01 -0.28746100526E+02 -0.28734168269E+02  0.50528843799E+02  0.29999951211E+02 0.  0.
        -12    1    1    2    0    0  0.10845558702E+01  0.28746100526E+02  0.28734168269E+02  0.40659156201E+02  0.00000000000E+00 0.  1.
         11    1    3    3    0    0  0.10447402522E+02 -0.11942729507E+02 -0.21421919655E+01  0.16011433234E+02  0.51100000000E-03 0. -1.
        -11    1    3    3    0    0 -0.11871883355E+02 -0.12568965991E+02 -0.18149410769E+02  0.25066344607E+02  0.51100000000E-03 0.  1.
         12    1    3    3    0    0  0.33992496248E+00 -0.42344050277E+01 -0.84425655349E+01  0.94510659573E+01  0.00000000000E+00 0. -1.
</event>
<event>
 7    1  0.9978258E-013  0.5052886E+02  0.7816164E-02  0.1300439E+00
        -11   -1    0    0    0    0  0.00000000000E+00  0.00000000000E+00  0.45593999997E+02  0.45594000000E+02  0.51100000000E-03 0.  1.
         11   -1    0    0    0    0 -0.00000000000E+00 -0.00000000000E+00 -0.45593999997E+02  0.45594000000E+02  0.51100000000E-03 0. -1.
    9900012    2    1    2    0    0  0.30250888524E+02 -0.20025285950E+02 -0.18358582115E+02  0.50528857472E+02  0.29999992771E+02 0.  0.
        -12    1    1    2    0    0 -0.30250888524E+02  0.20025285950E+02  0.18358582115E+02  0.40659142528E+02  0.00000000000E+00 0.  1.
         11    1    3    3    0    0  0.45394963641E-01  0.30810888859E+01 -0.39122739123E+01  0.49800659485E+01  0.51100000000E-03 0.  1.
        -11    1    3    3    0    0  0.29054785109E+02 -0.14638251247E+02 -0.51807482790E+01  0.32943877888E+02  0.51100000000E-03 0. -1.
         12    1    3    3    0    0  0.11507084516E+01 -0.84681235884E+01 -0.92655599237E+01  0.12604913635E+02  0.00000000000E+00 0. -1.
</event>
<event>
 7    1  0.9978258E-013  0.5052886E+02  0.7816164E-02  0.1300439E+00
        -11   -1    0    0    0    0  0.00000000000E+00  0.00000000000E+00  0.45593999997E+02  0.45594000000E+02  0.51100000000E-03 0.  1.
         11   -1    0    0    0    0 -0.00000000000E+00 -0.00000000000E+00 -0.45593999997E+02  0.45594000000E+02  0.51100000000E-03 0. -1.
    9900012    2    1    2    0    0  0.24251731901E+02 -0.14060740651E+02 -0.29450202881E+02  0.50528863541E+02  0.30000011220E+02 0.  0.
        -12    1    1    2    0    0 -0.24251731901E+02  0.14060740651E+02  0.29450202881E+02  0.40659136459E+02  0.00000000000E+00 0.  1.
         11    1    3    3    0    0  0.92803881716E+01  0.35312004012E+01 -0.20302550646E+02  0.22600631493E+02  0.51100000000E-03 0.  1.
        -11    1    3    3    0    0  0.47903254128E+01 -0.14124254623E+02 -0.20807593550E+01  0.15058929111E+02  0.51100000000E-03 0. -1.
         12    1    3    3    0    0  0.10181018316E+02 -0.34676864294E+01 -0.70668928805E+01  0.12869302938E+02  0.00000000000E+00 0. -1.
</event>
<event>
 7    1  0.9978258E-013  0.5052886E+02  0.7816164E-02  0.1300439E+00
        -11   -1    0    0    0    0  0.00000000000E+00  0.00000000000E+00  0.45593999997E+02  0.45594000000E+02  0.51100000000E-03 0. -1.
         11   -1    0    0    0    0 -0.00000000000E+00 -0.00000000000E+00 -0.45593999997E+02  0.45594000000E+02  0.51100000000E-03 0.  1.
    9900012    2    1    2    0    0  0.97215789374E+01  0.17653302720E+02  0.35313134983E+02  0.50528859622E+02  0.29999999308E+02 0.  0.
        -12    1    1    2    0    0 -0.97215789374E+01 -0.17653302720E+02 -0.35313134983E+02  0.40659140378E+02  0.00000000000E+00 0.  1.
         11    1    3    3    0    0  0.33855494633E+00  0.23289778853E+02  0.27464471463E+02  0.36011465001E+02  0.51100000000E-03 0. -1.
        -11    1    3    3    0    0  0.49982760692E+01 -0.59186623217E+01  0.57531345949E+01  0.96494499983E+01  0.51100000000E-03 0.  1.
         12    1    3    3    0    0  0.43847479218E+01  0.28218618862E+00  0.20955289244E+01  0.48679446234E+01  0.00000000000E+00 0. -1.
</event>
<event>
 7    1  0.9978258E-013  0.5052888E+02  0.7816164E-02  0.1300439E+00
        -11   -1    0    0    0    0  0.00000000000E+00  0.00000000000E+00  0.45593999997E+02  0.45594000000E+02  0.51100000000E-03 0.  1.
         11   -1    0    0    0    0 -0.00000000000E+00 -0.00000000000E+00 -0.45593999997E+02  0.45594000000E+02  0.51100000000E-03 0. -1.
    9900012    2    1    2    0    0 -0.21338577522E+02 -0.34410468951E+02 -0.37079544955E+01  0.50528878138E+02  0.30000055588E+02 0.  0.
        -12    1    1    2    0    0  0.21338577522E+02  0.34410468951E+02  0.37079544955E+01  0.40659121862E+02  0.00000000000E+00 0.  1.
         11    1    3    3    0    0 -0.14739349905E+02 -0.36420241711E+01  0.26478993794E+01  0.15411818422E+02  0.51100000000E-03 0.  1.
        -11    1    3    3    0    0 -0.13770851497E+01 -0.19849818674E+02  0.25917159852E+01  0.20065608810E+02  0.51100000000E-03 0. -1.
        -12    1    3    3    0    0 -0.52221424671E+01 -0.10918626106E+02 -0.89475698601E+01  0.15051450906E+02  0.00000000000E+00 0.  1.
</event>
<event>
 7    1  0.9978258E-013  0.5052887E+02  0.7816164E-02  0.1300439E+00
        -11   -1    0    0    0    0  0.00000000000E+00  0.00000000000E+00  0.45593999997E+02  0.45594000000E+02  0.51100000000E-03 0.  1.
         11   -1    0    0    0    0 -0.00000000000E+00 -0.00000000000E+00 -0.45593999997E+02  0.45594000000E+02  0.51100000000E-03 0. -1.
    9900012    2    1    2    0    0 -0.96542429118E+01 -0.48092405323E+01 -0.39202447165E+02  0.50528867392E+02  0.30000022925E+02 0.  0.
        -12    1    1    2    0    0  0.96542429118E+01  0.48092405323E+01  0.39202447165E+02  0.40659132608E+02  0.00000000000E+00 0.  1.
         11    1    3    3    0    0  0.50355374327E+01 -0.63907024196E+01 -0.41505755629E+01  0.91337282868E+01  0.51100000000E-03 0. -1.
        -11    1    3    3    0    0 -0.16408981459E+02  0.40073957517E+01 -0.20595821793E+02  0.26636474407E+02  0.51100000000E-03 0.  1.
        -12    1    3    3    0    0  0.17192011148E+01 -0.24259338643E+01 -0.14456049809E+02  0.14758664698E+02  0.00000000000E+00 0.  1.
</event>
<event>
 7    1  0.9978258E-013  0.5052883E+02  0.7816164E-02  0.1300439E+00
        -11   -1    0    0    0    0  0.00000000000E+00  0.00000000000E+00  0.45593999997E+02  0.45594000000E+02  0.51100000000E-03 0. -1.
         11   -1    0    0    0    0 -0.00000000000E+00 -0.00000000000E+00 -0.45593999997E+02  0.45594000000E+02  0.51100000000E-03 0.  1.
    9900012    2    1    2    0    0  0.53590531353E+01  0.14199974116E+02  0.37720141537E+02  0.50528833838E+02  0.29999920934E+02 0.  0.
        -12    1    1    2    0    0 -0.53590531353E+01 -0.14199974116E+02 -0.37720141537E+02  0.40659166162E+02  0.00000000000E+00 0.  1.
         11    1    3    3    0    0  0.11880812863E+02  0.32215308408E+01  0.21191342607E+02  0.24507243358E+02  0.51100000000E-03 0. -1.
        -11    1    3    3    0    0 -0.57981417911E+01  0.14627967964E+02  0.15662339654E+02  0.22201458931E+02  0.51100000000E-03 0.  1.
        -12    1    3    3    0    0 -0.72361793634E+00 -0.36495246889E+01  0.86645927595E+00  0.38201315487E+01  0.00000000000E+00 0.  1.
</event>
<event>
 7    1  0.9978258E-013  0.5052886E+02  0.7816164E-02  0.1300439E+00
        -11   -1    0    0    0    0  0.00000000000E+00  0.00000000000E+00  0.45593999997E+02  0.45594000000E+02  0.51100000000E-03 0.  1.
         11   -1    0    0    0    0 -0.00000000000E+00 -0.00000000000E+00 -0.45593999997E+02  0.45594000000E+02  0.51100000000E-03 0. -1.
    9900012    2    1    2    0    0  0.15435987290E+02 -0.90029193126E+01 -0.36521824292E+02  0.50528857002E+02  0.29999991342E+02 0.  0.
        -12    1    1    2    0    0 -0.15435987290E+02  0.90029193126E+01  0.36521824292E+02  0.40659142998E+02  0.00000000000E+00 0.  1.
         11    1    3    3    0    0  0.10918399982E+02  0.68672052037E+01 -0.18590905984E+02  0.22627234719E+02  0.51100000000E-03 0. -1.
        -11    1    3    3    0    0  0.90597485113E+01 -0.12612960833E+02 -0.11169644238E+02  0.19129212653E+02  0.51100000000E-03 0.  1.
         12    1    3    3    0    0 -0.45421612034E+01 -0.32571636829E+01 -0.67612740696E+01  0.87724096290E+01  0.00000000000E+00 0. -1.
</event>
<event>
 7    1  0.9978258E-013  0.5052886E+02  0.7816164E-02  0.1300439E+00
        -11   -1    0    0    0    0  0.00000000000E+00  0.00000000000E+00  0.45593999997E+02  0.45594000000E+02  0.51100000000E-03 0.  1.
         11   -1    0    0    0    0 -0.00000000000E+00 -0.00000000000E+00 -0.45593999997E+02  0.45594000000E+02  0.51100000000E-03 0. -1.
    9900012    2    1    2    0    0 -0.93163972684E+01 -0.12988514751E+02 -0.37385408980E+02  0.50528861075E+02  0.30000003724E+02 0.  0.
        -12    1    1    2    0    0  0.93163972684E+01  0.12988514751E+02  0.37385408980E+02  0.40659138925E+02  0.00000000000E+00 0.  1.
         11    1    3    3    0    0 -0.14164272827E+02 -0.24567612483E+01 -0.32753921639E+02  0.35769843214E+02  0.51100000000E-03 0. -1.
        -11    1    3    3    0    0  0.37511885847E+01 -0.81042755362E+01 -0.68799687950E+01  0.11273183607E+02  0.51100000000E-03 0.  1.
         12    1    3    3    0    0  0.10966869740E+01 -0.24274779668E+01  0.22484814536E+01  0.34858342539E+01  0.00000000000E+00 0. -1.
</event>
<event>
 7    1  0.9978258E-013  0.5052891E+02  0.7816164E-02  0.1300439E+00
        -11   -1    0    0    0    0  0.00000000000E+00  0.00000000000E+00  0.45593999997E+02  0.45594000000E+02  0.51100000000E-03 0.  1.
         11   -1    0    0    0    0 -0.00000000000E+00 -0.00000000000E+00 -0.45593999997E+02  0.45594000000E+02  0.51100000000E-03 0. -1.
    9900012    2    1    2    0    0  0.37911716898E+02  0.45262456680E+01  0.13977716281E+02  0.50528908391E+02  0.30000147546E+02 0.  0.
        -12    1    1    2    0    0 -0.37911716898E+02 -0.45262456680E+01 -0.13977716281E+02  0.40659091609E+02  0.00000000000E+00 0.  1.
         11    1    3    3    0    0  0.19093948655E+02 -0.74761733516E+01 -0.47136794624E+01  0.21040219047E+02  0.51100000000E-03 0. -1.
        -11    1    3    3    0    0  0.15748313694E+02  0.11354331311E+02  0.14396216073E+02  0.24169841977E+02  0.51100000000E-03 0.  1.
        -12    1    3    3    0    0  0.30694545497E+01  0.64808770843E+00  0.42951796708E+01  0.53188473671E+01  0.00000000000E+00 0.  1.
</event>
<event>
 7    1  0.9978258E-013  0.5052885E+02  0.7816164E-02  0.1300439E+00
        -11   -1    0    0    0    0  0.00000000000E+00  0.00000000000E+00  0.45593999997E+02  0.45594000000E+02  0.51100000000E-03 0.  1.
         11   -1    0    0    0    0 -0.00000000000E+00 -0.00000000000E+00 -0.45593999997E+02  0.45594000000E+02  0.51100000000E-03 0. -1.
    9900012    2    1    2    0    0 -0.39956637576E+02  0.52185302975E+01  0.54221981890E+01  0.50528853697E+02  0.29999981299E+02 0.  0.
        -12    1    1    2    0    0  0.39956637576E+02 -0.52185302975E+01 -0.54221981890E+01  0.40659146303E+02  0.00000000000E+00 0.  1.
         11    1    3    3    0    0 -0.66122630924E+01 -0.11731915854E+01 -0.55846563832E+01  0.87342308693E+01  0.51100000000E-03 0. -1.
        -11    1    3    3    0    0 -0.10487137817E+02 -0.52016535422E+01  0.11147591264E+02  0.16164963669E+02  0.51100000000E-03 0.  1.
        -12    1    3    3    0    0 -0.22857236667E+02  0.11593375425E+02 -0.14073669210E+00  0.25629659159E+02  0.00000000000E+00 0.  1.
</event>
<event>
 7    1  0.9978258E-013  0.5052884E+02  0.7816164E-02  0.1300439E+00
        -11   -1    0    0    0    0  0.00000000000E+00  0.00000000000E+00  0.45593999997E+02  0.45594000000E+02  0.51100000000E-03 0. -1.
         11   -1    0    0    0    0 -0.00000000000E+00 -0.00000000000E+00 -0.45593999997E+02  0.45594000000E+02  0.51100000000E-03 0.  1.
    9900012    2    1    2    0    0 -0.15379217415E+02  0.34583245295E+02  0.14854150045E+02  0.50528844118E+02  0.29999952182E+02 0.  0.
        -12    1    1    2    0    0  0.15379217415E+02 -0.34583245295E+02 -0.14854150045E+02  0.40659155882E+02  0.00000000000E+00 0.  1.
         11    1    3    3    0    0 -0.25927974282E+01 -0.25164719163E+01  0.65530142556E+01  0.74831293924E+01  0.51100000000E-03 0. -1.
        -11    1    3    3    0    0 -0.88412484122E+01  0.15108247924E+02 -0.33883719837E+01  0.17829971783E+02  0.51100000000E-03 0.  1.
         12    1    3    3    0    0 -0.39451715746E+01  0.21991469287E+02  0.11689507773E+02  0.25215742942E+02  0.00000000000E+00 0. -1.
</event>
<event>
 7    1  0.9978258E-013  0.5052885E+02  0.7816164E-02  0.1300439E+00
        -11   -1    0    0    0    0  0.00000000000E+00  0.00000000000E+00  0.45593999997E+02  0.45594000000E+02  0.51100000000E-03 0. -1.
         11   -1    0    0    0    0 -0.00000000000E+00 -0.00000000000E+00 -0.45593999997E+02  0.45594000000E+02  0.51100000000E-03 0.  1.
    9900012    2    1    2    0    0 -0.38757955363E+02  0.10123669078E+02 -0.69641014033E+01  0.50528849887E+02  0.29999969717E+02 0.  0.
        -12    1    1    2    0    0  0.38757955363E+02 -0.10123669078E+02  0.69641014033E+01  0.40659150113E+02  0.00000000000E+00 0.  1.
         11    1    3    3    0    0 -0.15420364260E+02  0.97331306334E+01 -0.42168580665E+01  0.18716392763E+02  0.51100000000E-03 0. -1.
        -11    1    3    3    0    0 -0.59017584644E+00 -0.18982505987E+01 -0.80929606807E+01  0.83335272067E+01  0.51100000000E-03 0.  1.
        -12    1    3    3    0    0 -0.22747415256E+02  0.22887890432E+01  0.53457173439E+01  0.23478929917E+02  0.00000000000E+00 0.  1.
</event>
<event>
 7    1  0.9978258E-013  0.5052886E+02  0.7816164E-02  0.1300439E+00
        -11   -1    0    0    0    0  0.00000000000E+00  0.00000000000E+00  0.45593999997E+02  0.45594000000E+02  0.51100000000E-03 0.  1.
         11   -1    0    0    0    0 -0.00000000000E+00 -0.00000000000E+00 -0.45593999997E+02  0.45594000000E+02  0.51100000000E-03 0. -1.
    9900012    2    1    2    0    0 -0.26469837933E+02  0.19388872953E+02 -0.24012181760E+02  0.50528860960E+02  0.30000003375E+02 0.  0.
        -12    1    1    2    0    0  0.26469837933E+02 -0.19388872953E+02  0.24012181760E+02  0.40659139040E+02  0.00000000000E+00 0.  1.
         11    1    3    3    0    0 -0.14832627686E+02 -0.42298419493E+01 -0.14215571694E+02  0.20975721343E+02  0.51100000000E-03 0. -1.
        -11    1    3    3    0    0 -0.85256363537E+01  0.11980529875E+02 -0.11996892058E+01  0.14753264919E+02  0.51100000000E-03 0.  1.
         12    1    3    3    0    0 -0.31115738928E+01  0.11638185027E+02 -0.85969208600E+01  0.14799874699E+02  0.00000000000E+00 0. -1.
</event>
<event>
 7    1  0.9978258E-013  0.5052884E+02  0.7816164E-02  0.1300439E+00
        -11   -1    0    0    0    0  0.00000000000E+00  0.00000000000E+00  0.45593999997E+02  0.45594000000E+02  0.51100000000E-03 0.  1.
         11   -1    0    0    0    0 -0.00000000000E+00 -0.00000000000E+00 -0.45593999997E+02  0.45594000000E+02  0.51100000000E-03 0. -1.
    9900012    2    1    2    0    0  0.13007218598E+02 -0.26303449048E+02 -0.28144415161E+02  0.50528840242E+02  0.29999940399E+02 0.  0.
        -12    1    1    2    0    0 -0.13007218598E+02  0.26303449048E+02  0.28144415161E+02  0.40659159758E+02  0.00000000000E+00 0.  1.
         11    1    3    3    0    0  0.92600877031E+01 -0.21695554121E+02 -0.14391602247E+02  0.27632671033E+02  0.51100000000E-03 0. -1.
        -11    1    3    3    0    0  0.55524491578E+01  0.45041914402E+01 -0.11526123682E+01  0.72419574503E+01  0.51100000000E-03 0.  1.
         12    1    3    3    0    0 -0.18053182632E+01 -0.91120863673E+01 -0.12600200546E+02  0.15654211759E+02  0.00000000000E+00 0. -1.
</event>
<event>
 7    1  0.9978258E-013  0.5052884E+02  0.7816164E-02  0.1300439E+00
        -11   -1    0    0    0    0  0.00000000000E+00  0.00000000000E+00  0.45593999997E+02  0.45594000000E+02  0.51100000000E-03 0.  1.
         11   -1    0    0    0    0 -0.00000000000E+00 -0.00000000000E+00 -0.45593999997E+02  0.45594000000E+02  0.51100000000E-03 0. -1.
    9900012    2    1    2    0    0  0.19186441990E+02 -0.35683124382E+02  0.34295783856E+01  0.50528844453E+02  0.29999953200E+02 0.  0.
        -12    1    1    2    0    0 -0.19186441990E+02  0.35683124382E+02 -0.34295783856E+01  0.40659155547E+02  0.00000000000E+00 0.  1.
         11    1    3    3    0    0  0.20665663045E+02 -0.26533749985E+02 -0.53879577319E+01  0.34060822159E+02  0.51100000000E-03 0. -1.
        -11    1    3    3    0    0 -0.70472538379E+00 -0.87445826805E+01  0.11027531993E+02  0.14091516109E+02  0.51100000000E-03 0.  1.
        -12    1    3    3    0    0 -0.77449567146E+00 -0.40479171582E+00 -0.22099958757E+01  0.23765061853E+01  0.00000000000E+00 0.  1.
</event>
<event>
 7    1  0.9978258E-013  0.5052886E+02  0.7816164E-02  0.1300439E+00
        -11   -1    0    0    0    0  0.00000000000E+00  0.00000000000E+00  0.45593999997E+02  0.45594000000E+02  0.51100000000E-03 0.  1.
         11   -1    0    0    0    0 -0.00000000000E+00 -0.00000000000E+00 -0.45593999997E+02  0.45594000000E+02  0.51100000000E-03 0. -1.
    9900012    2    1    2    0    0 -0.20887655801E+02 -0.28313303692E+02  0.20377151997E+02  0.50528860139E+02  0.30000000877E+02 0.  0.
        -12    1    1    2    0    0  0.20887655801E+02  0.28313303692E+02 -0.20377151997E+02  0.40659139861E+02  0.00000000000E+00 0.  1.
         11    1    3    3    0    0 -0.25167467961E+02 -0.11953990529E+02  0.72637700783E+01  0.28793431354E+02  0.51100000000E-03 0. -1.
        -11    1    3    3    0    0 -0.48742332738E+00 -0.48397143601E+01  0.38553899854E+01  0.62068066498E+01  0.51100000000E-03 0.  1.
         12    1    3    3    0    0  0.47672354878E+01 -0.11519598803E+02  0.92579919329E+01  0.15528622135E+02  0.00000000000E+00 0. -1.
</event>
<event>
 7    1  0.9978258E-013  0.5052886E+02  0.7816164E-02  0.1300439E+00
        -11   -1    0    0    0    0  0.00000000000E+00  0.00000000000E+00  0.45593999997E+02  0.45594000000E+02  0.51100000000E-03 0.  1.
         11   -1    0    0    0    0 -0.00000000000E+00 -0.00000000000E+00 -0.45593999997E+02  0.45594000000E+02  0.51100000000E-03 0. -1.
    9900012    2    1    2    0    0 -0.63711262587E+00  0.95599423677E+01 -0.39514136459E+02  0.50528863380E+02  0.30000010731E+02 0.  0.
        -12    1    1    2    0    0  0.63711262587E+00 -0.95599423677E+01  0.39514136459E+02  0.40659136620E+02  0.00000000000E+00 0.  1.
         11    1    3    3    0    0 -0.64268601927E+01  0.14958812844E+02 -0.31893761322E+02  0.35808974087E+02  0.51100000000E-03 0. -1.
        -11    1    3    3    0    0 -0.92419003199E+00 -0.91758199185E+00  0.18586801453E+01  0.22695321260E+01  0.51100000000E-03 0.  1.
         12    1    3    3    0    0  0.67139375988E+01 -0.44812884842E+01 -0.94790552824E+01  0.12450357168E+02  0.00000000000E+00 0. -1.
</event>
<event>
 7    1  0.9978258E-013  0.5052884E+02  0.7816164E-02  0.1300439E+00
        -11   -1    0    0    0    0  0.00000000000E+00  0.00000000000E+00  0.45593999997E+02  0.45594000000E+02  0.51100000000E-03 0.  1.
         11   -1    0    0    0    0 -0.00000000000E+00 -0.00000000000E+00 -0.45593999997E+02  0.45594000000E+02  0.51100000000E-03 0. -1.
    9900012    2    1    2    0    0 -0.40165903146E+01  0.34779731463E+02 -0.20673756594E+02  0.50528844449E+02  0.29999953187E+02 0.  0.
        -12    1    1    2    0    0  0.40165903146E+01 -0.34779731463E+02  0.20673756594E+02  0.40659155551E+02  0.00000000000E+00 0.  1.
         11    1    3    3    0    0 -0.66196382717E+01  0.26956077711E+01 -0.51821818993E+01  0.88284155772E+01  0.51100000000E-03 0. -1.
        -11    1    3    3    0    0  0.71439825673E+01  0.25675937424E+02 -0.19364463212E+02  0.32943477128E+02  0.51100000000E-03 0.  1.
        -12    1    3    3    0    0 -0.45409346101E+01  0.64081862684E+01  0.38728885174E+01  0.87569517443E+01  0.00000000000E+00 0.  1.
</event>
<event>
 7    1  0.9978258E-013  0.5052886E+02  0.7816164E-02  0.1300439E+00
        -11   -1    0    0    0    0  0.00000000000E+00  0.00000000000E+00  0.45593999997E+02  0.45594000000E+02  0.51100000000E-03 0. -1.
         11   -1    0    0    0    0 -0.00000000000E+00 -0.00000000000E+00 -0.45593999997E+02  0.45594000000E+02  0.51100000000E-03 0.  1.
    9900012    2    1    2    0    0  0.83435484920E+01  0.14662186338E+02  0.36994204221E+02  0.50528860122E+02  0.30000000828E+02 0.  0.
        -12    1    1    2    0    0 -0.83435484920E+01 -0.14662186338E+02 -0.36994204221E+02  0.40659139878E+02  0.00000000000E+00 0.  1.
         11    1    3    3    0    0  0.91136192780E+01  0.91764466799E+00  0.18178625216E+02  0.20355897010E+02  0.51100000000E-03 0. -1.
        -11    1    3    3    0    0 -0.86880011565E+01  0.40340140227E+01  0.30873128340E+01  0.10064101253E+02  0.51100000000E-03 0.  1.
        -12    1    3    3    0    0  0.79179303705E+01  0.97105276476E+01  0.15728266171E+02  0.20108861859E+02  0.00000000000E+00 0.  1.
</event>
<event>
 7    1  0.9978258E-013  0.5052894E+02  0.7816164E-02  0.1300438E+00
        -11   -1    0    0    0    0  0.00000000000E+00  0.00000000000E+00  0.45593999997E+02  0.45594000000E+02  0.51100000000E-03 0.  1.
         11   -1    0    0    0    0 -0.00000000000E+00 -0.00000000000E+00 -0.45593999997E+02  0.45594000000E+02  0.51100000000E-03 0. -1.
    9900012    2    1    2    0    0 -0.39073974359E+02 -0.79384149678E+01 -0.79602070603E+01  0.50528944418E+02  0.30000257051E+02 0.  0.
        -12    1    1    2    0    0  0.39073974359E+02  0.79384149678E+01  0.79602070603E+01  0.40659055582E+02  0.00000000000E+00 0.  1.
         11    1    3    3    0    0 -0.65751694072E+01 -0.61113094972E+00 -0.61404166334E+01  0.90172640232E+01  0.51100000000E-03 0. -1.
        -11    1    3    3    0    0 -0.25588394455E+02 -0.16142803026E+02 -0.18351671267E+01  0.30310457914E+02  0.51100000000E-03 0.  1.
        -12    1    3    3    0    0 -0.69104104968E+01  0.88155190080E+01  0.15376699835E-01  0.11201222480E+02  0.00000000000E+00 0.  1.
</event>
<event>
 7    1  0.9978258E-013  0.5052886E+02  0.7816164E-02  0.1300439E+00
        -11   -1    0    0    0    0  0.00000000000E+00  0.00000000000E+00  0.45593999997E+02  0.45594000000E+02  0.51100000000E-03 0. -1.
         11   -1    0    0    0    0 -0.00000000000E+00 -0.00000000000E+00 -0.45593999997E+02  0.45594000000E+02  0.51100000000E-03 0.  1.
    9900012    2    1    2    0    0  0.27508178464E+02 -0.16040945180E+02  0.25281492050E+02  0.50528860253E+02  0.30000001226E+02 0.  0.
        -12    1    1    2    0    0 -0.27508178464E+02  0.16040945180E+02 -0.25281492050E+02  0.40659139747E+02  0.00000000000E+00 0.  1.
         11    1    3    3    0    0  0.15040597436E+02 -0.20466983531E+02  0.18371902992E+02  0.31347149885E+02  0.51100000000E-03 0. -1.
        -11    1    3    3    0    0  0.48546743764E+01  0.50409221864E+01 -0.21603159483E+01  0.73243242042E+01  0.51100000000E-03 0.  1.
         12    1    3    3    0    0  0.76129066515E+01 -0.61488383450E+00  0.90699050067E+01  0.11857386164E+02  0.00000000000E+00 0. -1.
</event>
<event>
 7    1  0.9978258E-013  0.5052889E+02  0.7816164E-02  0.1300439E+00
        -11   -1    0    0    0    0  0.00000000000E+00  0.00000000000E+00  0.45593999997E+02  0.45594000000E+02  0.51100000000E-03 0.  1.
         11   -1    0    0    0    0 -0.00000000000E+00 -0.00000000000E+00 -0.45593999997E+02  0.45594000000E+02  0.51100000000E-03 0. -1.
    9900012    2    1    2    0    0 -0.35457572001E+02  0.64244822068E+01 -0.18832151744E+02  0.50528888805E+02  0.30000088011E+02 0.  0.
        -12    1    1    2    0    0  0.35457572001E+02 -0.64244822068E+01  0.18832151744E+02  0.40659111195E+02  0.00000000000E+00 0.  1.
         11    1    3    3    0    0 -0.10467979714E+02 -0.45994046506E+01 -0.17932262876E+02  0.21267326455E+02  0.51100000000E-03 0. -1.
        -11    1    3    3    0    0 -0.18770055179E+02  0.10918527318E+02 -0.43533159534E+01  0.22146795937E+02  0.51100000000E-03 0.  1.
         12    1    3    3    0    0 -0.62195371082E+01  0.10535953952E+00  0.34534270855E+01  0.71147664128E+01  0.00000000000E+00 0. -1.
</event>
<event>
 7    1  0.9978258E-013  0.5052886E+02  0.7816164E-02  0.1300439E+00
        -11   -1    0    0    0    0  0.00000000000E+00  0.00000000000E+00  0.45593999997E+02  0.45594000000E+02  0.51100000000E-03 0.  1.
         11   -1    0    0    0    0 -0.00000000000E+00 -0.00000000000E+00 -0.45593999997E+02  0.45594000000E+02  0.51100000000E-03 0. -1.
    9900012    2    1    2    0    0  0.21021915620E+02 -0.56558173235E+01  0.34340300531E+02  0.50528862694E+02  0.30000008643E+02 0.  0.
        -12    1    1    2    0    0 -0.21021915620E+02  0.56558173235E+01 -0.34340300531E+02  0.40659137306E+02  0.00000000000E+00 0.  1.
         11    1    3    3    0    0  0.15238883056E+02 -0.12370071399E+02  0.10343747250E+02  0.22186377141E+02  0.51100000000E-03 0. -1.
        -11    1    3    3    0    0  0.81636156050E+01  0.61523690427E+01  0.23783442331E+02  0.25887224531E+02  0.51100000000E-03 0.  1.
         12    1    3    3    0    0 -0.23805830408E+01  0.56188503270E+00  0.21311095053E+00  0.24552610210E+01  0.00000000000E+00 0. -1.
</event>
<event>
 7    1  0.9978258E-013  0.5052886E+02  0.7816164E-02  0.1300439E+00
        -11   -1    0    0    0    0  0.00000000000E+00  0.00000000000E+00  0.45593999997E+02  0.45594000000E+02  0.51100000000E-03 0.  1.
         11   -1    0    0    0    0 -0.00000000000E+00 -0.00000000000E+00 -0.45593999997E+02  0.45594000000E+02  0.51100000000E-03 0. -1.
    9900012    2    1    2    0    0 -0.27688935737E+02  0.29075005241E+02 -0.64134527840E+01  0.50528862422E+02  0.30000007817E+02 0.  0.
        -12    1    1    2    0    0  0.27688935737E+02 -0.29075005241E+02  0.64134527840E+01  0.40659137578E+02  0.00000000000E+00 0.  1.
         11    1    3    3    0    0 -0.24671433005E+02  0.19459640174E+02 -0.44552481739E+01  0.31736515858E+02  0.51100000000E-03 0. -1.
        -11    1    3    3    0    0  0.40993526963E+01  0.66344365453E+01 -0.62220425043E+01  0.99766855212E+01  0.51100000000E-03 0.  1.
        -12    1    3    3    0    0 -0.71168554280E+01  0.29809285216E+01  0.42638378943E+01  0.88156610429E+01  0.00000000000E+00 0.  1.
</event>
<event>
 7    1  0.9978258E-013  0.5052885E+02  0.7816164E-02  0.1300439E+00
        -11   -1    0    0    0    0  0.00000000000E+00  0.00000000000E+00  0.45593999997E+02  0.45594000000E+02  0.51100000000E-03 0.  1.
         11   -1    0    0    0    0 -0.00000000000E+00 -0.00000000000E+00 -0.45593999997E+02  0.45594000000E+02  0.51100000000E-03 0. -1.
    9900012    2    1    2    0    0  0.33103255004E+02 -0.24225643785E+01  0.23483440898E+02  0.50528852119E+02  0.29999976500E+02 0.  0.
        -12    1    1    2    0    0 -0.33103255004E+02  0.24225643785E+01 -0.23483440898E+02  0.40659147881E+02  0.00000000000E+00 0.  1.
         11    1    3    3    0    0  0.18259742171E+02  0.91531532830E+01  0.64981862682E+01  0.21434197541E+02  0.51100000000E-03 0. -1.
        -11    1    3    3    0    0  0.17415594718E+02 -0.10688602290E+02  0.12830192706E+02  0.24128054283E+02  0.51100000000E-03 0.  1.
         12    1    3    3    0    0 -0.25720818857E+01 -0.88711537104E+00  0.41550619235E+01  0.49666002956E+01  0.00000000000E+00 0. -1.
</event>
<event>
 7    1  0.9978258E-013  0.5052886E+02  0.7816164E-02  0.1300439E+00
        -11   -1    0    0    0    0  0.00000000000E+00  0.00000000000E+00  0.45593999997E+02  0.45594000000E+02  0.51100000000E-03 0.  1.
         11   -1    0    0    0    0 -0.00000000000E+00 -0.00000000000E+00 -0.45593999997E+02  0.45594000000E+02  0.51100000000E-03 0. -1.
    9900012    2    1    2    0    0 -0.30115056820E+02  0.27848812899E+01 -0.27175232408E+02  0.50528862435E+02  0.30000007858E+02 0.  0.
        -12    1    1    2    0    0  0.30115056820E+02 -0.27848812899E+01  0.27175232408E+02  0.40659137565E+02  0.00000000000E+00 0.  1.
         11    1    3    3    0    0 -0.25035060622E+02  0.11476485347E+02 -0.13394736825E+02  0.30624874712E+02  0.51100000000E-03 0. -1.
        -11    1    3    3    0    0  0.21841687428E+01 -0.39895227925E+01 -0.88356530791E+01  0.99375877759E+01  0.51100000000E-03 0.  1.
         12    1    3    3    0    0 -0.72641649404E+01 -0.47020812651E+01 -0.49448425048E+01  0.99663999469E+01  0.00000000000E+00 0. -1.
</event>
<event>
 7    1  0.9978258E-013  0.5052886E+02  0.7816164E-02  0.1300439E+00
        -11   -1    0    0    0    0  0.00000000000E+00  0.00000000000E+00  0.45593999997E+02  0.45594000000E+02  0.51100000000E-03 0. -1.
         11   -1    0    0    0    0 -0.00000000000E+00 -0.00000000000E+00 -0.45593999997E+02  0.45594000000E+02  0.51100000000E-03 0.  1.
    9900012    2    1    2    0    0  0.13992631111E+02  0.36395502214E+02 -0.11521270751E+02  0.50528856053E+02  0.29999988457E+02 0.  0.
        -12    1    1    2    0    0 -0.13992631111E+02 -0.36395502214E+02  0.11521270751E+02  0.40659143947E+02  0.00000000000E+00 0.  1.
         11    1    3    3    0    0  0.60137328814E+01  0.28912923122E+02  0.23925508887E+01  0.29628472904E+02  0.51100000000E-03 0. -1.
        -11    1    3    3    0    0  0.96716349463E+01  0.27468699512E+01 -0.66092691535E+01  0.12031968088E+02  0.51100000000E-03 0.  1.
         12    1    3    3    0    0 -0.16927367169E+01  0.47357091413E+01 -0.73045524865E+01  0.88684150608E+01  0.00000000000E+00 0. -1.
</event>
<event>
 7    1  0.9978258E-013  0.5052886E+02  0.7816164E-02  0.1300439E+00
        -11   -1    0    0    0    0  0.00000000000E+00  0.00000000000E+00  0.45593999997E+02  0.45594000000E+02  0.51100000000E-03 0.  1.
         11   -1    0    0    0    0 -0.00000000000E+00 -0.00000000000E+00 -0.45593999997E+02  0.45594000000E+02  0.51100000000E-03 0. -1.
    9900012    2    1    2    0    0  0.29611193625E+01 -0.84720084609E+00 -0.40542322303E+02  0.50528857425E+02  0.29999992630E+02 0.  0.
        -12    1    1    2    0    0 -0.29611193625E+01  0.84720084609E+00  0.40542322303E+02  0.40659142575E+02  0.00000000000E+00 0.  1.
         11    1    3    3    0    0  0.12827644325E+02  0.99566700398E+00 -0.33306689030E+02  0.35705396596E+02  0.51100000000E-03 0. -1.
        -11    1    3    3    0    0  0.65435956094E+00 -0.69492134962E+00  0.10230056190E+01  0.13991579163E+01  0.51100000000E-03 0.  1.
         12    1    3    3    0    0 -0.10520884524E+02 -0.11479465005E+01 -0.82586388926E+01  0.13424302913E+02  0.00000000000E+00 0. -1.
</event>
<event>
 7    1  0.1118917E-012  0.5052885E+02  0.7816164E-02  0.1300439E+00
        -11   -1    0    0    0    0  0.00000000000E+00  0.00000000000E+00  0.45593999997E+02  0.45594000000E+02  0.51100000000E-03 0.  1.
         11   -1    0    0    0    0 -0.00000000000E+00 -0.00000000000E+00 -0.45593999997E+02  0.45594000000E+02  0.51100000000E-03 0. -1.
    9900012    2    1    2    0    0  0.24167957622E+02 -0.29321121359E+02 -0.14468865347E+02  0.50528850995E+02  0.29999973085E+02 0.  0.
        -12    1    1    2    0    0 -0.24167957622E+02  0.29321121359E+02  0.14468865347E+02  0.40659149005E+02  0.00000000000E+00 0.  1.
         11    1    3    3    0    0  0.17261553176E+02 -0.16717594872E+02 -0.13115052660E+02  0.27375971268E+02  0.51100000000E-03 0. -1.
        -11    1    3    3    0    0 -0.61158757479E+01 -0.56527482451E+01 -0.99472205651E+00  0.83873101241E+01  0.51100000000E-03 0.  1.
         12    1    3    3    0    0  0.13022280194E+02 -0.69507782416E+01 -0.35909063046E+00  0.14765569603E+02  0.00000000000E+00 0. -1.
</event>
<event>
 7    1  0.9978258E-013  0.5052886E+02  0.7816164E-02  0.1300439E+00
        -11   -1    0    0    0    0  0.00000000000E+00  0.00000000000E+00  0.45593999997E+02  0.45594000000E+02  0.51100000000E-03 0.  1.
         11   -1    0    0    0    0 -0.00000000000E+00 -0.00000000000E+00 -0.45593999997E+02  0.45594000000E+02  0.51100000000E-03 0. -1.
    9900012    2    1    2    0    0 -0.17142300854E+01 -0.86948944931E+01 -0.39681554403E+02  0.50528861607E+02  0.30000005341E+02 0.  0.
        -12    1    1    2    0    0  0.17142300854E+01  0.86948944931E+01  0.39681554403E+02  0.40659138393E+02  0.00000000000E+00 0.  1.
         11    1    3    3    0    0  0.95718870273E+01 -0.13855699338E+02 -0.22621836672E+02  0.28201931141E+02  0.51100000000E-03 0. -1.
        -11    1    3    3    0    0 -0.60774288422E+01 -0.10583585676E+01 -0.59505669612E+01  0.85711441249E+01  0.51100000000E-03 0.  1.
         12    1    3    3    0    0 -0.52086882705E+01  0.62191634122E+01 -0.11109150769E+02  0.13755786341E+02  0.00000000000E+00 0. -1.
</event>
<event>
 7    1  0.9978258E-013  0.5052886E+02  0.7816164E-02  0.1300439E+00
        -11   -1    0    0    0    0  0.00000000000E+00  0.00000000000E+00  0.45593999997E+02  0.45594000000E+02  0.51100000000E-03 0.  1.
         11   -1    0    0    0    0 -0.00000000000E+00 -0.00000000000E+00 -0.45593999997E+02  0.45594000000E+02  0.51100000000E-03 0. -1.
    9900012    2    1    2    0    0 -0.16275903787E+02 -0.82782071855E+01 -0.36328115904E+02  0.50528858796E+02  0.29999996797E+02 0.  0.
        -12    1    1    2    0    0  0.16275903787E+02  0.82782071855E+01  0.36328115904E+02  0.40659141204E+02  0.00000000000E+00 0.  1.
         11    1    3    3    0    0  0.58559470860E+01 -0.13848408792E+00 -0.39998453950E+01  0.70929583082E+01  0.51100000000E-03 0.  1.
        -11    1    3    3    0    0 -0.22270101793E+02 -0.63528487603E+01 -0.18909333189E+02  0.29897809337E+02  0.51100000000E-03 0. -1.
         12    1    3    3    0    0  0.13825092012E+00 -0.17868743373E+01 -0.13418937320E+02  0.13538091151E+02  0.00000000000E+00 0. -1.
</event>
<event>
 7    1  0.9978258E-013  0.5052884E+02  0.7816164E-02  0.1300439E+00
        -11   -1    0    0    0    0  0.00000000000E+00  0.00000000000E+00  0.45593999997E+02  0.45594000000E+02  0.51100000000E-03 0. -1.
         11   -1    0    0    0    0 -0.00000000000E+00 -0.00000000000E+00 -0.45593999997E+02  0.45594000000E+02  0.51100000000E-03 0.  1.
    9900012    2    1    2    0    0 -0.53713371435E+00 -0.35941758335E+02  0.19001800897E+02  0.50528844301E+02  0.29999952738E+02 0.  0.
        -12    1    1    2    0    0  0.53713371435E+00  0.35941758335E+02 -0.19001800897E+02  0.40659155699E+02  0.00000000000E+00 0.  1.
         11    1    3    3    0    0 -0.90574996633E+01 -0.25153209970E+02  0.61058491559E+01  0.27422685246E+02  0.51100000000E-03 0. -1.
        -11    1    3    3    0    0  0.88070357766E+01 -0.11085960156E+02  0.15195768539E+02  0.20769539559E+02  0.51100000000E-03 0.  1.
         12    1    3    3    0    0 -0.28666982765E+00  0.29741179137E+00 -0.22998167982E+01  0.23366194959E+01  0.00000000000E+00 0. -1.
</event>
<event>
 7    1  0.9978258E-013  0.5052887E+02  0.7816164E-02  0.1300439E+00
        -11   -1    0    0    0    0  0.00000000000E+00  0.00000000000E+00  0.45593999997E+02  0.45594000000E+02  0.51100000000E-03 0.  1.
         11   -1    0    0    0    0 -0.00000000000E+00 -0.00000000000E+00 -0.45593999997E+02  0.45594000000E+02  0.51100000000E-03 0. -1.
    9900012    2    1    2    0    0  0.21757542017E+02 -0.64792033831E+01 -0.33731209470E+02  0.50528865683E+02  0.30000017731E+02 0.  0.
        -12    1    1    2    0    0 -0.21757542017E+02  0.64792033831E+01  0.33731209470E+02  0.40659134317E+02  0.00000000000E+00 0.  1.
         11    1    3    3    0    0  0.77197965457E+01 -0.90242319818E+01 -0.22260528036E+02  0.25230202739E+02  0.51100000000E-03 0. -1.
        -11    1    3    3    0    0  0.98050645473E+01  0.97461771845E+01 -0.93207717614E+01  0.16673453361E+02  0.51100000000E-03 0.  1.
        -12    1    3    3    0    0  0.42326809236E+01 -0.72011485858E+01 -0.21499096730E+01  0.86252095834E+01  0.00000000000E+00 0.  1.
</event>
<event>
 7    1  0.9978258E-013  0.5052886E+02  0.7816164E-02  0.1300439E+00
        -11   -1    0    0    0    0  0.00000000000E+00  0.00000000000E+00  0.45593999997E+02  0.45594000000E+02  0.51100000000E-03 0.  1.
         11   -1    0    0    0    0 -0.00000000000E+00 -0.00000000000E+00 -0.45593999997E+02  0.45594000000E+02  0.51100000000E-03 0. -1.
    9900012    2    1    2    0    0 -0.29863552201E+02 -0.11857689477E+02 -0.24914435056E+02  0.50528860511E+02  0.30000002010E+02 0.  0.
        -12    1    1    2    0    0  0.29863552201E+02  0.11857689477E+02  0.24914435056E+02  0.40659139489E+02  0.00000000000E+00 0.  1.
         11    1    3    3    0    0 -0.18382917499E+02  0.29104575521E+01 -0.71734809728E+01  0.19946459547E+02  0.51100000000E-03 0.  1.
        -11    1    3    3    0    0  0.38548108081E+01 -0.25362891906E+01 -0.65074014758E+01  0.79773807389E+01  0.51100000000E-03 0. -1.
         12    1    3    3    0    0 -0.15335445510E+02 -0.12231857839E+02 -0.11233552607E+02  0.22605020225E+02  0.00000000000E+00 0. -1.
</event>
<event>
 7    1  0.9978258E-013  0.5052886E+02  0.7816164E-02  0.1300439E+00
        -11   -1    0    0    0    0  0.00000000000E+00  0.00000000000E+00  0.45593999997E+02  0.45594000000E+02  0.51100000000E-03 0. -1.
         11   -1    0    0    0    0 -0.00000000000E+00 -0.00000000000E+00 -0.45593999997E+02  0.45594000000E+02  0.51100000000E-03 0.  1.
    9900012    2    1    2    0    0  0.97464725620E+00  0.40298013830E+02  0.53184683959E+01  0.50528856354E+02  0.29999989374E+02 0.  0.
        -12    1    1    2    0    0 -0.97464725620E+00 -0.40298013830E+02 -0.53184683959E+01  0.40659143646E+02  0.00000000000E+00 0.  1.
         11    1    3    3    0    0 -0.32604757929E+01 -0.24934702085E+01 -0.35791935441E+01  0.54459822589E+01  0.51100000000E-03 0. -1.
        -11    1    3    3    0    0  0.69691773262E+01  0.24495102155E+02  0.74114230671E+01  0.26523737563E+02  0.51100000000E-03 0.  1.
         12    1    3    3    0    0 -0.27340542770E+01  0.18296381884E+02  0.14862388729E+01  0.18559136532E+02  0.00000000000E+00 0. -1.
</event>
<event>
 7    1  0.9978258E-013  0.5052886E+02  0.7816164E-02  0.1300439E+00
        -11   -1    0    0    0    0  0.00000000000E+00  0.00000000000E+00  0.45593999997E+02  0.45594000000E+02  0.51100000000E-03 0.  1.
         11   -1    0    0    0    0 -0.00000000000E+00 -0.00000000000E+00 -0.45593999997E+02  0.45594000000E+02  0.51100000000E-03 0. -1.
    9900012    2    1    2    0    0  0.17886661739E+02  0.32816339152E+02 -0.16010012792E+02  0.50528864580E+02  0.30000014377E+02 0.  0.
        -12    1    1    2    0    0 -0.17886661739E+02 -0.32816339152E+02  0.16010012792E+02  0.40659135420E+02  0.00000000000E+00 0.  1.
         11    1    3    3    0    0  0.63195824826E+01  0.22165892082E+02 -0.21733485020E+02  0.31679776923E+02  0.51100000000E-03 0. -1.
        -11    1    3    3    0    0  0.75021571510E+00  0.12231637055E+01 -0.20715346433E+01  0.25199621245E+01  0.51100000000E-03 0.  1.
         12    1    3    3    0    0  0.10816863541E+02  0.94272833650E+01  0.77950068712E+01  0.16329125532E+02  0.00000000000E+00 0. -1.
</event>
<event>
 7    1  0.9978258E-013  0.5052886E+02  0.7816164E-02  0.1300439E+00
        -11   -1    0    0    0    0  0.00000000000E+00  0.00000000000E+00  0.45593999997E+02  0.45594000000E+02  0.51100000000E-03 0.  1.
         11   -1    0    0    0    0 -0.00000000000E+00 -0.00000000000E+00 -0.45593999997E+02  0.45594000000E+02  0.51100000000E-03 0. -1.
    9900012    2    1    2    0    0  0.19076897299E+02  0.32838607140E+02 -0.14521136065E+02  0.50528861764E+02  0.30000005818E+02 0.  0.
        -12    1    1    2    0    0 -0.19076897299E+02 -0.32838607140E+02  0.14521136065E+02  0.40659138236E+02  0.00000000000E+00 0.  1.
         11    1    3    3    0    0  0.11494117459E+02  0.14325172840E+02 -0.30634534543E+01  0.18620151997E+02  0.51100000000E-03 0. -1.
        -11    1    3    3    0    0 -0.44968877570E+01 -0.16093360113E+01 -0.62530987975E+01  0.78684945656E+01  0.51100000000E-03 0.  1.
        -12    1    3    3    0    0  0.12079667597E+02  0.20122770312E+02 -0.52045838131E+01  0.24040215202E+02  0.00000000000E+00 0.  1.
</event>
<event>
 7    1  0.9978258E-013  0.5052886E+02  0.7816164E-02  0.1300439E+00
        -11   -1    0    0    0    0  0.00000000000E+00  0.00000000000E+00  0.45593999997E+02  0.45594000000E+02  0.51100000000E-03 0. -1.
         11   -1    0    0    0    0 -0.00000000000E+00 -0.00000000000E+00 -0.45593999997E+02  0.45594000000E+02  0.51100000000E-03 0.  1.
    9900012    2    1    2    0    0 -0.96176401454E+01  0.25179335174E+01  0.39424949821E+02  0.50528860074E+02  0.30000000681E+02 0.  0.
        -12    1    1    2    0    0  0.96176401454E+01 -0.25179335174E+01 -0.39424949821E+02  0.40659139926E+02  0.00000000000E+00 0.  1.
         11    1    3    3    0    0 -0.16551348880E+02  0.48123029498E+01  0.35864674904E+02  0.39791711646E+02  0.51100000000E-03 0. -1.
        -11    1    3    3    0    0  0.22762224154E+01 -0.16770593896E+01 -0.19959257279E+01  0.34608433153E+01  0.51100000000E-03 0.  1.
         12    1    3    3    0    0  0.46574863192E+01 -0.61731004275E+00  0.55562006440E+01  0.72763051131E+01  0.00000000000E+00 0. -1.
</event>
<event>
 7    1  0.9978258E-013  0.5052885E+02  0.7816164E-02  0.1300439E+00
        -11   -1    0    0    0    0  0.00000000000E+00  0.00000000000E+00  0.45593999997E+02  0.45594000000E+02  0.51100000000E-03 0.  1.
         11   -1    0    0    0    0 -0.00000000000E+00 -0.00000000000E+00 -0.45593999997E+02  0.45594000000E+02  0.51100000000E-03 0. -1.
    9900012    2    1    2    0    0 -0.47446948149E+01  0.26388422183E+02 -0.30566415097E+02  0.50528847450E+02  0.29999962310E+02 0.  0.
        -12    1    1    2    0    0  0.47446948149E+01 -0.26388422183E+02  0.30566415097E+02  0.40659152550E+02  0.00000000000E+00 0.  1.
         11    1    3    3    0    0 -0.79200162690E-01  0.15227100167E+02 -0.81361070095E+01  0.17264619593E+02  0.51100000000E-03 0. -1.
        -11    1    3    3    0    0 -0.16813025353E+01 -0.61408268944E+01 -0.28822717999E+01  0.69888499878E+01  0.51100000000E-03 0.  1.
        -12    1    3    3    0    0 -0.29841921169E+01  0.17302148910E+02 -0.19548036288E+02  0.26275377870E+02  0.00000000000E+00 0.  1.
</event>
<event>
 7    1  0.9978258E-013  0.5052886E+02  0.7816164E-02  0.1300439E+00
        -11   -1    0    0    0    0  0.00000000000E+00  0.00000000000E+00  0.45593999997E+02  0.45594000000E+02  0.51100000000E-03 0. -1.
         11   -1    0    0    0    0 -0.00000000000E+00 -0.00000000000E+00 -0.45593999997E+02  0.45594000000E+02  0.51100000000E-03 0.  1.
    9900012    2    1    2    0    0  0.33675910723E+02  0.17817993477E+02  0.14199227286E+02  0.50528856993E+02  0.29999991317E+02 0.  0.
        -12    1    1    2    0    0 -0.33675910723E+02 -0.17817993477E+02 -0.14199227286E+02  0.40659143007E+02  0.00000000000E+00 0.  1.
         11    1    3    3    0    0  0.30253890477E+02  0.11111268330E+02  0.21488848605E+02  0.38736659479E+02  0.51100000000E-03 0. -1.
        -11    1    3    3    0    0 -0.10922169769E+01 -0.71993190249E-01 -0.57256474057E+00  0.12352941299E+01  0.51100000000E-03 0.  1.
         12    1    3    3    0    0  0.45142372220E+01  0.67787183370E+01 -0.67170565789E+01  0.10556903385E+02  0.00000000000E+00 0. -1.
</event>
<event>
 7    1  0.9978258E-013  0.5052887E+02  0.7816164E-02  0.1300439E+00
        -11   -1    0    0    0    0  0.00000000000E+00  0.00000000000E+00  0.45593999997E+02  0.45594000000E+02  0.51100000000E-03 0.  1.
         11   -1    0    0    0    0 -0.00000000000E+00 -0.00000000000E+00 -0.45593999997E+02  0.45594000000E+02  0.51100000000E-03 0. -1.
    9900012    2    1    2    0    0  0.19740129367E+02  0.32967296679E+02 -0.13290956893E+02  0.50528869501E+02  0.30000029335E+02 0.  0.
        -12    1    1    2    0    0 -0.19740129367E+02 -0.32967296679E+02  0.13290956893E+02  0.40659130499E+02  0.00000000000E+00 0.  1.
         11    1    3    3    0    0  0.12310952418E+02  0.12318429104E+02 -0.85304117903E+00  0.17436482574E+02  0.51100000000E-03 0. -1.
        -11    1    3    3    0    0  0.43478742343E+01  0.76724501871E+01 -0.16871723141E+02  0.19037477360E+02  0.51100000000E-03 0.  1.
        -12    1    3    3    0    0  0.30813027155E+01  0.12976417388E+02  0.44338074266E+01  0.14054909568E+02  0.00000000000E+00 0.  1.
</event>
<event>
 7    1  0.9978258E-013  0.5052886E+02  0.7816164E-02  0.1300439E+00
        -11   -1    0    0    0    0  0.00000000000E+00  0.00000000000E+00  0.45593999997E+02  0.45594000000E+02  0.51100000000E-03 0.  1.
         11   -1    0    0    0    0 -0.00000000000E+00 -0.00000000000E+00 -0.45593999997E+02  0.45594000000E+02  0.51100000000E-03 0. -1.
    9900012    2    1    2    0    0  0.39537800039E+02 -0.89580664161E+01 -0.31114070532E+01  0.50528862778E+02  0.30000008899E+02 0.  0.
        -12    1    1    2    0    0 -0.39537800039E+02  0.89580664161E+01  0.31114070532E+01  0.40659137222E+02  0.00000000000E+00 0.  1.
         11    1    3    3    0    0  0.25601032058E+02 -0.98108523886E+01 -0.62977200849E+01  0.28130534043E+02  0.51100000000E-03 0. -1.
        -11    1    3    3    0    0  0.47228796626E+01  0.75441135484E+01 -0.30582185851E+01  0.94112667965E+01  0.51100000000E-03 0.  1.
         12    1    3    3    0    0  0.92138883182E+01 -0.66913275759E+01  0.62445316168E+01  0.12987061938E+02  0.00000000000E+00 0. -1.
</event>
<event>
 7    1  0.9978258E-013  0.5052887E+02  0.7816164E-02  0.1300439E+00
        -11   -1    0    0    0    0  0.00000000000E+00  0.00000000000E+00  0.45593999997E+02  0.45594000000E+02  0.51100000000E-03 0.  1.
         11   -1    0    0    0    0 -0.00000000000E+00 -0.00000000000E+00 -0.45593999997E+02  0.45594000000E+02  0.51100000000E-03 0. -1.
    9900012    2    1    2    0    0  0.30967333140E+01  0.34767112415E+02 -0.20852417855E+02  0.50528865808E+02  0.30000018110E+02 0.  0.
        -12    1    1    2    0    0 -0.30967333140E+01 -0.34767112415E+02  0.20852417855E+02  0.40659134192E+02  0.00000000000E+00 0.  1.
         11    1    3    3    0    0 -0.95004614179E+00  0.10370915154E+02 -0.14502233506E+02  0.17854222070E+02  0.51100000000E-03 0. -1.
        -11    1    3    3    0    0  0.54464118379E+01  0.16607477843E+02  0.55901958138E+01  0.18349986695E+02  0.51100000000E-03 0.  1.
        -12    1    3    3    0    0 -0.13996323821E+01  0.77887194179E+01 -0.11940380163E+02  0.14324657043E+02  0.00000000000E+00 0.  1.
</event>
<event>
 7    1  0.9978258E-013  0.5052886E+02  0.7816164E-02  0.1300439E+00
        -11   -1    0    0    0    0  0.00000000000E+00  0.00000000000E+00  0.45593999997E+02  0.45594000000E+02  0.51100000000E-03 0.  1.
         11   -1    0    0    0    0 -0.00000000000E+00 -0.00000000000E+00 -0.45593999997E+02  0.45594000000E+02  0.51100000000E-03 0. -1.
    9900012    2    1    2    0    0  0.11324735898E+02  0.36752575204E+02 -0.13197123588E+02  0.50528862057E+02  0.30000006707E+02 0.  0.
        -12    1    1    2    0    0 -0.11324735898E+02 -0.36752575204E+02  0.13197123588E+02  0.40659137943E+02  0.00000000000E+00 0.  1.
         11    1    3    3    0    0  0.12376765781E+02  0.18745354638E+02 -0.13565974768E+02  0.26241347590E+02  0.51100000000E-03 0. -1.
        -11    1    3    3    0    0 -0.36680215769E+01  0.50551498628E+01  0.71017132423E+01  0.94574443515E+01  0.51100000000E-03 0.  1.
        -12    1    3    3    0    0  0.26159916943E+01  0.12952070703E+02 -0.67328620631E+01  0.14830070115E+02  0.00000000000E+00 0.  1.
</event>
<event>
 7    1  0.9978258E-013  0.5052886E+02  0.7816164E-02  0.1300439E+00
        -11   -1    0    0    0    0  0.00000000000E+00  0.00000000000E+00  0.45593999997E+02  0.45594000000E+02  0.51100000000E-03 0.  1.
         11   -1    0    0    0    0 -0.00000000000E+00 -0.00000000000E+00 -0.45593999997E+02  0.45594000000E+02  0.51100000000E-03 0. -1.
    9900012    2    1    2    0    0 -0.19502041010E+01  0.14761717635E+02 -0.37834561774E+02  0.50528859967E+02  0.30000000357E+02 0.  0.
        -12    1    1    2    0    0  0.19502041010E+01 -0.14761717635E+02  0.37834561774E+02  0.40659140033E+02  0.00000000000E+00 0.  1.
         11    1    3    3    0    0  0.10857153180E+02 -0.17816041613E+00 -0.10685760225E+02  0.15234664031E+02  0.51100000000E-03 0. -1.
        -11    1    3    3    0    0 -0.97510804944E+01  0.83994183237E+01 -0.88398858020E+01  0.15613371841E+02  0.51100000000E-03 0.  1.
         12    1    3    3    0    0 -0.30562767862E+01  0.65404597277E+01 -0.18308915747E+02  0.19680824095E+02  0.00000000000E+00 0. -1.
</event>
<event>
 7    1  0.9978258E-013  0.5052886E+02  0.7816164E-02  0.1300439E+00
        -11   -1    0    0    0    0  0.00000000000E+00  0.00000000000E+00  0.45593999997E+02  0.45594000000E+02  0.51100000000E-03 0.  1.
         11   -1    0    0    0    0 -0.00000000000E+00 -0.00000000000E+00 -0.45593999997E+02  0.45594000000E+02  0.51100000000E-03 0. -1.
    9900012    2    1    2    0    0  0.38867973771E+02 -0.17289488151E+01 -0.11809192829E+02  0.50528859769E+02  0.29999999753E+02 0.  0.
        -12    1    1    2    0    0 -0.38867973771E+02  0.17289488151E+01  0.11809192829E+02  0.40659140231E+02  0.00000000000E+00 0.  1.
         11    1    3    3    0    0  0.35391546356E+02 -0.10041274681E+01 -0.47917172452E+01  0.35728565320E+02  0.51100000000E-03 0. -1.
        -11    1    3    3    0    0  0.48557989701E+01 -0.17645629056E+01 -0.10055742641E+02  0.11305327338E+02  0.51100000000E-03 0.  1.
        -12    1    3    3    0    0 -0.13793715549E+01  0.10397415586E+01  0.30382670571E+01  0.34949671108E+01  0.00000000000E+00 0.  1.
</event>
<event>
 7    1  0.9978258E-013  0.5052886E+02  0.7816164E-02  0.1300439E+00
        -11   -1    0    0    0    0  0.00000000000E+00  0.00000000000E+00  0.45593999997E+02  0.45594000000E+02  0.51100000000E-03 0.  1.
         11   -1    0    0    0    0 -0.00000000000E+00 -0.00000000000E+00 -0.45593999997E+02  0.45594000000E+02  0.51100000000E-03 0. -1.
    9900012    2    1    2    0    0  0.34297024144E+02 -0.11427786440E+02 -0.18608749606E+02  0.50528859208E+02  0.29999998048E+02 0.  0.
        -12    1    1    2    0    0 -0.34297024144E+02  0.11427786440E+02  0.18608749606E+02  0.40659140792E+02  0.00000000000E+00 0.  1.
         11    1    3    3    0    0  0.12577783418E+02 -0.62516964110E+01 -0.17482684056E+02  0.22426069335E+02  0.51100000000E-03 0. -1.
        -11    1    3    3    0    0  0.18300128746E+02 -0.77606369434E+01  0.51210352635E+01  0.20526743539E+02  0.51100000000E-03 0.  1.
        -12    1    3    3    0    0  0.34191119800E+01  0.25845469142E+01 -0.62471008134E+01  0.75760463341E+01  0.00000000000E+00 0.  1.
</event>
<event>
 7    1  0.9978258E-013  0.5052886E+02  0.7816164E-02  0.1300439E+00
        -11   -1    0    0    0    0  0.00000000000E+00  0.00000000000E+00  0.45593999997E+02  0.45594000000E+02  0.51100000000E-03 0.  1.
         11   -1    0    0    0    0 -0.00000000000E+00 -0.00000000000E+00 -0.45593999997E+02  0.45594000000E+02  0.51100000000E-03 0. -1.
    9900012    2    1    2    0    0  0.42685184410E+01  0.13518477027E+02 -0.38107692298E+02  0.50528859784E+02  0.29999999799E+02 0.  0.
        -12    1    1    2    0    0 -0.42685184410E+01 -0.13518477027E+02  0.38107692298E+02  0.40659140216E+02  0.00000000000E+00 0.  1.
         11    1    3    3    0    0  0.40988864344E+01  0.19089297404E+01  0.15553018738E+01  0.47816155152E+01  0.51100000000E-03 0.  1.
        -11    1    3    3    0    0 -0.19734030351E+01 -0.10460471470E+01 -0.28928126861E+02  0.29014221653E+02  0.51100000000E-03 0. -1.
         12    1    3    3    0    0  0.21430350417E+01  0.12655594434E+02 -0.10734867311E+02  0.16733022615E+02  0.00000000000E+00 0. -1.
</event>
<event>
 7    1  0.9978258E-013  0.5052886E+02  0.7816164E-02  0.1300439E+00
        -11   -1    0    0    0    0  0.00000000000E+00  0.00000000000E+00  0.45593999997E+02  0.45594000000E+02  0.51100000000E-03 0.  1.
         11   -1    0    0    0    0 -0.00000000000E+00 -0.00000000000E+00 -0.45593999997E+02  0.45594000000E+02  0.51100000000E-03 0. -1.
    9900012    2    1    2    0    0  0.20554757266E+02  0.13305826569E+02 -0.32459552988E+02  0.50528860227E+02  0.30000001146E+02 0.  0.
        -12    1    1    2    0    0 -0.20554757266E+02 -0.13305826569E+02  0.32459552988E+02  0.40659139773E+02  0.00000000000E+00 0.  1.
         11    1    3    3    0    0  0.44965672948E+01  0.18975514822E+02 -0.25375424213E+02  0.32003147258E+02  0.51100000000E-03 0. -1.
        -11    1    3    3    0    0  0.83659939503E+01 -0.36664803217E+01 -0.31977148073E+01  0.96777225097E+01  0.51100000000E-03 0.  1.
         12    1    3    3    0    0  0.76921960206E+01 -0.20032079313E+01 -0.38864139671E+01  0.88479904588E+01  0.00000000000E+00 0. -1.
</event>
<event>
 7    1  0.9978258E-013  0.5052886E+02  0.7816164E-02  0.1300439E+00
        -11   -1    0    0    0    0  0.00000000000E+00  0.00000000000E+00  0.45593999997E+02  0.45594000000E+02  0.51100000000E-03 0.  1.
         11   -1    0    0    0    0 -0.00000000000E+00 -0.00000000000E+00 -0.45593999997E+02  0.45594000000E+02  0.51100000000E-03 0. -1.
    9900012    2    1    2    0    0  0.20908242298E+02 -0.11371711331E+02 -0.32965061356E+02  0.50528859764E+02  0.29999999737E+02 0.  0.
        -12    1    1    2    0    0 -0.20908242298E+02  0.11371711331E+02  0.32965061356E+02  0.40659140236E+02  0.00000000000E+00 0.  1.
         11    1    3    3    0    0  0.10177769049E+02 -0.75630660645E+01 -0.30858493182E+02  0.33362157497E+02  0.51100000000E-03 0. -1.
        -11    1    3    3    0    0  0.90937971351E+01 -0.39166901357E+01  0.41224803277E+01  0.10725318283E+02  0.51100000000E-03 0.  1.
        -12    1    3    3    0    0  0.16366761134E+01  0.10804486961E+00 -0.62290485016E+01  0.64413839839E+01  0.00000000000E+00 0.  1.
</event>
<event>
 7    1  0.9978258E-013  0.5052886E+02  0.7816164E-02  0.1300439E+00
        -11   -1    0    0    0    0  0.00000000000E+00  0.00000000000E+00  0.45593999997E+02  0.45594000000E+02  0.51100000000E-03 0.  1.
         11   -1    0    0    0    0 -0.00000000000E+00 -0.00000000000E+00 -0.45593999997E+02  0.45594000000E+02  0.51100000000E-03 0. -1.
    9900012    2    1    2    0    0  0.78391253322E+01  0.22420605876E+02 -0.33000453488E+02  0.50528863459E+02  0.30000010970E+02 0.  0.
        -12    1    1    2    0    0 -0.78391253322E+01 -0.22420605876E+02  0.33000453488E+02  0.40659136541E+02  0.00000000000E+00 0.  1.
         11    1    3    3    0    0  0.25699325700E+01 -0.44017578550E+00 -0.23436309836E+02  0.23580901745E+02  0.51100000000E-03 0. -1.
        -11    1    3    3    0    0  0.79273919975E+01  0.17346844324E+02 -0.72316092480E+01  0.20397370528E+02  0.51100000000E-03 0.  1.
         12    1    3    3    0    0 -0.26581992353E+01  0.55139373377E+01 -0.23325344045E+01  0.65505911861E+01  0.00000000000E+00 0. -1.
</event>
<event>
 7    1  0.9978258E-013  0.5052887E+02  0.7816164E-02  0.1300439E+00
        -11   -1    0    0    0    0  0.00000000000E+00  0.00000000000E+00  0.45593999997E+02  0.45594000000E+02  0.51100000000E-03 0. -1.
         11   -1    0    0    0    0 -0.00000000000E+00 -0.00000000000E+00 -0.45593999997E+02  0.45594000000E+02  0.51100000000E-03 0.  1.
    9900012    2    1    2    0    0 -0.16000742005E+02 -0.21065014614E+02  0.30877282046E+02  0.50528866561E+02  0.30000020400E+02 0.  0.
        -12    1    1    2    0    0  0.16000742005E+02  0.21065014614E+02 -0.30877282046E+02  0.40659133439E+02  0.00000000000E+00 0.  1.
         11    1    3    3    0    0 -0.19883921723E+01 -0.38798372199E+01  0.94339992544E+01  0.10392650407E+02  0.51100000000E-03 0. -1.
        -11    1    3    3    0    0  0.36186226092E+01  0.42230751434E+01  0.92572065450E+00  0.56378854410E+01  0.51100000000E-03 0.  1.
        -12    1    3    3    0    0 -0.17630972442E+02 -0.21408252538E+02  0.20517562137E+02  0.34498330714E+02  0.00000000000E+00 0.  1.
</event>
<event>
 7    1  0.9978258E-013  0.5052886E+02  0.7816164E-02  0.1300439E+00
        -11   -1    0    0    0    0  0.00000000000E+00  0.00000000000E+00  0.45593999997E+02  0.45594000000E+02  0.51100000000E-03 0.  1.
         11   -1    0    0    0    0 -0.00000000000E+00 -0.00000000000E+00 -0.45593999997E+02  0.45594000000E+02  0.51100000000E-03 0. -1.
    9900012    2    1    2    0    0 -0.19621621747E+02  0.33943940186E+02 -0.10768771245E+02  0.50528861427E+02  0.30000004795E+02 0.  0.
        -12    1    1    2    0    0  0.19621621747E+02 -0.33943940186E+02  0.10768771245E+02  0.40659138573E+02  0.00000000000E+00 0.  1.
         11    1    3    3    0    0  0.13319111764E+01  0.18796133632E+02 -0.39757593706E+01  0.19258122695E+02  0.51100000000E-03 0. -1.
        -11    1    3    3    0    0 -0.16396735519E+02  0.52951564833E+01  0.19388943627E+01  0.17339288610E+02  0.51100000000E-03 0.  1.
        -12    1    3    3    0    0 -0.45567974037E+01  0.98526500707E+01 -0.87319062368E+01  0.13931450123E+02  0.00000000000E+00 0.  1.
</event>
<event>
 7    1  0.9978258E-013  0.5052886E+02  0.7816164E-02  0.1300439E+00
        -11   -1    0    0    0    0  0.00000000000E+00  0.00000000000E+00  0.45593999997E+02  0.45594000000E+02  0.51100000000E-03 0.  1.
         11   -1    0    0    0    0 -0.00000000000E+00 -0.00000000000E+00 -0.45593999997E+02  0.45594000000E+02  0.51100000000E-03 0. -1.
    9900012    2    1    2    0    0  0.18287732927E+01  0.88157280287E+01 -0.39649769974E+02  0.50528859190E+02  0.29999997995E+02 0.  0.
        -12    1    1    2    0    0 -0.18287732927E+01 -0.88157280287E+01  0.39649769974E+02  0.40659140810E+02  0.00000000000E+00 0.  1.
         11    1    3    3    0    0 -0.25986254995E+01  0.14418021944E+02 -0.22770716431E+02  0.27076516362E+02  0.51100000000E-03 0. -1.
        -11    1    3    3    0    0  0.91451329727E+01 -0.19164809788E+01 -0.62127159164E+01  0.11220703888E+02  0.51100000000E-03 0.  1.
        -12    1    3    3    0    0 -0.47177341805E+01 -0.36858129366E+01 -0.10666337626E+02  0.12231638940E+02  0.00000000000E+00 0.  1.
</event>
<event>
 7    1  0.9978258E-013  0.5052886E+02  0.7816164E-02  0.1300439E+00
        -11   -1    0    0    0    0  0.00000000000E+00  0.00000000000E+00  0.45593999997E+02  0.45594000000E+02  0.51100000000E-03 0.  1.
         11   -1    0    0    0    0 -0.00000000000E+00 -0.00000000000E+00 -0.45593999997E+02  0.45594000000E+02  0.51100000000E-03 0. -1.
    9900012    2    1    2    0    0  0.11980922106E+01  0.22813263838E+02 -0.33634588617E+02  0.50528856092E+02  0.29999988579E+02 0.  0.
        -12    1    1    2    0    0 -0.11980922106E+01 -0.22813263838E+02  0.33634588617E+02  0.40659143908E+02  0.00000000000E+00 0.  1.
         11    1    3    3    0    0  0.42721871226E+01  0.25719778287E+02 -0.25697486302E+02  0.36607641012E+02  0.51100000000E-03 0. -1.
        -11    1    3    3    0    0 -0.38096242213E+01  0.48850423348E+00  0.12981362150E+01  0.40542608436E+01  0.51100000000E-03 0.  1.
         12    1    3    3    0    0  0.73552930943E+00 -0.33950186825E+01 -0.92352385295E+01  0.98669542370E+01  0.00000000000E+00 0. -1.
</event>
<event>
 7    1  0.9978258E-013  0.5052885E+02  0.7816164E-02  0.1300439E+00
        -11   -1    0    0    0    0  0.00000000000E+00  0.00000000000E+00  0.45593999997E+02  0.45594000000E+02  0.51100000000E-03 0.  1.
         11   -1    0    0    0    0 -0.00000000000E+00 -0.00000000000E+00 -0.45593999997E+02  0.45594000000E+02  0.51100000000E-03 0. -1.
    9900012    2    1    2    0    0  0.35967182532E+02 -0.11792291933E+02 -0.14848229197E+02  0.50528852461E+02  0.29999977540E+02 0.  0.
        -12    1    1    2    0    0 -0.35967182532E+02  0.11792291933E+02  0.14848229197E+02  0.40659147539E+02  0.00000000000E+00 0.  1.
         11    1    3    3    0    0  0.28946195880E+01 -0.26612242384E+00 -0.18484079990E+01  0.34447432554E+01  0.51100000000E-03 0. -1.
        -11    1    3    3    0    0  0.61985369804E+01  0.10823131843E+01 -0.16053534113E+02  0.17242656997E+02  0.51100000000E-03 0.  1.
        -12    1    3    3    0    0  0.26874025964E+02 -0.12608482693E+02  0.30537129155E+01  0.29841452208E+02  0.00000000000E+00 0.  1.
</event>
<event>
 7    1  0.9978258E-013  0.5052888E+02  0.7816164E-02  0.1300439E+00
        -11   -1    0    0    0    0  0.00000000000E+00  0.00000000000E+00  0.45593999997E+02  0.45594000000E+02  0.51100000000E-03 0.  1.
         11   -1    0    0    0    0 -0.00000000000E+00 -0.00000000000E+00 -0.45593999997E+02  0.45594000000E+02  0.51100000000E-03 0. -1.
    9900012    2    1    2    0    0 -0.48661429015E+01 -0.92196557056E+01 -0.39299907495E+02  0.50528878918E+02  0.30000057959E+02 0.  0.
        -12    1    1    2    0    0  0.48661429015E+01  0.92196557056E+01  0.39299907495E+02  0.40659121082E+02  0.00000000000E+00 0.  1.
         11    1    3    3    0    0 -0.69764076111E+01 -0.56881848498E+01 -0.11835245297E+01  0.90789008484E+01  0.51100000000E-03 0. -1.
        -11    1    3    3    0    0  0.84722121123E+01 -0.44101427998E+01 -0.26615217622E+02  0.28277155920E+02  0.51100000000E-03 0.  1.
        -12    1    3    3    0    0 -0.63619474028E+01  0.87867194403E+00 -0.11501165343E+02  0.13172822149E+02  0.00000000000E+00 0.  1.
</event>
<event>
 7    1  0.9978258E-013  0.5052885E+02  0.7816164E-02  0.1300439E+00
        -11   -1    0    0    0    0  0.00000000000E+00  0.00000000000E+00  0.45593999997E+02  0.45594000000E+02  0.51100000000E-03 0. -1.
         11   -1    0    0    0    0 -0.00000000000E+00 -0.00000000000E+00 -0.45593999997E+02  0.45594000000E+02  0.51100000000E-03 0.  1.
    9900012    2    1    2    0    0 -0.24095788038E+02 -0.26616958327E+02  0.19081325522E+02  0.50528850287E+02  0.29999970932E+02 0.  0.
        -12    1    1    2    0    0  0.24095788038E+02  0.26616958327E+02 -0.19081325522E+02  0.40659149713E+02  0.00000000000E+00 0.  1.
         11    1    3    3    0    0 -0.50898244267E+01  0.14893084959E+01  0.24205832788E+01  0.58295433922E+01  0.51100000000E-03 0. -1.
        -11    1    3    3    0    0 -0.15097762386E+02 -0.26873383417E+02  0.36272382147E+01  0.31036720552E+02  0.51100000000E-03 0.  1.
        -12    1    3    3    0    0 -0.39082012249E+01 -0.12328834065E+01  0.13033504028E+02  0.13662586342E+02  0.00000000000E+00 0.  1.
</event>
<event>
 7    1  0.9978258E-013  0.5052886E+02  0.7816164E-02  0.1300439E+00
        -11   -1    0    0    0    0  0.00000000000E+00  0.00000000000E+00  0.45593999997E+02  0.45594000000E+02  0.51100000000E-03 0.  1.
         11   -1    0    0    0    0 -0.00000000000E+00 -0.00000000000E+00 -0.45593999997E+02  0.45594000000E+02  0.51100000000E-03 0. -1.
    9900012    2    1    2    0    0  0.25563973749E+02 -0.30335859469E+02 -0.89098093736E+01  0.50528858019E+02  0.29999994435E+02 0.  0.
        -12    1    1    2    0    0 -0.25563973749E+02  0.30335859469E+02  0.89098093736E+01  0.40659141981E+02  0.00000000000E+00 0.  1.
         11    1    3    3    0    0  0.15622867785E+01 -0.22193430474E+02 -0.10681673374E+02  0.24679692918E+02  0.51100000000E-03 0. -1.
        -11    1    3    3    0    0  0.12840812094E+02 -0.52648638643E+01  0.31791555376E+01  0.14237706168E+02  0.51100000000E-03 0.  1.
        -12    1    3    3    0    0  0.11160874877E+02 -0.28775651306E+01 -0.14072915367E+01  0.11611458933E+02  0.00000000000E+00 0.  1.
</event>
<event>
 7    1  0.9978258E-013  0.5052885E+02  0.7816164E-02  0.1300439E+00
        -11   -1    0    0    0    0  0.00000000000E+00  0.00000000000E+00  0.45593999997E+02  0.45594000000E+02  0.51100000000E-03 0. -1.
         11   -1    0    0    0    0 -0.00000000000E+00 -0.00000000000E+00 -0.45593999997E+02  0.45594000000E+02  0.51100000000E-03 0.  1.
    9900012    2    1    2    0    0 -0.10575852987E+02 -0.34623691130E+02  0.18507226173E+02  0.50528854972E+02  0.29999985171E+02 0.  0.
        -12    1    1    2    0    0  0.10575852987E+02  0.34623691130E+02 -0.18507226173E+02  0.40659145028E+02  0.00000000000E+00 0.  1.
         11    1    3    3    0    0  0.37206440724E+01 -0.60254114277E+01  0.53212335897E+01  0.88580078101E+01  0.51100000000E-03 0. -1.
        -11    1    3    3    0    0 -0.13564672330E+02 -0.29017113844E+02  0.38098990379E+01  0.32256914952E+02  0.51100000000E-03 0.  1.
        -12    1    3    3    0    0 -0.73182472911E+00  0.41883414255E+00  0.93760935452E+01  0.94139322093E+01  0.00000000000E+00 0.  1.
</event>
<event>
 7    1  0.9978258E-013  0.5052886E+02  0.7816164E-02  0.1300439E+00
        -11   -1    0    0    0    0  0.00000000000E+00  0.00000000000E+00  0.45593999997E+02  0.45594000000E+02  0.51100000000E-03 0. -1.
         11   -1    0    0    0    0 -0.00000000000E+00 -0.00000000000E+00 -0.45593999997E+02  0.45594000000E+02  0.51100000000E-03 0.  1.
    9900012    2    1    2    0    0  0.28599167915E+02 -0.28877587761E+02 -0.11569068858E+01  0.50528856947E+02  0.29999991176E+02 0.  0.
        -12    1    1    2    0    0 -0.28599167915E+02  0.28877587761E+02  0.11569068858E+01  0.40659143053E+02  0.00000000000E+00 0.  1.
         11    1    3    3    0    0  0.10525335940E+02 -0.19196654289E+02  0.12584365448E+02  0.25251940253E+02  0.51100000000E-03 0. -1.
        -11    1    3    3    0    0  0.12848181268E+02 -0.85038527819E+01 -0.12340277075E+02  0.19740154827E+02  0.51100000000E-03 0.  1.
         12    1    3    3    0    0  0.52256507071E+01 -0.11770806891E+01 -0.14009952588E+01  0.55367618674E+01  0.00000000000E+00 0. -1.
</event>
<event>
 7    1  0.9978258E-013  0.5052885E+02  0.7816164E-02  0.1300439E+00
        -11   -1    0    0    0    0  0.00000000000E+00  0.00000000000E+00  0.45593999997E+02  0.45594000000E+02  0.51100000000E-03 0.  1.
         11   -1    0    0    0    0 -0.00000000000E+00 -0.00000000000E+00 -0.45593999997E+02  0.45594000000E+02  0.51100000000E-03 0. -1.
    9900012    2    1    2    0    0 -0.47810389077E+01  0.13131742623E+02 -0.38182000499E+02  0.50528853926E+02  0.29999981993E+02 0.  0.
        -12    1    1    2    0    0  0.47810389077E+01 -0.13131742623E+02  0.38182000499E+02  0.40659146074E+02  0.00000000000E+00 0.  1.
         11    1    3    3    0    0  0.10977975196E+01 -0.52320595566E+01  0.76273157587E+00  0.54001265092E+01  0.51100000000E-03 0. -1.
        -11    1    3    3    0    0 -0.14154310264E+01 -0.15999807241E+01 -0.21567549584E+01  0.30356178152E+01  0.51100000000E-03 0.  1.
         12    1    3    3    0    0 -0.44634054009E+01  0.19963782904E+02 -0.36787977117E+02  0.42093109602E+02  0.00000000000E+00 0. -1.
</event>
<event>
 7    1  0.9978258E-013  0.5052887E+02  0.7816164E-02  0.1300439E+00
        -11   -1    0    0    0    0  0.00000000000E+00  0.00000000000E+00  0.45593999997E+02  0.45594000000E+02  0.51100000000E-03 0.  1.
         11   -1    0    0    0    0 -0.00000000000E+00 -0.00000000000E+00 -0.45593999997E+02  0.45594000000E+02  0.51100000000E-03 0. -1.
    9900012    2    1    2    0    0  0.96041459695E+01  0.39506350461E+02 -0.41692734970E+00  0.50528866033E+02  0.30000018794E+02 0.  0.
        -12    1    1    2    0    0 -0.96041459695E+01 -0.39506350461E+02  0.41692734970E+00  0.40659133967E+02  0.00000000000E+00 0.  1.
         11    1    3    3    0    0  0.79584039948E+01  0.16264343808E+02 -0.14389745159E+02  0.23128550314E+02  0.51100000000E-03 0. -1.
        -11    1    3    3    0    0  0.92379511920E+00  0.17222888142E+02  0.84792987042E+01  0.19219255452E+02  0.51100000000E-03 0.  1.
         12    1    3    3    0    0  0.72194685559E+00  0.60191185115E+01  0.54935191054E+01  0.81810602661E+01  0.00000000000E+00 0. -1.
</event>
<event>
 7    1  0.9978258E-013  0.5052888E+02  0.7816164E-02  0.1300439E+00
        -11   -1    0    0    0    0  0.00000000000E+00  0.00000000000E+00  0.45593999997E+02  0.45594000000E+02  0.51100000000E-03 0. -1.
         11   -1    0    0    0    0 -0.00000000000E+00 -0.00000000000E+00 -0.45593999997E+02  0.45594000000E+02  0.51100000000E-03 0.  1.
    9900012    2    1    2    0    0 -0.12576108566E+02  0.38517409456E+02 -0.33786062915E+01  0.50528876567E+02  0.30000050812E+02 0.  0.
        -12    1    1    2    0    0  0.12576108566E+02 -0.38517409456E+02  0.33786062915E+01  0.40659123433E+02  0.00000000000E+00 0.  1.
         11    1    3    3    0    0 -0.10535815271E+02  0.24930380312E+02 -0.46659523207E+01  0.27464493027E+02  0.51100000000E-03 0. -1.
        -11    1    3    3    0    0 -0.17023706189E+01  0.94530184640E+00 -0.74454939936E+01  0.76959107567E+01  0.51100000000E-03 0.  1.
        -12    1    3    3    0    0 -0.33792267599E+00  0.12641727298E+02  0.87328400229E+01  0.15368472783E+02  0.00000000000E+00 0.  1.
</event>
<event>
 7    1  0.9978258E-013  0.5052886E+02  0.7816164E-02  0.1300439E+00
        -11   -1    0    0    0    0  0.00000000000E+00  0.00000000000E+00  0.45593999997E+02  0.45594000000E+02  0.51100000000E-03 0. -1.
         11   -1    0    0    0    0 -0.00000000000E+00 -0.00000000000E+00 -0.45593999997E+02  0.45594000000E+02  0.51100000000E-03 0.  1.
    9900012    2    1    2    0    0 -0.39826177898E+02 -0.31697204534E+01  0.75494617955E+01  0.50528856537E+02  0.29999989930E+02 0.  0.
        -12    1    1    2    0    0  0.39826177898E+02  0.31697204534E+01 -0.75494617955E+01  0.40659143463E+02  0.00000000000E+00 0.  1.
         11    1    3    3    0    0 -0.25512723416E+02  0.59425938952E+01 -0.43255921202E+01  0.26550409145E+02  0.51100000000E-03 0.  1.
        -11    1    3    3    0    0 -0.14017181974E+02 -0.11631996876E+02  0.97003151234E+01  0.20636880955E+02  0.51100000000E-03 0. -1.
         12    1    3    3    0    0 -0.29627250812E+00  0.25196825269E+01  0.21747387923E+01  0.33415664366E+01  0.00000000000E+00 0. -1.
</event>
<event>
 7    1  0.9978258E-013  0.5052886E+02  0.7816164E-02  0.1300439E+00
        -11   -1    0    0    0    0  0.00000000000E+00  0.00000000000E+00  0.45593999997E+02  0.45594000000E+02  0.51100000000E-03 0. -1.
         11   -1    0    0    0    0 -0.00000000000E+00 -0.00000000000E+00 -0.45593999997E+02  0.45594000000E+02  0.51100000000E-03 0.  1.
    9900012    2    1    2    0    0  0.20811931146E+02  0.18502131325E+02  0.29626009915E+02  0.50528858284E+02  0.29999995239E+02 0.  0.
        -12    1    1    2    0    0 -0.20811931146E+02 -0.18502131325E+02 -0.29626009915E+02  0.40659141716E+02  0.00000000000E+00 0.  1.
         11    1    3    3    0    0  0.98655757344E+01  0.21711002736E+01  0.12450513066E+02  0.16033045152E+02  0.51100000000E-03 0. -1.
        -11    1    3    3    0    0 -0.29519059926E+01  0.30046586165E+01 -0.40462339166E+01  0.58406961537E+01  0.51100000000E-03 0.  1.
        -12    1    3    3    0    0  0.13898261404E+02  0.13326372435E+02  0.21221730766E+02  0.28655116978E+02  0.00000000000E+00 0.  1.
</event>
<event>
 7    1  0.9978258E-013  0.5052886E+02  0.7816164E-02  0.1300439E+00
        -11   -1    0    0    0    0  0.00000000000E+00  0.00000000000E+00  0.45593999997E+02  0.45594000000E+02  0.51100000000E-03 0. -1.
         11   -1    0    0    0    0 -0.00000000000E+00 -0.00000000000E+00 -0.45593999997E+02  0.45594000000E+02  0.51100000000E-03 0.  1.
    9900012    2    1    2    0    0  0.29563929006E+02  0.26417028079E+02  0.90155860024E+01  0.50528855127E+02  0.29999985644E+02 0.  0.
        -12    1    1    2    0    0 -0.29563929006E+02 -0.26417028079E+02 -0.90155860024E+01  0.40659144873E+02  0.00000000000E+00 0.  1.
         11    1    3    3    0    0 -0.43188756385E+01  0.85817370390E+00  0.12757085940E+01  0.45843845350E+01  0.51100000000E-03 0. -1.
        -11    1    3    3    0    0  0.26959108431E+02  0.26704968272E+02  0.44925724192E+01  0.38211674460E+02  0.51100000000E-03 0.  1.
         12    1    3    3    0    0  0.69236962142E+01 -0.11461138972E+01  0.32473049893E+01  0.77327961324E+01  0.00000000000E+00 0. -1.
</event>
<event>
 7    1  0.9978258E-013  0.5052885E+02  0.7816164E-02  0.1300439E+00
        -11   -1    0    0    0    0  0.00000000000E+00  0.00000000000E+00  0.45593999997E+02  0.45594000000E+02  0.51100000000E-03 0. -1.
         11   -1    0    0    0    0 -0.00000000000E+00 -0.00000000000E+00 -0.45593999997E+02  0.45594000000E+02  0.51100000000E-03 0.  1.
    9900012    2    1    2    0    0 -0.14775004878E+01 -0.25041679228E+02 -0.31998396416E+02  0.50528854910E+02  0.29999984985E+02 0.  0.
        -12    1    1    2    0    0  0.14775004878E+01  0.25041679228E+02  0.31998396416E+02  0.40659145090E+02  0.00000000000E+00 0.  1.
         11    1    3    3    0    0  0.93467227570E+01 -0.10833192495E+02 -0.91842543756E+01  0.17002053247E+02  0.51100000000E-03 0. -1.
        -11    1    3    3    0    0 -0.68267813293E+01 -0.10971022472E+01 -0.17515925669E+02  0.18831256702E+02  0.51100000000E-03 0.  1.
        -12    1    3    3    0    0 -0.39974419155E+01 -0.13111384485E+02 -0.52982163715E+01  0.14695544961E+02  0.00000000000E+00 0.  1.
</event>
<event>
 7    1  0.9978258E-013  0.5052899E+02  0.7816164E-02  0.1300438E+00
        -11   -1    0    0    0    0  0.00000000000E+00  0.00000000000E+00  0.45593999997E+02  0.45594000000E+02  0.51100000000E-03 0.  1.
         11   -1    0    0    0    0 -0.00000000000E+00 -0.00000000000E+00 -0.45593999997E+02  0.45594000000E+02  0.51100000000E-03 0. -1.
    9900012    2    1    2    0    0  0.13894848689E+02  0.22283245393E+01 -0.38146070394E+02  0.50528991934E+02  0.30000401481E+02 0.  0.
        -12    1    1    2    0    0 -0.13894848689E+02 -0.22283245393E+01  0.38146070394E+02  0.40659008066E+02  0.00000000000E+00 0.  1.
         11    1    3    3    0    0 -0.50247990649E+01 -0.73538643155E+01 -0.36057536883E+01  0.96088181342E+01  0.51100000000E-03 0. -1.
        -11    1    3    3    0    0  0.12195070986E+02  0.31954015449E+01 -0.18385517477E+02  0.22292545852E+02  0.51100000000E-03 0.  1.
         12    1    3    3    0    0  0.67245767678E+01  0.63867873099E+01 -0.16154799229E+02  0.18627627948E+02  0.00000000000E+00 0. -1.
</event>
<event>
 7    1  0.9978258E-013  0.5052884E+02  0.7816164E-02  0.1300439E+00
        -11   -1    0    0    0    0  0.00000000000E+00  0.00000000000E+00  0.45593999997E+02  0.45594000000E+02  0.51100000000E-03 0. -1.
         11   -1    0    0    0    0 -0.00000000000E+00 -0.00000000000E+00 -0.45593999997E+02  0.45594000000E+02  0.51100000000E-03 0.  1.
    9900012    2    1    2    0    0  0.19474327877E+02  0.14877010484E+02  0.32443684546E+02  0.50528836775E+02  0.29999929863E+02 0.  0.
        -12    1    1    2    0    0 -0.19474327877E+02 -0.14877010484E+02 -0.32443684546E+02  0.40659163225E+02  0.00000000000E+00 0.  1.
         11    1    3    3    0    0 -0.43564846912E+01  0.58792686043E+01  0.17256077560E+02  0.18743451422E+02  0.51100000000E-03 0. -1.
        -11    1    3    3    0    0  0.23795903384E+02  0.86462654755E+01  0.16636002226E+02  0.30294545629E+02  0.51100000000E-03 0.  1.
        -12    1    3    3    0    0  0.34909184746E-01  0.35147640405E+00 -0.14483952401E+01  0.14908397248E+01  0.00000000000E+00 0.  1.
</event>
<event>
 7    1  0.1414843E-012  0.5052886E+02  0.7816164E-02  0.1300439E+00
        -11   -1    0    0    0    0  0.00000000000E+00  0.00000000000E+00  0.45593999997E+02  0.45594000000E+02  0.51100000000E-03 0.  1.
         11   -1    0    0    0    0 -0.00000000000E+00 -0.00000000000E+00 -0.45593999997E+02  0.45594000000E+02  0.51100000000E-03 0. -1.
    9900012    2    1    2    0    0 -0.11511360297E+02  0.35104090970E+02 -0.16981082197E+02  0.50528858700E+02  0.29999996503E+02 0.  0.
        -12    1    1    2    0    0  0.11511360297E+02 -0.35104090970E+02  0.16981082197E+02  0.40659141300E+02  0.00000000000E+00 0.  1.
         11    1    3    3    0    0 -0.90397362075E+01  0.19028072969E+02 -0.21488414065E+02  0.30092130714E+02  0.51100000000E-03 0. -1.
        -11    1    3    3    0    0 -0.45292132597E+01  0.14567878453E+01  0.29343479929E+01  0.55898481180E+01  0.51100000000E-03 0.  1.
         12    1    3    3    0    0  0.20575891699E+01  0.14619230156E+02  0.15729838748E+01  0.14846879868E+02  0.00000000000E+00 0. -1.
</event>
<event>
 7    1  0.9978258E-013  0.5052887E+02  0.7816164E-02  0.1300439E+00
        -11   -1    0    0    0    0  0.00000000000E+00  0.00000000000E+00  0.45593999997E+02  0.45594000000E+02  0.51100000000E-03 0. -1.
         11   -1    0    0    0    0 -0.00000000000E+00 -0.00000000000E+00 -0.45593999997E+02  0.45594000000E+02  0.51100000000E-03 0.  1.
    9900012    2    1    2    0    0 -0.13794755406E+02 -0.35896178795E+02  0.13203567292E+02  0.50528866733E+02  0.30000020921E+02 0.  0.
        -12    1    1    2    0    0  0.13794755406E+02  0.35896178795E+02 -0.13203567292E+02  0.40659133267E+02  0.00000000000E+00 0.  1.
         11    1    3    3    0    0 -0.74335365076E+01 -0.17540777400E+02  0.16150846732E+02  0.24975711947E+02  0.51100000000E-03 0. -1.
        -11    1    3    3    0    0 -0.45408095316E+01 -0.15986241162E+02 -0.89299487580E+01  0.18865917491E+02  0.51100000000E-03 0.  1.
        -12    1    3    3    0    0 -0.18204093668E+01 -0.23691602328E+01  0.59826693177E+01  0.66872372947E+01  0.00000000000E+00 0.  1.
</event>
<event>
 7    1  0.9978258E-013  0.5052886E+02  0.7816164E-02  0.1300439E+00
        -11   -1    0    0    0    0  0.00000000000E+00  0.00000000000E+00  0.45593999997E+02  0.45594000000E+02  0.51100000000E-03 0.  1.
         11   -1    0    0    0    0 -0.00000000000E+00 -0.00000000000E+00 -0.45593999997E+02  0.45594000000E+02  0.51100000000E-03 0. -1.
    9900012    2    1    2    0    0  0.23571389812E+02  0.10498496601E+02 -0.31421916319E+02  0.50528859900E+02  0.30000000152E+02 0.  0.
        -12    1    1    2    0    0 -0.23571389812E+02 -0.10498496601E+02  0.31421916319E+02  0.40659140100E+02  0.00000000000E+00 0.  1.
         11    1    3    3    0    0  0.13678509452E+02  0.31044999076E+01 -0.27871075757E+02  0.31201544908E+02  0.51100000000E-03 0. -1.
        -11    1    3    3    0    0  0.92869911565E+00 -0.10966262772E+00  0.48450831025E+01  0.49345048861E+01  0.51100000000E-03 0.  1.
        -12    1    3    3    0    0  0.89641812444E+01  0.75036593207E+01 -0.83959236637E+01  0.14392810106E+02  0.00000000000E+00 0.  1.
</event>
<event>
 7    1  0.9978258E-013  0.5052886E+02  0.7816164E-02  0.1300439E+00
        -11   -1    0    0    0    0  0.00000000000E+00  0.00000000000E+00  0.45593999997E+02  0.45594000000E+02  0.51100000000E-03 0.  1.
         11   -1    0    0    0    0 -0.00000000000E+00 -0.00000000000E+00 -0.45593999997E+02  0.45594000000E+02  0.51100000000E-03 0. -1.
    9900012    2    1    2    0    0  0.44481905068E+01 -0.28073231657E+02 -0.29073583402E+02  0.50528856056E+02  0.29999988467E+02 0.  0.
        -12    1    1    2    0    0 -0.44481905068E+01  0.28073231657E+02  0.29073583402E+02  0.40659143944E+02  0.00000000000E+00 0.  1.
         11    1    3    3    0    0  0.12391247808E+02 -0.84095319180E+01 -0.48503191748E+01  0.15741310164E+02  0.51100000000E-03 0. -1.
        -11    1    3    3    0    0 -0.63802585767E+01 -0.10399357133E+02 -0.46143140837E+01  0.13044011002E+02  0.51100000000E-03 0.  1.
         12    1    3    3    0    0 -0.15627987246E+01 -0.92643426057E+01 -0.19608950144E+02  0.21743534890E+02  0.00000000000E+00 0. -1.
</event>
<event>
 7    1  0.9978258E-013  0.5052886E+02  0.7816164E-02  0.1300439E+00
        -11   -1    0    0    0    0  0.00000000000E+00  0.00000000000E+00  0.45593999997E+02  0.45594000000E+02  0.51100000000E-03 0. -1.
         11   -1    0    0    0    0 -0.00000000000E+00 -0.00000000000E+00 -0.45593999997E+02  0.45594000000E+02  0.51100000000E-03 0.  1.
    9900012    2    1    2    0    0  0.11684532667E+02 -0.37571066363E+02  0.10249485835E+02  0.50528864603E+02  0.30000014448E+02 0.  0.
        -12    1    1    2    0    0 -0.11684532667E+02  0.37571066363E+02 -0.10249485835E+02  0.40659135397E+02  0.00000000000E+00 0.  1.
         11    1    3    3    0    0  0.12373344495E+02 -0.56628933800E+01  0.10694994321E+02  0.17307539374E+02  0.51100000000E-03 0. -1.
        -11    1    3    3    0    0  0.23675244073E+01 -0.22038799279E+01 -0.89764157258E+00  0.33567870367E+01  0.51100000000E-03 0.  1.
         12    1    3    3    0    0 -0.30563362346E+01 -0.29704293055E+02  0.45213308688E+00  0.29864538192E+02  0.00000000000E+00 0. -1.
</event>
<event>
 7    1  0.9978258E-013  0.5052886E+02  0.7816164E-02  0.1300439E+00
        -11   -1    0    0    0    0  0.00000000000E+00  0.00000000000E+00  0.45593999997E+02  0.45594000000E+02  0.51100000000E-03 0.  1.
         11   -1    0    0    0    0 -0.00000000000E+00 -0.00000000000E+00 -0.45593999997E+02  0.45594000000E+02  0.51100000000E-03 0. -1.
    9900012    2    1    2    0    0  0.28088234092E+02 -0.60677056649E+01 -0.28764553301E+02  0.50528862367E+02  0.30000007650E+02 0.  0.
        -12    1    1    2    0    0 -0.28088234092E+02  0.60677056649E+01  0.28764553301E+02  0.40659137633E+02  0.00000000000E+00 0.  1.
         11    1    3    3    0    0  0.17166861617E+02 -0.16316913050E+02 -0.14943173438E+02  0.28004307203E+02  0.51100000000E-03 0. -1.
        -11    1    3    3    0    0  0.20860299223E+01  0.73494630541E+01 -0.28780425045E+01  0.81638996160E+01  0.51100000000E-03 0.  1.
        -12    1    3    3    0    0  0.88353425527E+01  0.28997443313E+01 -0.10943337359E+02  0.14360655547E+02  0.00000000000E+00 0.  1.
</event>
<event>
 7    1  0.9978258E-013  0.5052885E+02  0.7816164E-02  0.1300439E+00
        -11   -1    0    0    0    0  0.00000000000E+00  0.00000000000E+00  0.45593999997E+02  0.45594000000E+02  0.51100000000E-03 0.  1.
         11   -1    0    0    0    0 -0.00000000000E+00 -0.00000000000E+00 -0.45593999997E+02  0.45594000000E+02  0.51100000000E-03 0. -1.
    9900012    2    1    2    0    0  0.38173301978E+02  0.61398298307E+01 -0.12580471593E+02  0.50528846544E+02  0.29999959556E+02 0.  0.
        -12    1    1    2    0    0 -0.38173301978E+02 -0.61398298307E+01  0.12580471593E+02  0.40659153456E+02  0.00000000000E+00 0.  1.
         11    1    3    3    0    0  0.82086831977E+01  0.70196972892E+01  0.84666869741E+00  0.10833996401E+02  0.51100000000E-03 0. -1.
        -11    1    3    3    0    0  0.32950706267E+02 -0.16450637962E+01 -0.88179080236E+01  0.34149828412E+02  0.51100000000E-03 0.  1.
        -12    1    3    3    0    0 -0.29860874866E+01  0.76519633780E+00 -0.46092322670E+01  0.55450217316E+01  0.00000000000E+00 0.  1.
</event>
<event>
 7    1  0.9978258E-013  0.5052886E+02  0.7816164E-02  0.1300439E+00
        -11   -1    0    0    0    0  0.00000000000E+00  0.00000000000E+00  0.45593999997E+02  0.45594000000E+02  0.51100000000E-03 0.  1.
         11   -1    0    0    0    0 -0.00000000000E+00 -0.00000000000E+00 -0.45593999997E+02  0.45594000000E+02  0.51100000000E-03 0. -1.
    9900012    2    1    2    0    0 -0.38613174731E+02  0.12442751770E+02 -0.27140572204E+01  0.50528862761E+02  0.30000008850E+02 0.  0.
        -12    1    1    2    0    0  0.38613174731E+02 -0.12442751770E+02  0.27140572204E+01  0.40659137239E+02  0.00000000000E+00 0.  1.
         11    1    3    3    0    0 -0.24954952798E+02  0.15128958649E+02 -0.65248954267E+00  0.29190080538E+02  0.51100000000E-03 0. -1.
        -11    1    3    3    0    0 -0.13962327326E+02 -0.73146743645E+01 -0.40775143794E+01  0.16281190656E+02  0.51100000000E-03 0.  1.
        -12    1    3    3    0    0  0.30410539292E+00  0.46284674861E+01  0.20159467017E+01  0.50575915675E+01  0.00000000000E+00 0.  1.
</event>
<event>
 7    1  0.9978258E-013  0.5052886E+02  0.7816164E-02  0.1300439E+00
        -11   -1    0    0    0    0  0.00000000000E+00  0.00000000000E+00  0.45593999997E+02  0.45594000000E+02  0.51100000000E-03 0.  1.
         11   -1    0    0    0    0 -0.00000000000E+00 -0.00000000000E+00 -0.45593999997E+02  0.45594000000E+02  0.51100000000E-03 0. -1.
    9900012    2    1    2    0    0  0.83063783994E+00  0.26638999780E+01 -0.40563280026E+02  0.50528855779E+02  0.29999987625E+02 0.  0.
        -12    1    1    2    0    0 -0.83063783994E+00 -0.26638999780E+01  0.40563280026E+02  0.40659144221E+02  0.00000000000E+00 0.  1.
         11    1    3    3    0    0  0.41682077692E+01 -0.58393305116E+00 -0.12233512333E+02  0.12937301035E+02  0.51100000000E-03 0. -1.
        -11    1    3    3    0    0 -0.40509582934E+01  0.13004776127E+02 -0.10294088291E+02  0.17073450711E+02  0.51100000000E-03 0.  1.
        -12    1    3    3    0    0  0.71338836416E+00 -0.97569430975E+01 -0.18035679403E+02  0.20518104032E+02  0.00000000000E+00 0.  1.
</event>
<event>
 7    1  0.9978258E-013  0.5052888E+02  0.7816164E-02  0.1300439E+00
        -11   -1    0    0    0    0  0.00000000000E+00  0.00000000000E+00  0.45593999997E+02  0.45594000000E+02  0.51100000000E-03 0.  1.
         11   -1    0    0    0    0 -0.00000000000E+00 -0.00000000000E+00 -0.45593999997E+02  0.45594000000E+02  0.51100000000E-03 0. -1.
    9900012    2    1    2    0    0  0.86026489419E+00  0.17030148269E+02 -0.36910675725E+02  0.50528880627E+02  0.30000063153E+02 0.  0.
        -12    1    1    2    0    0 -0.86026489419E+00 -0.17030148269E+02  0.36910675725E+02  0.40659119373E+02  0.00000000000E+00 0.  1.
         11    1    3    3    0    0 -0.10651027463E+02  0.98315915868E+01 -0.67801927689E+01  0.16002362119E+02  0.51100000000E-03 0. -1.
        -11    1    3    3    0    0  0.66668250686E+01  0.57485048996E+01 -0.82338416378E+01  0.12053547754E+02  0.51100000000E-03 0.  1.
         12    1    3    3    0    0  0.48444672887E+01  0.14500517823E+01 -0.21896641318E+02  0.22472970754E+02  0.00000000000E+00 0. -1.
</event>
<event>
 7    1  0.9978258E-013  0.5052885E+02  0.7816164E-02  0.1300439E+00
        -11   -1    0    0    0    0  0.00000000000E+00  0.00000000000E+00  0.45593999997E+02  0.45594000000E+02  0.51100000000E-03 0.  1.
         11   -1    0    0    0    0 -0.00000000000E+00 -0.00000000000E+00 -0.45593999997E+02  0.45594000000E+02  0.51100000000E-03 0. -1.
    9900012    2    1    2    0    0  0.12875037293E+02  0.66711102745E+01 -0.37985468548E+02  0.50528854431E+02  0.29999983527E+02 0.  0.
        -12    1    1    2    0    0 -0.12875037293E+02 -0.66711102745E+01  0.37985468548E+02  0.40659145569E+02  0.00000000000E+00 0.  1.
         11    1    3    3    0    0  0.14483779607E+02 -0.41759628442E+01 -0.19373528579E+02  0.24546937635E+02  0.51100000000E-03 0.  1.
        -11    1    3    3    0    0 -0.79997193561E+01  0.54048083717E+01 -0.87319685154E+01  0.13017478163E+02  0.51100000000E-03 0. -1.
         12    1    3    3    0    0  0.63909770418E+01  0.54422647470E+01 -0.98799714537E+01  0.12964438632E+02  0.00000000000E+00 0. -1.
</event>
<event>
 7    1  0.9978258E-013  0.5052886E+02  0.7816164E-02  0.1300439E+00
        -11   -1    0    0    0    0  0.00000000000E+00  0.00000000000E+00  0.45593999997E+02  0.45594000000E+02  0.51100000000E-03 0. -1.
         11   -1    0    0    0    0 -0.00000000000E+00 -0.00000000000E+00 -0.45593999997E+02  0.45594000000E+02  0.51100000000E-03 0.  1.
    9900012    2    1    2    0    0  0.35576851396E+02 -0.11055619368E+00  0.19683532424E+02  0.50528855560E+02  0.29999986960E+02 0.  0.
        -12    1    1    2    0    0 -0.35576851396E+02  0.11055619368E+00 -0.19683532424E+02  0.40659144440E+02  0.00000000000E+00 0.  1.
         11    1    3    3    0    0  0.22251075536E+02  0.49741410699E+01  0.19458929974E+02  0.29975029573E+02  0.51100000000E-03 0. -1.
        -11    1    3    3    0    0  0.14533498459E+02 -0.47553222550E+01 -0.42793155217E+01  0.15879175319E+02  0.51100000000E-03 0.  1.
        -12    1    3    3    0    0 -0.12077225999E+01 -0.32937500863E+00  0.45039179712E+01  0.46746506678E+01  0.00000000000E+00 0.  1.
</event>
<event>
 7    1  0.9978258E-013  0.5052886E+02  0.7816164E-02  0.1300439E+00
        -11   -1    0    0    0    0  0.00000000000E+00  0.00000000000E+00  0.45593999997E+02  0.45594000000E+02  0.51100000000E-03 0. -1.
         11   -1    0    0    0    0 -0.00000000000E+00 -0.00000000000E+00 -0.45593999997E+02  0.45594000000E+02  0.51100000000E-03 0.  1.
    9900012    2    1    2    0    0 -0.88045453997E+00 -0.19195542845E+02  0.35831854551E+02  0.50528857537E+02  0.29999992969E+02 0.  0.
        -12    1    1    2    0    0  0.88045453997E+00  0.19195542845E+02 -0.35831854551E+02  0.40659142463E+02  0.00000000000E+00 0.  1.
         11    1    3    3    0    0  0.11177691733E+02 -0.33698066095E+01  0.50120282535E+01  0.12704991796E+02  0.51100000000E-03 0. -1.
        -11    1    3    3    0    0 -0.11842373313E+01 -0.70840414949E+01  0.60321218095E+01  0.93793686219E+01  0.51100000000E-03 0.  1.
         12    1    3    3    0    0 -0.10873908941E+02 -0.87416947405E+01  0.24787704488E+02  0.28444497119E+02  0.00000000000E+00 0. -1.
</event>
<event>
 7    1  0.9978258E-013  0.5052886E+02  0.7816164E-02  0.1300439E+00
        -11   -1    0    0    0    0  0.00000000000E+00  0.00000000000E+00  0.45593999997E+02  0.45594000000E+02  0.51100000000E-03 0.  1.
         11   -1    0    0    0    0 -0.00000000000E+00 -0.00000000000E+00 -0.45593999997E+02  0.45594000000E+02  0.51100000000E-03 0. -1.
    9900012    2    1    2    0    0 -0.26198411412E+02  0.25681884426E+02 -0.17528546381E+02  0.50528857284E+02  0.29999992200E+02 0.  0.
        -12    1    1    2    0    0  0.26198411412E+02 -0.25681884426E+02  0.17528546381E+02  0.40659142716E+02  0.00000000000E+00 0.  1.
         11    1    3    3    0    0  0.29594623148E+01  0.53439435630E+01 -0.11346633881E+02  0.12886514295E+02  0.51100000000E-03 0. -1.
        -11    1    3    3    0    0 -0.81406086653E+01  0.38291904309E+00 -0.13161873235E+01  0.82552096138E+01  0.51100000000E-03 0.  1.
         12    1    3    3    0    0 -0.21017265062E+02  0.19955021820E+02 -0.48657251763E+01  0.29387133375E+02  0.00000000000E+00 0. -1.
</event>
<event>
 7    1  0.9978258E-013  0.5052887E+02  0.7816164E-02  0.1300439E+00
        -11   -1    0    0    0    0  0.00000000000E+00  0.00000000000E+00  0.45593999997E+02  0.45594000000E+02  0.51100000000E-03 0.  1.
         11   -1    0    0    0    0 -0.00000000000E+00 -0.00000000000E+00 -0.45593999997E+02  0.45594000000E+02  0.51100000000E-03 0. -1.
    9900012    2    1    2    0    0  0.20777796706E+01 -0.13082665742E+02 -0.38440757703E+02  0.50528866167E+02  0.30000019201E+02 0.  0.
        -12    1    1    2    0    0 -0.20777796706E+01  0.13082665742E+02  0.38440757703E+02  0.40659133833E+02  0.00000000000E+00 0.  1.
         11    1    3    3    0    0  0.96100560278E+01 -0.10135313250E+02 -0.54623197930E+01  0.14997156041E+02  0.51100000000E-03 0. -1.
        -11    1    3    3    0    0 -0.63612074143E+00  0.43602648978E+00 -0.22634131123E+02  0.22647266075E+02  0.51100000000E-03 0.  1.
         12    1    3    3    0    0 -0.68961556158E+01 -0.33833789812E+01 -0.10344306787E+02  0.12884444051E+02  0.00000000000E+00 0. -1.
</event>
<event>
 7    1  0.9978258E-013  0.5052885E+02  0.7816164E-02  0.1300439E+00
        -11   -1    0    0    0    0  0.00000000000E+00  0.00000000000E+00  0.45593999997E+02  0.45594000000E+02  0.51100000000E-03 0.  1.
         11   -1    0    0    0    0 -0.00000000000E+00 -0.00000000000E+00 -0.45593999997E+02  0.45594000000E+02  0.51100000000E-03 0. -1.
    9900012    2    1    2    0    0  0.90771150305E+01 -0.26323076457E+02 -0.29628839766E+02  0.50528849526E+02  0.29999968619E+02 0.  0.
        -12    1    1    2    0    0 -0.90771150305E+01  0.26323076457E+02  0.29628839766E+02  0.40659150474E+02  0.00000000000E+00 0.  1.
         11    1    3    3    0    0  0.11420046521E+02 -0.11706729913E+02 -0.16777201043E+02  0.23429457161E+02  0.51100000000E-03 0. -1.
        -11    1    3    3    0    0 -0.66853203642E+01 -0.14637671453E+02 -0.30495391844E+01  0.16378480498E+02  0.51100000000E-03 0.  1.
        -12    1    3    3    0    0  0.43423888738E+01  0.21324908912E-01 -0.98020995382E+01  0.10720911866E+02  0.00000000000E+00 0.  1.
</event>
<event>
 7    1  0.9978258E-013  0.5052885E+02  0.7816164E-02  0.1300439E+00
        -11   -1    0    0    0    0  0.00000000000E+00  0.00000000000E+00  0.45593999997E+02  0.45594000000E+02  0.51100000000E-03 0.  1.
         11   -1    0    0    0    0 -0.00000000000E+00 -0.00000000000E+00 -0.45593999997E+02  0.45594000000E+02  0.51100000000E-03 0. -1.
    9900012    2    1    2    0    0 -0.13735088955E+02  0.14766795870E+02 -0.35305173494E+02  0.50528853374E+02  0.29999980316E+02 0.  0.
        -12    1    1    2    0    0  0.13735088955E+02 -0.14766795870E+02  0.35305173494E+02  0.40659146626E+02  0.00000000000E+00 0.  1.
         11    1    3    3    0    0 -0.20536265374E+02  0.10799621712E+02 -0.27368946703E+02  0.35880764603E+02  0.51100000000E-03 0. -1.
        -11    1    3    3    0    0  0.64193321435E+01 -0.14349182789E+01 -0.26850647178E+01  0.71046737036E+01  0.51100000000E-03 0.  1.
        -12    1    3    3    0    0  0.38184427550E+00  0.54020924369E+01 -0.52511620737E+01  0.75434150670E+01  0.00000000000E+00 0.  1.
</event>
<event>
 7    1  0.9978258E-013  0.5052886E+02  0.7816164E-02  0.1300439E+00
        -11   -1    0    0    0    0  0.00000000000E+00  0.00000000000E+00  0.45593999997E+02  0.45594000000E+02  0.51100000000E-03 0.  1.
         11   -1    0    0    0    0 -0.00000000000E+00 -0.00000000000E+00 -0.45593999997E+02  0.45594000000E+02  0.51100000000E-03 0. -1.
    9900012    2    1    2    0    0 -0.51409822011E+01 -0.37623916495E+02 -0.14531925366E+02  0.50528860250E+02  0.30000001215E+02 0.  0.
        -12    1    1    2    0    0  0.51409822011E+01  0.37623916495E+02  0.14531925366E+02  0.40659139750E+02  0.00000000000E+00 0.  1.
         11    1    3    3    0    0 -0.28875491040E+01 -0.12825046795E+02 -0.20594069367E+02  0.24432262656E+02  0.51100000000E-03 0. -1.
        -11    1    3    3    0    0  0.14466092697E+01 -0.10213257256E+02  0.29742349673E+01  0.10735426217E+02  0.51100000000E-03 0.  1.
         12    1    3    3    0    0 -0.37000423669E+01 -0.14585612443E+02  0.30879090343E+01  0.15361171377E+02  0.00000000000E+00 0. -1.
</event>
<event>
 7    1  0.9978258E-013  0.5052888E+02  0.7816164E-02  0.1300439E+00
        -11   -1    0    0    0    0  0.00000000000E+00  0.00000000000E+00  0.45593999997E+02  0.45594000000E+02  0.51100000000E-03 0.  1.
         11   -1    0    0    0    0 -0.00000000000E+00 -0.00000000000E+00 -0.45593999997E+02  0.45594000000E+02  0.51100000000E-03 0. -1.
    9900012    2    1    2    0    0  0.44475208449E+01 -0.39817386876E+02 -0.69252618612E+01  0.50528880591E+02  0.30000063044E+02 0.  0.
        -12    1    1    2    0    0 -0.44475208449E+01  0.39817386876E+02  0.69252618612E+01  0.40659119409E+02  0.00000000000E+00 0.  1.
         11    1    3    3    0    0 -0.12913738581E+01 -0.13099275879E+02 -0.84085336430E+01  0.15619286581E+02  0.51100000000E-03 0. -1.
        -11    1    3    3    0    0 -0.59944128193E+01 -0.11648130777E+02  0.72324574736E+01  0.14963969293E+02  0.51100000000E-03 0.  1.
        -12    1    3    3    0    0  0.11733307522E+02 -0.15069980219E+02 -0.57491856917E+01  0.19945624717E+02  0.00000000000E+00 0.  1.
</event>
<event>
 7    1  0.9978258E-013  0.5052886E+02  0.7816164E-02  0.1300439E+00
        -11   -1    0    0    0    0  0.00000000000E+00  0.00000000000E+00  0.45593999997E+02  0.45594000000E+02  0.51100000000E-03 0.  1.
         11   -1    0    0    0    0 -0.00000000000E+00 -0.00000000000E+00 -0.45593999997E+02  0.45594000000E+02  0.51100000000E-03 0. -1.
    9900012    2    1    2    0    0  0.17166234921E+01  0.21152392136E+02 -0.34681334717E+02  0.50528862441E+02  0.30000007875E+02 0.  0.
        -12    1    1    2    0    0 -0.17166234921E+01 -0.21152392136E+02  0.34681334717E+02  0.40659137559E+02  0.00000000000E+00 0.  1.
         11    1    3    3    0    0  0.37966346996E+01  0.87239386120E+01  0.32651881780E+01  0.10058975795E+02  0.51100000000E-03 0. -1.
        -11    1    3    3    0    0  0.12459448521E+01  0.59492889888E+01 -0.23734180371E+02  0.24500157880E+02  0.51100000000E-03 0.  1.
         12    1    3    3    0    0 -0.33259560595E+01  0.64791645350E+01 -0.14212342525E+02  0.15969728765E+02  0.00000000000E+00 0. -1.
</event>
<event>
 7    1  0.9978258E-013  0.5052886E+02  0.7816164E-02  0.1300439E+00
        -11   -1    0    0    0    0  0.00000000000E+00  0.00000000000E+00  0.45593999997E+02  0.45594000000E+02  0.51100000000E-03 0.  1.
         11   -1    0    0    0    0 -0.00000000000E+00 -0.00000000000E+00 -0.45593999997E+02  0.45594000000E+02  0.51100000000E-03 0. -1.
    9900012    2    1    2    0    0 -0.32963223189E+02 -0.21226936283E+02 -0.10770749558E+02  0.50528856464E+02  0.29999989709E+02 0.  0.
        -12    1    1    2    0    0  0.32963223189E+02  0.21226936283E+02  0.10770749558E+02  0.40659143536E+02  0.00000000000E+00 0.  1.
         11    1    3    3    0    0 -0.18360554679E+02 -0.20550768954E+02 -0.12543368782E+02  0.30278377985E+02  0.51100000000E-03 0. -1.
        -11    1    3    3    0    0 -0.55452585633E+01  0.48722220696E+01  0.52677239523E+01  0.90684814786E+01  0.51100000000E-03 0.  1.
        -12    1    3    3    0    0 -0.90574099470E+01 -0.55483893987E+01 -0.34951047289E+01  0.11181997001E+02  0.00000000000E+00 0.  1.
</event>
<event>
 7    1  0.9978258E-013  0.5052886E+02  0.7816164E-02  0.1300439E+00
        -11   -1    0    0    0    0  0.00000000000E+00  0.00000000000E+00  0.45593999997E+02  0.45594000000E+02  0.51100000000E-03 0.  1.
         11   -1    0    0    0    0 -0.00000000000E+00 -0.00000000000E+00 -0.45593999997E+02  0.45594000000E+02  0.51100000000E-03 0. -1.
    9900012    2    1    2    0    0  0.19540146269E+02  0.67451782264E+01 -0.35012155186E+02  0.50528858884E+02  0.29999997063E+02 0.  0.
        -12    1    1    2    0    0 -0.19540146269E+02 -0.67451782264E+01  0.35012155186E+02  0.40659141116E+02  0.00000000000E+00 0.  1.
         11    1    3    3    0    0  0.72870206271E+01  0.62207318327E+01 -0.25509663278E+02  0.27249607245E+02  0.51100000000E-03 0. -1.
        -11    1    3    3    0    0  0.97856202299E+01 -0.78250034793E+01 -0.51675234009E+01  0.13553314764E+02  0.51100000000E-03 0.  1.
        -12    1    3    3    0    0  0.24675054116E+01  0.83494498730E+01 -0.43349685073E+01  0.97259368751E+01  0.00000000000E+00 0.  1.
</event>
<event>
 7    1  0.9978258E-013  0.5052888E+02  0.7816164E-02  0.1300439E+00
        -11   -1    0    0    0    0  0.00000000000E+00  0.00000000000E+00  0.45593999997E+02  0.45594000000E+02  0.51100000000E-03 0.  1.
         11   -1    0    0    0    0 -0.00000000000E+00 -0.00000000000E+00 -0.45593999997E+02  0.45594000000E+02  0.51100000000E-03 0. -1.
    9900012    2    1    2    0    0  0.38148924248E+02  0.12684364258E+02  0.60770167662E+01  0.50528884777E+02  0.30000075768E+02 0.  0.
        -12    1    1    2    0    0 -0.38148924248E+02 -0.12684364258E+02 -0.60770167662E+01  0.40659115223E+02  0.00000000000E+00 0.  1.
         11    1    3    3    0    0  0.64007514289E+01 -0.11566523271E+00 -0.71854595203E+01  0.96236077477E+01  0.51100000000E-03 0. -1.
        -11    1    3    3    0    0  0.68184748467E+01 -0.18620596050E+01  0.93486844253E+01  0.11719930288E+02  0.51100000000E-03 0.  1.
        -12    1    3    3    0    0  0.24929697973E+02  0.14662089096E+02  0.39137918612E+01  0.29185346741E+02  0.00000000000E+00 0.  1.
</event>
<event>
 7    1  0.9978258E-013  0.5052886E+02  0.7816164E-02  0.1300439E+00
        -11   -1    0    0    0    0  0.00000000000E+00  0.00000000000E+00  0.45593999997E+02  0.45594000000E+02  0.51100000000E-03 0. -1.
         11   -1    0    0    0    0 -0.00000000000E+00 -0.00000000000E+00 -0.45593999997E+02  0.45594000000E+02  0.51100000000E-03 0.  1.
    9900012    2    1    2    0    0  0.11651405645E+02  0.87906582175E+01  0.37949109412E+02  0.50528857971E+02  0.29999994288E+02 0.  0.
        -12    1    1    2    0    0 -0.11651405645E+02 -0.87906582175E+01 -0.37949109412E+02  0.40659142029E+02  0.00000000000E+00 0.  1.
         11    1    3    3    0    0  0.77507591824E+01  0.11352166702E+02  0.16261211098E+02  0.21292556056E+02  0.51100000000E-03 0. -1.
        -11    1    3    3    0    0 -0.59424168933E+01 -0.66339249480E+01  0.88673821493E+01  0.12567885470E+02  0.51100000000E-03 0.  1.
        -12    1    3    3    0    0  0.98430633556E+01  0.40724164636E+01  0.12820516164E+02  0.16668416445E+02  0.00000000000E+00 0.  1.
</event>
<event>
 7    1  0.9978258E-013  0.5052886E+02  0.7816164E-02  0.1300439E+00
        -11   -1    0    0    0    0  0.00000000000E+00  0.00000000000E+00  0.45593999997E+02  0.45594000000E+02  0.51100000000E-03 0. -1.
         11   -1    0    0    0    0 -0.00000000000E+00 -0.00000000000E+00 -0.45593999997E+02  0.45594000000E+02  0.51100000000E-03 0.  1.
    9900012    2    1    2    0    0 -0.38058374964E+02 -0.11284372882E+01  0.14263678180E+02  0.50528858460E+02  0.29999995774E+02 0.  0.
        -12    1    1    2    0    0  0.38058374964E+02  0.11284372882E+01 -0.14263678180E+02  0.40659141540E+02  0.00000000000E+00 0.  1.
         11    1    3    3    0    0 -0.27879978226E+02 -0.11600959106E+02  0.70883492944E+01  0.31018061416E+02  0.51100000000E-03 0. -1.
        -11    1    3    3    0    0  0.10312299772E+01  0.50726193016E+01  0.43265094316E+01  0.67463757654E+01  0.51100000000E-03 0.  1.
         12    1    3    3    0    0 -0.11209626715E+02  0.53999025162E+01  0.28488194536E+01  0.12764421278E+02  0.00000000000E+00 0. -1.
</event>
<event>
 7    1  0.9978258E-013  0.5052886E+02  0.7816164E-02  0.1300439E+00
        -11   -1    0    0    0    0  0.00000000000E+00  0.00000000000E+00  0.45593999997E+02  0.45594000000E+02  0.51100000000E-03 0. -1.
         11   -1    0    0    0    0 -0.00000000000E+00 -0.00000000000E+00 -0.45593999997E+02  0.45594000000E+02  0.51100000000E-03 0.  1.
    9900012    2    1    2    0    0  0.15502847812E+02 -0.34494192239E+02  0.14932462441E+02  0.50528855603E+02  0.29999987091E+02 0.  0.
        -12    1    1    2    0    0 -0.15502847812E+02  0.34494192239E+02 -0.14932462441E+02  0.40659144397E+02  0.00000000000E+00 0.  1.
         11    1    3    3    0    0  0.17824690368E+02 -0.16142992357E+02  0.16679665093E+02  0.29266482823E+02  0.51100000000E-03 0. -1.
        -11    1    3    3    0    0 -0.17839994482E+01 -0.15746073049E+02  0.27050151106E+01  0.16076024929E+02  0.51100000000E-03 0.  1.
        -12    1    3    3    0    0 -0.53784310751E+00 -0.26051268333E+01 -0.44522177629E+01  0.51863478512E+01  0.00000000000E+00 0.  1.
</event>
<event>
 7    1  0.9978258E-013  0.5052885E+02  0.7816164E-02  0.1300439E+00
        -11   -1    0    0    0    0  0.00000000000E+00  0.00000000000E+00  0.45593999997E+02  0.45594000000E+02  0.51100000000E-03 0. -1.
         11   -1    0    0    0    0 -0.00000000000E+00 -0.00000000000E+00 -0.45593999997E+02  0.45594000000E+02  0.51100000000E-03 0.  1.
    9900012    2    1    2    0    0 -0.29772960370E+02  0.86310592474E+01  0.26310500671E+02  0.50528846067E+02  0.29999958106E+02 0.  0.
        -12    1    1    2    0    0  0.29772960370E+02 -0.86310592474E+01 -0.26310500671E+02  0.40659153933E+02  0.00000000000E+00 0.  1.
         11    1    3    3    0    0 -0.23338312795E+02  0.13991618396E+02  0.25952592069E+02  0.37602915643E+02  0.51100000000E-03 0. -1.
        -11    1    3    3    0    0 -0.86631277217E+01 -0.56623310358E+01  0.14065665478E+01  0.10444625623E+02  0.51100000000E-03 0.  1.
         12    1    3    3    0    0  0.22284801462E+01  0.30177188687E+00 -0.10486579457E+01  0.24813048020E+01  0.00000000000E+00 0. -1.
</event>
<event>
 7    1  0.9978258E-013  0.5052885E+02  0.7816164E-02  0.1300439E+00
        -11   -1    0    0    0    0  0.00000000000E+00  0.00000000000E+00  0.45593999997E+02  0.45594000000E+02  0.51100000000E-03 0.  1.
         11   -1    0    0    0    0 -0.00000000000E+00 -0.00000000000E+00 -0.45593999997E+02  0.45594000000E+02  0.51100000000E-03 0. -1.
    9900012    2    1    2    0    0 -0.22721386684E+02 -0.25166023743E+02 -0.22440513418E+02  0.50528845971E+02  0.29999957815E+02 0.  0.
        -12    1    1    2    0    0  0.22721386684E+02  0.25166023743E+02  0.22440513418E+02  0.40659154029E+02  0.00000000000E+00 0.  1.
         11    1    3    3    0    0 -0.91495933288E+01 -0.12395323432E+02 -0.17829236134E+02  0.23563547324E+02  0.51100000000E-03 0. -1.
        -11    1    3    3    0    0 -0.99894708232E+01 -0.16749771415E+02  0.57542830528E+00  0.19510906892E+02  0.51100000000E-03 0.  1.
        -12    1    3    3    0    0 -0.35823225319E+01  0.39790711043E+01 -0.51867055890E+01  0.74543917554E+01  0.00000000000E+00 0.  1.
</event>
<event>
 7    1  0.9978258E-013  0.5052887E+02  0.7816164E-02  0.1300439E+00
        -11   -1    0    0    0    0  0.00000000000E+00  0.00000000000E+00  0.45593999997E+02  0.45594000000E+02  0.51100000000E-03 0. -1.
         11   -1    0    0    0    0 -0.00000000000E+00 -0.00000000000E+00 -0.45593999997E+02  0.45594000000E+02  0.51100000000E-03 0.  1.
    9900012    2    1    2    0    0 -0.10214902388E+02 -0.14829548122E+01  0.39327111991E+02  0.50528866668E+02  0.30000020724E+02 0.  0.
        -12    1    1    2    0    0  0.10214902388E+02  0.14829548122E+01 -0.39327111991E+02  0.40659133332E+02  0.00000000000E+00 0.  1.
         11    1    3    3    0    0 -0.89146755851E+00  0.60513185461E+01  0.80841433578E+01  0.10137383521E+02  0.51100000000E-03 0. -1.
        -11    1    3    3    0    0 -0.62377372021E+01 -0.15504121864E+02  0.23654017120E+02  0.28962038712E+02  0.51100000000E-03 0.  1.
        -12    1    3    3    0    0 -0.30856976271E+01  0.79698485053E+01  0.75889515133E+01  0.11429444436E+02  0.00000000000E+00 0.  1.
</event>
<event>
 7    1  0.9978258E-013  0.5052886E+02  0.7816164E-02  0.1300439E+00
        -11   -1    0    0    0    0  0.00000000000E+00  0.00000000000E+00  0.45593999997E+02  0.45594000000E+02  0.51100000000E-03 0. -1.
         11   -1    0    0    0    0 -0.00000000000E+00 -0.00000000000E+00 -0.45593999997E+02  0.45594000000E+02  0.51100000000E-03 0.  1.
    9900012    2    1    2    0    0  0.39362842546E+02  0.10091097986E+02  0.13790709817E+01  0.50528862422E+02  0.30000007817E+02 0.  0.
        -12    1    1    2    0    0 -0.39362842546E+02 -0.10091097986E+02 -0.13790709817E+01  0.40659137578E+02  0.00000000000E+00 0.  1.
         11    1    3    3    0    0  0.34122652854E+02  0.24890608551E+01 -0.66146823886E+01  0.34846877695E+02  0.51100000000E-03 0.  1.
        -11    1    3    3    0    0 -0.11313859241E+01  0.61796594444E+01  0.14686488041E+01  0.64517559260E+01  0.51100000000E-03 0. -1.
         12    1    3    3    0    0  0.63715756159E+01  0.14223776862E+01  0.65251045662E+01  0.92302288006E+01  0.00000000000E+00 0. -1.
</event>
<event>
 7    1  0.9978258E-013  0.5052886E+02  0.7816164E-02  0.1300439E+00
        -11   -1    0    0    0    0  0.00000000000E+00  0.00000000000E+00  0.45593999997E+02  0.45594000000E+02  0.51100000000E-03 0. -1.
         11   -1    0    0    0    0 -0.00000000000E+00 -0.00000000000E+00 -0.45593999997E+02  0.45594000000E+02  0.51100000000E-03 0.  1.
    9900012    2    1    2    0    0 -0.17802777824E+02  0.33440454748E+02  0.14763571888E+02  0.50528856294E+02  0.29999989192E+02 0.  0.
        -12    1    1    2    0    0  0.17802777824E+02 -0.33440454748E+02 -0.14763571888E+02  0.40659143706E+02  0.00000000000E+00 0.  1.
         11    1    3    3    0    0 -0.41720650347E+00  0.54866341199E+01 -0.54832033991E+01  0.77680586383E+01  0.51100000000E-03 0. -1.
        -11    1    3    3    0    0 -0.17599003460E+02  0.11133489071E+02  0.11838269604E+02  0.23954626467E+02  0.51100000000E-03 0.  1.
         12    1    3    3    0    0  0.21343213973E+00  0.16820331558E+02  0.84085056826E+01  0.18806171189E+02  0.00000000000E+00 0. -1.
</event>
<event>
 7    1  0.9978258E-013  0.5052886E+02  0.7816164E-02  0.1300439E+00
        -11   -1    0    0    0    0  0.00000000000E+00  0.00000000000E+00  0.45593999997E+02  0.45594000000E+02  0.51100000000E-03 0.  1.
         11   -1    0    0    0    0 -0.00000000000E+00 -0.00000000000E+00 -0.45593999997E+02  0.45594000000E+02  0.51100000000E-03 0. -1.
    9900012    2    1    2    0    0 -0.20661974878E+02 -0.11846851846E+02 -0.32953005036E+02  0.50528860248E+02  0.30000001209E+02 0.  0.
        -12    1    1    2    0    0  0.20661974878E+02  0.11846851846E+02  0.32953005036E+02  0.40659139752E+02  0.00000000000E+00 0.  1.
         11    1    3    3    0    0 -0.82441225526E+01 -0.24448700180E+01 -0.31742449614E+02  0.32886563424E+02  0.51100000000E-03 0. -1.
        -11    1    3    3    0    0 -0.44018070041E+01 -0.18052976814E+01  0.32178648377E+01  0.57436625070E+01  0.51100000000E-03 0.  1.
         12    1    3    3    0    0 -0.80160453212E+01 -0.75966841467E+01 -0.44284202591E+01  0.11898634317E+02  0.00000000000E+00 0. -1.
</event>
<event>
 7    1  0.9978258E-013  0.5052888E+02  0.7816164E-02  0.1300439E+00
        -11   -1    0    0    0    0  0.00000000000E+00  0.00000000000E+00  0.45593999997E+02  0.45594000000E+02  0.51100000000E-03 0. -1.
         11   -1    0    0    0    0 -0.00000000000E+00 -0.00000000000E+00 -0.45593999997E+02  0.45594000000E+02  0.51100000000E-03 0.  1.
    9900012    2    1    2    0    0  0.65555344924E+01  0.34852704636E+02  0.19886632199E+02  0.50528878107E+02  0.30000055494E+02 0.  0.
        -12    1    1    2    0    0 -0.65555344924E+01 -0.34852704636E+02 -0.19886632199E+02  0.40659121893E+02  0.00000000000E+00 0.  1.
         11    1    3    3    0    0  0.45619532449E+01  0.33784377406E+02  0.20113589706E+02  0.39582219054E+02  0.51100000000E-03 0. -1.
        -11    1    3    3    0    0  0.61935119782E+01  0.10366614340E+01  0.14149086501E+01  0.64370975060E+01  0.51100000000E-03 0.  1.
         12    1    3    3    0    0 -0.41999307307E+01  0.31665795430E-01 -0.16418661573E+01  0.45095615467E+01  0.00000000000E+00 0. -1.
</event>
<event>
 7    1  0.9978258E-013  0.5052886E+02  0.7816164E-02  0.1300439E+00
        -11   -1    0    0    0    0  0.00000000000E+00  0.00000000000E+00  0.45593999997E+02  0.45594000000E+02  0.51100000000E-03 0.  1.
         11   -1    0    0    0    0 -0.00000000000E+00 -0.00000000000E+00 -0.45593999997E+02  0.45594000000E+02  0.51100000000E-03 0. -1.
    9900012    2    1    2    0    0 -0.24381509279E+02 -0.27865635650E+02 -0.16799223658E+02  0.50528861292E+02  0.30000004384E+02 0.  0.
        -12    1    1    2    0    0  0.24381509279E+02  0.27865635650E+02  0.16799223658E+02  0.40659138708E+02  0.00000000000E+00 0.  1.
         11    1    3    3    0    0 -0.15581899686E+02 -0.45281441495E+01  0.18192996293E+01  0.16328182344E+02  0.51100000000E-03 0.  1.
        -11    1    3    3    0    0 -0.97352604069E+00 -0.17211479668E+02 -0.16849690810E+02  0.24105909357E+02  0.51100000000E-03 0. -1.
         12    1    3    3    0    0 -0.78260835529E+01 -0.61260118334E+01 -0.17688324774E+01  0.10094769591E+02  0.00000000000E+00 0. -1.
</event>
<event>
 7    1  0.9978258E-013  0.5052890E+02  0.7816164E-02  0.1300439E+00
        -11   -1    0    0    0    0  0.00000000000E+00  0.00000000000E+00  0.45593999997E+02  0.45594000000E+02  0.51100000000E-03 0.  1.
         11   -1    0    0    0    0 -0.00000000000E+00 -0.00000000000E+00 -0.45593999997E+02  0.45594000000E+02  0.51100000000E-03 0. -1.
    9900012    2    1    2    0    0  0.15141077823E+02  0.31524294156E+01 -0.37602826397E+02  0.50528897675E+02  0.30000114972E+02 0.  0.
        -12    1    1    2    0    0 -0.15141077823E+02 -0.31524294156E+01  0.37602826397E+02  0.40659102325E+02  0.00000000000E+00 0.  1.
         11    1    3    3    0    0  0.88285392571E+01  0.25184125461E+01 -0.12329865840E+01  0.92631400370E+01  0.51100000000E-03 0. -1.
        -11    1    3    3    0    0  0.97887882123E+01  0.54289390627E+01 -0.32012603844E+02  0.33913132547E+02  0.51100000000E-03 0.  1.
        -12    1    3    3    0    0 -0.34762496463E+01 -0.47949221932E+01 -0.43572359691E+01  0.73526250912E+01  0.00000000000E+00 0.  1.
</event>
<event>
 7    1  0.9978258E-013  0.5052886E+02  0.7816164E-02  0.1300439E+00
        -11   -1    0    0    0    0  0.00000000000E+00  0.00000000000E+00  0.45593999997E+02  0.45594000000E+02  0.51100000000E-03 0.  1.
         11   -1    0    0    0    0 -0.00000000000E+00 -0.00000000000E+00 -0.45593999997E+02  0.45594000000E+02  0.51100000000E-03 0. -1.
    9900012    2    1    2    0    0  0.12873920279E+02 -0.15774439036E+02 -0.35193678732E+02  0.50528858679E+02  0.29999996440E+02 0.  0.
        -12    1    1    2    0    0 -0.12873920279E+02  0.15774439036E+02  0.35193678732E+02  0.40659141321E+02  0.00000000000E+00 0.  1.
         11    1    3    3    0    0  0.10749750148E+02  0.82080536029E+00 -0.29668356098E+02  0.31566472775E+02  0.51100000000E-03 0. -1.
        -11    1    3    3    0    0  0.66650199821E+00 -0.91777228471E+01  0.61639402161E+00  0.92225139426E+01  0.51100000000E-03 0.  1.
         12    1    3    3    0    0  0.14576681332E+01 -0.74175215495E+01 -0.61417166563E+01  0.97398719607E+01  0.00000000000E+00 0. -1.
</event>
<event>
 7    1  0.9978258E-013  0.5052886E+02  0.7816164E-02  0.1300439E+00
        -11   -1    0    0    0    0  0.00000000000E+00  0.00000000000E+00  0.45593999997E+02  0.45594000000E+02  0.51100000000E-03 0.  1.
         11   -1    0    0    0    0 -0.00000000000E+00 -0.00000000000E+00 -0.45593999997E+02  0.45594000000E+02  0.51100000000E-03 0. -1.
    9900012    2    1    2    0    0  0.25834603290E+01 -0.19112448006E+02 -0.35793937083E+02  0.50528857511E+02  0.29999992891E+02 0.  0.
        -12    1    1    2    0    0 -0.25834603290E+01  0.19112448006E+02  0.35793937083E+02  0.40659142489E+02  0.00000000000E+00 0.  1.
         11    1    3    3    0    0  0.44922133538E+01 -0.95331144897E+01 -0.25660210109E+02  0.27739982621E+02  0.51100000000E-03 0. -1.
        -11    1    3    3    0    0 -0.33263742196E+01 -0.23039131200E+01  0.47027180082E+01  0.62038970042E+01  0.51100000000E-03 0.  1.
        -12    1    3    3    0    0  0.14176211947E+01 -0.72754203965E+01 -0.14836444981E+02  0.16584977886E+02  0.00000000000E+00 0.  1.
</event>
<event>
 7    1  0.9978258E-013  0.5052887E+02  0.7816164E-02  0.1300439E+00
        -11   -1    0    0    0    0  0.00000000000E+00  0.00000000000E+00  0.45593999997E+02  0.45594000000E+02  0.51100000000E-03 0.  1.
         11   -1    0    0    0    0 -0.00000000000E+00 -0.00000000000E+00 -0.45593999997E+02  0.45594000000E+02  0.51100000000E-03 0. -1.
    9900012    2    1    2    0    0  0.73675452299E+01 -0.30354496283E+02 -0.26028619837E+02  0.50528865504E+02  0.30000017187E+02 0.  0.
        -12    1    1    2    0    0 -0.73675452299E+01  0.30354496283E+02  0.26028619837E+02  0.40659134496E+02  0.00000000000E+00 0.  1.
         11    1    3    3    0    0  0.11390329397E+01 -0.10819446569E+02 -0.53031379254E+01  0.12102937338E+02  0.51100000000E-03 0. -1.
        -11    1    3    3    0    0  0.41451395253E+00  0.55295946093E+01 -0.79657227535E+01  0.97057188094E+01  0.51100000000E-03 0.  1.
        -12    1    3    3    0    0  0.58139983376E+01 -0.25064644324E+02 -0.12759759158E+02  0.28720209357E+02  0.00000000000E+00 0.  1.
</event>
<event>
 7    1  0.9978258E-013  0.5052886E+02  0.7816164E-02  0.1300439E+00
        -11   -1    0    0    0    0  0.00000000000E+00  0.00000000000E+00  0.45593999997E+02  0.45594000000E+02  0.51100000000E-03 0. -1.
         11   -1    0    0    0    0 -0.00000000000E+00 -0.00000000000E+00 -0.45593999997E+02  0.45594000000E+02  0.51100000000E-03 0.  1.
    9900012    2    1    2    0    0 -0.56579914649E+01  0.15460074763E+01  0.40233845881E+02  0.50528863746E+02  0.30000011843E+02 0.  0.
        -12    1    1    2    0    0  0.56579914649E+01 -0.15460074763E+01 -0.40233845881E+02  0.40659136254E+02  0.00000000000E+00 0.  1.
         11    1    3    3    0    0 -0.54758144518E+01 -0.86502317301E+01  0.26870803062E+02  0.28755018873E+02  0.51100000000E-03 0. -1.
        -11    1    3    3    0    0  0.37726893082E+01 -0.13946977604E+00 -0.74012094710E+00  0.38471308416E+01  0.51100000000E-03 0.  1.
         12    1    3    3    0    0 -0.39548663213E+01  0.10335708982E+02  0.14103163766E+02  0.17926714032E+02  0.00000000000E+00 0. -1.
</event>
<event>
 7    1  0.9978258E-013  0.5052886E+02  0.7816164E-02  0.1300439E+00
        -11   -1    0    0    0    0  0.00000000000E+00  0.00000000000E+00  0.45593999997E+02  0.45594000000E+02  0.51100000000E-03 0.  1.
         11   -1    0    0    0    0 -0.00000000000E+00 -0.00000000000E+00 -0.45593999997E+02  0.45594000000E+02  0.51100000000E-03 0. -1.
    9900012    2    1    2    0    0  0.85889307162E+01 -0.39576845222E+02 -0.36151891958E+01  0.50528855869E+02  0.29999987899E+02 0.  0.
        -12    1    1    2    0    0 -0.85889307162E+01  0.39576845222E+02  0.36151891958E+01  0.40659144131E+02  0.00000000000E+00 0.  1.
         11    1    3    3    0    0  0.52110490867E+01 -0.18527164759E+02 -0.33050603036E+01  0.19527782528E+02  0.51100000000E-03 0. -1.
        -11    1    3    3    0    0 -0.56972565466E+01 -0.61426084354E+01  0.80776936540E+01  0.11637847979E+02  0.51100000000E-03 0.  1.
        -12    1    3    3    0    0  0.90751381761E+01 -0.14907072027E+02 -0.83878225462E+01  0.19363225362E+02  0.00000000000E+00 0.  1.
</event>
<event>
 7    1  0.9978258E-013  0.5052885E+02  0.7816164E-02  0.1300439E+00
        -11   -1    0    0    0    0  0.00000000000E+00  0.00000000000E+00  0.45593999997E+02  0.45594000000E+02  0.51100000000E-03 0.  1.
         11   -1    0    0    0    0 -0.00000000000E+00 -0.00000000000E+00 -0.45593999997E+02  0.45594000000E+02  0.51100000000E-03 0. -1.
    9900012    2    1    2    0    0  0.28790426443E+02 -0.27720774638E+02  0.74723568063E+01  0.50528854442E+02  0.29999983561E+02 0.  0.
        -12    1    1    2    0    0 -0.28790426443E+02  0.27720774638E+02 -0.74723568063E+01  0.40659145558E+02  0.00000000000E+00 0.  1.
         11    1    3    3    0    0  0.61370922632E+01  0.15846251446E+01 -0.29939891335E+01  0.70099150843E+01  0.51100000000E-03 0. -1.
        -11    1    3    3    0    0  0.95956429898E+01 -0.89180693959E+01  0.13860757237E+02  0.19071678415E+02  0.51100000000E-03 0.  1.
        -12    1    3    3    0    0  0.13057691190E+02 -0.20387330387E+02 -0.33944112969E+01  0.24447260942E+02  0.00000000000E+00 0.  1.
</event>
<event>
 7    1  0.9978258E-013  0.5052887E+02  0.7816164E-02  0.1300439E+00
        -11   -1    0    0    0    0  0.00000000000E+00  0.00000000000E+00  0.45593999997E+02  0.45594000000E+02  0.51100000000E-03 0.  1.
         11   -1    0    0    0    0 -0.00000000000E+00 -0.00000000000E+00 -0.45593999997E+02  0.45594000000E+02  0.51100000000E-03 0. -1.
    9900012    2    1    2    0    0 -0.31205228636E+02  0.20304534497E+02 -0.16343938451E+02  0.50528871388E+02  0.30000035071E+02 0.  0.
        -12    1    1    2    0    0  0.31205228636E+02 -0.20304534497E+02  0.16343938451E+02  0.40659128612E+02  0.00000000000E+00 0.  1.
         11    1    3    3    0    0 -0.14812835089E+02  0.61257864783E+01  0.44526108266E+01  0.16636438525E+02  0.51100000000E-03 0.  1.
        -11    1    3    3    0    0 -0.17983101342E+02  0.13870554256E+02 -0.13504710482E+02  0.26422744269E+02  0.51100000000E-03 0. -1.
        -12    1    3    3    0    0  0.15907077945E+01  0.30819376330E+00 -0.72918387951E+01  0.74696885944E+01  0.00000000000E+00 0.  1.
</event>
<event>
 7    1  0.9978258E-013  0.5052886E+02  0.7816164E-02  0.1300439E+00
        -11   -1    0    0    0    0  0.00000000000E+00  0.00000000000E+00  0.45593999997E+02  0.45594000000E+02  0.51100000000E-03 0. -1.
         11   -1    0    0    0    0 -0.00000000000E+00 -0.00000000000E+00 -0.45593999997E+02  0.45594000000E+02  0.51100000000E-03 0.  1.
    9900012    2    1    2    0    0  0.27690364933E+02 -0.89124742715E+01  0.28407346309E+02  0.50528857952E+02  0.29999994230E+02 0.  0.
        -12    1    1    2    0    0 -0.27690364933E+02  0.89124742715E+01 -0.28407346309E+02  0.40659142048E+02  0.00000000000E+00 0.  1.
         11    1    3    3    0    0 -0.27947297049E+01 -0.22375248363E-01  0.11027465453E+02  0.11376115741E+02  0.51100000000E-03 0. -1.
        -11    1    3    3    0    0  0.11904482306E+02 -0.10068267664E+02  0.36310753522E+01  0.16008479665E+02  0.51100000000E-03 0.  1.
         12    1    3    3    0    0  0.18580612333E+02  0.11781686406E+01  0.13748805504E+02  0.23144262546E+02  0.00000000000E+00 0. -1.
</event>
<event>
 7    1  0.9978258E-013  0.5052886E+02  0.7816164E-02  0.1300439E+00
        -11   -1    0    0    0    0  0.00000000000E+00  0.00000000000E+00  0.45593999997E+02  0.45594000000E+02  0.51100000000E-03 0. -1.
         11   -1    0    0    0    0 -0.00000000000E+00 -0.00000000000E+00 -0.45593999997E+02  0.45594000000E+02  0.51100000000E-03 0.  1.
    9900012    2    1    2    0    0  0.23503109227E+02  0.33086686945E+02  0.24577499781E+01  0.50528861651E+02  0.30000005474E+02 0.  0.
        -12    1    1    2    0    0 -0.23503109227E+02 -0.33086686945E+02 -0.24577499781E+01  0.40659138349E+02  0.00000000000E+00 0.  1.
         11    1    3    3    0    0  0.12688966702E+02  0.33770326542E+01 -0.28669315934E+01  0.13439997118E+02  0.51100000000E-03 0. -1.
        -11    1    3    3    0    0 -0.29922262153E+01  0.18654582554E+02  0.12236085387E+01  0.18932619631E+02  0.51100000000E-03 0.  1.
         12    1    3    3    0    0  0.13806368740E+02  0.11055071738E+02  0.41010730328E+01  0.18156244902E+02  0.00000000000E+00 0. -1.
</event>
<event>
 7    1  0.9978258E-013  0.5052886E+02  0.7816164E-02  0.1300439E+00
        -11   -1    0    0    0    0  0.00000000000E+00  0.00000000000E+00  0.45593999997E+02  0.45594000000E+02  0.51100000000E-03 0. -1.
         11   -1    0    0    0    0 -0.00000000000E+00 -0.00000000000E+00 -0.45593999997E+02  0.45594000000E+02  0.51100000000E-03 0.  1.
    9900012    2    1    2    0    0 -0.13421301263E+01 -0.28696845586E+02  0.28772483224E+02  0.50528855263E+02  0.29999986056E+02 0.  0.
        -12    1    1    2    0    0  0.13421301263E+01  0.28696845586E+02 -0.28772483224E+02  0.40659144737E+02  0.00000000000E+00 0.  1.
         11    1    3    3    0    0  0.40667121717E+01 -0.10469372915E+02  0.25508825277E+02  0.27871958747E+02  0.51100000000E-03 0. -1.
        -11    1    3    3    0    0 -0.79405061140E+01 -0.60514540882E+01  0.15358743931E+01  0.10101021945E+02  0.51100000000E-03 0.  1.
        -12    1    3    3    0    0  0.25316638160E+01 -0.12176018583E+02  0.17277835543E+01  0.12555874570E+02  0.00000000000E+00 0.  1.
</event>
<event>
 7    1  0.9978258E-013  0.5052884E+02  0.7816164E-02  0.1300439E+00
        -11   -1    0    0    0    0  0.00000000000E+00  0.00000000000E+00  0.45593999997E+02  0.45594000000E+02  0.51100000000E-03 0.  1.
         11   -1    0    0    0    0 -0.00000000000E+00 -0.00000000000E+00 -0.45593999997E+02  0.45594000000E+02  0.51100000000E-03 0. -1.
    9900012    2    1    2    0    0 -0.27726963103E+02  0.26891484099E+02 -0.12697668943E+02  0.50528841173E+02  0.29999943230E+02 0.  0.
        -12    1    1    2    0    0  0.27726963103E+02 -0.26891484099E+02  0.12697668943E+02  0.40659158827E+02  0.00000000000E+00 0.  1.
         11    1    3    3    0    0 -0.31005726015E+01  0.10151823520E+02 -0.12984414286E+02  0.16771049039E+02  0.51100000000E-03 0. -1.
        -11    1    3    3    0    0 -0.23568095404E+02  0.19528352966E+02  0.12222622191E+01  0.30631774610E+02  0.51100000000E-03 0.  1.
        -12    1    3    3    0    0 -0.10582950967E+01 -0.27886923873E+01 -0.93551687594E+00  0.31260175252E+01  0.00000000000E+00 0.  1.
</event>
<event>
 7    1  0.9978258E-013  0.5052887E+02  0.7816164E-02  0.1300439E+00
        -11   -1    0    0    0    0  0.00000000000E+00  0.00000000000E+00  0.45593999997E+02  0.45594000000E+02  0.51100000000E-03 0. -1.
         11   -1    0    0    0    0 -0.00000000000E+00 -0.00000000000E+00 -0.45593999997E+02  0.45594000000E+02  0.51100000000E-03 0.  1.
    9900012    2    1    2    0    0  0.39638948612E+02 -0.70663546415E+01  0.56555793812E+01  0.50528865809E+02  0.30000018114E+02 0.  0.
        -12    1    1    2    0    0 -0.39638948612E+02  0.70663546415E+01 -0.56555793812E+01  0.40659134191E+02  0.00000000000E+00 0.  1.
         11    1    3    3    0    0  0.21662703764E+02  0.78778912559E+01  0.65931088325E+01  0.23975049308E+02  0.51100000000E-03 0. -1.
        -11    1    3    3    0    0  0.34532082860E+01 -0.65378124381E+01  0.48049598915E+01  0.88178953704E+01  0.51100000000E-03 0.  1.
         12    1    3    3    0    0  0.14523036563E+02 -0.84064334593E+01 -0.57424893428E+01  0.17735921131E+02  0.00000000000E+00 0. -1.
</event>
<event>
 7    1  0.9978258E-013  0.5052886E+02  0.7816164E-02  0.1300439E+00
        -11   -1    0    0    0    0  0.00000000000E+00  0.00000000000E+00  0.45593999997E+02  0.45594000000E+02  0.51100000000E-03 0.  1.
         11   -1    0    0    0    0 -0.00000000000E+00 -0.00000000000E+00 -0.45593999997E+02  0.45594000000E+02  0.51100000000E-03 0. -1.
    9900012    2    1    2    0    0  0.10744208640E+02 -0.37232059898E+02 -0.12308593015E+02  0.50528858770E+02  0.29999996718E+02 0.  0.
        -12    1    1    2    0    0 -0.10744208640E+02  0.37232059898E+02  0.12308593015E+02  0.40659141230E+02  0.00000000000E+00 0.  1.
         11    1    3    3    0    0 -0.41712694111E+00 -0.17339716476E+01 -0.18903353454E+01  0.25988498492E+01  0.51100000000E-03 0. -1.
        -11    1    3    3    0    0 -0.43698217244E+01  0.15291673981E+01  0.30898752950E+01  0.55660600458E+01  0.51100000000E-03 0.  1.
        -12    1    3    3    0    0  0.15531157306E+02 -0.37027255648E+02 -0.13508132964E+02  0.42363948875E+02  0.00000000000E+00 0.  1.
</event>
<event>
 7    1  0.9978258E-013  0.5052886E+02  0.7816164E-02  0.1300439E+00
        -11   -1    0    0    0    0  0.00000000000E+00  0.00000000000E+00  0.45593999997E+02  0.45594000000E+02  0.51100000000E-03 0.  1.
         11   -1    0    0    0    0 -0.00000000000E+00 -0.00000000000E+00 -0.45593999997E+02  0.45594000000E+02  0.51100000000E-03 0. -1.
    9900012    2    1    2    0    0 -0.34413044844E+02  0.99095208333E+01 -0.19253818751E+02  0.50528858407E+02  0.29999995615E+02 0.  0.
        -12    1    1    2    0    0  0.34413044844E+02 -0.99095208333E+01  0.19253818751E+02  0.40659141593E+02  0.00000000000E+00 0.  1.
         11    1    3    3    0    0 -0.25470792798E+02  0.20626483693E+01 -0.11971732691E+02  0.28219464700E+02  0.51100000000E-03 0. -1.
        -11    1    3    3    0    0 -0.23660706671E+01  0.90088288575E+01 -0.11199919626E+02  0.14566931306E+02  0.51100000000E-03 0.  1.
         12    1    3    3    0    0 -0.65761813782E+01 -0.11619563935E+01  0.39178335663E+01  0.77424624011E+01  0.00000000000E+00 0. -1.
</event>
<event>
 7    1  0.9978258E-013  0.5052886E+02  0.7816164E-02  0.1300439E+00
        -11   -1    0    0    0    0  0.00000000000E+00  0.00000000000E+00  0.45593999997E+02  0.45594000000E+02  0.51100000000E-03 0.  1.
         11   -1    0    0    0    0 -0.00000000000E+00 -0.00000000000E+00 -0.45593999997E+02  0.45594000000E+02  0.51100000000E-03 0. -1.
    9900012    2    1    2    0    0  0.92230051783E+01  0.28888614057E+02 -0.27084117841E+02  0.50528864669E+02  0.30000014648E+02 0.  0.
        -12    1    1    2    0    0 -0.92230051783E+01 -0.28888614057E+02  0.27084117841E+02  0.40659135331E+02  0.00000000000E+00 0.  1.
         11    1    3    3    0    0  0.16018677529E+02  0.16433616949E+02 -0.20583728095E+02  0.30827774139E+02  0.51100000000E-03 0. -1.
        -11    1    3    3    0    0 -0.76665573991E+01  0.37555709595E+01 -0.68586156809E+01  0.10950845853E+02  0.51100000000E-03 0.  1.
         12    1    3    3    0    0  0.87088504818E+00  0.86994261485E+01  0.35822593531E+00  0.87502446766E+01  0.00000000000E+00 0. -1.
</event>
<event>
 7    1  0.9978258E-013  0.5052886E+02  0.7816164E-02  0.1300439E+00
        -11   -1    0    0    0    0  0.00000000000E+00  0.00000000000E+00  0.45593999997E+02  0.45594000000E+02  0.51100000000E-03 0.  1.
         11   -1    0    0    0    0 -0.00000000000E+00 -0.00000000000E+00 -0.45593999997E+02  0.45594000000E+02  0.51100000000E-03 0. -1.
    9900012    2    1    2    0    0  0.18378193447E+02 -0.23370782482E+02 -0.27734716816E+02  0.50528856071E+02  0.29999988513E+02 0.  0.
        -12    1    1    2    0    0 -0.18378193447E+02  0.23370782482E+02  0.27734716816E+02  0.40659143929E+02  0.00000000000E+00 0.  1.
         11    1    3    3    0    0  0.79686255563E+00 -0.12445904769E+02 -0.16994951388E+02  0.21079940901E+02  0.51100000000E-03 0. -1.
        -11    1    3    3    0    0  0.20942140320E+02 -0.11494409643E+02 -0.84371844061E+01  0.25335366095E+02  0.51100000000E-03 0.  1.
        -12    1    3    3    0    0 -0.33608094283E+01  0.56953192917E+00 -0.23025810218E+01  0.41135490751E+01  0.00000000000E+00 0.  1.
</event>
<event>
 7    1  0.9978258E-013  0.5052887E+02  0.7816164E-02  0.1300439E+00
        -11   -1    0    0    0    0  0.00000000000E+00  0.00000000000E+00  0.45593999997E+02  0.45594000000E+02  0.51100000000E-03 0.  1.
         11   -1    0    0    0    0 -0.00000000000E+00 -0.00000000000E+00 -0.45593999997E+02  0.45594000000E+02  0.51100000000E-03 0. -1.
    9900012    2    1    2    0    0 -0.82668660843E+01 -0.21772730840E+02 -0.33328251822E+02  0.50528865078E+02  0.30000015893E+02 0.  0.
        -12    1    1    2    0    0  0.82668660843E+01  0.21772730840E+02  0.33328251822E+02  0.40659134922E+02  0.00000000000E+00 0.  1.
         11    1    3    3    0    0 -0.13316779159E+02 -0.22525765336E+02 -0.24119466067E+02  0.35587854034E+02  0.51100000000E-03 0. -1.
        -11    1    3    3    0    0  0.39432285947E+01  0.38208322934E+01 -0.10155750354E+02  0.11545002238E+02  0.51100000000E-03 0.  1.
        -12    1    3    3    0    0  0.11066844799E+01 -0.30677977970E+01  0.94696459900E+00  0.33960088064E+01  0.00000000000E+00 0.  1.
</event>
<event>
 7    1  0.9978258E-013  0.5052888E+02  0.7816164E-02  0.1300439E+00
        -11   -1    0    0    0    0  0.00000000000E+00  0.00000000000E+00  0.45593999997E+02  0.45594000000E+02  0.51100000000E-03 0.  1.
         11   -1    0    0    0    0 -0.00000000000E+00 -0.00000000000E+00 -0.45593999997E+02  0.45594000000E+02  0.51100000000E-03 0. -1.
    9900012    2    1    2    0    0  0.19397363735E+02 -0.22680959149E+02 -0.27613048344E+02  0.50528879663E+02  0.30000060222E+02 0.  0.
        -12    1    1    2    0    0 -0.19397363735E+02  0.22680959149E+02  0.27613048344E+02  0.40659120337E+02  0.00000000000E+00 0.  1.
         11    1    3    3    0    0 -0.51021133859E+01 -0.95775137910E+01 -0.12873652679E+02  0.16837198846E+02  0.51100000000E-03 0. -1.
        -11    1    3    3    0    0  0.10573074088E+02 -0.12148980270E+02 -0.58125635207E+01  0.17122310365E+02  0.51100000000E-03 0.  1.
         12    1    3    3    0    0  0.13926403033E+02 -0.95446508712E+00 -0.89268321444E+01  0.16569370452E+02  0.00000000000E+00 0. -1.
</event>
<event>
 7    1  0.9978258E-013  0.5052886E+02  0.7816164E-02  0.1300439E+00
        -11   -1    0    0    0    0  0.00000000000E+00  0.00000000000E+00  0.45593999997E+02  0.45594000000E+02  0.51100000000E-03 0.  1.
         11   -1    0    0    0    0 -0.00000000000E+00 -0.00000000000E+00 -0.45593999997E+02  0.45594000000E+02  0.51100000000E-03 0. -1.
    9900012    2    1    2    0    0 -0.31165854018E+02 -0.22432738838E+02 -0.13365167171E+02  0.50528856847E+02  0.29999990872E+02 0.  0.
        -12    1    1    2    0    0  0.31165854018E+02  0.22432738838E+02  0.13365167171E+02  0.40659143153E+02  0.00000000000E+00 0.  1.
         11    1    3    3    0    0 -0.23999559481E+02 -0.37946419655E+01 -0.15059345765E+02  0.28586046562E+02  0.51100000000E-03 0. -1.
        -11    1    3    3    0    0 -0.21718993884E+01 -0.11317273523E+02  0.48949489781E+01  0.12520317596E+02  0.51100000000E-03 0.  1.
         12    1    3    3    0    0 -0.49943951484E+01 -0.73208233495E+01 -0.32007703845E+01  0.94224926886E+01  0.00000000000E+00 0. -1.
</event>
<event>
 7    1  0.9978258E-013  0.5052884E+02  0.7816164E-02  0.1300439E+00
        -11   -1    0    0    0    0  0.00000000000E+00  0.00000000000E+00  0.45593999997E+02  0.45594000000E+02  0.51100000000E-03 0.  1.
         11   -1    0    0    0    0 -0.00000000000E+00 -0.00000000000E+00 -0.45593999997E+02  0.45594000000E+02  0.51100000000E-03 0. -1.
    9900012    2    1    2    0    0  0.27456953516E+01  0.48239051317E+01 -0.40278515200E+02  0.50528835100E+02  0.29999924769E+02 0.  0.
        -12    1    1    2    0    0 -0.27456953516E+01 -0.48239051317E+01  0.40278515200E+02  0.40659164900E+02  0.00000000000E+00 0.  1.
         11    1    3    3    0    0 -0.23789984943E+01 -0.58257221756E+00 -0.27033039232E+01  0.36478591786E+01  0.51100000000E-03 0. -1.
        -11    1    3    3    0    0  0.67800562668E+01 -0.19743029045E+01  0.13825040268E+01  0.71957176560E+01  0.51100000000E-03 0.  1.
        -12    1    3    3    0    0 -0.16553624210E+01  0.73807802538E+01 -0.38957715304E+02  0.39685258265E+02  0.00000000000E+00 0.  1.
</event>
<event>
 7    1  0.9978258E-013  0.5052885E+02  0.7816164E-02  0.1300439E+00
        -11   -1    0    0    0    0  0.00000000000E+00  0.00000000000E+00  0.45593999997E+02  0.45594000000E+02  0.51100000000E-03 0. -1.
         11   -1    0    0    0    0 -0.00000000000E+00 -0.00000000000E+00 -0.45593999997E+02  0.45594000000E+02  0.51100000000E-03 0.  1.
    9900012    2    1    2    0    0 -0.81910283479E+01  0.10302511881E+02  0.38469883650E+02  0.50528847962E+02  0.29999963864E+02 0.  0.
        -12    1    1    2    0    0  0.81910283479E+01 -0.10302511881E+02 -0.38469883650E+02  0.40659152038E+02  0.00000000000E+00 0.  1.
         11    1    3    3    0    0  0.23865111369E+01  0.66348987478E+01  0.12890310147E+02  0.14692767361E+02  0.51100000000E-03 0. -1.
        -11    1    3    3    0    0 -0.17361834422E+02  0.52010933252E+01  0.19091737416E+02  0.26324496275E+02  0.51100000000E-03 0.  1.
        -12    1    3    3    0    0  0.67842949374E+01 -0.15334801916E+01  0.64878360868E+01  0.95115843257E+01  0.00000000000E+00 0.  1.
</event>
<event>
 7    1  0.9978258E-013  0.5052886E+02  0.7816164E-02  0.1300439E+00
        -11   -1    0    0    0    0  0.00000000000E+00  0.00000000000E+00  0.45593999997E+02  0.45594000000E+02  0.51100000000E-03 0. -1.
         11   -1    0    0    0    0 -0.00000000000E+00 -0.00000000000E+00 -0.45593999997E+02  0.45594000000E+02  0.51100000000E-03 0.  1.
    9900012    2    1    2    0    0 -0.31196338900E+02  0.25477344364E+02  0.55550619342E+01  0.50528863884E+02  0.30000012262E+02 0.  0.
        -12    1    1    2    0    0  0.31196338900E+02 -0.25477344364E+02 -0.55550619342E+01  0.40659136116E+02  0.00000000000E+00 0.  1.
         11    1    3    3    0    0 -0.11677910401E+02  0.17028287975E+02  0.60821502809E+01  0.21525072241E+02  0.51100000000E-03 0. -1.
        -11    1    3    3    0    0  0.15351137713E+01  0.58803127906E+01 -0.43217283529E+01  0.74573446362E+01  0.51100000000E-03 0.  1.
        -12    1    3    3    0    0 -0.21053542271E+02  0.25687435981E+01  0.37946400062E+01  0.21546447007E+02  0.00000000000E+00 0.  1.
</event>
<event>
 7    1  0.9978258E-013  0.5052886E+02  0.7816164E-02  0.1300439E+00
        -11   -1    0    0    0    0  0.00000000000E+00  0.00000000000E+00  0.45593999997E+02  0.45594000000E+02  0.51100000000E-03 0. -1.
         11   -1    0    0    0    0 -0.00000000000E+00 -0.00000000000E+00 -0.45593999997E+02  0.45594000000E+02  0.51100000000E-03 0.  1.
    9900012    2    1    2    0    0 -0.40844967587E-01 -0.19664056161E+02  0.35587761745E+02  0.50528861309E+02  0.30000004436E+02 0.  0.
        -12    1    1    2    0    0  0.40844967587E-01  0.19664056161E+02 -0.35587761745E+02  0.40659138691E+02  0.00000000000E+00 0.  1.
         11    1    3    3    0    0 -0.10116202328E+01 -0.21042662867E+02  0.22858086793E+02  0.31085513799E+02  0.51100000000E-03 0. -1.
        -11    1    3    3    0    0  0.22661317764E+01  0.66077623230E+01  0.17319602990E+01  0.71970523747E+01  0.51100000000E-03 0.  1.
        -12    1    3    3    0    0 -0.12953565112E+01 -0.52291556168E+01  0.10997714653E+02  0.12246295136E+02  0.00000000000E+00 0.  1.
</event>
<event>
 7    1  0.9978258E-013  0.5052886E+02  0.7816164E-02  0.1300439E+00
        -11   -1    0    0    0    0  0.00000000000E+00  0.00000000000E+00  0.45593999997E+02  0.45594000000E+02  0.51100000000E-03 0. -1.
         11   -1    0    0    0    0 -0.00000000000E+00 -0.00000000000E+00 -0.45593999997E+02  0.45594000000E+02  0.51100000000E-03 0.  1.
    9900012    2    1    2    0    0 -0.12363477926E+02  0.38506580946E+02 -0.41896882060E+01  0.50528857734E+02  0.29999993568E+02 0.  0.
        -12    1    1    2    0    0  0.12363477926E+02 -0.38506580946E+02  0.41896882060E+01  0.40659142266E+02  0.00000000000E+00 0.  1.
         11    1    3    3    0    0  0.33533124961E+01  0.13417898084E+02  0.74457898072E+01  0.15707465735E+02  0.51100000000E-03 0. -1.
        -11    1    3    3    0    0 -0.13893692981E+02  0.16004548505E+02 -0.13820573950E+02  0.25301947397E+02  0.51100000000E-03 0.  1.
         12    1    3    3    0    0 -0.18230974417E+01  0.90841343560E+01  0.21850959372E+01  0.95194446022E+01  0.00000000000E+00 0. -1.
</event>
<event>
 7    1  0.9978258E-013  0.5052886E+02  0.7816164E-02  0.1300439E+00
        -11   -1    0    0    0    0  0.00000000000E+00  0.00000000000E+00  0.45593999997E+02  0.45594000000E+02  0.51100000000E-03 0.  1.
         11   -1    0    0    0    0 -0.00000000000E+00 -0.00000000000E+00 -0.45593999997E+02  0.45594000000E+02  0.51100000000E-03 0. -1.
    9900012    2    1    2    0    0  0.17098870551E+02 -0.36799621084E+02 -0.25656524493E+01  0.50528855167E+02  0.29999985765E+02 0.  0.
        -12    1    1    2    0    0 -0.17098870551E+02  0.36799621084E+02  0.25656524493E+01  0.40659144833E+02  0.00000000000E+00 0.  1.
         11    1    3    3    0    0  0.12288204351E+02 -0.14204065045E+02 -0.79059034572E+01  0.20377898314E+02  0.51100000000E-03 0. -1.
        -11    1    3    3    0    0  0.93389744588E+00 -0.13821625041E+02  0.12118384384E+02  0.18405562299E+02  0.51100000000E-03 0.  1.
        -12    1    3    3    0    0  0.38767687543E+01 -0.87739309983E+01 -0.67781333763E+01  0.11745394553E+02  0.00000000000E+00 0.  1.
</event>
<event>
 7    1  0.9978258E-013  0.5052886E+02  0.7816164E-02  0.1300439E+00
        -11   -1    0    0    0    0  0.00000000000E+00  0.00000000000E+00  0.45593999997E+02  0.45594000000E+02  0.51100000000E-03 0. -1.
         11   -1    0    0    0    0 -0.00000000000E+00 -0.00000000000E+00 -0.45593999997E+02  0.45594000000E+02  0.51100000000E-03 0.  1.
    9900012    2    1    2    0    0  0.19713267258E+02 -0.19908152789E+02  0.29465544929E+02  0.50528858452E+02  0.29999995750E+02 0.  0.
        -12    1    1    2    0    0 -0.19713267258E+02  0.19908152789E+02 -0.29465544929E+02  0.40659141548E+02  0.00000000000E+00 0.  1.
         11    1    3    3    0    0  0.23129990119E+01  0.27840006813E+01 -0.42137520914E+01  0.55548475381E+01  0.51100000000E-03 0. -1.
        -11    1    3    3    0    0  0.39237875932E+00  0.73963954194E+00  0.72929320540E+00  0.11103587633E+01  0.51100000000E-03 0.  1.
         12    1    3    3    0    0  0.17007889487E+02 -0.23431793013E+02  0.32950003815E+02  0.43863652150E+02  0.00000000000E+00 0. -1.
</event>
<event>
 7    1  0.9978258E-013  0.5052888E+02  0.7816164E-02  0.1300439E+00
        -11   -1    0    0    0    0  0.00000000000E+00  0.00000000000E+00  0.45593999997E+02  0.45594000000E+02  0.51100000000E-03 0.  1.
         11   -1    0    0    0    0 -0.00000000000E+00 -0.00000000000E+00 -0.45593999997E+02  0.45594000000E+02  0.51100000000E-03 0. -1.
    9900012    2    1    2    0    0 -0.23422893191E+02 -0.77535653313E+01 -0.32317393744E+02  0.50528884919E+02  0.30000076199E+02 0.  0.
        -12    1    1    2    0    0  0.23422893191E+02  0.77535653313E+01  0.32317393744E+02  0.40659115081E+02  0.00000000000E+00 0.  1.
         11    1    3    3    0    0 -0.95490636087E+01  0.69867565212E+01 -0.22869354052E+02  0.25748917210E+02  0.51100000000E-03 0. -1.
        -11    1    3    3    0    0 -0.35379942627E+01 -0.11566899424E+02 -0.50379517463E+01  0.13103111224E+02  0.51100000000E-03 0.  1.
         12    1    3    3    0    0 -0.10335835320E+02 -0.31734224281E+01 -0.44100879455E+01  0.11676856484E+02  0.00000000000E+00 0. -1.
</event>
<event>
 7    1  0.9978258E-013  0.5052885E+02  0.7816164E-02  0.1300439E+00
        -11   -1    0    0    0    0  0.00000000000E+00  0.00000000000E+00  0.45593999997E+02  0.45594000000E+02  0.51100000000E-03 0.  1.
         11   -1    0    0    0    0 -0.00000000000E+00 -0.00000000000E+00 -0.45593999997E+02  0.45594000000E+02  0.51100000000E-03 0. -1.
    9900012    2    1    2    0    0  0.11794015773E+02 -0.38762370388E+02  0.33979862914E+01  0.50528850022E+02  0.29999970127E+02 0.  0.
        -12    1    1    2    0    0 -0.11794015773E+02  0.38762370388E+02 -0.33979862914E+01  0.40659149978E+02  0.00000000000E+00 0.  1.
         11    1    3    3    0    0  0.44556808759E+01 -0.10359803524E+02 -0.12652059263E+02  0.16948546398E+02  0.51100000000E-03 0. -1.
        -11    1    3    3    0    0  0.56882435795E+01 -0.16746454470E+02  0.87989832404E+01  0.19754036516E+02  0.51100000000E-03 0.  1.
         12    1    3    3    0    0  0.16500913171E+01 -0.11656112393E+02  0.72510623141E+01  0.13826267109E+02  0.00000000000E+00 0. -1.
</event>
<event>
 7    1  0.9978258E-013  0.5052885E+02  0.7816164E-02  0.1300439E+00
        -11   -1    0    0    0    0  0.00000000000E+00  0.00000000000E+00  0.45593999997E+02  0.45594000000E+02  0.51100000000E-03 0.  1.
         11   -1    0    0    0    0 -0.00000000000E+00 -0.00000000000E+00 -0.45593999997E+02  0.45594000000E+02  0.51100000000E-03 0. -1.
    9900012    2    1    2    0    0 -0.20907046472E+02  0.34405542222E+02  0.56850878597E+01  0.50528854021E+02  0.29999982283E+02 0.  0.
        -12    1    1    2    0    0  0.20907046472E+02 -0.34405542222E+02 -0.56850878597E+01  0.40659145979E+02  0.00000000000E+00 0.  1.
         11    1    3    3    0    0 -0.16987080038E+02  0.30850706603E+02  0.10490373288E+01  0.35233896544E+02  0.51100000000E-03 0. -1.
        -11    1    3    3    0    0  0.50542777173E+01  0.11827405860E+01  0.80440754023E+00  0.52527773881E+01  0.51100000000E-03 0.  1.
        -12    1    3    3    0    0 -0.89742441515E+01  0.23720950327E+01  0.38316429908E+01  0.10042180089E+02  0.00000000000E+00 0.  1.
</event>
<event>
 7    1  0.9978258E-013  0.5052885E+02  0.7816164E-02  0.1300439E+00
        -11   -1    0    0    0    0  0.00000000000E+00  0.00000000000E+00  0.45593999997E+02  0.45594000000E+02  0.51100000000E-03 0.  1.
         11   -1    0    0    0    0 -0.00000000000E+00 -0.00000000000E+00 -0.45593999997E+02  0.45594000000E+02  0.51100000000E-03 0. -1.
    9900012    2    1    2    0    0  0.39079343475E+02  0.11146634706E+02  0.13131328284E+01  0.50528845195E+02  0.29999955453E+02 0.  0.
        -12    1    1    2    0    0 -0.39079343475E+02 -0.11146634706E+02 -0.13131328284E+01  0.40659154805E+02  0.00000000000E+00 0.  1.
         11    1    3    3    0    0  0.13321900078E+02  0.52526028338E+01  0.96739613187E+01  0.17281446296E+02  0.51100000000E-03 0. -1.
        -11    1    3    3    0    0  0.15352505065E+02  0.11797758561E+02 -0.88182269465E+01  0.21275517516E+02  0.51100000000E-03 0.  1.
        -12    1    3    3    0    0  0.10404938331E+02 -0.59037266887E+01  0.45739845614E+00  0.11971881382E+02  0.00000000000E+00 0.  1.
</event>
<event>
 7    1  0.9978258E-013  0.5052888E+02  0.7816164E-02  0.1300439E+00
        -11   -1    0    0    0    0  0.00000000000E+00  0.00000000000E+00  0.45593999997E+02  0.45594000000E+02  0.51100000000E-03 0.  1.
         11   -1    0    0    0    0 -0.00000000000E+00 -0.00000000000E+00 -0.45593999997E+02  0.45594000000E+02  0.51100000000E-03 0. -1.
    9900012    2    1    2    0    0 -0.18823390688E+02  0.21729206232E+02 -0.28752142938E+02  0.50528878465E+02  0.30000056582E+02 0.  0.
        -12    1    1    2    0    0  0.18823390688E+02 -0.21729206232E+02  0.28752142938E+02  0.40659121535E+02  0.00000000000E+00 0.  1.
         11    1    3    3    0    0  0.26231851408E+01  0.14992989928E+02 -0.27350702010E+01  0.15464522513E+02  0.51100000000E-03 0. -1.
        -11    1    3    3    0    0 -0.74463703985E+01 -0.98325049720E+00 -0.78545785707E+01  0.10867824917E+02  0.51100000000E-03 0.  1.
         12    1    3    3    0    0 -0.14000205430E+02  0.77194668007E+01 -0.18162494166E+02  0.24196531035E+02  0.00000000000E+00 0. -1.
</event>
<event>
 7    1  0.9978258E-013  0.5052886E+02  0.7816164E-02  0.1300439E+00
        -11   -1    0    0    0    0  0.00000000000E+00  0.00000000000E+00  0.45593999997E+02  0.45594000000E+02  0.51100000000E-03 0.  1.
         11   -1    0    0    0    0 -0.00000000000E+00 -0.00000000000E+00 -0.45593999997E+02  0.45594000000E+02  0.51100000000E-03 0. -1.
    9900012    2    1    2    0    0 -0.39002463015E+02 -0.10075898059E+02  0.55181478515E+01  0.50528858363E+02  0.29999995481E+02 0.  0.
        -12    1    1    2    0    0  0.39002463015E+02  0.10075898059E+02 -0.55181478515E+01  0.40659141637E+02  0.00000000000E+00 0.  1.
         11    1    3    3    0    0 -0.17937012344E+02  0.36855686538E+01  0.10767234321E+01  0.18343368331E+02  0.51100000000E-03 0. -1.
        -11    1    3    3    0    0 -0.92434852966E+00 -0.48213701448E+01  0.84645835442E+01  0.97851522786E+01  0.51100000000E-03 0.  1.
        -12    1    3    3    0    0 -0.20141102142E+02 -0.89400965680E+01 -0.40231591248E+01  0.22400337754E+02  0.00000000000E+00 0.  1.
</event>
<event>
 7    1  0.9978258E-013  0.5052878E+02  0.7816164E-02  0.1300439E+00
        -11   -1    0    0    0    0  0.00000000000E+00  0.00000000000E+00  0.45593999997E+02  0.45594000000E+02  0.51100000000E-03 0.  1.
         11   -1    0    0    0    0 -0.00000000000E+00 -0.00000000000E+00 -0.45593999997E+02  0.45594000000E+02  0.51100000000E-03 0. -1.
    9900012    2    1    2    0    0  0.42200109831E+01 -0.40334554875E+02  0.29133444430E+01  0.50528777362E+02  0.29999749268E+02 0.  0.
        -12    1    1    2    0    0 -0.42200109831E+01  0.40334554875E+02 -0.29133444430E+01  0.40659222638E+02  0.00000000000E+00 0.  1.
         11    1    3    3    0    0  0.12265968372E+02 -0.30341486360E+02 -0.44077566025E+01  0.33022539169E+02  0.51100000000E-03 0. -1.
        -11    1    3    3    0    0  0.17106841289E+01 -0.71419443076E-01  0.19383982762E+01  0.25862963992E+01  0.51100000000E-03 0.  1.
         12    1    3    3    0    0 -0.97566415183E+01 -0.99216490726E+01  0.53827027693E+01  0.14919941794E+02  0.00000000000E+00 0. -1.
</event>
<event>
 7    1  0.9978258E-013  0.5052887E+02  0.7816164E-02  0.1300439E+00
        -11   -1    0    0    0    0  0.00000000000E+00  0.00000000000E+00  0.45593999997E+02  0.45594000000E+02  0.51100000000E-03 0.  1.
         11   -1    0    0    0    0 -0.00000000000E+00 -0.00000000000E+00 -0.45593999997E+02  0.45594000000E+02  0.51100000000E-03 0. -1.
    9900012    2    1    2    0    0 -0.36616732147E+02 -0.73336382115E+01 -0.16080976255E+02  0.50528866711E+02  0.30000020854E+02 0.  0.
        -12    1    1    2    0    0  0.36616732147E+02  0.73336382115E+01  0.16080976255E+02  0.40659133289E+02  0.00000000000E+00 0.  1.
         11    1    3    3    0    0 -0.18702180465E+01 -0.96257197390E+01 -0.60674564023E+01  0.11531098104E+02  0.51100000000E-03 0. -1.
        -11    1    3    3    0    0 -0.22546610087E+02  0.35097120888E+01  0.53435052150E+00  0.22824400017E+02  0.51100000000E-03 0.  1.
         12    1    3    3    0    0 -0.12199904013E+02 -0.12176305614E+01 -0.10547870374E+02  0.16173368590E+02  0.00000000000E+00 0. -1.
</event>
<event>
 7    1  0.9978258E-013  0.5052886E+02  0.7816164E-02  0.1300439E+00
        -11   -1    0    0    0    0  0.00000000000E+00  0.00000000000E+00  0.45593999997E+02  0.45594000000E+02  0.51100000000E-03 0. -1.
         11   -1    0    0    0    0 -0.00000000000E+00 -0.00000000000E+00 -0.45593999997E+02  0.45594000000E+02  0.51100000000E-03 0.  1.
    9900012    2    1    2    0    0  0.19285097134E+02 -0.30934109410E+02  0.18009210982E+02  0.50528858633E+02  0.29999996302E+02 0.  0.
        -12    1    1    2    0    0 -0.19285097134E+02  0.30934109410E+02 -0.18009210982E+02  0.40659141367E+02  0.00000000000E+00 0.  1.
         11    1    3    3    0    0  0.84455964333E+01 -0.16962070578E+02 -0.17957037167E+01  0.19033246951E+02  0.51100000000E-03 0.  1.
        -11    1    3    3    0    0  0.47253782913E+01  0.32794504607E+01  0.74542756016E+01  0.94154245962E+01  0.51100000000E-03 0. -1.
         12    1    3    3    0    0  0.61141224099E+01 -0.17251489293E+02  0.12350639097E+02  0.22080187086E+02  0.00000000000E+00 0. -1.
</event>
<event>
 7    1  0.9978258E-013  0.5052886E+02  0.7816164E-02  0.1300439E+00
        -11   -1    0    0    0    0  0.00000000000E+00  0.00000000000E+00  0.45593999997E+02  0.45594000000E+02  0.51100000000E-03 0.  1.
         11   -1    0    0    0    0 -0.00000000000E+00 -0.00000000000E+00 -0.45593999997E+02  0.45594000000E+02  0.51100000000E-03 0. -1.
    9900012    2    1    2    0    0  0.14129943299E+02 -0.11307887495E+02 -0.36409369841E+02  0.50528857984E+02  0.29999994328E+02 0.  0.
        -12    1    1    2    0    0 -0.14129943299E+02  0.11307887495E+02  0.36409369841E+02  0.40659142016E+02  0.00000000000E+00 0.  1.
         11    1    3    3    0    0  0.79305079337E+01 -0.66048444414E+01 -0.15309851155E+02  0.18463706801E+02  0.51100000000E-03 0. -1.
        -11    1    3    3    0    0 -0.33007786851E+01  0.56071085507E+01  0.26437394408E+00  0.65118891322E+01  0.51100000000E-03 0.  1.
        -12    1    3    3    0    0  0.95002140508E+01 -0.10310151604E+02 -0.21363892630E+02  0.25553262051E+02  0.00000000000E+00 0.  1.
</event>
<event>
 7    1  0.9978258E-013  0.5052885E+02  0.7816164E-02  0.1300439E+00
        -11   -1    0    0    0    0  0.00000000000E+00  0.00000000000E+00  0.45593999997E+02  0.45594000000E+02  0.51100000000E-03 0. -1.
         11   -1    0    0    0    0 -0.00000000000E+00 -0.00000000000E+00 -0.45593999997E+02  0.45594000000E+02  0.51100000000E-03 0.  1.
    9900012    2    1    2    0    0  0.37724573810E+02 -0.11060101332E+02 -0.10377718459E+02  0.50528851570E+02  0.29999974832E+02 0.  0.
        -12    1    1    2    0    0 -0.37724573810E+02  0.11060101332E+02  0.10377718459E+02  0.40659148430E+02  0.00000000000E+00 0.  1.
         11    1    3    3    0    0  0.44501227440E+01 -0.15816171763E+01 -0.11327807645E+01  0.48567785466E+01  0.51100000000E-03 0. -1.
        -11    1    3    3    0    0  0.27135448931E+02 -0.18272244656E+02 -0.20918735451E+01  0.32780839658E+02  0.51100000000E-03 0.  1.
        -12    1    3    3    0    0  0.61390021352E+01  0.87937605009E+01 -0.71530641492E+01  0.12891233366E+02  0.00000000000E+00 0.  1.
</event>
<event>
 7    1  0.9978258E-013  0.5052882E+02  0.7816164E-02  0.1300439E+00
        -11   -1    0    0    0    0  0.00000000000E+00  0.00000000000E+00  0.45593999997E+02  0.45594000000E+02  0.51100000000E-03 0. -1.
         11   -1    0    0    0    0 -0.00000000000E+00 -0.00000000000E+00 -0.45593999997E+02  0.45594000000E+02  0.51100000000E-03 0.  1.
    9900012    2    1    2    0    0  0.28845125192E+01 -0.28850956745E+02  0.28503879858E+02  0.50528815497E+02  0.29999865183E+02 0.  0.
        -12    1    1    2    0    0 -0.28845125192E+01  0.28850956745E+02 -0.28503879858E+02  0.40659184503E+02  0.00000000000E+00 0.  1.
         11    1    3    3    0    0  0.54299238681E+01 -0.67122495365E+01  0.16568321150E+02  0.18682816518E+02  0.51100000000E-03 0. -1.
        -11    1    3    3    0    0  0.16046996608E+01 -0.19625074467E+02  0.80858807792E+00  0.19707166813E+02  0.51100000000E-03 0.  1.
        -12    1    3    3    0    0 -0.41501110097E+01 -0.25136327405E+01  0.11126970630E+02  0.12138832166E+02  0.00000000000E+00 0.  1.
</event>
<event>
 7    1  0.9978258E-013  0.5052886E+02  0.7816164E-02  0.1300439E+00
        -11   -1    0    0    0    0  0.00000000000E+00  0.00000000000E+00  0.45593999997E+02  0.45594000000E+02  0.51100000000E-03 0. -1.
         11   -1    0    0    0    0 -0.00000000000E+00 -0.00000000000E+00 -0.45593999997E+02  0.45594000000E+02  0.51100000000E-03 0.  1.
    9900012    2    1    2    0    0 -0.38995321000E+02 -0.11473138540E+02 -0.94763885615E+00  0.50528856044E+02  0.29999988432E+02 0.  0.
        -12    1    1    2    0    0  0.38995321000E+02  0.11473138540E+02  0.94763885615E+00  0.40659143956E+02  0.00000000000E+00 0.  1.
         11    1    3    3    0    0 -0.28299461532E+02 -0.69913152515E+01  0.72898744532E+01  0.30047966350E+02  0.51100000000E-03 0. -1.
        -11    1    3    3    0    0 -0.55883287822E+01 -0.94339497152E+01 -0.75938235307E+01  0.13337727763E+02  0.51100000000E-03 0.  1.
         12    1    3    3    0    0 -0.51075306849E+01  0.49521264267E+01 -0.64368977859E+00  0.71431619311E+01  0.00000000000E+00 0. -1.
</event>
<event>
 7    1  0.9978258E-013  0.5052886E+02  0.7816164E-02  0.1300439E+00
        -11   -1    0    0    0    0  0.00000000000E+00  0.00000000000E+00  0.45593999997E+02  0.45594000000E+02  0.51100000000E-03 0. -1.
         11   -1    0    0    0    0 -0.00000000000E+00 -0.00000000000E+00 -0.45593999997E+02  0.45594000000E+02  0.51100000000E-03 0.  1.
    9900012    2    1    2    0    0 -0.72886411613E+01  0.19429466239E+02  0.34964801320E+02  0.50528858596E+02  0.29999996190E+02 0.  0.
        -12    1    1    2    0    0  0.72886411613E+01 -0.19429466239E+02 -0.34964801320E+02  0.40659141404E+02  0.00000000000E+00 0.  1.
         11    1    3    3    0    0 -0.90766654245E+01  0.44323709604E+01  0.32559176940E+02  0.34090053840E+02  0.51100000000E-03 0. -1.
        -11    1    3    3    0    0  0.24143216164E+01  0.77464857226E+01 -0.13878796589E+01  0.82318406281E+01  0.51100000000E-03 0.  1.
         12    1    3    3    0    0 -0.62629735328E+00  0.72506095556E+01  0.37935040391E+01  0.82069641279E+01  0.00000000000E+00 0. -1.
</event>
<event>
 7    1  0.9978258E-013  0.5052886E+02  0.7816164E-02  0.1300439E+00
        -11   -1    0    0    0    0  0.00000000000E+00  0.00000000000E+00  0.45593999997E+02  0.45594000000E+02  0.51100000000E-03 0. -1.
         11   -1    0    0    0    0 -0.00000000000E+00 -0.00000000000E+00 -0.45593999997E+02  0.45594000000E+02  0.51100000000E-03 0.  1.
    9900012    2    1    2    0    0  0.60397265979E+00 -0.18914384830E+02  0.35986755805E+02  0.50528864128E+02  0.30000013004E+02 0.  0.
        -12    1    1    2    0    0 -0.60397265979E+00  0.18914384830E+02 -0.35986755805E+02  0.40659135872E+02  0.00000000000E+00 0.  1.
         11    1    3    3    0    0 -0.71881904280E+01 -0.19612478450E+02  0.11791156387E+02  0.23986470390E+02  0.51100000000E-03 0. -1.
        -11    1    3    3    0    0  0.90194297215E+01 -0.67609170772E+00  0.19392479309E+02  0.21398024827E+02  0.51100000000E-03 0.  1.
         12    1    3    3    0    0 -0.12272666337E+01  0.13741853278E+01  0.48031201095E+01  0.51443689110E+01  0.00000000000E+00 0. -1.
</event>
<event>
 7    1  0.9978258E-013  0.5052885E+02  0.7816164E-02  0.1300439E+00
        -11   -1    0    0    0    0  0.00000000000E+00  0.00000000000E+00  0.45593999997E+02  0.45594000000E+02  0.51100000000E-03 0.  1.
         11   -1    0    0    0    0 -0.00000000000E+00 -0.00000000000E+00 -0.45593999997E+02  0.45594000000E+02  0.51100000000E-03 0. -1.
    9900012    2    1    2    0    0 -0.10606030123E+02  0.42307805807E+01 -0.39022798831E+02  0.50528853330E+02  0.29999980182E+02 0.  0.
        -12    1    1    2    0    0  0.10606030123E+02 -0.42307805807E+01  0.39022798831E+02  0.40659146670E+02  0.00000000000E+00 0.  1.
         11    1    3    3    0    0 -0.14579687626E+02  0.44777336805E+01 -0.66070990085E+01  0.16621406311E+02  0.51100000000E-03 0.  1.
        -11    1    3    3    0    0 -0.19327155184E+01  0.16403853634E+01 -0.18499235910E+02  0.18672117795E+02  0.51100000000E-03 0. -1.
         12    1    3    3    0    0  0.59063730211E+01 -0.18873384633E+01 -0.13916463913E+02  0.15235329224E+02  0.00000000000E+00 0. -1.
</event>
<event>
 7    1  0.9978258E-013  0.5052885E+02  0.7816164E-02  0.1300439E+00
        -11   -1    0    0    0    0  0.00000000000E+00  0.00000000000E+00  0.45593999997E+02  0.45594000000E+02  0.51100000000E-03 0. -1.
         11   -1    0    0    0    0 -0.00000000000E+00 -0.00000000000E+00 -0.45593999997E+02  0.45594000000E+02  0.51100000000E-03 0.  1.
    9900012    2    1    2    0    0 -0.10355756133E+02  0.34610215130E+02  0.18656301987E+02  0.50528852441E+02  0.29999977480E+02 0.  0.
        -12    1    1    2    0    0  0.10355756133E+02 -0.34610215130E+02 -0.18656301987E+02  0.40659147559E+02  0.00000000000E+00 0.  1.
         11    1    3    3    0    0  0.12275274447E+01  0.11882650132E+02  0.17412185917E+02  0.21116070099E+02  0.51100000000E-03 0. -1.
        -11    1    3    3    0    0 -0.12243212711E+02  0.23051500484E+02  0.41379057329E+01  0.26427073167E+02  0.51100000000E-03 0.  1.
        -12    1    3    3    0    0  0.65992913351E+00 -0.32393548682E+00 -0.28937896630E+01  0.29857091745E+01  0.00000000000E+00 0.  1.
</event>
<event>
 7    1  0.9978258E-013  0.5052889E+02  0.7816164E-02  0.1300439E+00
        -11   -1    0    0    0    0  0.00000000000E+00  0.00000000000E+00  0.45593999997E+02  0.45594000000E+02  0.51100000000E-03 0.  1.
         11   -1    0    0    0    0 -0.00000000000E+00 -0.00000000000E+00 -0.45593999997E+02  0.45594000000E+02  0.51100000000E-03 0. -1.
    9900012    2    1    2    0    0 -0.22671412502E+02 -0.25386151107E+02 -0.22242152588E+02  0.50528893214E+02  0.30000101413E+02 0.  0.
        -12    1    1    2    0    0  0.22671412502E+02  0.25386151107E+02  0.22242152588E+02  0.40659106786E+02  0.00000000000E+00 0.  1.
         11    1    3    3    0    0  0.23711706525E+01  0.76434546590E+00 -0.88805206545E+01  0.92233573936E+01  0.51100000000E-03 0. -1.
        -11    1    3    3    0    0 -0.19307754225E+02 -0.14480766146E+02 -0.23177591174E+01  0.24245700010E+02  0.51100000000E-03 0.  1.
         12    1    3    3    0    0 -0.57348289290E+01 -0.11669730427E+02 -0.11043872816E+02  0.17059835810E+02  0.00000000000E+00 0. -1.
</event>
<event>
 7    1  0.9978258E-013  0.5052886E+02  0.7816164E-02  0.1300439E+00
        -11   -1    0    0    0    0  0.00000000000E+00  0.00000000000E+00  0.45593999997E+02  0.45594000000E+02  0.51100000000E-03 0. -1.
         11   -1    0    0    0    0 -0.00000000000E+00 -0.00000000000E+00 -0.45593999997E+02  0.45594000000E+02  0.51100000000E-03 0.  1.
    9900012    2    1    2    0    0  0.87945497160E+01  0.59153317542E+01  0.39253414106E+02  0.50528858673E+02  0.29999996424E+02 0.  0.
        -12    1    1    2    0    0 -0.87945497160E+01 -0.59153317542E+01 -0.39253414106E+02  0.40659141327E+02  0.00000000000E+00 0.  1.
         11    1    3    3    0    0 -0.27826672838E+01  0.17307007789E+01  0.33148716355E+01  0.46612162167E+01  0.51100000000E-03 0. -1.
        -11    1    3    3    0    0  0.19165619002E+02 -0.53905151438E-01  0.19920298249E+02  0.27643121027E+02  0.51100000000E-03 0.  1.
        -12    1    3    3    0    0 -0.75884020020E+01  0.42385361267E+01  0.16018244221E+02  0.18224521430E+02  0.00000000000E+00 0.  1.
</event>
<event>
 7    1  0.9978258E-013  0.5052887E+02  0.7816164E-02  0.1300439E+00
        -11   -1    0    0    0    0  0.00000000000E+00  0.00000000000E+00  0.45593999997E+02  0.45594000000E+02  0.51100000000E-03 0.  1.
         11   -1    0    0    0    0 -0.00000000000E+00 -0.00000000000E+00 -0.45593999997E+02  0.45594000000E+02  0.51100000000E-03 0. -1.
    9900012    2    1    2    0    0 -0.21774889633E+02  0.57329722541E+01 -0.33854870652E+02  0.50528867493E+02  0.30000023231E+02 0.  0.
        -12    1    1    2    0    0  0.21774889633E+02 -0.57329722541E+01  0.33854870652E+02  0.40659132507E+02  0.00000000000E+00 0.  1.
         11    1    3    3    0    0 -0.18038243513E+02 -0.12547427836E-01 -0.22665667944E+02  0.28967410828E+02  0.51100000000E-03 0. -1.
        -11    1    3    3    0    0  0.66427469380E+01  0.32497203560E+01 -0.67066545980E+01  0.99832853026E+01  0.51100000000E-03 0.  1.
        -12    1    3    3    0    0 -0.10379393058E+02  0.24957993259E+01 -0.44825481096E+01  0.11578171362E+02  0.00000000000E+00 0.  1.
</event>
<event>
 7    1  0.9978258E-013  0.5052885E+02  0.7816164E-02  0.1300439E+00
        -11   -1    0    0    0    0  0.00000000000E+00  0.00000000000E+00  0.45593999997E+02  0.45594000000E+02  0.51100000000E-03 0. -1.
         11   -1    0    0    0    0 -0.00000000000E+00 -0.00000000000E+00 -0.45593999997E+02  0.45594000000E+02  0.51100000000E-03 0.  1.
    9900012    2    1    2    0    0 -0.35763743000E+02 -0.55751913275E+00  0.19334170198E+02  0.50528852466E+02  0.29999977554E+02 0.  0.
        -12    1    1    2    0    0  0.35763743000E+02  0.55751913275E+00 -0.19334170198E+02  0.40659147534E+02  0.00000000000E+00 0.  1.
         11    1    3    3    0    0 -0.56350275917E+01  0.72826909988E+01 -0.45803899504E+01  0.10284507597E+02  0.51100000000E-03 0. -1.
        -11    1    3    3    0    0 -0.12029152366E+02 -0.64266231889E+01  0.14058410505E+02  0.19586753137E+02  0.51100000000E-03 0.  1.
         12    1    3    3    0    0 -0.18099563043E+02 -0.14135869427E+01  0.98561496432E+01  0.20657591732E+02  0.00000000000E+00 0. -1.
</event>
<event>
 7    1  0.9978258E-013  0.5052886E+02  0.7816164E-02  0.1300439E+00
        -11   -1    0    0    0    0  0.00000000000E+00  0.00000000000E+00  0.45593999997E+02  0.45594000000E+02  0.51100000000E-03 0.  1.
         11   -1    0    0    0    0 -0.00000000000E+00 -0.00000000000E+00 -0.45593999997E+02  0.45594000000E+02  0.51100000000E-03 0. -1.
    9900012    2    1    2    0    0 -0.36350926516E+02  0.13206552064E+02 -0.12544436163E+02  0.50528858904E+02  0.29999997125E+02 0.  0.
        -12    1    1    2    0    0  0.36350926516E+02 -0.13206552064E+02  0.12544436163E+02  0.40659141096E+02  0.00000000000E+00 0.  1.
         11    1    3    3    0    0 -0.32219102676E+02  0.48951944507E+01 -0.63672534221E+01  0.33205051157E+02  0.51100000000E-03 0. -1.
        -11    1    3    3    0    0 -0.20215405979E+01  0.77656534731E+01  0.24780135043E+01  0.83983659983E+01  0.51100000000E-03 0.  1.
        -12    1    3    3    0    0 -0.21102832424E+01  0.54570413986E+00 -0.86551962450E+01  0.89254417488E+01  0.00000000000E+00 0.  1.
</event>
<event>
 7    1  0.9978258E-013  0.5052886E+02  0.7816164E-02  0.1300439E+00
        -11   -1    0    0    0    0  0.00000000000E+00  0.00000000000E+00  0.45593999997E+02  0.45594000000E+02  0.51100000000E-03 0. -1.
         11   -1    0    0    0    0 -0.00000000000E+00 -0.00000000000E+00 -0.45593999997E+02  0.45594000000E+02  0.51100000000E-03 0.  1.
    9900012    2    1    2    0    0 -0.29896092587E+02 -0.26260623236E+02  0.83527976633E+01  0.50528856951E+02  0.29999991187E+02 0.  0.
        -12    1    1    2    0    0  0.29896092587E+02  0.26260623236E+02 -0.83527976633E+01  0.40659143049E+02  0.00000000000E+00 0.  1.
         11    1    3    3    0    0 -0.24066873991E+02 -0.29624796522E+02  0.10336308320E+02  0.39543422495E+02  0.51100000000E-03 0. -1.
        -11    1    3    3    0    0 -0.31595619846E+01 -0.10658423599E+01 -0.41962150061E+01  0.53597642215E+01  0.51100000000E-03 0.  1.
         12    1    3    3    0    0 -0.26696566108E+01  0.44300156459E+01  0.22127043496E+01  0.56256702339E+01  0.00000000000E+00 0. -1.
</event>
<event>
 7    1  0.9978258E-013  0.5052887E+02  0.7816164E-02  0.1300439E+00
        -11   -1    0    0    0    0  0.00000000000E+00  0.00000000000E+00  0.45593999997E+02  0.45594000000E+02  0.51100000000E-03 0.  1.
         11   -1    0    0    0    0 -0.00000000000E+00 -0.00000000000E+00 -0.45593999997E+02  0.45594000000E+02  0.51100000000E-03 0. -1.
    9900012    2    1    2    0    0  0.35697443995E+02 -0.20667484689E+01 -0.19354226723E+02  0.50528867581E+02  0.30000023499E+02 0.  0.
        -12    1    1    2    0    0 -0.35697443995E+02  0.20667484689E+01  0.19354226723E+02  0.40659132419E+02  0.00000000000E+00 0.  1.
         11    1    3    3    0    0  0.18195858557E+01 -0.20655593451E+01 -0.55792100599E+01  0.62213353267E+01  0.51100000000E-03 0. -1.
        -11    1    3    3    0    0  0.35307841201E+02  0.18158515344E+01 -0.17862979388E+02  0.39610945456E+02  0.51100000000E-03 0.  1.
        -12    1    3    3    0    0 -0.14299830612E+01 -0.18170406582E+01  0.40879627251E+01  0.46965867979E+01  0.00000000000E+00 0.  1.
</event>
<event>
 7    1  0.9978258E-013  0.5052887E+02  0.7816164E-02  0.1300439E+00
        -11   -1    0    0    0    0  0.00000000000E+00  0.00000000000E+00  0.45593999997E+02  0.45594000000E+02  0.51100000000E-03 0. -1.
         11   -1    0    0    0    0 -0.00000000000E+00 -0.00000000000E+00 -0.45593999997E+02  0.45594000000E+02  0.51100000000E-03 0.  1.
    9900012    2    1    2    0    0 -0.33387849959E+02 -0.12757627315E+02  0.19381924983E+02  0.50528873157E+02  0.30000040448E+02 0.  0.
        -12    1    1    2    0    0  0.33387849959E+02  0.12757627315E+02 -0.19381924983E+02  0.40659126843E+02  0.00000000000E+00 0.  1.
         11    1    3    3    0    0 -0.20148465768E+02 -0.19288898239E+02  0.74115105180E+01  0.28860920922E+02  0.51100000000E-03 0. -1.
        -11    1    3    3    0    0  0.13459003858E+01  0.35110271162E+00  0.33642282941E+01  0.36404331114E+01  0.51100000000E-03 0.  1.
         12    1    3    3    0    0 -0.14585284578E+02  0.61801682125E+01  0.86061861707E+01  0.18027519124E+02  0.00000000000E+00 0. -1.
</event>
<event>
 7    1  0.9978258E-013  0.5052887E+02  0.7816164E-02  0.1300439E+00
        -11   -1    0    0    0    0  0.00000000000E+00  0.00000000000E+00  0.45593999997E+02  0.45594000000E+02  0.51100000000E-03 0.  1.
         11   -1    0    0    0    0 -0.00000000000E+00 -0.00000000000E+00 -0.45593999997E+02  0.45594000000E+02  0.51100000000E-03 0. -1.
    9900012    2    1    2    0    0 -0.31366013766E+02  0.20392302330E+02 -0.15921444277E+02  0.50528865703E+02  0.30000017791E+02 0.  0.
        -12    1    1    2    0    0  0.31366013766E+02 -0.20392302330E+02  0.15921444277E+02  0.40659134297E+02  0.00000000000E+00 0.  1.
         11    1    3    3    0    0  0.20988566673E+01  0.40570045283E+01 -0.55520738470E+01  0.71895764351E+01  0.51100000000E-03 0. -1.
        -11    1    3    3    0    0 -0.23631860324E+02  0.46196108947E+01  0.12796516339E+01  0.24113132019E+02  0.51100000000E-03 0.  1.
        -12    1    3    3    0    0 -0.98330101091E+01  0.11715686907E+02 -0.11649022064E+02  0.19226157249E+02  0.00000000000E+00 0.  1.
</event>
<event>
 7    1  0.9978258E-013  0.5052886E+02  0.7816164E-02  0.1300439E+00
        -11   -1    0    0    0    0  0.00000000000E+00  0.00000000000E+00  0.45593999997E+02  0.45594000000E+02  0.51100000000E-03 0.  1.
         11   -1    0    0    0    0 -0.00000000000E+00 -0.00000000000E+00 -0.45593999997E+02  0.45594000000E+02  0.51100000000E-03 0. -1.
    9900012    2    1    2    0    0  0.41677845900E+01 -0.27518568814E+02 -0.29639903872E+02  0.50528856385E+02  0.29999989468E+02 0.  0.
        -12    1    1    2    0    0 -0.41677845900E+01  0.27518568814E+02  0.29639903872E+02  0.40659143615E+02  0.00000000000E+00 0.  1.
         11    1    3    3    0    0  0.29408159853E+00 -0.20079288498E+02 -0.16424043918E+02  0.25942504301E+02  0.51100000000E-03 0. -1.
        -11    1    3    3    0    0 -0.15855154158E+01 -0.24596136855E+01  0.45132977671E+01  0.53789790491E+01  0.51100000000E-03 0.  1.
         12    1    3    3    0    0  0.54592184073E+01 -0.49796666308E+01 -0.17729157721E+02  0.19207373034E+02  0.00000000000E+00 0. -1.
</event>
<event>
 7    1  0.9978258E-013  0.5052887E+02  0.7816164E-02  0.1300439E+00
        -11   -1    0    0    0    0  0.00000000000E+00  0.00000000000E+00  0.45593999997E+02  0.45594000000E+02  0.51100000000E-03 0. -1.
         11   -1    0    0    0    0 -0.00000000000E+00 -0.00000000000E+00 -0.45593999997E+02  0.45594000000E+02  0.51100000000E-03 0.  1.
    9900012    2    1    2    0    0 -0.36817571649E+02 -0.45384860270E+01 -0.16644330934E+02  0.50528865851E+02  0.30000018240E+02 0.  0.
        -12    1    1    2    0    0  0.36817571649E+02  0.45384860270E+01  0.16644330934E+02  0.40659134149E+02  0.00000000000E+00 0.  1.
         11    1    3    3    0    0  0.35735615631E+00 -0.45031197248E+01 -0.93844669485E+01  0.10415085734E+02  0.51100000000E-03 0.  1.
        -11    1    3    3    0    0 -0.18304368855E+02 -0.65834063638E+01 -0.28719927878E+01  0.19663150850E+02  0.51100000000E-03 0. -1.
         12    1    3    3    0    0 -0.18870558950E+02  0.65480400616E+01 -0.43878711980E+01  0.20450629267E+02  0.00000000000E+00 0. -1.
</event>
<event>
 7    1  0.9978258E-013  0.5052884E+02  0.7816164E-02  0.1300439E+00
        -11   -1    0    0    0    0  0.00000000000E+00  0.00000000000E+00  0.45593999997E+02  0.45594000000E+02  0.51100000000E-03 0.  1.
         11   -1    0    0    0    0 -0.00000000000E+00 -0.00000000000E+00 -0.45593999997E+02  0.45594000000E+02  0.51100000000E-03 0. -1.
    9900012    2    1    2    0    0 -0.27323094841E+02  0.18673268818E+02 -0.23620439537E+02  0.50528835670E+02  0.29999926503E+02 0.  0.
        -12    1    1    2    0    0  0.27323094841E+02 -0.18673268818E+02  0.23620439537E+02  0.40659164330E+02  0.00000000000E+00 0.  1.
         11    1    3    3    0    0 -0.11159816012E+02 -0.46197743318E+01 -0.16740063230E+02  0.20642517422E+02  0.51100000000E-03 0. -1.
        -11    1    3    3    0    0 -0.35725921526E+01  0.92037252276E+01 -0.44709834005E+01  0.10837973315E+02  0.51100000000E-03 0.  1.
         12    1    3    3    0    0 -0.12590686677E+02  0.14089317922E+02 -0.24093929062E+01  0.19048344933E+02  0.00000000000E+00 0. -1.
</event>
<event>
 7    1  0.9978258E-013  0.5052886E+02  0.7816164E-02  0.1300439E+00
        -11   -1    0    0    0    0  0.00000000000E+00  0.00000000000E+00  0.45593999997E+02  0.45594000000E+02  0.51100000000E-03 0.  1.
         11   -1    0    0    0    0 -0.00000000000E+00 -0.00000000000E+00 -0.45593999997E+02  0.45594000000E+02  0.51100000000E-03 0. -1.
    9900012    2    1    2    0    0 -0.35694666104E+02 -0.98445786468E+00 -0.19444469093E+02  0.50528859282E+02  0.29999998275E+02 0.  0.
        -12    1    1    2    0    0  0.35694666104E+02  0.98445786468E+00  0.19444469093E+02  0.40659140718E+02  0.00000000000E+00 0.  1.
         11    1    3    3    0    0 -0.19980110230E+02  0.66542682102E+01 -0.10797599534E+02  0.23665845562E+02  0.51100000000E-03 0. -1.
        -11    1    3    3    0    0  0.15717182418E+01 -0.79903408130E+01 -0.27756994905E+01  0.86035081486E+01  0.51100000000E-03 0.  1.
        -12    1    3    3    0    0 -0.17286274116E+02  0.35161473815E+00 -0.58711700688E+01  0.18259505572E+02  0.00000000000E+00 0.  1.
</event>
<event>
 7    1  0.9978258E-013  0.5052885E+02  0.7816164E-02  0.1300439E+00
        -11   -1    0    0    0    0  0.00000000000E+00  0.00000000000E+00  0.45593999997E+02  0.45594000000E+02  0.51100000000E-03 0.  1.
         11   -1    0    0    0    0 -0.00000000000E+00 -0.00000000000E+00 -0.45593999997E+02  0.45594000000E+02  0.51100000000E-03 0. -1.
    9900012    2    1    2    0    0  0.36527118118E+02  0.13903053812E+02 -0.11208974443E+02  0.50528851320E+02  0.29999974072E+02 0.  0.
        -12    1    1    2    0    0 -0.36527118118E+02 -0.13903053812E+02  0.11208974443E+02  0.40659148680E+02  0.00000000000E+00 0.  1.
         11    1    3    3    0    0  0.38667616534E+02  0.74888619400E+01 -0.26202621479E+01  0.39473198446E+02  0.51100000000E-03 0. -1.
        -11    1    3    3    0    0 -0.17722483641E+01  0.60677907735E+01 -0.84070537527E+01  0.10518436300E+02  0.51100000000E-03 0.  1.
         12    1    3    3    0    0 -0.36825005167E+00  0.34640109810E+00 -0.18165854258E+00  0.53721657403E+00  0.00000000000E+00 0. -1.
</event>
<event>
 7    1  0.9978258E-013  0.5052885E+02  0.7816164E-02  0.1300439E+00
        -11   -1    0    0    0    0  0.00000000000E+00  0.00000000000E+00  0.45593999997E+02  0.45594000000E+02  0.51100000000E-03 0.  1.
         11   -1    0    0    0    0 -0.00000000000E+00 -0.00000000000E+00 -0.45593999997E+02  0.45594000000E+02  0.51100000000E-03 0. -1.
    9900012    2    1    2    0    0 -0.94238955012E+01  0.22360622943E+02  0.32624521428E+02  0.50528847731E+02  0.29999963163E+02 0.  0.
        -12    1    1    2    0    0  0.94238955012E+01 -0.22360622943E+02 -0.32624521428E+02  0.40659152269E+02  0.00000000000E+00 0.  1.
         11    1    3    3    0    0  0.64006753353E+01  0.50543113840E+01  0.71195408249E+01  0.10826013585E+02  0.51100000000E-03 0. -1.
        -11    1    3    3    0    0 -0.11333970580E+02  0.10242340108E+02  0.28352946213E+01  0.15537159195E+02  0.51100000000E-03 0.  1.
        -12    1    3    3    0    0 -0.44906002562E+01  0.70639714516E+01  0.22669685982E+02  0.24165674951E+02  0.00000000000E+00 0.  1.
</event>
<event>
 7    1  0.9978258E-013  0.5052886E+02  0.7816164E-02  0.1300439E+00
        -11   -1    0    0    0    0  0.00000000000E+00  0.00000000000E+00  0.45593999997E+02  0.45594000000E+02  0.51100000000E-03 0. -1.
         11   -1    0    0    0    0 -0.00000000000E+00 -0.00000000000E+00 -0.45593999997E+02  0.45594000000E+02  0.51100000000E-03 0.  1.
    9900012    2    1    2    0    0  0.14760119396E+02 -0.26414841287E+02  0.27158071094E+02  0.50528858465E+02  0.29999995791E+02 0.  0.
        -12    1    1    2    0    0 -0.14760119396E+02  0.26414841287E+02 -0.27158071094E+02  0.40659141535E+02  0.00000000000E+00 0.  1.
         11    1    3    3    0    0  0.10110224877E+02 -0.25703793187E+02  0.69200303816E+01  0.28474347262E+02  0.51100000000E-03 0. -1.
        -11    1    3    3    0    0  0.24608712381E+01  0.25087987189E+01  0.15637665615E+02  0.16027680569E+02  0.51100000000E-03 0.  1.
        -12    1    3    3    0    0  0.21890232808E+01 -0.32198468192E+01  0.46003750974E+01  0.60268306347E+01  0.00000000000E+00 0.  1.
</event>
<event>
 7    1  0.9978258E-013  0.5052886E+02  0.7816164E-02  0.1300439E+00
        -11   -1    0    0    0    0  0.00000000000E+00  0.00000000000E+00  0.45593999997E+02  0.45594000000E+02  0.51100000000E-03 0. -1.
         11   -1    0    0    0    0 -0.00000000000E+00 -0.00000000000E+00 -0.45593999997E+02  0.45594000000E+02  0.51100000000E-03 0.  1.
    9900012    2    1    2    0    0  0.84694703809E+01 -0.85482656336E+01  0.38837621920E+02  0.50528860188E+02  0.30000001027E+02 0.  0.
        -12    1    1    2    0    0 -0.84694703809E+01  0.85482656336E+01 -0.38837621920E+02  0.40659139812E+02  0.00000000000E+00 0.  1.
         11    1    3    3    0    0  0.20825568740E+01  0.10363666353E+02  0.12644140372E+02  0.16480804271E+02  0.51100000000E-03 0. -1.
        -11    1    3    3    0    0  0.12206966723E+01 -0.45321556883E+01  0.13536275676E+01  0.48849609417E+01  0.51100000000E-03 0.  1.
         12    1    3    3    0    0  0.51662168346E+01 -0.14379776298E+02  0.24839853980E+02  0.29163094975E+02  0.00000000000E+00 0. -1.
</event>
<event>
 7    1  0.9978258E-013  0.5052885E+02  0.7816164E-02  0.1300439E+00
        -11   -1    0    0    0    0  0.00000000000E+00  0.00000000000E+00  0.45593999997E+02  0.45594000000E+02  0.51100000000E-03 0. -1.
         11   -1    0    0    0    0 -0.00000000000E+00 -0.00000000000E+00 -0.45593999997E+02  0.45594000000E+02  0.51100000000E-03 0.  1.
    9900012    2    1    2    0    0 -0.30615996878E+02 -0.16553214507E+02  0.21019479430E+02  0.50528847391E+02  0.29999962131E+02 0.  0.
        -12    1    1    2    0    0  0.30615996878E+02  0.16553214507E+02 -0.21019479430E+02  0.40659152609E+02  0.00000000000E+00 0.  1.
         11    1    3    3    0    0 -0.23711208168E+02 -0.15313950099E+02  0.21213524257E+02  0.35309376546E+02  0.51100000000E-03 0. -1.
        -11    1    3    3    0    0  0.72857339323E+00 -0.25756428450E+01 -0.53010735428E+01  0.59385298030E+01  0.51100000000E-03 0.  1.
        -12    1    3    3    0    0 -0.76333621033E+01  0.13363784371E+01  0.51070287155E+01  0.92809410422E+01  0.00000000000E+00 0.  1.
</event>
<event>
 7    1  0.9978258E-013  0.5052887E+02  0.7816164E-02  0.1300439E+00
        -11   -1    0    0    0    0  0.00000000000E+00  0.00000000000E+00  0.45593999997E+02  0.45594000000E+02  0.51100000000E-03 0. -1.
         11   -1    0    0    0    0 -0.00000000000E+00 -0.00000000000E+00 -0.45593999997E+02  0.45594000000E+02  0.51100000000E-03 0.  1.
    9900012    2    1    2    0    0 -0.26454868210E+02  0.30283860831E+02 -0.60160492718E+01  0.50528866614E+02  0.30000020560E+02 0.  0.
        -12    1    1    2    0    0  0.26454868210E+02 -0.30283860831E+02  0.60160492718E+01  0.40659133386E+02  0.00000000000E+00 0.  1.
         11    1    3    3    0    0  0.27758158934E+00  0.43081823079E+00  0.26006945579E+01  0.26507109105E+01  0.51100000000E-03 0. -1.
        -11    1    3    3    0    0 -0.24802323161E+02  0.19706423562E+02 -0.15698943088E+02  0.35354705177E+02  0.51100000000E-03 0.  1.
        -12    1    3    3    0    0 -0.19301266382E+01  0.10146619038E+02  0.70821992588E+01  0.12523450526E+02  0.00000000000E+00 0.  1.
</event>
<event>
 7    1  0.9978258E-013  0.5052886E+02  0.7816164E-02  0.1300439E+00
        -11   -1    0    0    0    0  0.00000000000E+00  0.00000000000E+00  0.45593999997E+02  0.45594000000E+02  0.51100000000E-03 0.  1.
         11   -1    0    0    0    0 -0.00000000000E+00 -0.00000000000E+00 -0.45593999997E+02  0.45594000000E+02  0.51100000000E-03 0. -1.
    9900012    2    1    2    0    0  0.59575031073E+01 -0.36245034136E+02 -0.17434775914E+02  0.50528858912E+02  0.29999997149E+02 0.  0.
        -12    1    1    2    0    0 -0.59575031073E+01  0.36245034136E+02  0.17434775914E+02  0.40659141088E+02  0.00000000000E+00 0.  1.
         11    1    3    3    0    0  0.10697932131E+02 -0.15343179017E+02  0.20509880417E+01  0.18816626861E+02  0.51100000000E-03 0. -1.
        -11    1    3    3    0    0 -0.73166065626E+01 -0.20392959176E+02 -0.14478731424E+02  0.26058380216E+02  0.51100000000E-03 0.  1.
         12    1    3    3    0    0  0.25761775394E+01 -0.50889594247E+00 -0.50070325322E+01  0.56538518351E+01  0.00000000000E+00 0. -1.
</event>
<event>
 7    1  0.9978258E-013  0.5052886E+02  0.7816164E-02  0.1300439E+00
        -11   -1    0    0    0    0  0.00000000000E+00  0.00000000000E+00  0.45593999997E+02  0.45594000000E+02  0.51100000000E-03 0. -1.
         11   -1    0    0    0    0 -0.00000000000E+00 -0.00000000000E+00 -0.45593999997E+02  0.45594000000E+02  0.51100000000E-03 0.  1.
    9900012    2    1    2    0    0  0.13023001261E+02  0.27836264381E+02  0.26621599548E+02  0.50528859096E+02  0.29999997708E+02 0.  0.
        -12    1    1    2    0    0 -0.13023001261E+02 -0.27836264381E+02 -0.26621599548E+02  0.40659140904E+02  0.00000000000E+00 0.  1.
         11    1    3    3    0    0 -0.31891244701E+01  0.15337425678E+02  0.23430131831E+01  0.15839723872E+02  0.51100000000E-03 0. -1.
        -11    1    3    3    0    0  0.31301408129E+01 -0.25025554120E+01  0.11381857573E+01  0.41660571501E+01  0.51100000000E-03 0.  1.
         12    1    3    3    0    0  0.13081984919E+02  0.15001394116E+02  0.23140400608E+02  0.30523078074E+02  0.00000000000E+00 0. -1.
</event>
<event>
 7    1  0.9978258E-013  0.5052886E+02  0.7816164E-02  0.1300439E+00
        -11   -1    0    0    0    0  0.00000000000E+00  0.00000000000E+00  0.45593999997E+02  0.45594000000E+02  0.51100000000E-03 0. -1.
         11   -1    0    0    0    0 -0.00000000000E+00 -0.00000000000E+00 -0.45593999997E+02  0.45594000000E+02  0.51100000000E-03 0.  1.
    9900012    2    1    2    0    0  0.32480717468E+02 -0.20999733437E+02 -0.12537123160E+02  0.50528864879E+02  0.30000015286E+02 0.  0.
        -12    1    1    2    0    0 -0.32480717468E+02  0.20999733437E+02  0.12537123160E+02  0.40659135121E+02  0.00000000000E+00 0.  1.
         11    1    3    3    0    0  0.75903621282E+01 -0.50511077125E+01 -0.42403366554E-01  0.91175152682E+01  0.51100000000E-03 0. -1.
        -11    1    3    3    0    0  0.43214884438E+01 -0.35058402219E+01 -0.16162445854E+02  0.17093590444E+02  0.51100000000E-03 0.  1.
        -12    1    3    3    0    0  0.20568866896E+02 -0.12442785502E+02  0.36677260599E+01  0.24317759167E+02  0.00000000000E+00 0.  1.
</event>
<event>
 7    1  0.9978258E-013  0.5052886E+02  0.7816164E-02  0.1300439E+00
        -11   -1    0    0    0    0  0.00000000000E+00  0.00000000000E+00  0.45593999997E+02  0.45594000000E+02  0.51100000000E-03 0.  1.
         11   -1    0    0    0    0 -0.00000000000E+00 -0.00000000000E+00 -0.45593999997E+02  0.45594000000E+02  0.51100000000E-03 0. -1.
    9900012    2    1    2    0    0 -0.32973060735E+01  0.39224685340E+02 -0.10184172356E+02  0.50528861618E+02  0.30000005375E+02 0.  0.
        -12    1    1    2    0    0  0.32973060735E+01 -0.39224685340E+02  0.10184172356E+02  0.40659138382E+02  0.00000000000E+00 0.  1.
         11    1    3    3    0    0 -0.24366493153E+00  0.87725308615E+01 -0.14458589922E+02  0.16913529884E+02  0.51100000000E-03 0. -1.
        -11    1    3    3    0    0 -0.59597761722E+01  0.23546620451E+02 -0.12272942294E+01  0.24320125782E+02  0.51100000000E-03 0.  1.
        -12    1    3    3    0    0  0.29061350302E+01  0.69055340273E+01  0.55017117955E+01  0.92952059523E+01  0.00000000000E+00 0.  1.
</event>
<event>
 7    1  0.9978258E-013  0.5052888E+02  0.7816164E-02  0.1300439E+00
        -11   -1    0    0    0    0  0.00000000000E+00  0.00000000000E+00  0.45593999997E+02  0.45594000000E+02  0.51100000000E-03 0.  1.
         11   -1    0    0    0    0 -0.00000000000E+00 -0.00000000000E+00 -0.45593999997E+02  0.45594000000E+02  0.51100000000E-03 0. -1.
    9900012    2    1    2    0    0  0.17115439435E+02  0.32995110895E+02  0.16478722259E+02  0.50528881744E+02  0.30000066550E+02 0.  0.
        -12    1    1    2    0    0 -0.17115439435E+02 -0.32995110895E+02 -0.16478722259E+02  0.40659118256E+02  0.00000000000E+00 0.  1.
         11    1    3    3    0    0 -0.18049401262E+01  0.78965506512E+01 -0.66763692786E+01  0.10497010434E+02  0.51100000000E-03 0. -1.
        -11    1    3    3    0    0  0.91361089738E+00  0.66804447606E+01  0.64521475581E+01  0.93323756592E+01  0.51100000000E-03 0.  1.
         12    1    3    3    0    0  0.18006768663E+02  0.18418115483E+02  0.16702943979E+02  0.30699495651E+02  0.00000000000E+00 0. -1.
</event>
<event>
 7    1  0.9978258E-013  0.5052886E+02  0.7816164E-02  0.1300439E+00
        -11   -1    0    0    0    0  0.00000000000E+00  0.00000000000E+00  0.45593999997E+02  0.45594000000E+02  0.51100000000E-03 0.  1.
         11   -1    0    0    0    0 -0.00000000000E+00 -0.00000000000E+00 -0.45593999997E+02  0.45594000000E+02  0.51100000000E-03 0. -1.
    9900012    2    1    2    0    0 -0.84559257020E+00  0.30687863913E+02 -0.26659061801E+02  0.50528860874E+02  0.30000003114E+02 0.  0.
        -12    1    1    2    0    0  0.84559257020E+00 -0.30687863913E+02  0.26659061801E+02  0.40659139126E+02  0.00000000000E+00 0.  1.
         11    1    3    3    0    0  0.87236423189E+01  0.12083967039E+02 -0.19593045169E+02  0.24617303142E+02  0.51100000000E-03 0. -1.
        -11    1    3    3    0    0 -0.11031111718E+02  0.12724443848E+02 -0.95544713649E+01  0.19361942575E+02  0.51100000000E-03 0.  1.
        -12    1    3    3    0    0  0.14618768285E+01  0.58794530260E+01  0.24884547335E+01  0.65496151571E+01  0.00000000000E+00 0.  1.
</event>
<event>
 7    1  0.9978258E-013  0.5052885E+02  0.7816164E-02  0.1300439E+00
        -11   -1    0    0    0    0  0.00000000000E+00  0.00000000000E+00  0.45593999997E+02  0.45594000000E+02  0.51100000000E-03 0. -1.
         11   -1    0    0    0    0 -0.00000000000E+00 -0.00000000000E+00 -0.45593999997E+02  0.45594000000E+02  0.51100000000E-03 0.  1.
    9900012    2    1    2    0    0 -0.13650846861E+01  0.28394833635E+02  0.29069508497E+02  0.50528851490E+02  0.29999974588E+02 0.  0.
        -12    1    1    2    0    0  0.13650846861E+01 -0.28394833635E+02 -0.29069508497E+02  0.40659148510E+02  0.00000000000E+00 0.  1.
         11    1    3    3    0    0  0.35419877339E+01  0.40180905151E+01  0.10472685935E+02  0.11762987693E+02  0.51100000000E-03 0. -1.
        -11    1    3    3    0    0 -0.36427074537E+01  0.13226875810E+02 -0.33449495683E+01  0.14121198574E+02  0.51100000000E-03 0.  1.
        -12    1    3    3    0    0 -0.12643649663E+01  0.11149867310E+02  0.21941772130E+02  0.24644665224E+02  0.00000000000E+00 0.  1.
</event>
<event>
 7    1  0.9978258E-013  0.5052887E+02  0.7816164E-02  0.1300439E+00
        -11   -1    0    0    0    0  0.00000000000E+00  0.00000000000E+00  0.45593999997E+02  0.45594000000E+02  0.51100000000E-03 0. -1.
         11   -1    0    0    0    0 -0.00000000000E+00 -0.00000000000E+00 -0.45593999997E+02  0.45594000000E+02  0.51100000000E-03 0.  1.
    9900012    2    1    2    0    0 -0.31267957881E+02 -0.15316801072E+02  0.20997039627E+02  0.50528865009E+02  0.30000015682E+02 0.  0.
        -12    1    1    2    0    0  0.31267957881E+02  0.15316801072E+02 -0.20997039627E+02  0.40659134991E+02  0.00000000000E+00 0.  1.
         11    1    3    3    0    0 -0.21547780476E+02 -0.53930942823E+01  0.27016881560E+02  0.34975765880E+02  0.51100000000E-03 0. -1.
        -11    1    3    3    0    0 -0.90891096769E+01 -0.10096459570E+02 -0.53049463343E+01  0.14583993501E+02  0.51100000000E-03 0.  1.
         12    1    3    3    0    0 -0.63106772807E+00  0.17275278119E+00 -0.71489559913E+00  0.96910562813E+00  0.00000000000E+00 0. -1.
</event>
<event>
 7    1  0.9978258E-013  0.5052886E+02  0.7816164E-02  0.1300439E+00
        -11   -1    0    0    0    0  0.00000000000E+00  0.00000000000E+00  0.45593999997E+02  0.45594000000E+02  0.51100000000E-03 0. -1.
         11   -1    0    0    0    0 -0.00000000000E+00 -0.00000000000E+00 -0.45593999997E+02  0.45594000000E+02  0.51100000000E-03 0.  1.
    9900012    2    1    2    0    0 -0.76445218399E+00 -0.35215303634E+02  0.20309198558E+02  0.50528861503E+02  0.30000005026E+02 0.  0.
        -12    1    1    2    0    0  0.76445218399E+00  0.35215303634E+02 -0.20309198558E+02  0.40659138497E+02  0.00000000000E+00 0.  1.
         11    1    3    3    0    0  0.63687206479E+01 -0.29536404442E+01 -0.18639191980E+01  0.72635245991E+01  0.51100000000E-03 0. -1.
        -11    1    3    3    0    0 -0.11271336845E+02 -0.20802117443E+02  0.89784504405E+01  0.25305803622E+02  0.51100000000E-03 0.  1.
         12    1    3    3    0    0  0.41381640134E+01 -0.11459545748E+02  0.13194667316E+02  0.17959533282E+02  0.00000000000E+00 0. -1.
</event>
<event>
 7    1  0.9978258E-013  0.5052886E+02  0.7816164E-02  0.1300439E+00
        -11   -1    0    0    0    0  0.00000000000E+00  0.00000000000E+00  0.45593999997E+02  0.45594000000E+02  0.51100000000E-03 0. -1.
         11   -1    0    0    0    0 -0.00000000000E+00 -0.00000000000E+00 -0.45593999997E+02  0.45594000000E+02  0.51100000000E-03 0.  1.
    9900012    2    1    2    0    0 -0.96677890721E+01  0.36643378055E+02 -0.14729652358E+02  0.50528856386E+02  0.29999989470E+02 0.  0.
        -12    1    1    2    0    0  0.96677890721E+01 -0.36643378055E+02  0.14729652358E+02  0.40659143614E+02  0.00000000000E+00 0.  1.
         11    1    3    3    0    0  0.47134433033E+01  0.19625527064E+02 -0.80696107046E+01  0.21736984094E+02  0.51100000000E-03 0. -1.
        -11    1    3    3    0    0 -0.12023688841E+02  0.15625299486E+02  0.18974012863E+01  0.19807049485E+02  0.51100000000E-03 0.  1.
        -12    1    3    3    0    0 -0.23575435339E+01  0.13925515050E+01 -0.85574429396E+01  0.89848228070E+01  0.00000000000E+00 0.  1.
</event>
<event>
 7    1  0.9978258E-013  0.5052886E+02  0.7816164E-02  0.1300439E+00
        -11   -1    0    0    0    0  0.00000000000E+00  0.00000000000E+00  0.45593999997E+02  0.45594000000E+02  0.51100000000E-03 0. -1.
         11   -1    0    0    0    0 -0.00000000000E+00 -0.00000000000E+00 -0.45593999997E+02  0.45594000000E+02  0.51100000000E-03 0.  1.
    9900012    2    1    2    0    0 -0.61682882923E+01  0.24022650852E+02  0.32218470497E+02  0.50528863566E+02  0.30000011295E+02 0.  0.
        -12    1    1    2    0    0  0.61682882923E+01 -0.24022650852E+02 -0.32218470497E+02  0.40659136434E+02  0.00000000000E+00 0.  1.
         11    1    3    3    0    0 -0.71101433586E+01  0.22792401874E+02  0.33362285646E+02  0.41025477762E+02  0.51100000000E-03 0. -1.
        -11    1    3    3    0    0  0.26955270578E+01 -0.11007857293E+01  0.31646568374E+01  0.43003079542E+01  0.51100000000E-03 0.  1.
         12    1    3    3    0    0 -0.17536719915E+01  0.23310347068E+01 -0.43084719865E+01  0.52030778503E+01  0.00000000000E+00 0. -1.
</event>
<event>
 7    1  0.9978258E-013  0.5052886E+02  0.7816164E-02  0.1300439E+00
        -11   -1    0    0    0    0  0.00000000000E+00  0.00000000000E+00  0.45593999997E+02  0.45594000000E+02  0.51100000000E-03 0.  1.
         11   -1    0    0    0    0 -0.00000000000E+00 -0.00000000000E+00 -0.45593999997E+02  0.45594000000E+02  0.51100000000E-03 0. -1.
    9900012    2    1    2    0    0  0.31491704722E+02 -0.56801167079E+01  0.25083349898E+02  0.50528860385E+02  0.30000001627E+02 0.  0.
        -12    1    1    2    0    0 -0.31491704722E+02  0.56801167079E+01 -0.25083349898E+02  0.40659139615E+02  0.00000000000E+00 0.  1.
         11    1    3    3    0    0  0.17748306030E+02  0.57602857728E+00  0.78802525193E+01  0.19427623526E+02  0.51100000000E-03 0. -1.
        -11    1    3    3    0    0  0.51514712033E+01 -0.65862093779E+01  0.20306033770E+02  0.21960209863E+02  0.51100000000E-03 0.  1.
        -12    1    3    3    0    0  0.85919274892E+01  0.33006409272E+00 -0.31029363912E+01  0.91410269956E+01  0.00000000000E+00 0.  1.
</event>
<event>
 7    1  0.9978258E-013  0.5052885E+02  0.7816164E-02  0.1300439E+00
        -11   -1    0    0    0    0  0.00000000000E+00  0.00000000000E+00  0.45593999997E+02  0.45594000000E+02  0.51100000000E-03 0. -1.
         11   -1    0    0    0    0 -0.00000000000E+00 -0.00000000000E+00 -0.45593999997E+02  0.45594000000E+02  0.51100000000E-03 0.  1.
    9900012    2    1    2    0    0  0.29982434194E+02 -0.25886730096E+02  0.91704586490E+01  0.50528850143E+02  0.29999970494E+02 0.  0.
        -12    1    1    2    0    0 -0.29982434194E+02  0.25886730096E+02 -0.91704586490E+01  0.40659149857E+02  0.00000000000E+00 0.  1.
         11    1    3    3    0    0  0.26540552885E+02 -0.17980374293E+02  0.24930023031E+01  0.32154468864E+02  0.51100000000E-03 0. -1.
        -11    1    3    3    0    0  0.59066812990E+01  0.14329071319E+01  0.62318613342E+01  0.87050676486E+01  0.51100000000E-03 0.  1.
         12    1    3    3    0    0 -0.24647999900E+01 -0.93392629356E+01  0.44559501163E+00  0.96693136305E+01  0.00000000000E+00 0. -1.
</event>
<event>
 7    1  0.9978258E-013  0.5052885E+02  0.7816164E-02  0.1300439E+00
        -11   -1    0    0    0    0  0.00000000000E+00  0.00000000000E+00  0.45593999997E+02  0.45594000000E+02  0.51100000000E-03 0.  1.
         11   -1    0    0    0    0 -0.00000000000E+00 -0.00000000000E+00 -0.45593999997E+02  0.45594000000E+02  0.51100000000E-03 0. -1.
    9900012    2    1    2    0    0 -0.49928893691E+01 -0.36806977815E+00 -0.40349742326E+02  0.50528854345E+02  0.29999983266E+02 0.  0.
        -12    1    1    2    0    0  0.49928893691E+01  0.36806977815E+00  0.40349742326E+02  0.40659145655E+02  0.00000000000E+00 0.  1.
         11    1    3    3    0    0 -0.89571953832E+01  0.96363673411E+01 -0.15186227428E+02  0.20092596358E+02  0.51100000000E-03 0. -1.
        -11    1    3    3    0    0  0.49753388443E+01 -0.11971910263E+02 -0.25068097725E+02  0.28222157178E+02  0.51100000000E-03 0.  1.
        -12    1    3    3    0    0 -0.10110328301E+01  0.19674731435E+01 -0.95417173660E-01  0.22141008087E+01  0.00000000000E+00 0.  1.
</event>
<event>
 7    1  0.9978258E-013  0.5052886E+02  0.7816164E-02  0.1300439E+00
        -11   -1    0    0    0    0  0.00000000000E+00  0.00000000000E+00  0.45593999997E+02  0.45594000000E+02  0.51100000000E-03 0.  1.
         11   -1    0    0    0    0 -0.00000000000E+00 -0.00000000000E+00 -0.45593999997E+02  0.45594000000E+02  0.51100000000E-03 0. -1.
    9900012    2    1    2    0    0  0.21663216279E+02 -0.20038120810E+02 -0.27970416485E+02  0.50528862977E+02  0.30000009506E+02 0.  0.
        -12    1    1    2    0    0 -0.21663216279E+02  0.20038120810E+02  0.27970416485E+02  0.40659137023E+02  0.00000000000E+00 0.  1.
         11    1    3    3    0    0  0.11917284232E+01 -0.10258722249E+02 -0.21998520796E+01  0.10559400941E+02  0.51100000000E-03 0. -1.
        -11    1    3    3    0    0  0.17051381614E+02 -0.21151704689E+01 -0.55173514259E+01  0.18046183200E+02  0.51100000000E-03 0.  1.
        -12    1    3    3    0    0  0.34201062414E+01 -0.76642280920E+01 -0.20253212979E+02  0.21923278836E+02  0.00000000000E+00 0.  1.
</event>
<event>
 7    1  0.9978258E-013  0.5052886E+02  0.7816164E-02  0.1300439E+00
        -11   -1    0    0    0    0  0.00000000000E+00  0.00000000000E+00  0.45593999997E+02  0.45594000000E+02  0.51100000000E-03 0.  1.
         11   -1    0    0    0    0 -0.00000000000E+00 -0.00000000000E+00 -0.45593999997E+02  0.45594000000E+02  0.51100000000E-03 0. -1.
    9900012    2    1    2    0    0  0.62667168258E+01  0.39049019796E+02 -0.94375927884E+01  0.50528857800E+02  0.29999993768E+02 0.  0.
        -12    1    1    2    0    0 -0.62667168258E+01 -0.39049019796E+02  0.94375927884E+01  0.40659142200E+02  0.00000000000E+00 0.  1.
         11    1    3    3    0    0  0.22221019467E+01 -0.41662112181E+01 -0.66856777644E+00  0.47688610913E+01  0.51100000000E-03 0. -1.
        -11    1    3    3    0    0 -0.38580200595E+01  0.94475476712E+01 -0.26607409975E+01  0.10546090209E+02  0.51100000000E-03 0.  1.
         12    1    3    3    0    0  0.79026349386E+01  0.33767683343E+02 -0.61082840144E+01  0.35213906499E+02  0.00000000000E+00 0. -1.
</event>
<event>
 7    1  0.9978258E-013  0.5052886E+02  0.7816164E-02  0.1300439E+00
        -11   -1    0    0    0    0  0.00000000000E+00  0.00000000000E+00  0.45593999997E+02  0.45594000000E+02  0.51100000000E-03 0.  1.
         11   -1    0    0    0    0 -0.00000000000E+00 -0.00000000000E+00 -0.45593999997E+02  0.45594000000E+02  0.51100000000E-03 0. -1.
    9900012    2    1    2    0    0  0.16331770836E+00  0.40612247631E+02  0.19453091480E+01  0.50528861323E+02  0.30000004476E+02 0.  0.
        -12    1    1    2    0    0 -0.16331770836E+00 -0.40612247631E+02 -0.19453091480E+01  0.40659138677E+02  0.00000000000E+00 0.  1.
         11    1    3    3    0    0  0.17235941190E+01  0.30365659706E+02  0.82020908505E+01  0.31501085071E+02  0.51100000000E-03 0. -1.
        -11    1    3    3    0    0 -0.14746954495E+01  0.75379475222E+01 -0.11087950080E+02  0.13488440116E+02  0.51100000000E-03 0.  1.
        -12    1    3    3    0    0 -0.85580961148E-01  0.27086404024E+01  0.48311683775E+01  0.55393361355E+01  0.00000000000E+00 0.  1.
</event>
<event>
 7    1  0.9978258E-013  0.5052888E+02  0.7816164E-02  0.1300439E+00
        -11   -1    0    0    0    0  0.00000000000E+00  0.00000000000E+00  0.45593999997E+02  0.45594000000E+02  0.51100000000E-03 0.  1.
         11   -1    0    0    0    0 -0.00000000000E+00 -0.00000000000E+00 -0.45593999997E+02  0.45594000000E+02  0.51100000000E-03 0. -1.
    9900012    2    1    2    0    0 -0.15564147613E+02  0.37197554985E+02  0.52214466745E+01  0.50528876877E+02  0.30000051756E+02 0.  0.
        -12    1    1    2    0    0  0.15564147613E+02 -0.37197554985E+02 -0.52214466745E+01  0.40659123123E+02  0.00000000000E+00 0.  1.
         11    1    3    3    0    0 -0.61493776603E+01  0.23036425686E+01 -0.45783924917E+01  0.80052041049E+01  0.51100000000E-03 0. -1.
        -11    1    3    3    0    0  0.60594107471E+00  0.98987116723E+01  0.11926144438E+02  0.15510789109E+02  0.51100000000E-03 0.  1.
        -12    1    3    3    0    0 -0.10020711027E+02  0.24995200744E+02 -0.21263052719E+01  0.27012883664E+02  0.00000000000E+00 0.  1.
</event>
<event>
 7    1  0.9978258E-013  0.5052886E+02  0.7816164E-02  0.1300439E+00
        -11   -1    0    0    0    0  0.00000000000E+00  0.00000000000E+00  0.45593999997E+02  0.45594000000E+02  0.51100000000E-03 0. -1.
         11   -1    0    0    0    0 -0.00000000000E+00 -0.00000000000E+00 -0.45593999997E+02  0.45594000000E+02  0.51100000000E-03 0.  1.
    9900012    2    1    2    0    0  0.29589101211E+02  0.26602564016E+02  0.83638817621E+01  0.50528857844E+02  0.29999993904E+02 0.  0.
        -12    1    1    2    0    0 -0.29589101211E+02 -0.26602564016E+02 -0.83638817621E+01  0.40659142156E+02  0.00000000000E+00 0.  1.
         11    1    3    3    0    0  0.37242666587E+01 -0.26087149498E+01 -0.61582011992E+01  0.76549982433E+01  0.51100000000E-03 0.  1.
        -11    1    3    3    0    0  0.20357939851E+02  0.16849601523E+02  0.67773732349E+01  0.27281634385E+02  0.51100000000E-03 0. -1.
        -12    1    3    3    0    0  0.55068947010E+01  0.12361677443E+02  0.77447097264E+01  0.15592225216E+02  0.00000000000E+00 0.  1.
</event>
<event>
 7    1  0.9978258E-013  0.5052886E+02  0.7816164E-02  0.1300439E+00
        -11   -1    0    0    0    0  0.00000000000E+00  0.00000000000E+00  0.45593999997E+02  0.45594000000E+02  0.51100000000E-03 0.  1.
         11   -1    0    0    0    0 -0.00000000000E+00 -0.00000000000E+00 -0.45593999997E+02  0.45594000000E+02  0.51100000000E-03 0. -1.
    9900012    2    1    2    0    0  0.21615640980E+02 -0.34432038871E+02 -0.60388424828E+00  0.50528856970E+02  0.29999991246E+02 0.  0.
        -12    1    1    2    0    0 -0.21615640980E+02  0.34432038871E+02  0.60388424828E+00  0.40659143030E+02  0.00000000000E+00 0.  1.
         11    1    3    3    0    0  0.13459686716E+02 -0.15919095647E+02  0.96658957378E+01  0.22978475002E+02  0.51100000000E-03 0.  1.
        -11    1    3    3    0    0  0.46577959449E+01 -0.20280797131E+02 -0.11039819507E+02  0.23555963371E+02  0.51100000000E-03 0. -1.
         12    1    3    3    0    0  0.34981583188E+01  0.17678539077E+01  0.77003952127E+00  0.39944185969E+01  0.00000000000E+00 0. -1.
</event>
<event>
 7    1  0.9978258E-013  0.5052886E+02  0.7816164E-02  0.1300439E+00
        -11   -1    0    0    0    0  0.00000000000E+00  0.00000000000E+00  0.45593999997E+02  0.45594000000E+02  0.51100000000E-03 0.  1.
         11   -1    0    0    0    0 -0.00000000000E+00 -0.00000000000E+00 -0.45593999997E+02  0.45594000000E+02  0.51100000000E-03 0. -1.
    9900012    2    1    2    0    0 -0.39648499269E+02 -0.83676900147E+01 -0.33382678012E+01  0.50528858809E+02  0.29999996836E+02 0.  0.
        -12    1    1    2    0    0  0.39648499269E+02  0.83676900147E+01  0.33382678012E+01  0.40659141191E+02  0.00000000000E+00 0.  1.
         11    1    3    3    0    0 -0.32974182492E+02  0.40273175174E+01  0.14707208809E+00  0.33219536840E+02  0.51100000000E-03 0. -1.
        -11    1    3    3    0    0 -0.52845313137E+01 -0.92952193634E+01  0.19800701599E+01  0.10874192031E+02  0.51100000000E-03 0.  1.
         12    1    3    3    0    0 -0.13897854637E+01 -0.30997881686E+01 -0.54654100491E+01  0.64351299389E+01  0.00000000000E+00 0. -1.
</event>
<event>
 7    1  0.9978258E-013  0.5052887E+02  0.7816164E-02  0.1300439E+00
        -11   -1    0    0    0    0  0.00000000000E+00  0.00000000000E+00  0.45593999997E+02  0.45594000000E+02  0.51100000000E-03 0.  1.
         11   -1    0    0    0    0 -0.00000000000E+00 -0.00000000000E+00 -0.45593999997E+02  0.45594000000E+02  0.51100000000E-03 0. -1.
    9900012    2    1    2    0    0 -0.11112052847E+02  0.82817061117E+01 -0.38224341933E+02  0.50528871987E+02  0.30000036891E+02 0.  0.
        -12    1    1    2    0    0  0.11112052847E+02 -0.82817061117E+01  0.38224341933E+02  0.40659128013E+02  0.00000000000E+00 0.  1.
         11    1    3    3    0    0 -0.19139733322E+02  0.41651094232E+01 -0.20522297804E+02  0.28369741549E+02  0.51100000000E-03 0. -1.
        -11    1    3    3    0    0  0.27175017470E+01 -0.14578851576E+00  0.46233585815E+00  0.27604030037E+01  0.51100000000E-03 0.  1.
         12    1    3    3    0    0  0.53101787280E+01  0.42623852043E+01 -0.18164379987E+02  0.19398727434E+02  0.00000000000E+00 0. -1.
</event>
<event>
 7    1  0.9978258E-013  0.5052886E+02  0.7816164E-02  0.1300439E+00
        -11   -1    0    0    0    0  0.00000000000E+00  0.00000000000E+00  0.45593999997E+02  0.45594000000E+02  0.51100000000E-03 0.  1.
         11   -1    0    0    0    0 -0.00000000000E+00 -0.00000000000E+00 -0.45593999997E+02  0.45594000000E+02  0.51100000000E-03 0. -1.
    9900012    2    1    2    0    0  0.28889243205E+02  0.17040077630E+02 -0.22982887404E+02  0.50528859182E+02  0.29999997970E+02 0.  0.
        -12    1    1    2    0    0 -0.28889243205E+02 -0.17040077630E+02  0.22982887404E+02  0.40659140818E+02  0.00000000000E+00 0.  1.
         11    1    3    3    0    0  0.10725421809E+02  0.27903498276E+01  0.15355395205E+01  0.11188324585E+02  0.51100000000E-03 0. -1.
        -11    1    3    3    0    0  0.15991270387E+02  0.34157491616E+01 -0.22950740805E+02  0.28180216015E+02  0.51100000000E-03 0.  1.
        -12    1    3    3    0    0  0.21725510094E+01  0.10833978641E+02 -0.15676861198E+01  0.11160318582E+02  0.00000000000E+00 0.  1.
</event>
<event>
 7    1  0.9978258E-013  0.5052885E+02  0.7816164E-02  0.1300439E+00
        -11   -1    0    0    0    0  0.00000000000E+00  0.00000000000E+00  0.45593999997E+02  0.45594000000E+02  0.51100000000E-03 0. -1.
         11   -1    0    0    0    0 -0.00000000000E+00 -0.00000000000E+00 -0.45593999997E+02  0.45594000000E+02  0.51100000000E-03 0.  1.
    9900012    2    1    2    0    0  0.23047064879E+02  0.31434563615E+02  0.11570111733E+02  0.50528850049E+02  0.29999970210E+02 0.  0.
        -12    1    1    2    0    0 -0.23047064879E+02 -0.31434563615E+02 -0.11570111733E+02  0.40659149951E+02  0.00000000000E+00 0.  1.
         11    1    3    3    0    0  0.18708467744E+02  0.23924147185E+02 -0.32464034012E+01  0.30543587202E+02  0.51100000000E-03 0. -1.
        -11    1    3    3    0    0  0.14318477527E+01 -0.19707107723E+01  0.37188470761E+00  0.24641808846E+01  0.51100000000E-03 0.  1.
         12    1    3    3    0    0  0.29067493825E+01  0.94811272022E+01  0.14444630427E+02  0.17521081963E+02  0.00000000000E+00 0. -1.
</event>
<event>
 7    1  0.9978258E-013  0.5052887E+02  0.7816164E-02  0.1300439E+00
        -11   -1    0    0    0    0  0.00000000000E+00  0.00000000000E+00  0.45593999997E+02  0.45594000000E+02  0.51100000000E-03 0.  1.
         11   -1    0    0    0    0 -0.00000000000E+00 -0.00000000000E+00 -0.45593999997E+02  0.45594000000E+02  0.51100000000E-03 0. -1.
    9900012    2    1    2    0    0 -0.33244373583E+02 -0.22882901245E+02  0.49345306624E+01  0.50528866498E+02  0.30000020206E+02 0.  0.
        -12    1    1    2    0    0  0.33244373583E+02  0.22882901245E+02 -0.49345306624E+01  0.40659133502E+02  0.00000000000E+00 0.  1.
         11    1    3    3    0    0 -0.25580339211E+02 -0.26149466810E+02  0.49248568886E+01  0.36910738061E+02  0.51100000000E-03 0. -1.
        -11    1    3    3    0    0 -0.79604607230E+01  0.55743748537E+01  0.26754729613E+01  0.10079719528E+02  0.51100000000E-03 0.  1.
         12    1    3    3    0    0  0.29642635135E+00 -0.23078092895E+01 -0.26657991875E+01  0.35384089088E+01  0.00000000000E+00 0. -1.
</event>
<event>
 7    1  0.9978258E-013  0.5052886E+02  0.7816164E-02  0.1300439E+00
        -11   -1    0    0    0    0  0.00000000000E+00  0.00000000000E+00  0.45593999997E+02  0.45594000000E+02  0.51100000000E-03 0.  1.
         11   -1    0    0    0    0 -0.00000000000E+00 -0.00000000000E+00 -0.45593999997E+02  0.45594000000E+02  0.51100000000E-03 0. -1.
    9900012    2    1    2    0    0  0.85673407978E+01  0.36530546204E+02 -0.15661602708E+02  0.50528856703E+02  0.29999990434E+02 0.  0.
        -12    1    1    2    0    0 -0.85673407978E+01 -0.36530546204E+02  0.15661602708E+02  0.40659143297E+02  0.00000000000E+00 0.  1.
         11    1    3    3    0    0  0.43370003792E+01  0.50318958395E+01 -0.16610777553E+02  0.17889870855E+02  0.51100000000E-03 0. -1.
        -11    1    3    3    0    0  0.98307637744E+00  0.38597818735E+01  0.26075590062E+01  0.47606427619E+01  0.51100000000E-03 0.  1.
         12    1    3    3    0    0  0.32472640411E+01  0.27638868491E+02 -0.16583841608E+01  0.27878343086E+02  0.00000000000E+00 0. -1.
</event>
<event>
 7    1  0.9978258E-013  0.5052887E+02  0.7816164E-02  0.1300439E+00
        -11   -1    0    0    0    0  0.00000000000E+00  0.00000000000E+00  0.45593999997E+02  0.45594000000E+02  0.51100000000E-03 0. -1.
         11   -1    0    0    0    0 -0.00000000000E+00 -0.00000000000E+00 -0.45593999997E+02  0.45594000000E+02  0.51100000000E-03 0.  1.
    9900012    2    1    2    0    0 -0.62834077704E+01 -0.29919253470E+02  0.26805261415E+02  0.50528868419E+02  0.30000026046E+02 0.  0.
        -12    1    1    2    0    0  0.62834077704E+01  0.29919253470E+02 -0.26805261415E+02  0.40659131581E+02  0.00000000000E+00 0.  1.
         11    1    3    3    0    0 -0.57308556784E+01 -0.67968062380E+01  0.23672164020E+02  0.25286570180E+02  0.51100000000E-03 0. -1.
        -11    1    3    3    0    0  0.45333225166E+01 -0.11277146332E+02  0.16761238399E+01  0.12269247484E+02  0.51100000000E-03 0.  1.
         12    1    3    3    0    0 -0.50858746086E+01 -0.11845300900E+02  0.14569735551E+01  0.12973050755E+02  0.00000000000E+00 0. -1.
</event>
<event>
 7    1  0.9978258E-013  0.5052886E+02  0.7816164E-02  0.1300439E+00
        -11   -1    0    0    0    0  0.00000000000E+00  0.00000000000E+00  0.45593999997E+02  0.45594000000E+02  0.51100000000E-03 0. -1.
         11   -1    0    0    0    0 -0.00000000000E+00 -0.00000000000E+00 -0.45593999997E+02  0.45594000000E+02  0.51100000000E-03 0.  1.
    9900012    2    1    2    0    0  0.26653111384E+01 -0.12230390103E+02  0.38684351162E+02  0.50528863875E+02  0.30000012236E+02 0.  0.
        -12    1    1    2    0    0 -0.26653111384E+01  0.12230390103E+02 -0.38684351162E+02  0.40659136125E+02  0.00000000000E+00 0.  1.
         11    1    3    3    0    0 -0.10733404061E+02 -0.26710165442E+01  0.17498307110E+02  0.20700991379E+02  0.51100000000E-03 0. -1.
        -11    1    3    3    0    0  0.75276232742E+01 -0.11328889413E+02  0.93742246171E+01  0.16519229248E+02  0.51100000000E-03 0.  1.
        -12    1    3    3    0    0  0.58710919248E+01  0.17695158543E+01  0.11811819436E+02  0.13308643249E+02  0.00000000000E+00 0.  1.
</event>
<event>
 7    1  0.9978258E-013  0.5052884E+02  0.7816164E-02  0.1300439E+00
        -11   -1    0    0    0    0  0.00000000000E+00  0.00000000000E+00  0.45593999997E+02  0.45594000000E+02  0.51100000000E-03 0. -1.
         11   -1    0    0    0    0 -0.00000000000E+00 -0.00000000000E+00 -0.45593999997E+02  0.45594000000E+02  0.51100000000E-03 0.  1.
    9900012    2    1    2    0    0 -0.33481674683E+02  0.19409060780E+02  0.12467269218E+02  0.50528843815E+02  0.29999951260E+02 0.  0.
        -12    1    1    2    0    0  0.33481674683E+02 -0.19409060780E+02 -0.12467269218E+02  0.40659156185E+02  0.00000000000E+00 0.  1.
         11    1    3    3    0    0 -0.32535713121E+02  0.25399639506E+02  0.13756648723E+02  0.43508156703E+02  0.51100000000E-03 0. -1.
        -11    1    3    3    0    0 -0.89010409616E+00 -0.12414258055E+01 -0.16610821755E+01  0.22566828726E+01  0.51100000000E-03 0.  1.
         12    1    3    3    0    0 -0.55857465015E-01 -0.47491529205E+01  0.37170267056E+00  0.47640042395E+01  0.00000000000E+00 0. -1.
</event>
<event>
 7    1  0.9978258E-013  0.5052886E+02  0.7816164E-02  0.1300439E+00
        -11   -1    0    0    0    0  0.00000000000E+00  0.00000000000E+00  0.45593999997E+02  0.45594000000E+02  0.51100000000E-03 0. -1.
         11   -1    0    0    0    0 -0.00000000000E+00 -0.00000000000E+00 -0.45593999997E+02  0.45594000000E+02  0.51100000000E-03 0.  1.
    9900012    2    1    2    0    0  0.19250738874E+02 -0.34996734759E+02 -0.76028307686E+01  0.50528862938E+02  0.30000009385E+02 0.  0.
        -12    1    1    2    0    0 -0.19250738874E+02  0.34996734759E+02  0.76028307686E+01  0.40659137062E+02  0.00000000000E+00 0.  1.
         11    1    3    3    0    0  0.17283769440E+02 -0.33469267278E+02 -0.10233897393E+02  0.39034000490E+02  0.51100000000E-03 0. -1.
        -11    1    3    3    0    0  0.19914154603E+01 -0.25230665227E+01  0.66330538586E+01  0.73708211188E+01  0.51100000000E-03 0.  1.
         12    1    3    3    0    0 -0.24446026930E-01  0.99559904133E+00 -0.40019872339E+01  0.41240413285E+01  0.00000000000E+00 0. -1.
</event>
<event>
 7    1  0.9978258E-013  0.5052885E+02  0.7816164E-02  0.1300439E+00
        -11   -1    0    0    0    0  0.00000000000E+00  0.00000000000E+00  0.45593999997E+02  0.45594000000E+02  0.51100000000E-03 0. -1.
         11   -1    0    0    0    0 -0.00000000000E+00 -0.00000000000E+00 -0.45593999997E+02  0.45594000000E+02  0.51100000000E-03 0.  1.
    9900012    2    1    2    0    0  0.23914754677E+02  0.22066725571E+02  0.24378482482E+02  0.50528852483E+02  0.29999977607E+02 0.  0.
        -12    1    1    2    0    0 -0.23914754677E+02 -0.22066725571E+02 -0.24378482482E+02  0.40659147517E+02  0.00000000000E+00 0.  1.
         11    1    3    3    0    0 -0.37115715086E+01  0.61291225202E+01  0.14418681478E+02  0.16100940400E+02  0.51100000000E-03 0. -1.
        -11    1    3    3    0    0  0.95113258769E+01  0.32840433651E+01  0.67077581073E+01  0.12093150121E+02  0.51100000000E-03 0.  1.
         12    1    3    3    0    0  0.18115000308E+02  0.12653559686E+02  0.32520428964E+01  0.22334761962E+02  0.00000000000E+00 0. -1.
</event>
<event>
 7    1  0.9978258E-013  0.5052885E+02  0.7816164E-02  0.1300439E+00
        -11   -1    0    0    0    0  0.00000000000E+00  0.00000000000E+00  0.45593999997E+02  0.45594000000E+02  0.51100000000E-03 0. -1.
         11   -1    0    0    0    0 -0.00000000000E+00 -0.00000000000E+00 -0.45593999997E+02  0.45594000000E+02  0.51100000000E-03 0.  1.
    9900012    2    1    2    0    0  0.15989385326E+01 -0.17600592979E+02  0.36617329203E+02  0.50528852497E+02  0.29999977651E+02 0.  0.
        -12    1    1    2    0    0 -0.15989385326E+01  0.17600592979E+02 -0.36617329203E+02  0.40659147503E+02  0.00000000000E+00 0.  1.
         11    1    3    3    0    0  0.23914425010E+00 -0.20976088255E+02  0.11062910270E+02  0.23715848127E+02  0.51100000000E-03 0. -1.
        -11    1    3    3    0    0 -0.27413755658E+01  0.14239080351E+00  0.11402216373E+02  0.11727998705E+02  0.51100000000E-03 0.  1.
         12    1    3    3    0    0  0.41011698482E+01  0.32331044724E+01  0.14152202560E+02  0.15085005666E+02  0.00000000000E+00 0. -1.
</event>
<event>
 7    1  0.9978258E-013  0.5052888E+02  0.7816164E-02  0.1300439E+00
        -11   -1    0    0    0    0  0.00000000000E+00  0.00000000000E+00  0.45593999997E+02  0.45594000000E+02  0.51100000000E-03 0.  1.
         11   -1    0    0    0    0 -0.00000000000E+00 -0.00000000000E+00 -0.45593999997E+02  0.45594000000E+02  0.51100000000E-03 0. -1.
    9900012    2    1    2    0    0 -0.22298194022E+02  0.33318475313E+02  0.67700582740E+01  0.50528881185E+02  0.30000064849E+02 0.  0.
        -12    1    1    2    0    0  0.22298194022E+02 -0.33318475313E+02 -0.67700582740E+01  0.40659118815E+02  0.00000000000E+00 0.  1.
         11    1    3    3    0    0 -0.19207764258E+02  0.24921775878E+02 -0.61647594133E+01  0.32063021997E+02  0.51100000000E-03 0. -1.
        -11    1    3    3    0    0  0.31250418871E+00  0.14159126000E+01  0.10092344821E+02  0.10195974284E+02  0.51100000000E-03 0.  1.
         12    1    3    3    0    0 -0.34029339526E+01  0.69807868350E+01  0.28424728665E+01  0.82698849036E+01  0.00000000000E+00 0. -1.
</event>
<event>
 7    1  0.9978258E-013  0.5052885E+02  0.7816164E-02  0.1300439E+00
        -11   -1    0    0    0    0  0.00000000000E+00  0.00000000000E+00  0.45593999997E+02  0.45594000000E+02  0.51100000000E-03 0.  1.
         11   -1    0    0    0    0 -0.00000000000E+00 -0.00000000000E+00 -0.45593999997E+02  0.45594000000E+02  0.51100000000E-03 0. -1.
    9900012    2    1    2    0    0 -0.75235863662E+01  0.30850841895E+02 -0.25392667916E+02  0.50528851198E+02  0.29999973702E+02 0.  0.
        -12    1    1    2    0    0  0.75235863662E+01 -0.30850841895E+02  0.25392667916E+02  0.40659148802E+02  0.00000000000E+00 0.  1.
         11    1    3    3    0    0  0.32993705225E+01 -0.23654742170E+01 -0.31166353528E+01  0.51180787703E+01  0.51100000000E-03 0. -1.
        -11    1    3    3    0    0 -0.14486736842E+02  0.17950804811E+02 -0.86917363559E+01  0.24650420257E+02  0.51100000000E-03 0.  1.
        -12    1    3    3    0    0  0.36637799536E+01  0.15265511300E+02 -0.13584296207E+02  0.20760352171E+02  0.00000000000E+00 0.  1.
</event>
<event>
 7    1  0.9978258E-013  0.5052887E+02  0.7816164E-02  0.1300439E+00
        -11   -1    0    0    0    0  0.00000000000E+00  0.00000000000E+00  0.45593999997E+02  0.45594000000E+02  0.51100000000E-03 0.  1.
         11   -1    0    0    0    0 -0.00000000000E+00 -0.00000000000E+00 -0.45593999997E+02  0.45594000000E+02  0.51100000000E-03 0. -1.
    9900012    2    1    2    0    0  0.28284557213E+01 -0.58841013590E+01 -0.40131562331E+02  0.50528866885E+02  0.30000021383E+02 0.  0.
        -12    1    1    2    0    0 -0.28284557213E+01  0.58841013590E+01  0.40131562331E+02  0.40659133115E+02  0.00000000000E+00 0.  1.
         11    1    3    3    0    0 -0.11973123260E+01 -0.97629738991E+01 -0.19565222879E+02  0.21898565312E+02  0.51100000000E-03 0. -1.
        -11    1    3    3    0    0 -0.24274785479E+01  0.28450496132E+00  0.30368716263E+01  0.38982284065E+01  0.51100000000E-03 0.  1.
        -12    1    3    3    0    0  0.64532465951E+01  0.35943675788E+01 -0.23603211078E+02  0.24732073166E+02  0.00000000000E+00 0.  1.
</event>
<event>
 7    1  0.9978258E-013  0.5052885E+02  0.7816164E-02  0.1300439E+00
        -11   -1    0    0    0    0  0.00000000000E+00  0.00000000000E+00  0.45593999997E+02  0.45594000000E+02  0.51100000000E-03 0. -1.
         11   -1    0    0    0    0 -0.00000000000E+00 -0.00000000000E+00 -0.45593999997E+02  0.45594000000E+02  0.51100000000E-03 0.  1.
    9900012    2    1    2    0    0  0.65306937545E+01 -0.81574622787E+00  0.40122947805E+02  0.50528851665E+02  0.29999975120E+02 0.  0.
        -12    1    1    2    0    0 -0.65306937545E+01  0.81574622787E+00 -0.40122947805E+02  0.40659148335E+02  0.00000000000E+00 0.  1.
         11    1    3    3    0    0  0.98767152141E+01  0.49648622729E+01  0.14631477848E+02  0.18337925321E+02  0.51100000000E-03 0. -1.
        -11    1    3    3    0    0 -0.10888346330E+02 -0.17039605717E+01  0.13042977244E+02  0.17075679286E+02  0.51100000000E-03 0.  1.
        -12    1    3    3    0    0  0.75423248702E+01 -0.40766479290E+01  0.12448492713E+02  0.15115247058E+02  0.00000000000E+00 0.  1.
</event>
<event>
 7    1  0.9978258E-013  0.5052888E+02  0.7816164E-02  0.1300439E+00
        -11   -1    0    0    0    0  0.00000000000E+00  0.00000000000E+00  0.45593999997E+02  0.45594000000E+02  0.51100000000E-03 0. -1.
         11   -1    0    0    0    0 -0.00000000000E+00 -0.00000000000E+00 -0.45593999997E+02  0.45594000000E+02  0.51100000000E-03 0.  1.
    9900012    2    1    2    0    0 -0.12248980419E+02 -0.23007284976E+01  0.38701845216E+02  0.50528884219E+02  0.30000074072E+02 0.  0.
        -12    1    1    2    0    0  0.12248980419E+02  0.23007284976E+01 -0.38701845216E+02  0.40659115781E+02  0.00000000000E+00 0.  1.
         11    1    3    3    0    0 -0.52471462619E+01 -0.61012107165E+01  0.32212223234E+02  0.33202178273E+02  0.51100000000E-03 0. -1.
        -11    1    3    3    0    0 -0.50018859429E+01  0.35441035260E+00 -0.38006375262E+01  0.62920040965E+01  0.51100000000E-03 0.  1.
        -12    1    3    3    0    0 -0.19999482147E+01  0.34460718664E+01  0.10290259508E+02  0.11034701850E+02  0.00000000000E+00 0.  1.
</event>
<event>
 7    1  0.9978258E-013  0.5052885E+02  0.7816164E-02  0.1300439E+00
        -11   -1    0    0    0    0  0.00000000000E+00  0.00000000000E+00  0.45593999997E+02  0.45594000000E+02  0.51100000000E-03 0.  1.
         11   -1    0    0    0    0 -0.00000000000E+00 -0.00000000000E+00 -0.45593999997E+02  0.45594000000E+02  0.51100000000E-03 0. -1.
    9900012    2    1    2    0    0 -0.13018409961E+02 -0.16771504235E+02 -0.34675703202E+02  0.50528846728E+02  0.29999960115E+02 0.  0.
        -12    1    1    2    0    0  0.13018409961E+02  0.16771504235E+02  0.34675703202E+02  0.40659153272E+02  0.00000000000E+00 0.  1.
         11    1    3    3    0    0 -0.17285531355E+02 -0.13918450349E+02 -0.89635312147E+01  0.23934446859E+02  0.51100000000E-03 0. -1.
        -11    1    3    3    0    0  0.36250295351E+01 -0.32633353566E+00 -0.94890300194E+01  0.10163120765E+02  0.51100000000E-03 0.  1.
         12    1    3    3    0    0  0.64209185906E+00 -0.25267203502E+01 -0.16223141968E+02  0.16431279104E+02  0.00000000000E+00 0. -1.
</event>
<event>
 7    1  0.9978258E-013  0.5052885E+02  0.7816164E-02  0.1300439E+00
        -11   -1    0    0    0    0  0.00000000000E+00  0.00000000000E+00  0.45593999997E+02  0.45594000000E+02  0.51100000000E-03 0.  1.
         11   -1    0    0    0    0 -0.00000000000E+00 -0.00000000000E+00 -0.45593999997E+02  0.45594000000E+02  0.51100000000E-03 0. -1.
    9900012    2    1    2    0    0  0.29642443994E+02 -0.87561270673E+01 -0.26416318184E+02  0.50528854491E+02  0.29999983710E+02 0.  0.
        -12    1    1    2    0    0 -0.29642443994E+02  0.87561270673E+01  0.26416318184E+02  0.40659145509E+02  0.00000000000E+00 0.  1.
         11    1    3    3    0    0  0.20743901795E+02 -0.12623631409E+02 -0.31128310690E+02  0.39479580271E+02  0.51100000000E-03 0. -1.
        -11    1    3    3    0    0  0.32504783268E+01  0.29121353413E+00  0.20482959609E+01  0.38530418218E+01  0.51100000000E-03 0.  1.
         12    1    3    3    0    0  0.56480638718E+01  0.35762908077E+01  0.26636965457E+01  0.71962323982E+01  0.00000000000E+00 0. -1.
</event>
<event>
 7    1  0.9978258E-013  0.5052886E+02  0.7816164E-02  0.1300439E+00
        -11   -1    0    0    0    0  0.00000000000E+00  0.00000000000E+00  0.45593999997E+02  0.45594000000E+02  0.51100000000E-03 0. -1.
         11   -1    0    0    0    0 -0.00000000000E+00 -0.00000000000E+00 -0.45593999997E+02  0.45594000000E+02  0.51100000000E-03 0.  1.
    9900012    2    1    2    0    0 -0.20004907801E+02  0.34147836215E+02  0.93217282203E+01  0.50528859929E+02  0.30000000240E+02 0.  0.
        -12    1    1    2    0    0  0.20004907801E+02 -0.34147836215E+02 -0.93217282203E+01  0.40659140071E+02  0.00000000000E+00 0.  1.
         11    1    3    3    0    0 -0.10417102991E+02  0.22475823328E+02  0.14350994964E+02  0.28629176127E+02  0.51100000000E-03 0. -1.
        -11    1    3    3    0    0 -0.13605448556E+02  0.10131550552E+02 -0.34132152317E+01  0.17303369195E+02  0.51100000000E-03 0.  1.
         12    1    3    3    0    0  0.40176437460E+01  0.15404623345E+01 -0.16160515123E+01  0.45963146068E+01  0.00000000000E+00 0. -1.
</event>
<event>
 7    1  0.9978258E-013  0.5052885E+02  0.7816164E-02  0.1300439E+00
        -11   -1    0    0    0    0  0.00000000000E+00  0.00000000000E+00  0.45593999997E+02  0.45594000000E+02  0.51100000000E-03 0.  1.
         11   -1    0    0    0    0 -0.00000000000E+00 -0.00000000000E+00 -0.45593999997E+02  0.45594000000E+02  0.51100000000E-03 0. -1.
    9900012    2    1    2    0    0 -0.16267994861E+02  0.18502912788E+02 -0.32344413444E+02  0.50528849499E+02  0.29999968536E+02 0.  0.
        -12    1    1    2    0    0  0.16267994861E+02 -0.18502912788E+02  0.32344413444E+02  0.40659150501E+02  0.00000000000E+00 0.  1.
         11    1    3    3    0    0 -0.22623961486E+02  0.73087841600E+01 -0.20370840203E+02  0.31308674359E+02  0.51100000000E-03 0. -1.
        -11    1    3    3    0    0  0.49879750772E+01  0.41812914599E+01 -0.17367334653E+01  0.67364187099E+01  0.51100000000E-03 0.  1.
         12    1    3    3    0    0  0.13679915476E+01  0.70128371677E+01 -0.10236839776E+02  0.12483756430E+02  0.00000000000E+00 0. -1.
</event>
<event>
 7    1  0.9978258E-013  0.5052885E+02  0.7816164E-02  0.1300439E+00
        -11   -1    0    0    0    0  0.00000000000E+00  0.00000000000E+00  0.45593999997E+02  0.45594000000E+02  0.51100000000E-03 0. -1.
         11   -1    0    0    0    0 -0.00000000000E+00 -0.00000000000E+00 -0.45593999997E+02  0.45594000000E+02  0.51100000000E-03 0.  1.
    9900012    2    1    2    0    0 -0.26276266389E+02 -0.17094519903E+02  0.25894047436E+02  0.50528850000E+02  0.29999970061E+02 0.  0.
        -12    1    1    2    0    0  0.26276266389E+02  0.17094519903E+02 -0.25894047436E+02  0.40659150000E+02  0.00000000000E+00 0.  1.
         11    1    3    3    0    0 -0.14474134280E+02  0.30076414333E+01  0.19897803109E+02  0.24788486016E+02  0.51100000000E-03 0. -1.
        -11    1    3    3    0    0 -0.12422600039E+01 -0.11052581934E+02  0.28623381734E+01  0.11484587821E+02  0.51100000000E-03 0.  1.
         12    1    3    3    0    0 -0.10559872105E+02 -0.90495794024E+01  0.31339061538E+01  0.14255776163E+02  0.00000000000E+00 0. -1.
</event>
<event>
 7    1  0.9978258E-013  0.5052887E+02  0.7816164E-02  0.1300439E+00
        -11   -1    0    0    0    0  0.00000000000E+00  0.00000000000E+00  0.45593999997E+02  0.45594000000E+02  0.51100000000E-03 0.  1.
         11   -1    0    0    0    0 -0.00000000000E+00 -0.00000000000E+00 -0.45593999997E+02  0.45594000000E+02  0.51100000000E-03 0. -1.
    9900012    2    1    2    0    0  0.28580926960E+01  0.40542240805E+02 -0.11500091031E+01  0.50528874280E+02  0.30000043862E+02 0.  0.
        -12    1    1    2    0    0 -0.28580926960E+01 -0.40542240805E+02  0.11500091031E+01  0.40659125720E+02  0.00000000000E+00 0.  1.
         11    1    3    3    0    0  0.76623168909E+01  0.30302233421E+02 -0.97577555792E+01  0.32743705420E+02  0.51100000000E-03 0. -1.
        -11    1    3    3    0    0 -0.77362410460E+01  0.41009107045E+01  0.50461040394E+01  0.10105941835E+02  0.51100000000E-03 0.  1.
        -12    1    3    3    0    0  0.29320168511E+01  0.61390966801E+01  0.35616424367E+01  0.76792270255E+01  0.00000000000E+00 0.  1.
</event>
<event>
 7    1  0.9978258E-013  0.5052886E+02  0.7816164E-02  0.1300439E+00
        -11   -1    0    0    0    0  0.00000000000E+00  0.00000000000E+00  0.45593999997E+02  0.45594000000E+02  0.51100000000E-03 0.  1.
         11   -1    0    0    0    0 -0.00000000000E+00 -0.00000000000E+00 -0.45593999997E+02  0.45594000000E+02  0.51100000000E-03 0. -1.
    9900012    2    1    2    0    0 -0.14744119675E+02  0.37615356137E+02  0.45674696283E+01  0.50528857595E+02  0.29999993145E+02 0.  0.
        -12    1    1    2    0    0  0.14744119675E+02 -0.37615356137E+02 -0.45674696283E+01  0.40659142405E+02  0.00000000000E+00 0.  1.
         11    1    3    3    0    0  0.16045605866E+01 -0.18709830179E+01 -0.30484605509E+01  0.39202428650E+01  0.51100000000E-03 0. -1.
        -11    1    3    3    0    0 -0.13528272350E+02  0.35355515062E+02  0.12252009007E+02  0.39788670787E+02  0.51100000000E-03 0.  1.
        -12    1    3    3    0    0 -0.28204079122E+01  0.41308240933E+01 -0.46360788276E+01  0.68199439424E+01  0.00000000000E+00 0.  1.
</event>
<event>
 7    1  0.9978258E-013  0.5052886E+02  0.7816164E-02  0.1300439E+00
        -11   -1    0    0    0    0  0.00000000000E+00  0.00000000000E+00  0.45593999997E+02  0.45594000000E+02  0.51100000000E-03 0.  1.
         11   -1    0    0    0    0 -0.00000000000E+00 -0.00000000000E+00 -0.45593999997E+02  0.45594000000E+02  0.51100000000E-03 0. -1.
    9900012    2    1    2    0    0 -0.71232675614E+01 -0.19368497138E+02 -0.35032643106E+02  0.50528859513E+02  0.29999998977E+02 0.  0.
        -12    1    1    2    0    0  0.71232675614E+01  0.19368497138E+02  0.35032643106E+02  0.40659140487E+02  0.00000000000E+00 0.  1.
         11    1    3    3    0    0  0.53106468881E+01 -0.70123969986E+01  0.11783518592E+01  0.88749757972E+01  0.51100000000E-03 0. -1.
        -11    1    3    3    0    0 -0.70591538996E+01 -0.27260910126E+01 -0.65475258581E+01  0.10006663835E+02  0.51100000000E-03 0.  1.
         12    1    3    3    0    0 -0.53747605499E+01 -0.96300091270E+01 -0.29663469107E+02  0.31647219881E+02  0.00000000000E+00 0. -1.
</event>
<event>
 7    1  0.9978258E-013  0.5052886E+02  0.7816164E-02  0.1300439E+00
        -11   -1    0    0    0    0  0.00000000000E+00  0.00000000000E+00  0.45593999997E+02  0.45594000000E+02  0.51100000000E-03 0. -1.
         11   -1    0    0    0    0 -0.00000000000E+00 -0.00000000000E+00 -0.45593999997E+02  0.45594000000E+02  0.51100000000E-03 0.  1.
    9900012    2    1    2    0    0 -0.31089036428E+01  0.86851042033E+01  0.39598850715E+02  0.50528864559E+02  0.30000014314E+02 0.  0.
        -12    1    1    2    0    0  0.31089036428E+01 -0.86851042033E+01 -0.39598850715E+02  0.40659135441E+02  0.00000000000E+00 0.  1.
         11    1    3    3    0    0 -0.40451171556E+01  0.12777802171E+01  0.20749026890E+02  0.21178239120E+02  0.51100000000E-03 0. -1.
        -11    1    3    3    0    0  0.59158122084E+01  0.84727114645E+01  0.54203930476E+00  0.10347824917E+02  0.51100000000E-03 0.  1.
        -12    1    3    3    0    0 -0.49795986956E+01 -0.10653874784E+01  0.18307784520E+02  0.19002800522E+02  0.00000000000E+00 0.  1.
</event>
<event>
 7    1  0.9978258E-013  0.5052887E+02  0.7816164E-02  0.1300439E+00
        -11   -1    0    0    0    0  0.00000000000E+00  0.00000000000E+00  0.45593999997E+02  0.45594000000E+02  0.51100000000E-03 0.  1.
         11   -1    0    0    0    0 -0.00000000000E+00 -0.00000000000E+00 -0.45593999997E+02  0.45594000000E+02  0.51100000000E-03 0. -1.
    9900012    2    1    2    0    0  0.31297273293E+02 -0.15796069274E+01 -0.25906565503E+02  0.50528872983E+02  0.30000039919E+02 0.  0.
        -12    1    1    2    0    0 -0.31297273293E+02  0.15796069274E+01  0.25906565503E+02  0.40659127017E+02  0.00000000000E+00 0.  1.
         11    1    3    3    0    0  0.67789456744E+00  0.18040068672E+01 -0.43325797581E+01  0.47418592812E+01  0.51100000000E-03 0. -1.
        -11    1    3    3    0    0  0.24198541144E+02 -0.70267155403E+00 -0.11786289536E+01  0.24237415441E+02  0.51100000000E-03 0.  1.
        -12    1    3    3    0    0  0.64208375821E+01 -0.26809422406E+01 -0.20395356791E+02  0.21549598260E+02  0.00000000000E+00 0.  1.
</event>
<event>
 7    1  0.9978258E-013  0.5052886E+02  0.7816164E-02  0.1300439E+00
        -11   -1    0    0    0    0  0.00000000000E+00  0.00000000000E+00  0.45593999997E+02  0.45594000000E+02  0.51100000000E-03 0.  1.
         11   -1    0    0    0    0 -0.00000000000E+00 -0.00000000000E+00 -0.45593999997E+02  0.45594000000E+02  0.51100000000E-03 0. -1.
    9900012    2    1    2    0    0 -0.24303319163E+02 -0.11547402871E+02 -0.30482314197E+02  0.50528864321E+02  0.30000013589E+02 0.  0.
        -12    1    1    2    0    0  0.24303319163E+02  0.11547402871E+02  0.30482314197E+02  0.40659135679E+02  0.00000000000E+00 0.  1.
         11    1    3    3    0    0 -0.11394110733E+02 -0.13658902615E+02 -0.94904446695E+01  0.20160851181E+02  0.51100000000E-03 0. -1.
        -11    1    3    3    0    0 -0.16330908904E+02  0.46753294208E+01 -0.19448088979E+02  0.25822189218E+02  0.51100000000E-03 0.  1.
        -12    1    3    3    0    0  0.34217004744E+01 -0.25638296765E+01 -0.15437805486E+01  0.45458239219E+01  0.00000000000E+00 0.  1.
</event>
<event>
 7    1  0.9978258E-013  0.5052884E+02  0.7816164E-02  0.1300439E+00
        -11   -1    0    0    0    0  0.00000000000E+00  0.00000000000E+00  0.45593999997E+02  0.45594000000E+02  0.51100000000E-03 0.  1.
         11   -1    0    0    0    0 -0.00000000000E+00 -0.00000000000E+00 -0.45593999997E+02  0.45594000000E+02  0.51100000000E-03 0. -1.
    9900012    2    1    2    0    0 -0.21375117370E+02 -0.47692316374E+01 -0.34256762743E+02  0.50528843508E+02  0.29999950326E+02 0.  0.
        -12    1    1    2    0    0  0.21375117370E+02  0.47692316374E+01  0.34256762743E+02  0.40659156492E+02  0.00000000000E+00 0.  1.
         11    1    3    3    0    0 -0.14681528535E+02  0.31976697560E+01 -0.32073839362E+02  0.35418971522E+02  0.51100000000E-03 0. -1.
        -11    1    3    3    0    0 -0.33102289143E+01 -0.10204164643E+02 -0.56371026019E+00  0.10742456007E+02  0.51100000000E-03 0.  1.
         12    1    3    3    0    0 -0.33833599205E+01  0.22372632501E+01 -0.16192131214E+01  0.43674159791E+01  0.00000000000E+00 0. -1.
</event>
<event>
 7    1  0.9978258E-013  0.5052886E+02  0.7816164E-02  0.1300439E+00
        -11   -1    0    0    0    0  0.00000000000E+00  0.00000000000E+00  0.45593999997E+02  0.45594000000E+02  0.51100000000E-03 0.  1.
         11   -1    0    0    0    0 -0.00000000000E+00 -0.00000000000E+00 -0.45593999997E+02  0.45594000000E+02  0.51100000000E-03 0. -1.
    9900012    2    1    2    0    0  0.19504803462E+02  0.18386842696E+02 -0.30572080856E+02  0.50528862401E+02  0.30000007754E+02 0.  0.
        -12    1    1    2    0    0 -0.19504803462E+02 -0.18386842696E+02  0.30572080856E+02  0.40659137599E+02  0.00000000000E+00 0.  1.
         11    1    3    3    0    0  0.38854960437E+01 -0.68089496540E+01 -0.28732323632E+01  0.83495113253E+01  0.51100000000E-03 0. -1.
        -11    1    3    3    0    0  0.14768111617E+02  0.13570807829E+02 -0.15905839294E+02  0.25598040350E+02  0.51100000000E-03 0.  1.
        -12    1    3    3    0    0  0.85119580195E+00  0.11624984521E+02 -0.11793009199E+02  0.16581310725E+02  0.00000000000E+00 0.  1.
</event>
<event>
 7    1  0.9978258E-013  0.5052885E+02  0.7816164E-02  0.1300439E+00
        -11   -1    0    0    0    0  0.00000000000E+00  0.00000000000E+00  0.45593999997E+02  0.45594000000E+02  0.51100000000E-03 0.  1.
         11   -1    0    0    0    0 -0.00000000000E+00 -0.00000000000E+00 -0.45593999997E+02  0.45594000000E+02  0.51100000000E-03 0. -1.
    9900012    2    1    2    0    0 -0.58676145637E+01 -0.40016507606E+02 -0.41732913589E+01  0.50528854136E+02  0.29999982632E+02 0.  0.
        -12    1    1    2    0    0  0.58676145637E+01  0.40016507606E+02  0.41732913589E+01  0.40659145864E+02  0.00000000000E+00 0.  1.
         11    1    3    3    0    0  0.55091518786E+01 -0.19298128992E+02 -0.48006082783E+01  0.20635270221E+02  0.51100000000E-03 0. -1.
        -11    1    3    3    0    0 -0.91557751832E+01 -0.16330825965E+00  0.10298043073E+01  0.92149544744E+01  0.51100000000E-03 0.  1.
        -12    1    3    3    0    0 -0.22209912591E+01 -0.20555070354E+02 -0.40248738799E+00  0.20678629440E+02  0.00000000000E+00 0.  1.
</event>
<event>
 7    1  0.9978258E-013  0.5052886E+02  0.7816164E-02  0.1300439E+00
        -11   -1    0    0    0    0  0.00000000000E+00  0.00000000000E+00  0.45593999997E+02  0.45594000000E+02  0.51100000000E-03 0.  1.
         11   -1    0    0    0    0 -0.00000000000E+00 -0.00000000000E+00 -0.45593999997E+02  0.45594000000E+02  0.51100000000E-03 0. -1.
    9900012    2    1    2    0    0  0.28090388431E+02  0.23539596576E+02 -0.17606333134E+02  0.50528862089E+02  0.30000006807E+02 0.  0.
        -12    1    1    2    0    0 -0.28090388431E+02 -0.23539596576E+02  0.17606333134E+02  0.40659137911E+02  0.00000000000E+00 0.  1.
         11    1    3    3    0    0  0.12650346878E+02  0.74008875263E+00 -0.68533183090E+01  0.14406490885E+02  0.51100000000E-03 0. -1.
        -11    1    3    3    0    0  0.31885380013E+01 -0.21782955637E+01 -0.70741827791E+01  0.80595166357E+01  0.51100000000E-03 0.  1.
        -12    1    3    3    0    0  0.12251503552E+02  0.24977803388E+02 -0.36788320458E+01  0.28062854569E+02  0.00000000000E+00 0.  1.
</event>
<event>
 7    1  0.9978258E-013  0.5052886E+02  0.7816164E-02  0.1300439E+00
        -11   -1    0    0    0    0  0.00000000000E+00  0.00000000000E+00  0.45593999997E+02  0.45594000000E+02  0.51100000000E-03 0. -1.
         11   -1    0    0    0    0 -0.00000000000E+00 -0.00000000000E+00 -0.45593999997E+02  0.45594000000E+02  0.51100000000E-03 0.  1.
    9900012    2    1    2    0    0  0.19869964938E+02  0.74140245021E+01  0.34689804364E+02  0.50528858436E+02  0.29999995702E+02 0.  0.
        -12    1    1    2    0    0 -0.19869964938E+02 -0.74140245021E+01 -0.34689804364E+02  0.40659141564E+02  0.00000000000E+00 0.  1.
         11    1    3    3    0    0  0.52553652135E+01  0.17290037024E+02  0.17125396819E+02  0.24896655604E+02  0.51100000000E-03 0. -1.
        -11    1    3    3    0    0  0.79761728303E+01 -0.18469571018E+01  0.66919523183E+01  0.10574157633E+02  0.51100000000E-03 0.  1.
         12    1    3    3    0    0  0.66384268940E+01 -0.80290554196E+01  0.10872455226E+02  0.15058045198E+02  0.00000000000E+00 0. -1.
</event>
<event>
 7    1  0.9978258E-013  0.5052888E+02  0.7816164E-02  0.1300439E+00
        -11   -1    0    0    0    0  0.00000000000E+00  0.00000000000E+00  0.45593999997E+02  0.45594000000E+02  0.51100000000E-03 0. -1.
         11   -1    0    0    0    0 -0.00000000000E+00 -0.00000000000E+00 -0.45593999997E+02  0.45594000000E+02  0.51100000000E-03 0.  1.
    9900012    2    1    2    0    0 -0.33554481965E+02 -0.55162732724E+01  0.22289714010E+02  0.50528881940E+02  0.30000067145E+02 0.  0.
        -12    1    1    2    0    0  0.33554481965E+02  0.55162732724E+01 -0.22289714010E+02  0.40659118060E+02  0.00000000000E+00 0.  1.
         11    1    3    3    0    0 -0.33634467915E+02 -0.48205861583E+01  0.10879652652E+02  0.35677476437E+02  0.51100000000E-03 0. -1.
        -11    1    3    3    0    0  0.37797231198E+01  0.25707925538E+01  0.54622007966E+01  0.71225640763E+01  0.51100000000E-03 0.  1.
         12    1    3    3    0    0 -0.36997371705E+01 -0.32664796680E+01  0.59478605610E+01  0.77288414271E+01  0.00000000000E+00 0. -1.
</event>
<event>
 7    1  0.9978258E-013  0.5052885E+02  0.7816164E-02  0.1300439E+00
        -11   -1    0    0    0    0  0.00000000000E+00  0.00000000000E+00  0.45593999997E+02  0.45594000000E+02  0.51100000000E-03 0.  1.
         11   -1    0    0    0    0 -0.00000000000E+00 -0.00000000000E+00 -0.45593999997E+02  0.45594000000E+02  0.51100000000E-03 0. -1.
    9900012    2    1    2    0    0 -0.11553869275E+02  0.16462830131E+02 -0.35336234437E+02  0.50528854223E+02  0.29999982895E+02 0.  0.
        -12    1    1    2    0    0  0.11553869275E+02 -0.16462830131E+02  0.35336234437E+02  0.40659145777E+02  0.00000000000E+00 0.  1.
         11    1    3    3    0    0  0.44458930611E+01  0.11994750801E+02 -0.76364835943E+01  0.14898184246E+02  0.51100000000E-03 0. -1.
        -11    1    3    3    0    0 -0.50746685921E+01 -0.29308593408E+01 -0.11345353552E+01  0.59690341370E+01  0.51100000000E-03 0.  1.
         12    1    3    3    0    0 -0.10925093744E+02  0.73989386712E+01 -0.26565215488E+02  0.29661635840E+02  0.00000000000E+00 0. -1.
</event>
<event>
 7    1  0.9978258E-013  0.5052886E+02  0.7816164E-02  0.1300439E+00
        -11   -1    0    0    0    0  0.00000000000E+00  0.00000000000E+00  0.45593999997E+02  0.45594000000E+02  0.51100000000E-03 0.  1.
         11   -1    0    0    0    0 -0.00000000000E+00 -0.00000000000E+00 -0.45593999997E+02  0.45594000000E+02  0.51100000000E-03 0. -1.
    9900012    2    1    2    0    0 -0.46119112384E+01  0.84532198203E+01 -0.39502397350E+02  0.50528855309E+02  0.29999986197E+02 0.  0.
        -12    1    1    2    0    0  0.46119112384E+01 -0.84532198203E+01  0.39502397350E+02  0.40659144691E+02  0.00000000000E+00 0.  1.
         11    1    3    3    0    0  0.93488954241E+01 -0.10037102416E+01 -0.25442093998E+02  0.27123964076E+02  0.51100000000E-03 0. -1.
        -11    1    3    3    0    0 -0.84126626162E+01  0.84074819470E+00 -0.67046716864E+01  0.10790383334E+02  0.51100000000E-03 0.  1.
         12    1    3    3    0    0 -0.55481440464E+01  0.86161818672E+01 -0.73556316656E+01  0.12614507899E+02  0.00000000000E+00 0. -1.
</event>
<event>
 7    1  0.9978258E-013  0.5052886E+02  0.7816164E-02  0.1300439E+00
        -11   -1    0    0    0    0  0.00000000000E+00  0.00000000000E+00  0.45593999997E+02  0.45594000000E+02  0.51100000000E-03 0. -1.
         11   -1    0    0    0    0 -0.00000000000E+00 -0.00000000000E+00 -0.45593999997E+02  0.45594000000E+02  0.51100000000E-03 0.  1.
    9900012    2    1    2    0    0 -0.73588958027E+01 -0.36608390083E+02  0.16088456108E+02  0.50528855988E+02  0.29999988260E+02 0.  0.
        -12    1    1    2    0    0  0.73588958027E+01  0.36608390083E+02 -0.16088456108E+02  0.40659144012E+02  0.00000000000E+00 0.  1.
         11    1    3    3    0    0  0.17351497436E+01 -0.11133265362E+02  0.73069692090E+01  0.13429524993E+02  0.51100000000E-03 0. -1.
        -11    1    3    3    0    0 -0.30822244208E-01 -0.12798553680E+02 -0.72769997729E+01  0.14722725707E+02  0.51100000000E-03 0.  1.
        -12    1    3    3    0    0 -0.90632233022E+01 -0.12676571041E+02  0.16058486672E+02  0.22376605287E+02  0.00000000000E+00 0.  1.
</event>
<event>
 7    1  0.9978258E-013  0.5052885E+02  0.7816164E-02  0.1300439E+00
        -11   -1    0    0    0    0  0.00000000000E+00  0.00000000000E+00  0.45593999997E+02  0.45594000000E+02  0.51100000000E-03 0. -1.
         11   -1    0    0    0    0 -0.00000000000E+00 -0.00000000000E+00 -0.45593999997E+02  0.45594000000E+02  0.51100000000E-03 0.  1.
    9900012    2    1    2    0    0 -0.66398058088E+01 -0.38019621832E+02 -0.12790146625E+02  0.50528849540E+02  0.29999968662E+02 0.  0.
        -12    1    1    2    0    0  0.66398058088E+01  0.38019621832E+02  0.12790146625E+02  0.40659150460E+02  0.00000000000E+00 0.  1.
         11    1    3    3    0    0 -0.88723987444E+01 -0.41448305230E+02 -0.91035029659E+01  0.43353837574E+02  0.51100000000E-03 0. -1.
        -11    1    3    3    0    0 -0.48680163774E+00  0.27106494209E+01 -0.29632884550E+00  0.27699110389E+01  0.51100000000E-03 0.  1.
         12    1    3    3    0    0  0.27193945734E+01  0.71803397681E+00 -0.33903148139E+01  0.44051009268E+01  0.00000000000E+00 0. -1.
</event>
<event>
 7    1  0.9978258E-013  0.5052888E+02  0.7816164E-02  0.1300439E+00
        -11   -1    0    0    0    0  0.00000000000E+00  0.00000000000E+00  0.45593999997E+02  0.45594000000E+02  0.51100000000E-03 0.  1.
         11   -1    0    0    0    0 -0.00000000000E+00 -0.00000000000E+00 -0.45593999997E+02  0.45594000000E+02  0.51100000000E-03 0. -1.
    9900012    2    1    2    0    0 -0.92758580575E+01 -0.31519463695E+02 -0.23950914565E+02  0.50528875036E+02  0.30000046160E+02 0.  0.
        -12    1    1    2    0    0  0.92758580575E+01  0.31519463695E+02  0.23950914565E+02  0.40659124964E+02  0.00000000000E+00 0.  1.
         11    1    3    3    0    0  0.88390094213E+01 -0.30522747480E+01 -0.38558586661E+01  0.10114945131E+02  0.51100000000E-03 0. -1.
        -11    1    3    3    0    0 -0.31227673938E+01 -0.13352548559E+02 -0.67062365114E+01  0.15264856292E+02  0.51100000000E-03 0.  1.
         12    1    3    3    0    0 -0.14992100085E+02 -0.15114640388E+02 -0.13388819388E+02  0.25149073614E+02  0.00000000000E+00 0. -1.
</event>
<event>
 7    1  0.9978258E-013  0.5052886E+02  0.7816164E-02  0.1300439E+00
        -11   -1    0    0    0    0  0.00000000000E+00  0.00000000000E+00  0.45593999997E+02  0.45594000000E+02  0.51100000000E-03 0.  1.
         11   -1    0    0    0    0 -0.00000000000E+00 -0.00000000000E+00 -0.45593999997E+02  0.45594000000E+02  0.51100000000E-03 0. -1.
    9900012    2    1    2    0    0  0.18913593888E+02  0.49747009699E+01 -0.35646797349E+02  0.50528857796E+02  0.29999993756E+02 0.  0.
        -12    1    1    2    0    0 -0.18913593888E+02 -0.49747009699E+01  0.35646797349E+02  0.40659142204E+02  0.00000000000E+00 0.  1.
         11    1    3    3    0    0  0.11117741762E+02  0.13667362832E+02 -0.18372241576E+02  0.25454670484E+02  0.51100000000E-03 0. -1.
        -11    1    3    3    0    0  0.52913750485E+01 -0.12414894591E+02 -0.11293220767E+02  0.17597303577E+02  0.51100000000E-03 0.  1.
        -12    1    3    3    0    0  0.25044770779E+01  0.37222327296E+01 -0.59813350065E+01  0.74768837351E+01  0.00000000000E+00 0.  1.
</event>
<event>
 7    1  0.9978258E-013  0.5052886E+02  0.7816164E-02  0.1300439E+00
        -11   -1    0    0    0    0  0.00000000000E+00  0.00000000000E+00  0.45593999997E+02  0.45594000000E+02  0.51100000000E-03 0.  1.
         11   -1    0    0    0    0 -0.00000000000E+00 -0.00000000000E+00 -0.45593999997E+02  0.45594000000E+02  0.51100000000E-03 0. -1.
    9900012    2    1    2    0    0 -0.14726288785E+02  0.37270460972E+02  0.68712934979E+01  0.50528861829E+02  0.30000006016E+02 0.  0.
        -12    1    1    2    0    0  0.14726288785E+02 -0.37270460972E+02 -0.68712934979E+01  0.40659138171E+02  0.00000000000E+00 0.  1.
         11    1    3    3    0    0 -0.85875938487E+01  0.60382238052E+01 -0.93765147330E+01  0.14075721780E+02  0.51100000000E-03 0.  1.
        -11    1    3    3    0    0 -0.71846672711E+01  0.27757959205E+02  0.15955343941E+02  0.32813057516E+02  0.51100000000E-03 0. -1.
         12    1    3    3    0    0  0.10459723349E+01  0.34742779621E+01  0.29246428958E+00  0.36400825326E+01  0.00000000000E+00 0. -1.
</event>
<event>
 7    1  0.9978258E-013  0.5052886E+02  0.7816164E-02  0.1300439E+00
        -11   -1    0    0    0    0  0.00000000000E+00  0.00000000000E+00  0.45593999997E+02  0.45594000000E+02  0.51100000000E-03 0. -1.
         11   -1    0    0    0    0 -0.00000000000E+00 -0.00000000000E+00 -0.45593999997E+02  0.45594000000E+02  0.51100000000E-03 0.  1.
    9900012    2    1    2    0    0  0.95254370110E+01 -0.39236030351E+02 -0.47922817369E+01  0.50528855983E+02  0.29999988247E+02 0.  0.
        -12    1    1    2    0    0 -0.95254370110E+01  0.39236030351E+02  0.47922817369E+01  0.40659144017E+02  0.00000000000E+00 0.  1.
         11    1    3    3    0    0 -0.15413219640E+01 -0.19802016379E+02  0.31437785156E+01  0.20109173770E+02  0.51100000000E-03 0. -1.
        -11    1    3    3    0    0  0.33249643813E+01 -0.85257810738E+01 -0.13185702286E+02  0.16050142556E+02  0.51100000000E-03 0.  1.
        -12    1    3    3    0    0  0.77417945937E+01 -0.10908232897E+02  0.52496420332E+01  0.14369539657E+02  0.00000000000E+00 0.  1.
</event>
<event>
 7    1  0.9978258E-013  0.5052884E+02  0.7816164E-02  0.1300439E+00
        -11   -1    0    0    0    0  0.00000000000E+00  0.00000000000E+00  0.45593999997E+02  0.45594000000E+02  0.51100000000E-03 0.  1.
         11   -1    0    0    0    0 -0.00000000000E+00 -0.00000000000E+00 -0.45593999997E+02  0.45594000000E+02  0.51100000000E-03 0. -1.
    9900012    2    1    2    0    0 -0.12801234531E+01  0.29830341744E+02 -0.27598530830E+02  0.50528844714E+02  0.29999953994E+02 0.  0.
        -12    1    1    2    0    0  0.12801234531E+01 -0.29830341744E+02  0.27598530830E+02  0.40659155286E+02  0.00000000000E+00 0.  1.
         11    1    3    3    0    0 -0.45207600501E+00  0.29040021914E+02 -0.30973773442E+02  0.42460592165E+02  0.51100000000E-03 0. -1.
        -11    1    3    3    0    0  0.24330385224E+01 -0.19103891380E+01  0.14800662720E+01  0.34292651605E+01  0.51100000000E-03 0.  1.
         12    1    3    3    0    0 -0.32610859706E+01  0.27007089671E+01  0.18951763405E+01  0.46389873889E+01  0.00000000000E+00 0. -1.
</event>
<event>
 7    1  0.9978258E-013  0.5052886E+02  0.7816164E-02  0.1300439E+00
        -11   -1    0    0    0    0  0.00000000000E+00  0.00000000000E+00  0.45593999997E+02  0.45594000000E+02  0.51100000000E-03 0.  1.
         11   -1    0    0    0    0 -0.00000000000E+00 -0.00000000000E+00 -0.45593999997E+02  0.45594000000E+02  0.51100000000E-03 0. -1.
    9900012    2    1    2    0    0  0.14876254489E+02 -0.30060751870E+02 -0.22982908670E+02  0.50528857836E+02  0.29999993878E+02 0.  0.
        -12    1    1    2    0    0 -0.14876254489E+02  0.30060751870E+02  0.22982908670E+02  0.40659142164E+02  0.00000000000E+00 0.  1.
         11    1    3    3    0    0  0.10410222756E+02 -0.22243683798E+02 -0.73232245070E+01  0.25627793978E+02  0.51100000000E-03 0. -1.
        -11    1    3    3    0    0  0.20311707986E+00  0.83738047017E+00 -0.15219264471E+02  0.15243637161E+02  0.51100000000E-03 0.  1.
        -12    1    3    3    0    0  0.42629146529E+01 -0.86544485420E+01 -0.44041969203E+00  0.96574266970E+01  0.00000000000E+00 0.  1.
</event>
<event>
 7    1  0.9978258E-013  0.5052886E+02  0.7816164E-02  0.1300439E+00
        -11   -1    0    0    0    0  0.00000000000E+00  0.00000000000E+00  0.45593999997E+02  0.45594000000E+02  0.51100000000E-03 0.  1.
         11   -1    0    0    0    0 -0.00000000000E+00 -0.00000000000E+00 -0.45593999997E+02  0.45594000000E+02  0.51100000000E-03 0. -1.
    9900012    2    1    2    0    0  0.20638787451E+02  0.21491680225E+02 -0.27664311720E+02  0.50528855773E+02  0.29999987608E+02 0.  0.
        -12    1    1    2    0    0 -0.20638787451E+02 -0.21491680225E+02  0.27664311720E+02  0.40659144227E+02  0.00000000000E+00 0.  1.
         11    1    3    3    0    0  0.11135435103E+02 -0.13771606410E+01 -0.18132526470E+02  0.21323297184E+02  0.51100000000E-03 0. -1.
        -11    1    3    3    0    0 -0.24724547079E+01  0.23416005594E+01  0.43882899169E+00  0.34334671409E+01  0.51100000000E-03 0.  1.
         12    1    3    3    0    0  0.11975807056E+02  0.20527240307E+02 -0.99706142410E+01  0.25772091448E+02  0.00000000000E+00 0. -1.
</event>
<event>
 7    1  0.9978258E-013  0.5052887E+02  0.7816164E-02  0.1300439E+00
        -11   -1    0    0    0    0  0.00000000000E+00  0.00000000000E+00  0.45593999997E+02  0.45594000000E+02  0.51100000000E-03 0.  1.
         11   -1    0    0    0    0 -0.00000000000E+00 -0.00000000000E+00 -0.45593999997E+02  0.45594000000E+02  0.51100000000E-03 0. -1.
    9900012    2    1    2    0    0 -0.15886374133E+02 -0.30820141942E+02 -0.21234561362E+02  0.50528872751E+02  0.30000039215E+02 0.  0.
        -12    1    1    2    0    0  0.15886374133E+02  0.30820141942E+02  0.21234561362E+02  0.40659127249E+02  0.00000000000E+00 0.  1.
         11    1    3    3    0    0 -0.95985003854E+01 -0.95193744812E+01 -0.11669823811E+02  0.17858737027E+02  0.51100000000E-03 0. -1.
        -11    1    3    3    0    0  0.73685878844E+01 -0.28476213097E+01 -0.27373175216E+00  0.79044268525E+01  0.51100000000E-03 0.  1.
        -12    1    3    3    0    0 -0.13656461632E+02 -0.18453146151E+02 -0.92910057982E+01  0.24765708872E+02  0.00000000000E+00 0.  1.
</event>
<event>
 7    1  0.9978258E-013  0.5052884E+02  0.7816164E-02  0.1300439E+00
        -11   -1    0    0    0    0  0.00000000000E+00  0.00000000000E+00  0.45593999997E+02  0.45594000000E+02  0.51100000000E-03 0. -1.
         11   -1    0    0    0    0 -0.00000000000E+00 -0.00000000000E+00 -0.45593999997E+02  0.45594000000E+02  0.51100000000E-03 0.  1.
    9900012    2    1    2    0    0 -0.29326300636E+02 -0.96160109795E+01 -0.26470123170E+02  0.50528843630E+02  0.29999950696E+02 0.  0.
        -12    1    1    2    0    0  0.29326300636E+02  0.96160109795E+01  0.26470123170E+02  0.40659156370E+02  0.00000000000E+00 0.  1.
         11    1    3    3    0    0 -0.14507679181E+02 -0.58447974109E+01 -0.74770193315E+01  0.17336096168E+02  0.51100000000E-03 0. -1.
        -11    1    3    3    0    0 -0.83137736446E+01  0.75034408550E+01 -0.16496720271E+02  0.19938962783E+02  0.51100000000E-03 0.  1.
        -12    1    3    3    0    0 -0.65048478103E+01 -0.11274654424E+02 -0.24963835667E+01  0.13253784679E+02  0.00000000000E+00 0.  1.
</event>
<event>
 7    1  0.9978258E-013  0.5052888E+02  0.7816164E-02  0.1300439E+00
        -11   -1    0    0    0    0  0.00000000000E+00  0.00000000000E+00  0.45593999997E+02  0.45594000000E+02  0.51100000000E-03 0. -1.
         11   -1    0    0    0    0 -0.00000000000E+00 -0.00000000000E+00 -0.45593999997E+02  0.45594000000E+02  0.51100000000E-03 0.  1.
    9900012    2    1    2    0    0  0.15118871698E+01  0.39771831030E+02  0.83114328209E+01  0.50528877262E+02  0.30000052924E+02 0.  0.
        -12    1    1    2    0    0 -0.15118871698E+01 -0.39771831030E+02 -0.83114328209E+01  0.40659122738E+02  0.00000000000E+00 0.  1.
         11    1    3    3    0    0 -0.79427749212E+01  0.26072487859E+02  0.11174238601E+02  0.29457187666E+02  0.51100000000E-03 0. -1.
        -11    1    3    3    0    0  0.12387000102E+02  0.10612724892E+02 -0.77525899541E+00  0.16329994731E+02  0.51100000000E-03 0.  1.
        -12    1    3    3    0    0 -0.29323380108E+01  0.30866182800E+01 -0.20875467842E+01  0.47416948649E+01  0.00000000000E+00 0.  1.
</event>
<event>
 7    1  0.9978258E-013  0.5052888E+02  0.7816164E-02  0.1300439E+00
        -11   -1    0    0    0    0  0.00000000000E+00  0.00000000000E+00  0.45593999997E+02  0.45594000000E+02  0.51100000000E-03 0. -1.
         11   -1    0    0    0    0 -0.00000000000E+00 -0.00000000000E+00 -0.45593999997E+02  0.45594000000E+02  0.51100000000E-03 0.  1.
    9900012    2    1    2    0    0  0.18502205805E+02 -0.30702240543E+02  0.19188667877E+02  0.50528878404E+02  0.30000056398E+02 0.  0.
        -12    1    1    2    0    0 -0.18502205805E+02  0.30702240543E+02 -0.19188667877E+02  0.40659121596E+02  0.00000000000E+00 0.  1.
         11    1    3    3    0    0  0.12439559973E+02 -0.25676910223E+02  0.25745246133E+02  0.38429989196E+02  0.51100000000E-03 0. -1.
        -11    1    3    3    0    0 -0.61028495300E+00 -0.29364546830E+01 -0.98017547767E+00  0.31553063333E+01  0.51100000000E-03 0.  1.
         12    1    3    3    0    0  0.66729307850E+01 -0.20888756375E+01 -0.55764027785E+01  0.89435828748E+01  0.00000000000E+00 0. -1.
</event>
<event>
 7    1  0.9978258E-013  0.5052886E+02  0.7816164E-02  0.1300439E+00
        -11   -1    0    0    0    0  0.00000000000E+00  0.00000000000E+00  0.45593999997E+02  0.45594000000E+02  0.51100000000E-03 0. -1.
         11   -1    0    0    0    0 -0.00000000000E+00 -0.00000000000E+00 -0.45593999997E+02  0.45594000000E+02  0.51100000000E-03 0.  1.
    9900012    2    1    2    0    0  0.38129976459E+02  0.11907808774E+02 -0.75811954352E+01  0.50528861559E+02  0.30000005194E+02 0.  0.
        -12    1    1    2    0    0 -0.38129976459E+02 -0.11907808774E+02  0.75811954352E+01  0.40659138441E+02  0.00000000000E+00 0.  1.
         11    1    3    3    0    0  0.27400082008E+02  0.45700289195E+01 -0.20867077498E+01  0.27856848491E+02  0.51100000000E-03 0. -1.
        -11    1    3    3    0    0 -0.24363369061E+00 -0.33003615806E+01  0.35978182567E+01  0.48883576391E+01  0.51100000000E-03 0.  1.
        -12    1    3    3    0    0  0.10973528142E+02  0.10638141435E+02 -0.90923059421E+01  0.17783655429E+02  0.00000000000E+00 0.  1.
</event>
<event>
 7    1  0.9978258E-013  0.5052887E+02  0.7816164E-02  0.1300439E+00
        -11   -1    0    0    0    0  0.00000000000E+00  0.00000000000E+00  0.45593999997E+02  0.45594000000E+02  0.51100000000E-03 0.  1.
         11   -1    0    0    0    0 -0.00000000000E+00 -0.00000000000E+00 -0.45593999997E+02  0.45594000000E+02  0.51100000000E-03 0. -1.
    9900012    2    1    2    0    0  0.38283956517E+02 -0.13199376828E+02 -0.36442159270E+01  0.50528865909E+02  0.30000018418E+02 0.  0.
        -12    1    1    2    0    0 -0.38283956517E+02  0.13199376828E+02  0.36442159270E+01  0.40659134091E+02  0.00000000000E+00 0.  1.
         11    1    3    3    0    0  0.12859430360E+02 -0.18491304354E+02 -0.26941284547E+01  0.22683730167E+02  0.51100000000E-03 0. -1.
        -11    1    3    3    0    0  0.24277704802E+00  0.10987803251E+01  0.18481346438E+01  0.21637608049E+01  0.51100000000E-03 0.  1.
         12    1    3    3    0    0  0.25181749110E+02  0.41931472007E+01 -0.27982221160E+01  0.25681374938E+02  0.00000000000E+00 0. -1.
</event>
<event>
 7    1  0.9978258E-013  0.5052886E+02  0.7816164E-02  0.1300439E+00
        -11   -1    0    0    0    0  0.00000000000E+00  0.00000000000E+00  0.45593999997E+02  0.45594000000E+02  0.51100000000E-03 0.  1.
         11   -1    0    0    0    0 -0.00000000000E+00 -0.00000000000E+00 -0.45593999997E+02  0.45594000000E+02  0.51100000000E-03 0. -1.
    9900012    2    1    2    0    0  0.55924595903E+01  0.34820118895E+02 -0.20234856036E+02  0.50528859786E+02  0.29999999806E+02 0.  0.
        -12    1    1    2    0    0 -0.55924595903E+01 -0.34820118895E+02  0.20234856036E+02  0.40659140214E+02  0.00000000000E+00 0.  1.
         11    1    3    3    0    0 -0.30173516710E+01  0.40794472596E+01 -0.69686629860E+01  0.86202415931E+01  0.51100000000E-03 0. -1.
        -11    1    3    3    0    0  0.15547605727E+02  0.17614310405E+02 -0.26222392459E+01  0.23640391575E+02  0.51100000000E-03 0.  1.
        -12    1    3    3    0    0 -0.69377944653E+01  0.13126361230E+02 -0.10643953804E+02  0.18268226618E+02  0.00000000000E+00 0.  1.
</event>
<event>
 7    1  0.9978258E-013  0.5052886E+02  0.7816164E-02  0.1300439E+00
        -11   -1    0    0    0    0  0.00000000000E+00  0.00000000000E+00  0.45593999997E+02  0.45594000000E+02  0.51100000000E-03 0.  1.
         11   -1    0    0    0    0 -0.00000000000E+00 -0.00000000000E+00 -0.45593999997E+02  0.45594000000E+02  0.51100000000E-03 0. -1.
    9900012    2    1    2    0    0  0.26572020687E+02 -0.19234195998E+02 -0.24023722957E+02  0.50528857808E+02  0.29999993794E+02 0.  0.
        -12    1    1    2    0    0 -0.26572020687E+02  0.19234195998E+02  0.24023722957E+02  0.40659142192E+02  0.00000000000E+00 0.  1.
         11    1    3    3    0    0  0.21551025768E+02 -0.13461993672E+02 -0.13525520223E+02  0.28785615901E+02  0.51100000000E-03 0. -1.
        -11    1    3    3    0    0  0.12777652120E+01 -0.44466556504E+01  0.43637920455E+01  0.63598829933E+01  0.51100000000E-03 0.  1.
         12    1    3    3    0    0  0.37432297068E+01 -0.13255466758E+01 -0.14861994780E+02  0.15383358914E+02  0.00000000000E+00 0. -1.
</event>
<event>
 7    1  0.9978258E-013  0.5052885E+02  0.7816164E-02  0.1300439E+00
        -11   -1    0    0    0    0  0.00000000000E+00  0.00000000000E+00  0.45593999997E+02  0.45594000000E+02  0.51100000000E-03 0. -1.
         11   -1    0    0    0    0 -0.00000000000E+00 -0.00000000000E+00 -0.45593999997E+02  0.45594000000E+02  0.51100000000E-03 0.  1.
    9900012    2    1    2    0    0 -0.31960367098E+02  0.11005163435E+02  0.22596183572E+02  0.50528853436E+02  0.29999980504E+02 0.  0.
        -12    1    1    2    0    0  0.31960367098E+02 -0.11005163435E+02 -0.22596183572E+02  0.40659146564E+02  0.00000000000E+00 0.  1.
         11    1    3    3    0    0  0.30210209522E+01 -0.23808519136E+01  0.73256595343E+01  0.82740746493E+01  0.51100000000E-03 0. -1.
        -11    1    3    3    0    0 -0.59420127266E+01  0.15968478850E+01 -0.20005073042E+01  0.64698893458E+01  0.51100000000E-03 0.  1.
         12    1    3    3    0    0 -0.29039375324E+02  0.11789167464E+02  0.17271031342E+02  0.35784889441E+02  0.00000000000E+00 0. -1.
</event>
<event>
 7    1  0.9978258E-013  0.5052886E+02  0.7816164E-02  0.1300439E+00
        -11   -1    0    0    0    0  0.00000000000E+00  0.00000000000E+00  0.45593999997E+02  0.45594000000E+02  0.51100000000E-03 0.  1.
         11   -1    0    0    0    0 -0.00000000000E+00 -0.00000000000E+00 -0.45593999997E+02  0.45594000000E+02  0.51100000000E-03 0. -1.
    9900012    2    1    2    0    0  0.10384491214E+02  0.33692740192E+02 -0.20251600140E+02  0.50528859481E+02  0.29999998880E+02 0.  0.
        -12    1    1    2    0    0 -0.10384491214E+02 -0.33692740192E+02  0.20251600140E+02  0.40659140519E+02  0.00000000000E+00 0.  1.
         11    1    3    3    0    0  0.22464128473E+01  0.59321344467E+01 -0.16528013046E+02  0.17703440493E+02  0.51100000000E-03 0. -1.
        -11    1    3    3    0    0  0.55357696437E+01  0.27951308021E+02 -0.26815515182E+00  0.28495478116E+02  0.51100000000E-03 0.  1.
         12    1    3    3    0    0  0.26023087233E+01 -0.19070227493E+00 -0.34554319423E+01  0.43299408722E+01  0.00000000000E+00 0. -1.
</event>
<event>
 7    1  0.9978258E-013  0.5052886E+02  0.7816164E-02  0.1300439E+00
        -11   -1    0    0    0    0  0.00000000000E+00  0.00000000000E+00  0.45593999997E+02  0.45594000000E+02  0.51100000000E-03 0. -1.
         11   -1    0    0    0    0 -0.00000000000E+00 -0.00000000000E+00 -0.45593999997E+02  0.45594000000E+02  0.51100000000E-03 0.  1.
    9900012    2    1    2    0    0  0.28691101580E+02  0.23508273368E+02 -0.16653748896E+02  0.50528861065E+02  0.30000003693E+02 0.  0.
        -12    1    1    2    0    0 -0.28691101580E+02 -0.23508273368E+02  0.16653748896E+02  0.40659138935E+02  0.00000000000E+00 0.  1.
         11    1    3    3    0    0  0.24513742246E+02  0.19329483844E+02 -0.17001521978E+02  0.35547211626E+02  0.51100000000E-03 0. -1.
        -11    1    3    3    0    0  0.10041952062E+01  0.41404029993E+01  0.66660400937E+01  0.79112221433E+01  0.51100000000E-03 0.  1.
        -12    1    3    3    0    0  0.31731641278E+01  0.38386525278E-01 -0.63182670119E+01  0.70704272955E+01  0.00000000000E+00 0.  1.
</event>
<event>
 7    1  0.9978258E-013  0.5052886E+02  0.7816164E-02  0.1300439E+00
        -11   -1    0    0    0    0  0.00000000000E+00  0.00000000000E+00  0.45593999997E+02  0.45594000000E+02  0.51100000000E-03 0.  1.
         11   -1    0    0    0    0 -0.00000000000E+00 -0.00000000000E+00 -0.45593999997E+02  0.45594000000E+02  0.51100000000E-03 0. -1.
    9900012    2    1    2    0    0 -0.53977281744E+01  0.18393113101E+02 -0.35856985553E+02  0.50528862135E+02  0.30000006944E+02 0.  0.
        -12    1    1    2    0    0  0.53977281744E+01 -0.18393113101E+02  0.35856985553E+02  0.40659137865E+02  0.00000000000E+00 0.  1.
         11    1    3    3    0    0 -0.68051385873E+01 -0.91131485905E+00 -0.10950838732E+02  0.12925218573E+02  0.51100000000E-03 0.  1.
        -11    1    3    3    0    0  0.10908192807E+01  0.85509031175E+01  0.18052186986E+01  0.88071928353E+01  0.51100000000E-03 0. -1.
         12    1    3    3    0    0  0.31659113219E+00  0.10753524843E+02 -0.26711365520E+02  0.28796450726E+02  0.00000000000E+00 0. -1.
</event>
<event>
 7    1  0.9978258E-013  0.5052886E+02  0.7816164E-02  0.1300439E+00
        -11   -1    0    0    0    0  0.00000000000E+00  0.00000000000E+00  0.45593999997E+02  0.45594000000E+02  0.51100000000E-03 0.  1.
         11   -1    0    0    0    0 -0.00000000000E+00 -0.00000000000E+00 -0.45593999997E+02  0.45594000000E+02  0.51100000000E-03 0. -1.
    9900012    2    1    2    0    0 -0.14000057966E+02 -0.72908509012E+01 -0.37470091335E+02  0.50528857430E+02  0.29999992643E+02 0.  0.
        -12    1    1    2    0    0  0.14000057966E+02  0.72908509012E+01  0.37470091335E+02  0.40659142570E+02  0.00000000000E+00 0.  1.
         11    1    3    3    0    0 -0.16440654428E+02 -0.78273106874E+01 -0.31834767591E+02  0.36674437125E+02  0.51100000000E-03 0. -1.
        -11    1    3    3    0    0  0.34174791837E+01 -0.12892068492E+01 -0.91069929513E+01  0.98121628170E+01  0.51100000000E-03 0.  1.
         12    1    3    3    0    0 -0.97688272142E+00  0.18256666355E+01  0.34716692071E+01  0.40422574879E+01  0.00000000000E+00 0. -1.
</event>
<event>
 7    1  0.9978258E-013  0.5052886E+02  0.7816164E-02  0.1300439E+00
        -11   -1    0    0    0    0  0.00000000000E+00  0.00000000000E+00  0.45593999997E+02  0.45594000000E+02  0.51100000000E-03 0. -1.
         11   -1    0    0    0    0 -0.00000000000E+00 -0.00000000000E+00 -0.45593999997E+02  0.45594000000E+02  0.51100000000E-03 0.  1.
    9900012    2    1    2    0    0  0.14612965267E+02 -0.15026781339E+02  0.34839961222E+02  0.50528858232E+02  0.29999995083E+02 0.  0.
        -12    1    1    2    0    0 -0.14612965267E+02  0.15026781339E+02 -0.34839961222E+02  0.40659141768E+02  0.00000000000E+00 0.  1.
         11    1    3    3    0    0 -0.60734382030E+01  0.16803381558E+01  0.11372675535E+02  0.13001843601E+02  0.51100000000E-03 0.  1.
        -11    1    3    3    0    0  0.16330335191E+02 -0.16636228493E+02  0.23594619129E+02  0.33168509132E+02  0.51100000000E-03 0. -1.
         12    1    3    3    0    0  0.43560682794E+01 -0.70891001017E-01 -0.12733344181E+00  0.43585055001E+01  0.00000000000E+00 0. -1.
</event>
<event>
 7    1  0.9978258E-013  0.5052886E+02  0.7816164E-02  0.1300439E+00
        -11   -1    0    0    0    0  0.00000000000E+00  0.00000000000E+00  0.45593999997E+02  0.45594000000E+02  0.51100000000E-03 0.  1.
         11   -1    0    0    0    0 -0.00000000000E+00 -0.00000000000E+00 -0.45593999997E+02  0.45594000000E+02  0.51100000000E-03 0. -1.
    9900012    2    1    2    0    0 -0.29779044666E+02 -0.15005692872E+02 -0.23263774794E+02  0.50528861575E+02  0.30000005243E+02 0.  0.
        -12    1    1    2    0    0  0.29779044666E+02  0.15005692872E+02  0.23263774794E+02  0.40659138425E+02  0.00000000000E+00 0.  1.
         11    1    3    3    0    0  0.10360174191E+01 -0.66798563774E+01 -0.31185900547E+01  0.74444219053E+01  0.51100000000E-03 0. -1.
        -11    1    3    3    0    0 -0.23007839782E+02  0.14679101458E+01 -0.20058887894E+02  0.30559359211E+02  0.51100000000E-03 0.  1.
        -12    1    3    3    0    0 -0.78072223032E+01 -0.97937466402E+01 -0.86296846320E-01  0.12525080458E+02  0.00000000000E+00 0.  1.
</event>
<event>
 7    1  0.9978258E-013  0.5052885E+02  0.7816164E-02  0.1300439E+00
        -11   -1    0    0    0    0  0.00000000000E+00  0.00000000000E+00  0.45593999997E+02  0.45594000000E+02  0.51100000000E-03 0.  1.
         11   -1    0    0    0    0 -0.00000000000E+00 -0.00000000000E+00 -0.45593999997E+02  0.45594000000E+02  0.51100000000E-03 0. -1.
    9900012    2    1    2    0    0  0.35085022914E+02  0.18206054262E+02 -0.95261471897E+01  0.50528846971E+02  0.29999960854E+02 0.  0.
        -12    1    1    2    0    0 -0.35085022914E+02 -0.18206054262E+02  0.95261471897E+01  0.40659153029E+02  0.00000000000E+00 0.  1.
         11    1    3    3    0    0  0.19402050967E+02  0.16379549526E+01  0.65925299271E+01  0.20556846287E+02  0.51100000000E-03 0. -1.
        -11    1    3    3    0    0  0.82236742154E+00  0.63016218402E+01 -0.78700873155E+01  0.10115582070E+02  0.51100000000E-03 0.  1.
         12    1    3    3    0    0  0.14860604526E+02  0.10266477470E+02 -0.82485898013E+01  0.19856418615E+02  0.00000000000E+00 0. -1.
</event>
<event>
 7    1  0.9978258E-013  0.5052886E+02  0.7816164E-02  0.1300439E+00
        -11   -1    0    0    0    0  0.00000000000E+00  0.00000000000E+00  0.45593999997E+02  0.45594000000E+02  0.51100000000E-03 0.  1.
         11   -1    0    0    0    0 -0.00000000000E+00 -0.00000000000E+00 -0.45593999997E+02  0.45594000000E+02  0.51100000000E-03 0. -1.
    9900012    2    1    2    0    0 -0.33202988277E+02  0.18461132993E+02 -0.14488404144E+02  0.50528859373E+02  0.29999998550E+02 0.  0.
        -12    1    1    2    0    0  0.33202988277E+02 -0.18461132993E+02  0.14488404144E+02  0.40659140627E+02  0.00000000000E+00 0.  1.
         11    1    3    3    0    0 -0.34105863365E+02  0.57943431072E+01 -0.82056495669E+01  0.35554423255E+02  0.51100000000E-03 0. -1.
        -11    1    3    3    0    0  0.11050071588E-01  0.98695999177E+01 -0.24913511585E+01  0.10179192281E+02  0.51100000000E-03 0.  1.
         12    1    3    3    0    0  0.89182501652E+00  0.27971899681E+01 -0.37914034185E+01  0.47952438373E+01  0.00000000000E+00 0. -1.
</event>
<event>
 7    1  0.9978258E-013  0.5052886E+02  0.7816164E-02  0.1300439E+00
        -11   -1    0    0    0    0  0.00000000000E+00  0.00000000000E+00  0.45593999997E+02  0.45594000000E+02  0.51100000000E-03 0.  1.
         11   -1    0    0    0    0 -0.00000000000E+00 -0.00000000000E+00 -0.45593999997E+02  0.45594000000E+02  0.51100000000E-03 0. -1.
    9900012    2    1    2    0    0  0.32491346996E+02  0.12633310287E+02 -0.20925524707E+02  0.50528859051E+02  0.29999997572E+02 0.  0.
        -12    1    1    2    0    0 -0.32491346996E+02 -0.12633310287E+02  0.20925524707E+02  0.40659140949E+02  0.00000000000E+00 0.  1.
         11    1    3    3    0    0  0.14147370131E+02 -0.61048764788E+01 -0.64419802610E+01  0.16700799633E+02  0.51100000000E-03 0.  1.
        -11    1    3    3    0    0  0.12375709975E+02  0.20133621257E+02 -0.14446386018E+02  0.27698717868E+02  0.51100000000E-03 0. -1.
         12    1    3    3    0    0  0.59682668904E+01 -0.13954344907E+01 -0.37158428142E-01  0.61293415504E+01  0.00000000000E+00 0. -1.
</event>
<event>
 7    1  0.9978258E-013  0.5052887E+02  0.7816164E-02  0.1300439E+00
        -11   -1    0    0    0    0  0.00000000000E+00  0.00000000000E+00  0.45593999997E+02  0.45594000000E+02  0.51100000000E-03 0. -1.
         11   -1    0    0    0    0 -0.00000000000E+00 -0.00000000000E+00 -0.45593999997E+02  0.45594000000E+02  0.51100000000E-03 0.  1.
    9900012    2    1    2    0    0 -0.86770894563E+01 -0.39385679697E+02 -0.51614777119E+01  0.50528874347E+02  0.30000044067E+02 0.  0.
        -12    1    1    2    0    0  0.86770894563E+01  0.39385679697E+02  0.51614777119E+01  0.40659125653E+02  0.00000000000E+00 0.  1.
         11    1    3    3    0    0 -0.11663491527E+02 -0.31910026489E+01 -0.90408721232E+00  0.12125877554E+02  0.51100000000E-03 0. -1.
        -11    1    3    3    0    0  0.14704633563E+01 -0.29575686806E+02 -0.79672326852E+01  0.30665294870E+02  0.51100000000E-03 0.  1.
        -12    1    3    3    0    0  0.15159387145E+01 -0.66189902427E+01  0.37098421857E+01  0.77377019238E+01  0.00000000000E+00 0.  1.
</event>
<event>
 7    1  0.9978258E-013  0.5052886E+02  0.7816164E-02  0.1300439E+00
        -11   -1    0    0    0    0  0.00000000000E+00  0.00000000000E+00  0.45593999997E+02  0.45594000000E+02  0.51100000000E-03 0.  1.
         11   -1    0    0    0    0 -0.00000000000E+00 -0.00000000000E+00 -0.45593999997E+02  0.45594000000E+02  0.51100000000E-03 0. -1.
    9900012    2    1    2    0    0  0.29284602525E+02 -0.46958243249E+01 -0.27812356291E+02  0.50528857441E+02  0.29999992679E+02 0.  0.
        -12    1    1    2    0    0 -0.29284602525E+02  0.46958243249E+01  0.27812356291E+02  0.40659142559E+02  0.00000000000E+00 0.  1.
         11    1    3    3    0    0  0.19777331875E+02  0.79287355488E+01 -0.14539857030E+02  0.25795642000E+02  0.51100000000E-03 0. -1.
        -11    1    3    3    0    0  0.12875562871E+02 -0.11512302156E+02 -0.10335785837E+02  0.20128131788E+02  0.51100000000E-03 0.  1.
         12    1    3    3    0    0 -0.33682922204E+01 -0.11122577181E+01 -0.29367134243E+01  0.46050836528E+01  0.00000000000E+00 0. -1.
</event>
<event>
 7    1  0.9978258E-013  0.5052885E+02  0.7816164E-02  0.1300439E+00
        -11   -1    0    0    0    0  0.00000000000E+00  0.00000000000E+00  0.45593999997E+02  0.45594000000E+02  0.51100000000E-03 0. -1.
         11   -1    0    0    0    0 -0.00000000000E+00 -0.00000000000E+00 -0.45593999997E+02  0.45594000000E+02  0.51100000000E-03 0.  1.
    9900012    2    1    2    0    0 -0.20392643772E+02 -0.30318368409E+02  0.17835441682E+02  0.50528851423E+02  0.29999974385E+02 0.  0.
        -12    1    1    2    0    0  0.20392643772E+02  0.30318368409E+02 -0.17835441682E+02  0.40659148577E+02  0.00000000000E+00 0.  1.
         11    1    3    3    0    0 -0.20013736152E+02 -0.35266665081E+02  0.18419053095E+02  0.44537049946E+02  0.51100000000E-03 0. -1.
        -11    1    3    3    0    0 -0.34976994796E+00  0.37439708374E+01  0.11033990941E+01  0.39188195250E+01  0.51100000000E-03 0.  1.
         12    1    3    3    0    0 -0.29137671748E-01  0.12043258347E+01 -0.16870105074E+01  0.20729819517E+01  0.00000000000E+00 0. -1.
</event>
<event>
 7    1  0.9978258E-013  0.5052886E+02  0.7816164E-02  0.1300439E+00
        -11   -1    0    0    0    0  0.00000000000E+00  0.00000000000E+00  0.45593999997E+02  0.45594000000E+02  0.51100000000E-03 0. -1.
         11   -1    0    0    0    0 -0.00000000000E+00 -0.00000000000E+00 -0.45593999997E+02  0.45594000000E+02  0.51100000000E-03 0.  1.
    9900012    2    1    2    0    0  0.36888721597E+02  0.12139056733E+02 -0.12042893648E+02  0.50528858754E+02  0.29999996670E+02 0.  0.
        -12    1    1    2    0    0 -0.36888721597E+02 -0.12139056733E+02  0.12042893648E+02  0.40659141246E+02  0.00000000000E+00 0.  1.
         11    1    3    3    0    0  0.26791866752E+02  0.29413640984E+01 -0.16970737289E+01  0.27006217920E+02  0.51100000000E-03 0. -1.
        -11    1    3    3    0    0 -0.10394699484E+01 -0.12018419027E+01 -0.79392463004E+01  0.80967001805E+01  0.51100000000E-03 0.  1.
        -12    1    3    3    0    0  0.11136324793E+02  0.10399534537E+02 -0.24065736190E+01  0.15425940654E+02  0.00000000000E+00 0.  1.
</event>
<event>
 7    1  0.9978258E-013  0.5052886E+02  0.7816164E-02  0.1300439E+00
        -11   -1    0    0    0    0  0.00000000000E+00  0.00000000000E+00  0.45593999997E+02  0.45594000000E+02  0.51100000000E-03 0. -1.
         11   -1    0    0    0    0 -0.00000000000E+00 -0.00000000000E+00 -0.45593999997E+02  0.45594000000E+02  0.51100000000E-03 0.  1.
    9900012    2    1    2    0    0  0.33298687374E+02 -0.20554286227E+02  0.11040129257E+02  0.50528859365E+02  0.29999998526E+02 0.  0.
        -12    1    1    2    0    0 -0.33298687374E+02  0.20554286227E+02 -0.11040129257E+02  0.40659140635E+02  0.00000000000E+00 0.  1.
         11    1    3    3    0    0  0.54870586343E+01 -0.15638263844E+02 -0.14254619397E+01  0.16634153135E+02  0.51100000000E-03 0. -1.
        -11    1    3    3    0    0  0.12481666091E+02  0.70119450045E+00  0.12342411672E+02  0.17567549296E+02  0.51100000000E-03 0.  1.
        -12    1    3    3    0    0  0.15329962649E+02 -0.56172168833E+01  0.12317952448E+00  0.16327156933E+02  0.00000000000E+00 0.  1.
</event>
<event>
 7    1  0.9978258E-013  0.5052886E+02  0.7816164E-02  0.1300439E+00
        -11   -1    0    0    0    0  0.00000000000E+00  0.00000000000E+00  0.45593999997E+02  0.45594000000E+02  0.51100000000E-03 0. -1.
         11   -1    0    0    0    0 -0.00000000000E+00 -0.00000000000E+00 -0.45593999997E+02  0.45594000000E+02  0.51100000000E-03 0.  1.
    9900012    2    1    2    0    0 -0.33763572338E+02  0.11388139777E+02 -0.19583088123E+02  0.50528857301E+02  0.29999992251E+02 0.  0.
        -12    1    1    2    0    0  0.33763572338E+02 -0.11388139777E+02  0.19583088123E+02  0.40659142699E+02  0.00000000000E+00 0.  1.
         11    1    3    3    0    0  0.21427281183E+01  0.48750088942E+01  0.33026933142E+01  0.62661614164E+01  0.51100000000E-03 0. -1.
        -11    1    3    3    0    0 -0.24557985596E+02  0.77329339088E+01 -0.19681880488E+02  0.32407859281E+02  0.51100000000E-03 0.  1.
         12    1    3    3    0    0 -0.11348314861E+02 -0.12198030261E+01 -0.32039009492E+01  0.11854836603E+02  0.00000000000E+00 0. -1.
</event>
<event>
 7    1  0.9978258E-013  0.5052885E+02  0.7816164E-02  0.1300439E+00
        -11   -1    0    0    0    0  0.00000000000E+00  0.00000000000E+00  0.45593999997E+02  0.45594000000E+02  0.51100000000E-03 0. -1.
         11   -1    0    0    0    0 -0.00000000000E+00 -0.00000000000E+00 -0.45593999997E+02  0.45594000000E+02  0.51100000000E-03 0.  1.
    9900012    2    1    2    0    0  0.49273253875E+00  0.38251757774E+02  0.13774123894E+02  0.50528852847E+02  0.29999978715E+02 0.  0.
        -12    1    1    2    0    0 -0.49273253875E+00 -0.38251757774E+02 -0.13774123894E+02  0.40659147153E+02  0.00000000000E+00 0.  1.
         11    1    3    3    0    0 -0.89640872345E+01  0.75541746271E+01  0.13622333525E+02  0.17971877619E+02  0.51100000000E-03 0. -1.
        -11    1    3    3    0    0  0.61314589770E+01  0.26482619654E+02  0.33146644099E+00  0.27185176166E+02  0.51100000000E-03 0.  1.
         12    1    3    3    0    0  0.33253607963E+01  0.42149634930E+01 -0.17967607227E+00  0.53717990621E+01  0.00000000000E+00 0. -1.
</event>
<event>
 7    1  0.9978258E-013  0.5052886E+02  0.7816164E-02  0.1300439E+00
        -11   -1    0    0    0    0  0.00000000000E+00  0.00000000000E+00  0.45593999997E+02  0.45594000000E+02  0.51100000000E-03 0.  1.
         11   -1    0    0    0    0 -0.00000000000E+00 -0.00000000000E+00 -0.45593999997E+02  0.45594000000E+02  0.51100000000E-03 0. -1.
    9900012    2    1    2    0    0  0.18348490181E+02 -0.10588881766E+02 -0.34704091677E+02  0.50528862182E+02  0.30000007087E+02 0.  0.
        -12    1    1    2    0    0 -0.18348490181E+02  0.10588881766E+02  0.34704091677E+02  0.40659137818E+02  0.00000000000E+00 0.  1.
         11    1    3    3    0    0  0.29794208557E+01 -0.43012015963E+01 -0.68868870872E+01  0.86490749690E+01  0.51100000000E-03 0. -1.
        -11    1    3    3    0    0  0.46366202894E+01 -0.13137886944E+02 -0.25327346784E+02  0.28906345608E+02  0.51100000000E-03 0.  1.
        -12    1    3    3    0    0  0.10732449036E+02  0.68502067741E+01 -0.24898578065E+01  0.12973441604E+02  0.00000000000E+00 0.  1.
</event>
<event>
 7    1  0.9978258E-013  0.5052885E+02  0.7816164E-02  0.1300439E+00
        -11   -1    0    0    0    0  0.00000000000E+00  0.00000000000E+00  0.45593999997E+02  0.45594000000E+02  0.51100000000E-03 0.  1.
         11   -1    0    0    0    0 -0.00000000000E+00 -0.00000000000E+00 -0.45593999997E+02  0.45594000000E+02  0.51100000000E-03 0. -1.
    9900012    2    1    2    0    0  0.21270724237E+02 -0.17905988983E+02 -0.29666447601E+02  0.50528852637E+02  0.29999978076E+02 0.  0.
        -12    1    1    2    0    0 -0.21270724237E+02  0.17905988983E+02  0.29666447601E+02  0.40659147363E+02  0.00000000000E+00 0.  1.
         11    1    3    3    0    0  0.65016200488E+01 -0.35785173526E+00 -0.14741366918E+02  0.16115428011E+02  0.51100000000E-03 0. -1.
        -11    1    3    3    0    0  0.18461291810E+02 -0.15584450117E+02 -0.65178172204E+01  0.25023515387E+02  0.51100000000E-03 0.  1.
        -12    1    3    3    0    0 -0.36921876219E+01 -0.19636871311E+01 -0.84072634630E+01  0.93899092392E+01  0.00000000000E+00 0.  1.
</event>
<event>
 7    1  0.9978258E-013  0.5052885E+02  0.7816164E-02  0.1300439E+00
        -11   -1    0    0    0    0  0.00000000000E+00  0.00000000000E+00  0.45593999997E+02  0.45594000000E+02  0.51100000000E-03 0. -1.
         11   -1    0    0    0    0 -0.00000000000E+00 -0.00000000000E+00 -0.45593999997E+02  0.45594000000E+02  0.51100000000E-03 0.  1.
    9900012    2    1    2    0    0 -0.30144960815E+02  0.77581126035E+01  0.26158360748E+02  0.50528845917E+02  0.29999957649E+02 0.  0.
        -12    1    1    2    0    0  0.30144960815E+02 -0.77581126035E+01 -0.26158360748E+02  0.40659154083E+02  0.00000000000E+00 0.  1.
         11    1    3    3    0    0 -0.19180194942E+02 -0.58006804590E+00  0.28336344680E+02  0.34222284947E+02  0.51100000000E-03 0. -1.
        -11    1    3    3    0    0  0.10058916031E+01  0.27709435664E+01 -0.62732873993E+00  0.30138825084E+01  0.51100000000E-03 0.  1.
         12    1    3    3    0    0 -0.11970657476E+02  0.55672370830E+01 -0.15506551916E+01  0.13292678461E+02  0.00000000000E+00 0. -1.
</event>
<event>
 7    1  0.9978258E-013  0.5052883E+02  0.7816164E-02  0.1300439E+00
        -11   -1    0    0    0    0  0.00000000000E+00  0.00000000000E+00  0.45593999997E+02  0.45594000000E+02  0.51100000000E-03 0.  1.
         11   -1    0    0    0    0 -0.00000000000E+00 -0.00000000000E+00 -0.45593999997E+02  0.45594000000E+02  0.51100000000E-03 0. -1.
    9900012    2    1    2    0    0 -0.20045935330E+02 -0.21024648685E+02 -0.28448073583E+02  0.50528828019E+02  0.29999903247E+02 0.  0.
        -12    1    1    2    0    0  0.20045935330E+02  0.21024648685E+02  0.28448073583E+02  0.40659171981E+02  0.00000000000E+00 0.  1.
         11    1    3    3    0    0 -0.22840501788E+02 -0.73935090703E+01 -0.18758759456E+02  0.30467089702E+02  0.51100000000E-03 0. -1.
        -11    1    3    3    0    0  0.15529502856E+00 -0.10179697066E+02 -0.11496107953E+02  0.15356133864E+02  0.51100000000E-03 0.  1.
         12    1    3    3    0    0  0.26392714295E+01 -0.34514425484E+01  0.18067938264E+01  0.47056044537E+01  0.00000000000E+00 0. -1.
</event>
<event>
 7    1  0.9978258E-013  0.5052887E+02  0.7816164E-02  0.1300439E+00
        -11   -1    0    0    0    0  0.00000000000E+00  0.00000000000E+00  0.45593999997E+02  0.45594000000E+02  0.51100000000E-03 0. -1.
         11   -1    0    0    0    0 -0.00000000000E+00 -0.00000000000E+00 -0.45593999997E+02  0.45594000000E+02  0.51100000000E-03 0.  1.
    9900012    2    1    2    0    0 -0.15535247578E+02 -0.22548349812E+02  0.30056496752E+02  0.50528868263E+02  0.30000025573E+02 0.  0.
        -12    1    1    2    0    0  0.15535247578E+02  0.22548349812E+02 -0.30056496752E+02  0.40659131737E+02  0.00000000000E+00 0.  1.
         11    1    3    3    0    0 -0.59258203720E+01 -0.17605479515E+02  0.14323862888E+02  0.23457222860E+02  0.51100000000E-03 0. -1.
        -11    1    3    3    0    0 -0.10048721749E+02  0.48387973570E+01  0.41386368191E+01  0.11896179371E+02  0.51100000000E-03 0.  1.
        -12    1    3    3    0    0  0.43929454241E+00 -0.97816676544E+01  0.11593997045E+02  0.15175466032E+02  0.00000000000E+00 0.  1.
</event>
<event>
 7    1  0.9978258E-013  0.5052886E+02  0.7816164E-02  0.1300439E+00
        -11   -1    0    0    0    0  0.00000000000E+00  0.00000000000E+00  0.45593999997E+02  0.45594000000E+02  0.51100000000E-03 0.  1.
         11   -1    0    0    0    0 -0.00000000000E+00 -0.00000000000E+00 -0.45593999997E+02  0.45594000000E+02  0.51100000000E-03 0. -1.
    9900012    2    1    2    0    0 -0.24401772265E+02  0.54842314032E+01 -0.32056864912E+02  0.50528857464E+02  0.29999992749E+02 0.  0.
        -12    1    1    2    0    0  0.24401772265E+02 -0.54842314032E+01  0.32056864912E+02  0.40659142536E+02  0.00000000000E+00 0.  1.
         11    1    3    3    0    0 -0.66959480951E+01  0.14367002957E+02 -0.88220651948E+01  0.18140433551E+02  0.51100000000E-03 0. -1.
        -11    1    3    3    0    0 -0.10980591917E+02 -0.80007559855E+01 -0.21422807746E+02  0.25367739102E+02  0.51100000000E-03 0.  1.
         12    1    3    3    0    0 -0.67252322529E+01 -0.88201556784E+00 -0.18119919710E+01  0.70206848114E+01  0.00000000000E+00 0. -1.
</event>
<event>
 7    1  0.9978258E-013  0.5052886E+02  0.7816164E-02  0.1300439E+00
        -11   -1    0    0    0    0  0.00000000000E+00  0.00000000000E+00  0.45593999997E+02  0.45594000000E+02  0.51100000000E-03 0.  1.
         11   -1    0    0    0    0 -0.00000000000E+00 -0.00000000000E+00 -0.45593999997E+02  0.45594000000E+02  0.51100000000E-03 0. -1.
    9900012    2    1    2    0    0 -0.14272404437E+02  0.37625352803E+02 -0.58135183196E+01  0.50528859610E+02  0.29999999271E+02 0.  0.
        -12    1    1    2    0    0  0.14272404437E+02 -0.37625352803E+02  0.58135183196E+01  0.40659140390E+02  0.00000000000E+00 0.  1.
         11    1    3    3    0    0 -0.14265501836E+02  0.23463948703E+02  0.74901900749E+01  0.28463386639E+02  0.51100000000E-03 0.  1.
        -11    1    3    3    0    0 -0.34162943275E+01  0.13608092442E+02 -0.11647077851E+02  0.18234737990E+02  0.51100000000E-03 0. -1.
         12    1    3    3    0    0  0.34093917263E+01  0.55331165860E+00 -0.16566305436E+01  0.38307349808E+01  0.00000000000E+00 0. -1.
</event>
<event>
 7    1  0.9978258E-013  0.5052887E+02  0.7816164E-02  0.1300439E+00
        -11   -1    0    0    0    0  0.00000000000E+00  0.00000000000E+00  0.45593999997E+02  0.45594000000E+02  0.51100000000E-03 0.  1.
         11   -1    0    0    0    0 -0.00000000000E+00 -0.00000000000E+00 -0.45593999997E+02  0.45594000000E+02  0.51100000000E-03 0. -1.
    9900012    2    1    2    0    0  0.19033744906E+02  0.78731334897E+01 -0.35055595539E+02  0.50528874890E+02  0.30000045716E+02 0.  0.
        -12    1    1    2    0    0 -0.19033744906E+02 -0.78731334897E+01  0.35055595539E+02  0.40659125110E+02  0.00000000000E+00 0.  1.
         11    1    3    3    0    0  0.13623867368E+02 -0.29143826295E+01 -0.18689535329E+02  0.23310987093E+02  0.51100000000E-03 0. -1.
        -11    1    3    3    0    0 -0.43424413133E+01  0.99944821050E+01 -0.12784413981E+02  0.16798443684E+02  0.51100000000E-03 0.  1.
        -12    1    3    3    0    0  0.97523188506E+01  0.79303401421E+00 -0.35816462292E+01  0.10419444113E+02  0.00000000000E+00 0.  1.
</event>
<event>
 7    1  0.9978258E-013  0.5052888E+02  0.7816164E-02  0.1300439E+00
        -11   -1    0    0    0    0  0.00000000000E+00  0.00000000000E+00  0.45593999997E+02  0.45594000000E+02  0.51100000000E-03 0.  1.
         11   -1    0    0    0    0 -0.00000000000E+00 -0.00000000000E+00 -0.45593999997E+02  0.45594000000E+02  0.51100000000E-03 0. -1.
    9900012    2    1    2    0    0 -0.20019618063E+02  0.25186763127E+02 -0.24859730143E+02  0.50528876461E+02  0.30000050490E+02 0.  0.
        -12    1    1    2    0    0  0.20019618063E+02 -0.25186763127E+02  0.24859730143E+02  0.40659123539E+02  0.00000000000E+00 0.  1.
         11    1    3    3    0    0 -0.22745851363E+02  0.16205230187E+02 -0.59225287960E+01  0.28549248453E+02  0.51100000000E-03 0.  1.
        -11    1    3    3    0    0  0.21404927599E+01  0.96380404741E+01 -0.18559620458E+02  0.21022203625E+02  0.51100000000E-03 0. -1.
        -12    1    3    3    0    0  0.58574053973E+00 -0.65650753392E+00 -0.37758088858E+00  0.95742438312E+00  0.00000000000E+00 0.  1.
</event>
<event>
 7    1  0.9978258E-013  0.5052886E+02  0.7816164E-02  0.1300439E+00
        -11   -1    0    0    0    0  0.00000000000E+00  0.00000000000E+00  0.45593999997E+02  0.45594000000E+02  0.51100000000E-03 0. -1.
         11   -1    0    0    0    0 -0.00000000000E+00 -0.00000000000E+00 -0.45593999997E+02  0.45594000000E+02  0.51100000000E-03 0.  1.
    9900012    2    1    2    0    0 -0.37151000067E+02 -0.92176295566E+01  0.13711460397E+02  0.50528860230E+02  0.30000001155E+02 0.  0.
        -12    1    1    2    0    0  0.37151000067E+02  0.92176295566E+01 -0.13711460397E+02  0.40659139770E+02  0.00000000000E+00 0.  1.
         11    1    3    3    0    0  0.90407055392E+00  0.94819649454E+00 -0.53015860139E+01  0.54610653432E+01  0.51100000000E-03 0. -1.
        -11    1    3    3    0    0 -0.12737640858E+02  0.70401041511E+00  0.95503609535E+01  0.15935887798E+02  0.51100000000E-03 0.  1.
         12    1    3    3    0    0 -0.25317429762E+02 -0.10869836466E+02  0.94626854578E+01  0.29131907089E+02  0.00000000000E+00 0. -1.
</event>
<event>
 7    1  0.9978258E-013  0.5052886E+02  0.7816164E-02  0.1300439E+00
        -11   -1    0    0    0    0  0.00000000000E+00  0.00000000000E+00  0.45593999997E+02  0.45594000000E+02  0.51100000000E-03 0. -1.
         11   -1    0    0    0    0 -0.00000000000E+00 -0.00000000000E+00 -0.45593999997E+02  0.45594000000E+02  0.51100000000E-03 0.  1.
    9900012    2    1    2    0    0  0.31866791585E+02 -0.15993924113E+02  0.19541433649E+02  0.50528860271E+02  0.30000001279E+02 0.  0.
        -12    1    1    2    0    0 -0.31866791585E+02  0.15993924113E+02 -0.19541433649E+02  0.40659139729E+02  0.00000000000E+00 0.  1.
         11    1    3    3    0    0  0.20742598237E+02 -0.14895167695E+02  0.59497448748E+01  0.26220619112E+02  0.51100000000E-03 0. -1.
        -11    1    3    3    0    0  0.15399225815E+01  0.23708808332E+00  0.14504889382E+02  0.14588330561E+02  0.51100000000E-03 0.  1.
        -12    1    3    3    0    0  0.95842707667E+01 -0.13358445005E+01 -0.91320060783E+00  0.97199105968E+01  0.00000000000E+00 0.  1.
</event>
<event>
 7    1  0.9978258E-013  0.5052886E+02  0.7816164E-02  0.1300439E+00
        -11   -1    0    0    0    0  0.00000000000E+00  0.00000000000E+00  0.45593999997E+02  0.45594000000E+02  0.51100000000E-03 0.  1.
         11   -1    0    0    0    0 -0.00000000000E+00 -0.00000000000E+00 -0.45593999997E+02  0.45594000000E+02  0.51100000000E-03 0. -1.
    9900012    2    1    2    0    0 -0.15313982237E+02 -0.26363630312E+02 -0.26899941599E+02  0.50528856955E+02  0.29999991199E+02 0.  0.
        -12    1    1    2    0    0  0.15313982237E+02  0.26363630312E+02  0.26899941599E+02  0.40659143045E+02  0.00000000000E+00 0.  1.
         11    1    3    3    0    0 -0.13195456921E+02 -0.74657838588E+01 -0.16916219416E+02  0.22715996381E+02  0.51100000000E-03 0. -1.
        -11    1    3    3    0    0  0.20529084852E+01 -0.22306468529E+01  0.44424632384E+01  0.53782616631E+01  0.51100000000E-03 0.  1.
        -12    1    3    3    0    0 -0.41714338010E+01 -0.16667199600E+02 -0.14426185421E+02  0.22434598910E+02  0.00000000000E+00 0.  1.
</event>
<event>
 7    1  0.9978258E-013  0.5052886E+02  0.7816164E-02  0.1300439E+00
        -11   -1    0    0    0    0  0.00000000000E+00  0.00000000000E+00  0.45593999997E+02  0.45594000000E+02  0.51100000000E-03 0.  1.
         11   -1    0    0    0    0 -0.00000000000E+00 -0.00000000000E+00 -0.45593999997E+02  0.45594000000E+02  0.51100000000E-03 0. -1.
    9900012    2    1    2    0    0  0.35915891469E+02 -0.19806872089E+00 -0.19057161806E+02  0.50528857026E+02  0.29999991417E+02 0.  0.
        -12    1    1    2    0    0 -0.35915891469E+02  0.19806872089E+00  0.19057161806E+02  0.40659142974E+02  0.00000000000E+00 0.  1.
         11    1    3    3    0    0  0.27535468086E+02 -0.28462390283E+01 -0.14474618607E+02  0.31238080341E+02  0.51100000000E-03 0. -1.
        -11    1    3    3    0    0  0.26742192469E+01  0.22763975608E+00  0.62546719092E+01  0.68061875813E+01  0.51100000000E-03 0.  1.
        -12    1    3    3    0    0  0.57062041370E+01  0.24205305513E+01 -0.10837215108E+02  0.12484589104E+02  0.00000000000E+00 0.  1.
</event>
<event>
 7    1  0.9978258E-013  0.5052888E+02  0.7816164E-02  0.1300439E+00
        -11   -1    0    0    0    0  0.00000000000E+00  0.00000000000E+00  0.45593999997E+02  0.45594000000E+02  0.51100000000E-03 0.  1.
         11   -1    0    0    0    0 -0.00000000000E+00 -0.00000000000E+00 -0.45593999997E+02  0.45594000000E+02  0.51100000000E-03 0. -1.
    9900012    2    1    2    0    0 -0.24008352572E+02 -0.10710530628E+01 -0.32796585509E+02  0.50528878405E+02  0.30000056398E+02 0.  0.
        -12    1    1    2    0    0  0.24008352572E+02  0.10710530628E+01  0.32796585509E+02  0.40659121595E+02  0.00000000000E+00 0.  1.
         11    1    3    3    0    0 -0.43622050520E+01  0.93818779047E+01 -0.27769937971E+01  0.10712616895E+02  0.51100000000E-03 0. -1.
        -11    1    3    3    0    0 -0.14545142001E+02 -0.89363454197E+01 -0.11589841122E+02  0.20633561079E+02  0.51100000000E-03 0.  1.
         12    1    3    3    0    0 -0.51010055194E+01 -0.15165855477E+01 -0.18429750589E+02  0.19182700431E+02  0.00000000000E+00 0. -1.
</event>
<event>
 7    1  0.9978258E-013  0.5052888E+02  0.7816164E-02  0.1300439E+00
        -11   -1    0    0    0    0  0.00000000000E+00  0.00000000000E+00  0.45593999997E+02  0.45594000000E+02  0.51100000000E-03 0.  1.
         11   -1    0    0    0    0 -0.00000000000E+00 -0.00000000000E+00 -0.45593999997E+02  0.45594000000E+02  0.51100000000E-03 0. -1.
    9900012    2    1    2    0    0  0.28442852338E+02  0.19152548472E+02 -0.21848302860E+02  0.50528876793E+02  0.30000051500E+02 0.  0.
        -12    1    1    2    0    0 -0.28442852338E+02 -0.19152548472E+02  0.21848302860E+02  0.40659123207E+02  0.00000000000E+00 0.  1.
         11    1    3    3    0    0  0.20788720821E+02  0.12349720029E+02  0.94638009424E+00  0.24198804386E+02  0.51100000000E-03 0. -1.
        -11    1    3    3    0    0  0.69099590328E+01  0.80453119812E+01 -0.22468230425E+02  0.24845441381E+02  0.51100000000E-03 0.  1.
         12    1    3    3    0    0  0.74417248378E+00 -0.12424835383E+01 -0.32645252928E+00  0.14846310257E+01  0.00000000000E+00 0. -1.
</event>
<event>
 7    1  0.9978258E-013  0.5052886E+02  0.7816164E-02  0.1300439E+00
        -11   -1    0    0    0    0  0.00000000000E+00  0.00000000000E+00  0.45593999997E+02  0.45594000000E+02  0.51100000000E-03 0.  1.
         11   -1    0    0    0    0 -0.00000000000E+00 -0.00000000000E+00 -0.45593999997E+02  0.45594000000E+02  0.51100000000E-03 0. -1.
    9900012    2    1    2    0    0  0.11555946994E+02 -0.33435623925E+02 -0.20042075280E+02  0.50528860317E+02  0.30000001420E+02 0.  0.
        -12    1    1    2    0    0 -0.11555946994E+02  0.33435623925E+02  0.20042075280E+02  0.40659139683E+02  0.00000000000E+00 0.  1.
         11    1    3    3    0    0 -0.27878168300E+01 -0.23737356087E+02 -0.20276654514E+02  0.31342889388E+02  0.51100000000E-03 0. -1.
        -11    1    3    3    0    0  0.10676544824E+02 -0.91547618604E+01 -0.28658650965E+01  0.14353099216E+02  0.51100000000E-03 0.  1.
         12    1    3    3    0    0  0.36672190001E+01 -0.54350597857E+00  0.31004443303E+01  0.48328717124E+01  0.00000000000E+00 0. -1.
</event>
<event>
 7    1  0.9978258E-013  0.5052885E+02  0.7816164E-02  0.1300439E+00
        -11   -1    0    0    0    0  0.00000000000E+00  0.00000000000E+00  0.45593999997E+02  0.45594000000E+02  0.51100000000E-03 0. -1.
         11   -1    0    0    0    0 -0.00000000000E+00 -0.00000000000E+00 -0.45593999997E+02  0.45594000000E+02  0.51100000000E-03 0.  1.
    9900012    2    1    2    0    0 -0.51012287210E+01 -0.88179148711E+01  0.39362266943E+02  0.50528853230E+02  0.29999979879E+02 0.  0.
        -12    1    1    2    0    0  0.51012287210E+01  0.88179148711E+01 -0.39362266943E+02  0.40659146770E+02  0.00000000000E+00 0.  1.
         11    1    3    3    0    0  0.16274457636E+01 -0.96460064661E+01  0.17429331144E+02  0.19986885822E+02  0.51100000000E-03 0. -1.
        -11    1    3    3    0    0 -0.10859848487E+02  0.28568065893E+01  0.23194479706E+02  0.25769779630E+02  0.51100000000E-03 0.  1.
        -12    1    3    3    0    0  0.41311740027E+01 -0.20287149943E+01 -0.12615439072E+01  0.47721877790E+01  0.00000000000E+00 0.  1.
</event>
<event>
 7    1  0.9978258E-013  0.5052885E+02  0.7816164E-02  0.1300439E+00
        -11   -1    0    0    0    0  0.00000000000E+00  0.00000000000E+00  0.45593999997E+02  0.45594000000E+02  0.51100000000E-03 0.  1.
         11   -1    0    0    0    0 -0.00000000000E+00 -0.00000000000E+00 -0.45593999997E+02  0.45594000000E+02  0.51100000000E-03 0. -1.
    9900012    2    1    2    0    0 -0.62881564755E+01 -0.28028852731E+02 -0.28775138265E+02  0.50528854911E+02  0.29999984986E+02 0.  0.
        -12    1    1    2    0    0  0.62881564755E+01  0.28028852731E+02  0.28775138265E+02  0.40659145089E+02  0.00000000000E+00 0.  1.
         11    1    3    3    0    0  0.27061113227E+01 -0.21734520477E+02 -0.15548267052E+02  0.26860026572E+02  0.51100000000E-03 0. -1.
        -11    1    3    3    0    0 -0.37925038524E+01  0.48157936570E+01 -0.85928603510E+01  0.10555197928E+02  0.51100000000E-03 0.  1.
         12    1    3    3    0    0 -0.52017639458E+01 -0.11110125911E+02 -0.46340108614E+01  0.13113630411E+02  0.00000000000E+00 0. -1.
</event>
<event>
 7    1  0.9978258E-013  0.5052877E+02  0.7816164E-02  0.1300439E+00
        -11   -1    0    0    0    0  0.00000000000E+00  0.00000000000E+00  0.45593999997E+02  0.45594000000E+02  0.51100000000E-03 0. -1.
         11   -1    0    0    0    0 -0.00000000000E+00 -0.00000000000E+00 -0.45593999997E+02  0.45594000000E+02  0.51100000000E-03 0.  1.
    9900012    2    1    2    0    0 -0.16337187797E+02 -0.66454152719E+01  0.36634785860E+02  0.50528772459E+02  0.29999734365E+02 0.  0.
        -12    1    1    2    0    0  0.16337187797E+02  0.66454152719E+01 -0.36634785860E+02  0.40659227541E+02  0.00000000000E+00 0.  1.
         11    1    3    3    0    0 -0.70390617984E+01  0.18066081091E+01  0.23638589296E+02  0.24730449410E+02  0.51100000000E-03 0. -1.
        -11    1    3    3    0    0  0.20457768218E+01  0.30707383684E+01 -0.15937856529E+01  0.40193021658E+01  0.51100000000E-03 0.  1.
        -12    1    3    3    0    0 -0.11343902821E+02 -0.11522761749E+02  0.14589982216E+02  0.21779020883E+02  0.00000000000E+00 0.  1.
</event>
<event>
 7    1  0.9978258E-013  0.5052885E+02  0.7816164E-02  0.1300439E+00
        -11   -1    0    0    0    0  0.00000000000E+00  0.00000000000E+00  0.45593999997E+02  0.45594000000E+02  0.51100000000E-03 0.  1.
         11   -1    0    0    0    0 -0.00000000000E+00 -0.00000000000E+00 -0.45593999997E+02  0.45594000000E+02  0.51100000000E-03 0. -1.
    9900012    2    1    2    0    0  0.53077326946E+01 -0.29352916759E+02 -0.27629701661E+02  0.50528853889E+02  0.29999981881E+02 0.  0.
        -12    1    1    2    0    0 -0.53077326946E+01  0.29352916759E+02  0.27629701661E+02  0.40659146111E+02  0.00000000000E+00 0.  1.
         11    1    3    3    0    0 -0.24901833526E+00  0.31516617094E+01  0.95548277469E+00  0.33027154366E+01  0.51100000000E-03 0.  1.
        -11    1    3    3    0    0  0.43075880854E+01 -0.23717244084E+02 -0.90123694771E+01  0.25734913754E+02  0.51100000000E-03 0. -1.
         12    1    3    3    0    0  0.12491629445E+01 -0.87873343837E+01 -0.19572814959E+02  0.21491224698E+02  0.00000000000E+00 0. -1.
</event>
<event>
 7    1  0.9978258E-013  0.5052888E+02  0.7816164E-02  0.1300439E+00
        -11   -1    0    0    0    0  0.00000000000E+00  0.00000000000E+00  0.45593999997E+02  0.45594000000E+02  0.51100000000E-03 0.  1.
         11   -1    0    0    0    0 -0.00000000000E+00 -0.00000000000E+00 -0.45593999997E+02  0.45594000000E+02  0.51100000000E-03 0. -1.
    9900012    2    1    2    0    0  0.31479549234E+02 -0.17831291709E+02 -0.18553886003E+02  0.50528884542E+02  0.30000075054E+02 0.  0.
        -12    1    1    2    0    0 -0.31479549234E+02  0.17831291709E+02  0.18553886003E+02  0.40659115458E+02  0.00000000000E+00 0.  1.
         11    1    3    3    0    0 -0.24166784128E+01  0.13980829413E+01 -0.27882664990E+01  0.39458080024E+01  0.51100000000E-03 0. -1.
        -11    1    3    3    0    0  0.25395648695E+02 -0.88847936714E+01 -0.13942096464E+01  0.26941090401E+02  0.51100000000E-03 0.  1.
        -12    1    3    3    0    0  0.85005789522E+01 -0.10344580979E+02 -0.14371409858E+02  0.19641986139E+02  0.00000000000E+00 0.  1.
</event>
<event>
 7    1  0.9978258E-013  0.5052885E+02  0.7816164E-02  0.1300439E+00
        -11   -1    0    0    0    0  0.00000000000E+00  0.00000000000E+00  0.45593999997E+02  0.45594000000E+02  0.51100000000E-03 0. -1.
         11   -1    0    0    0    0 -0.00000000000E+00 -0.00000000000E+00 -0.45593999997E+02  0.45594000000E+02  0.51100000000E-03 0.  1.
    9900012    2    1    2    0    0  0.94454014398E+01  0.29378388647E+02  0.26473786389E+02  0.50528847357E+02  0.29999962027E+02 0.  0.
        -12    1    1    2    0    0 -0.94454014398E+01 -0.29378388647E+02 -0.26473786389E+02  0.40659152643E+02  0.00000000000E+00 0.  1.
         11    1    3    3    0    0 -0.48456084281E+01  0.83089377548E+01  0.49910555715E+01  0.10836466381E+02  0.51100000000E-03 0. -1.
        -11    1    3    3    0    0  0.13518255860E+02  0.19170278766E+01  0.54421840588E+01  0.14698149713E+02  0.51100000000E-03 0.  1.
        -12    1    3    3    0    0  0.77275400757E+00  0.19152423016E+02  0.16040546759E+02  0.24994231263E+02  0.00000000000E+00 0.  1.
</event>
<event>
 7    1  0.9978258E-013  0.5052886E+02  0.7816164E-02  0.1300439E+00
        -11   -1    0    0    0    0  0.00000000000E+00  0.00000000000E+00  0.45593999997E+02  0.45594000000E+02  0.51100000000E-03 0. -1.
         11   -1    0    0    0    0 -0.00000000000E+00 -0.00000000000E+00 -0.45593999997E+02  0.45594000000E+02  0.51100000000E-03 0.  1.
    9900012    2    1    2    0    0  0.27351593080E+01 -0.40516666792E+02 -0.20209192253E+01  0.50528862049E+02  0.30000006686E+02 0.  0.
        -12    1    1    2    0    0 -0.27351593080E+01  0.40516666792E+02  0.20209192253E+01  0.40659137951E+02  0.00000000000E+00 0.  1.
         11    1    3    3    0    0  0.80847844016E+01 -0.14383488837E+02 -0.11124284108E+01  0.16537411744E+02  0.51100000000E-03 0. -1.
        -11    1    3    3    0    0 -0.66629781029E+01  0.14878103239E+00 -0.35382228459E+01  0.75456235106E+01  0.51100000000E-03 0.  1.
        -12    1    3    3    0    0  0.13133530093E+01 -0.26281958987E+02  0.26297320315E+01  0.26445826795E+02  0.00000000000E+00 0.  1.
</event>
<event>
 7    1  0.9978258E-013  0.5052886E+02  0.7816164E-02  0.1300439E+00
        -11   -1    0    0    0    0  0.00000000000E+00  0.00000000000E+00  0.45593999997E+02  0.45594000000E+02  0.51100000000E-03 0. -1.
         11   -1    0    0    0    0 -0.00000000000E+00 -0.00000000000E+00 -0.45593999997E+02  0.45594000000E+02  0.51100000000E-03 0.  1.
    9900012    2    1    2    0    0 -0.35468366380E+02 -0.81995190387E+01  0.18108808265E+02  0.50528855113E+02  0.29999985602E+02 0.  0.
        -12    1    1    2    0    0  0.35468366380E+02  0.81995190387E+01 -0.18108808265E+02  0.40659144887E+02  0.00000000000E+00 0.  1.
         11    1    3    3    0    0 -0.16675647394E+02 -0.88861790422E+01  0.20569401902E+02  0.27931016610E+02  0.51100000000E-03 0. -1.
        -11    1    3    3    0    0 -0.43657430000E+01  0.52275615538E+01 -0.30479489339E+01  0.74617092348E+01  0.51100000000E-03 0.  1.
         12    1    3    3    0    0 -0.14426975986E+02 -0.45409015503E+01  0.58735529667E+00  0.15136129269E+02  0.00000000000E+00 0. -1.
</event>
<event>
 7    1  0.9978258E-013  0.5052886E+02  0.7816164E-02  0.1300439E+00
        -11   -1    0    0    0    0  0.00000000000E+00  0.00000000000E+00  0.45593999997E+02  0.45594000000E+02  0.51100000000E-03 0. -1.
         11   -1    0    0    0    0 -0.00000000000E+00 -0.00000000000E+00 -0.45593999997E+02  0.45594000000E+02  0.51100000000E-03 0.  1.
    9900012    2    1    2    0    0  0.14149399774E+02 -0.19123547521E+01  0.38069708081E+02  0.50528864643E+02  0.30000014568E+02 0.  0.
        -12    1    1    2    0    0 -0.14149399774E+02  0.19123547521E+01 -0.38069708081E+02  0.40659135357E+02  0.00000000000E+00 0.  1.
         11    1    3    3    0    0  0.16594327862E+02 -0.43934981069E+01  0.11113511193E+02  0.20449564155E+02  0.51100000000E-03 0.  1.
        -11    1    3    3    0    0 -0.27033180682E+01  0.66430815575E+01  0.23778473972E+02  0.24836551409E+02  0.51100000000E-03 0. -1.
         12    1    3    3    0    0  0.25838998005E+00 -0.41619382027E+01  0.31777229149E+01  0.52427490793E+01  0.00000000000E+00 0. -1.
</event>
<event>
 7    1  0.9978258E-013  0.5052886E+02  0.7816164E-02  0.1300439E+00
        -11   -1    0    0    0    0  0.00000000000E+00  0.00000000000E+00  0.45593999997E+02  0.45594000000E+02  0.51100000000E-03 0.  1.
         11   -1    0    0    0    0 -0.00000000000E+00 -0.00000000000E+00 -0.45593999997E+02  0.45594000000E+02  0.51100000000E-03 0. -1.
    9900012    2    1    2    0    0  0.34058308135E+02 -0.94035970860E+00 -0.22188130886E+02  0.50528858573E+02  0.29999996117E+02 0.  0.
        -12    1    1    2    0    0 -0.34058308135E+02  0.94035970860E+00  0.22188130886E+02  0.40659141427E+02  0.00000000000E+00 0.  1.
         11    1    3    3    0    0  0.15196552402E+02 -0.11366666472E+02 -0.97334016660E+01  0.21327808604E+02  0.51100000000E-03 0. -1.
        -11    1    3    3    0    0  0.25024675087E+01  0.79353732606E+01 -0.90740391488E+01  0.12311404435E+02  0.51100000000E-03 0.  1.
        -12    1    3    3    0    0  0.16359288224E+02  0.24909335024E+01 -0.33806900716E+01  0.16889645534E+02  0.00000000000E+00 0.  1.
</event>
<event>
 7    1  0.9978258E-013  0.5052886E+02  0.7816164E-02  0.1300439E+00
        -11   -1    0    0    0    0  0.00000000000E+00  0.00000000000E+00  0.45593999997E+02  0.45594000000E+02  0.51100000000E-03 0.  1.
         11   -1    0    0    0    0 -0.00000000000E+00 -0.00000000000E+00 -0.45593999997E+02  0.45594000000E+02  0.51100000000E-03 0. -1.
    9900012    2    1    2    0    0  0.39444655481E+02  0.96543590677E+01  0.20195226925E+01  0.50528856294E+02  0.29999989192E+02 0.  0.
        -12    1    1    2    0    0 -0.39444655481E+02 -0.96543590677E+01 -0.20195226925E+01  0.40659143706E+02  0.00000000000E+00 0.  1.
         11    1    3    3    0    0 -0.14255321017E+01  0.14924810362E-01  0.20501584968E+01  0.24971012487E+01  0.51100000000E-03 0.  1.
        -11    1    3    3    0    0  0.25840439546E+02 -0.19170135831E+01 -0.84958245160E+01  0.27268705350E+02  0.51100000000E-03 0. -1.
        -12    1    3    3    0    0  0.15029748037E+02  0.11556447840E+02  0.84651887118E+01  0.20763049696E+02  0.00000000000E+00 0.  1.
</event>
<event>
 7    1  0.9978258E-013  0.5052886E+02  0.7816164E-02  0.1300439E+00
        -11   -1    0    0    0    0  0.00000000000E+00  0.00000000000E+00  0.45593999997E+02  0.45594000000E+02  0.51100000000E-03 0. -1.
         11   -1    0    0    0    0 -0.00000000000E+00 -0.00000000000E+00 -0.45593999997E+02  0.45594000000E+02  0.51100000000E-03 0.  1.
    9900012    2    1    2    0    0  0.37010184768E+02 -0.15260921132E+02  0.71074569366E+01  0.50528862841E+02  0.30000009093E+02 0.  0.
        -12    1    1    2    0    0 -0.37010184768E+02  0.15260921132E+02 -0.71074569366E+01  0.40659137159E+02  0.00000000000E+00 0.  1.
         11    1    3    3    0    0  0.82621172401E+01  0.47151427916E+01 -0.33110968511E+01  0.10072661786E+02  0.51100000000E-03 0. -1.
        -11    1    3    3    0    0  0.74282412083E+01 -0.14997740044E+02  0.14572607325E+01  0.16799838778E+02  0.51100000000E-03 0.  1.
         12    1    3    3    0    0  0.21319826320E+02 -0.49783238793E+01  0.89612930552E+01  0.23656362277E+02  0.00000000000E+00 0. -1.
</event>
<event>
 7    1  0.9978258E-013  0.5052889E+02  0.7816164E-02  0.1300439E+00
        -11   -1    0    0    0    0  0.00000000000E+00  0.00000000000E+00  0.45593999997E+02  0.45594000000E+02  0.51100000000E-03 0.  1.
         11   -1    0    0    0    0 -0.00000000000E+00 -0.00000000000E+00 -0.45593999997E+02  0.45594000000E+02  0.51100000000E-03 0. -1.
    9900012    2    1    2    0    0 -0.26148806148E+02  0.22793188187E+02 -0.21210233901E+02  0.50528886472E+02  0.30000080921E+02 0.  0.
        -12    1    1    2    0    0  0.26148806148E+02 -0.22793188187E+02  0.21210233901E+02  0.40659113528E+02  0.00000000000E+00 0.  1.
         11    1    3    3    0    0  0.32519268842E+01 -0.31637868777E+01 -0.40609506285E+01  0.60889979583E+01  0.51100000000E-03 0. -1.
        -11    1    3    3    0    0 -0.21991281584E+02  0.12111255337E+02 -0.84618633793E+01  0.26493435105E+02  0.51100000000E-03 0.  1.
        -12    1    3    3    0    0 -0.74094514483E+01  0.13845719728E+02 -0.86874198934E+01  0.17946453409E+02  0.00000000000E+00 0.  1.
</event>
<event>
 7    1  0.9978258E-013  0.5052886E+02  0.7816164E-02  0.1300439E+00
        -11   -1    0    0    0    0  0.00000000000E+00  0.00000000000E+00  0.45593999997E+02  0.45594000000E+02  0.51100000000E-03 0.  1.
         11   -1    0    0    0    0 -0.00000000000E+00 -0.00000000000E+00 -0.45593999997E+02  0.45594000000E+02  0.51100000000E-03 0. -1.
    9900012    2    1    2    0    0  0.12792000903E+02  0.35035397531E+02 -0.16187986309E+02  0.50528864889E+02  0.30000015315E+02 0.  0.
        -12    1    1    2    0    0 -0.12792000903E+02 -0.35035397531E+02  0.16187986309E+02  0.40659135111E+02  0.00000000000E+00 0.  1.
         11    1    3    3    0    0 -0.65096678358E+01  0.13119786946E+02 -0.71087346294E+01  0.16280009003E+02  0.51100000000E-03 0. -1.
        -11    1    3    3    0    0  0.13386290477E+02  0.41287277164E+01 -0.60575054347E+01  0.15262127559E+02  0.51100000000E-03 0.  1.
        -12    1    3    3    0    0  0.59153782618E+01  0.17786882869E+02 -0.30217462448E+01  0.18986728326E+02  0.00000000000E+00 0.  1.
</event>
<event>
 7    1  0.9978258E-013  0.5052887E+02  0.7816164E-02  0.1300439E+00
        -11   -1    0    0    0    0  0.00000000000E+00  0.00000000000E+00  0.45593999997E+02  0.45594000000E+02  0.51100000000E-03 0. -1.
         11   -1    0    0    0    0 -0.00000000000E+00 -0.00000000000E+00 -0.45593999997E+02  0.45594000000E+02  0.51100000000E-03 0.  1.
    9900012    2    1    2    0    0 -0.11767300627E+02  0.16730890765E+02  0.35139337408E+02  0.50528866914E+02  0.30000021471E+02 0.  0.
        -12    1    1    2    0    0  0.11767300627E+02 -0.16730890765E+02 -0.35139337408E+02  0.40659133086E+02  0.00000000000E+00 0.  1.
         11    1    3    3    0    0 -0.26872834759E+01  0.50570508459E+01  0.21951619997E+02  0.22686314740E+02  0.51100000000E-03 0. -1.
        -11    1    3    3    0    0 -0.95129388548E+01  0.61590159380E+01 -0.21526107876E+01  0.11535303050E+02  0.51100000000E-03 0.  1.
        -12    1    3    3    0    0  0.43292170419E+00  0.55148239814E+01  0.15340328199E+02  0.16307249124E+02  0.00000000000E+00 0.  1.
</event>
<event>
 7    1  0.9978258E-013  0.5052880E+02  0.7816164E-02  0.1300439E+00
        -11   -1    0    0    0    0  0.00000000000E+00  0.00000000000E+00  0.45593999997E+02  0.45594000000E+02  0.51100000000E-03 0.  1.
         11   -1    0    0    0    0 -0.00000000000E+00 -0.00000000000E+00 -0.45593999997E+02  0.45594000000E+02  0.51100000000E-03 0. -1.
    9900012    2    1    2    0    0 -0.22198767463E+02 -0.30430436949E+02 -0.15309267990E+02  0.50528801087E+02  0.29999821385E+02 0.  0.
        -12    1    1    2    0    0  0.22198767463E+02  0.30430436949E+02  0.15309267990E+02  0.40659198913E+02  0.00000000000E+00 0.  1.
         11    1    3    3    0    0 -0.27720678671E+02 -0.27280559315E+02 -0.15626355993E+02  0.41914770003E+02  0.51100000000E-03 0. -1.
        -11    1    3    3    0    0  0.20682086949E+01 -0.44452991732E+01 -0.84320734471E-01  0.49035989021E+01  0.51100000000E-03 0.  1.
         12    1    3    3    0    0  0.34537025126E+01  0.12954215387E+01  0.40140873693E+00  0.37104321827E+01  0.00000000000E+00 0. -1.
</event>
<event>
 7    1  0.9978258E-013  0.5052887E+02  0.7816164E-02  0.1300439E+00
        -11   -1    0    0    0    0  0.00000000000E+00  0.00000000000E+00  0.45593999997E+02  0.45594000000E+02  0.51100000000E-03 0.  1.
         11   -1    0    0    0    0 -0.00000000000E+00 -0.00000000000E+00 -0.45593999997E+02  0.45594000000E+02  0.51100000000E-03 0. -1.
    9900012    2    1    2    0    0 -0.10820801387E+01  0.22406398738E+02 -0.33910876053E+02  0.50528866751E+02  0.30000020977E+02 0.  0.
        -12    1    1    2    0    0  0.10820801387E+01 -0.22406398738E+02  0.33910876053E+02  0.40659133249E+02  0.00000000000E+00 0.  1.
         11    1    3    3    0    0 -0.11918007375E+02  0.48690803420E+01 -0.21463102961E+02  0.25028216719E+02  0.51100000000E-03 0. -1.
        -11    1    3    3    0    0  0.18356333893E+01  0.10940253715E+02 -0.59692759526E+01  0.12597259898E+02  0.51100000000E-03 0.  1.
         12    1    3    3    0    0  0.90002938474E+01  0.65970646815E+01 -0.64784971393E+01  0.12903390133E+02  0.00000000000E+00 0. -1.
</event>
<event>
 7    1  0.9978258E-013  0.5052886E+02  0.7816164E-02  0.1300439E+00
        -11   -1    0    0    0    0  0.00000000000E+00  0.00000000000E+00  0.45593999997E+02  0.45594000000E+02  0.51100000000E-03 0.  1.
         11   -1    0    0    0    0 -0.00000000000E+00 -0.00000000000E+00 -0.45593999997E+02  0.45594000000E+02  0.51100000000E-03 0. -1.
    9900012    2    1    2    0    0  0.34297919644E+01  0.33885210865E+02 -0.22207985308E+02  0.50528860809E+02  0.30000002916E+02 0.  0.
        -12    1    1    2    0    0 -0.34297919644E+01 -0.33885210865E+02  0.22207985308E+02  0.40659139191E+02  0.00000000000E+00 0.  1.
         11    1    3    3    0    0 -0.36995071384E+00  0.19890751723E+02 -0.67353804557E+01  0.21003433476E+02  0.51100000000E-03 0. -1.
        -11    1    3    3    0    0 -0.51867600849E+01 -0.29455224704E+00 -0.10841113979E+02  0.12021605291E+02  0.51100000000E-03 0.  1.
        -12    1    3    3    0    0  0.89865027631E+01  0.14289011390E+02 -0.46314908730E+01  0.17503822043E+02  0.00000000000E+00 0.  1.
</event>
<event>
 7    1  0.9978258E-013  0.5052878E+02  0.7816164E-02  0.1300439E+00
        -11   -1    0    0    0    0  0.00000000000E+00  0.00000000000E+00  0.45593999997E+02  0.45594000000E+02  0.51100000000E-03 0. -1.
         11   -1    0    0    0    0 -0.00000000000E+00 -0.00000000000E+00 -0.45593999997E+02  0.45594000000E+02  0.51100000000E-03 0.  1.
    9900012    2    1    2    0    0 -0.35376138600E+02  0.19764803271E+02  0.33246480636E+01  0.50528783144E+02  0.29999766843E+02 0.  0.
        -12    1    1    2    0    0  0.35376138600E+02 -0.19764803271E+02 -0.33246480636E+01  0.40659216856E+02  0.00000000000E+00 0.  1.
         11    1    3    3    0    0 -0.23044055688E+02  0.39805011151E+01 -0.51444081332E+01  0.23944473830E+02  0.51100000000E-03 0. -1.
        -11    1    3    3    0    0 -0.11409872106E+02  0.10379335996E+02  0.12438722987E+02  0.19815085843E+02  0.51100000000E-03 0.  1.
        -12    1    3    3    0    0 -0.92221080547E+00  0.54049661608E+01 -0.39696667897E+01  0.67692234703E+01  0.00000000000E+00 0.  1.
</event>
<event>
 7    1  0.9978258E-013  0.5052886E+02  0.7816164E-02  0.1300439E+00
        -11   -1    0    0    0    0  0.00000000000E+00  0.00000000000E+00  0.45593999997E+02  0.45594000000E+02  0.51100000000E-03 0. -1.
         11   -1    0    0    0    0 -0.00000000000E+00 -0.00000000000E+00 -0.45593999997E+02  0.45594000000E+02  0.51100000000E-03 0.  1.
    9900012    2    1    2    0    0  0.37572370150E+02  0.55249712564E+01  0.14524371723E+02  0.50528859822E+02  0.29999999913E+02 0.  0.
        -12    1    1    2    0    0 -0.37572370150E+02 -0.55249712564E+01 -0.14524371723E+02  0.40659140178E+02  0.00000000000E+00 0.  1.
         11    1    3    3    0    0 -0.17814744165E+01  0.16324675387E+01  0.14489268195E+01  0.28174439748E+01  0.51100000000E-03 0.  1.
        -11    1    3    3    0    0  0.37398508068E+02  0.47839164352E+01  0.34632820483E+01  0.37861967526E+02  0.51100000000E-03 0. -1.
        -12    1    3    3    0    0  0.19553364990E+01 -0.89141271746E+00  0.96121628555E+01  0.98494483204E+01  0.00000000000E+00 0.  1.
</event>
<event>
 7    1  0.9978258E-013  0.5052885E+02  0.7816164E-02  0.1300439E+00
        -11   -1    0    0    0    0  0.00000000000E+00  0.00000000000E+00  0.45593999997E+02  0.45594000000E+02  0.51100000000E-03 0.  1.
         11   -1    0    0    0    0 -0.00000000000E+00 -0.00000000000E+00 -0.45593999997E+02  0.45594000000E+02  0.51100000000E-03 0. -1.
    9900012    2    1    2    0    0  0.27388203249E+02  0.29977218291E+02 -0.21021166659E+01  0.50528853573E+02  0.29999980922E+02 0.  0.
        -12    1    1    2    0    0 -0.27388203249E+02 -0.29977218291E+02  0.21021166659E+01  0.40659146427E+02  0.00000000000E+00 0.  1.
         11    1    3    3    0    0 -0.19128242689E+01  0.50839700670E+01 -0.86224044636E+01  0.10190755974E+02  0.51100000000E-03 0. -1.
        -11    1    3    3    0    0  0.13781099346E+02  0.10619690240E+02  0.81042037674E+01  0.19193088312E+02  0.51100000000E-03 0.  1.
         12    1    3    3    0    0  0.15519928172E+02  0.14273557984E+02 -0.15839159697E+01  0.21145009288E+02  0.00000000000E+00 0. -1.
</event>
<event>
 7    1  0.9978258E-013  0.5052886E+02  0.7816164E-02  0.1300439E+00
        -11   -1    0    0    0    0  0.00000000000E+00  0.00000000000E+00  0.45593999997E+02  0.45594000000E+02  0.51100000000E-03 0. -1.
         11   -1    0    0    0    0 -0.00000000000E+00 -0.00000000000E+00 -0.45593999997E+02  0.45594000000E+02  0.51100000000E-03 0.  1.
    9900012    2    1    2    0    0 -0.38953877441E+02  0.11228413578E+02 -0.31119477131E+01  0.50528855177E+02  0.29999985795E+02 0.  0.
        -12    1    1    2    0    0  0.38953877441E+02 -0.11228413578E+02  0.31119477131E+01  0.40659144823E+02  0.00000000000E+00 0.  1.
         11    1    3    3    0    0 -0.13878300835E+02  0.33369606475E+01  0.98910248232E+01  0.17365912379E+02  0.51100000000E-03 0. -1.
        -11    1    3    3    0    0 -0.10612330344E+02 -0.30843586543E+01 -0.97083013705E+01  0.14710062522E+02  0.51100000000E-03 0.  1.
        -12    1    3    3    0    0 -0.14463246262E+02  0.10975811585E+02 -0.32946711659E+01  0.18452880276E+02  0.00000000000E+00 0.  1.
</event>
<event>
 7    1  0.9978258E-013  0.5052886E+02  0.7816164E-02  0.1300439E+00
        -11   -1    0    0    0    0  0.00000000000E+00  0.00000000000E+00  0.45593999997E+02  0.45594000000E+02  0.51100000000E-03 0.  1.
         11   -1    0    0    0    0 -0.00000000000E+00 -0.00000000000E+00 -0.45593999997E+02  0.45594000000E+02  0.51100000000E-03 0. -1.
    9900012    2    1    2    0    0  0.19504717861E+02  0.21797457726E+02 -0.28241862851E+02  0.50528855893E+02  0.29999987973E+02 0.  0.
        -12    1    1    2    0    0 -0.19504717861E+02 -0.21797457726E+02  0.28241862851E+02  0.40659144107E+02  0.00000000000E+00 0.  1.
         11    1    3    3    0    0  0.24777084743E+02  0.70530973034E+01 -0.17717666630E+02  0.31266049015E+02  0.51100000000E-03 0. -1.
        -11    1    3    3    0    0 -0.22229551011E+01  0.20609089128E+01 -0.26449346022E+01  0.40230031369E+01  0.51100000000E-03 0.  1.
         12    1    3    3    0    0 -0.30494117806E+01  0.12683451510E+02 -0.78792616197E+01  0.15239803742E+02  0.00000000000E+00 0. -1.
</event>
<event>
 7    1  0.9978258E-013  0.5052887E+02  0.7816164E-02  0.1300439E+00
        -11   -1    0    0    0    0  0.00000000000E+00  0.00000000000E+00  0.45593999997E+02  0.45594000000E+02  0.51100000000E-03 0. -1.
         11   -1    0    0    0    0 -0.00000000000E+00 -0.00000000000E+00 -0.45593999997E+02  0.45594000000E+02  0.51100000000E-03 0.  1.
    9900012    2    1    2    0    0 -0.39420628225E+02 -0.90357902849E+01  0.41872940266E+01  0.50528869820E+02  0.30000030304E+02 0.  0.
        -12    1    1    2    0    0  0.39420628225E+02  0.90357902849E+01 -0.41872940266E+01  0.40659130180E+02  0.00000000000E+00 0.  1.
         11    1    3    3    0    0 -0.16001019939E+02  0.75638807412E+01  0.10519640453E+02  0.20589020532E+02  0.51100000000E-03 0. -1.
        -11    1    3    3    0    0 -0.16647451715E+02 -0.11747484089E+02 -0.17964281907E+01  0.20454050590E+02  0.51100000000E-03 0.  1.
        -12    1    3    3    0    0 -0.67721565714E+01 -0.48521869370E+01 -0.45359182356E+01  0.94857986980E+01  0.00000000000E+00 0.  1.
</event>
<event>
 7    1  0.9978258E-013  0.5052886E+02  0.7816164E-02  0.1300439E+00
        -11   -1    0    0    0    0  0.00000000000E+00  0.00000000000E+00  0.45593999997E+02  0.45594000000E+02  0.51100000000E-03 0.  1.
         11   -1    0    0    0    0 -0.00000000000E+00 -0.00000000000E+00 -0.45593999997E+02  0.45594000000E+02  0.51100000000E-03 0. -1.
    9900012    2    1    2    0    0  0.28085987110E+02 -0.29293071811E+02 -0.25018071113E+01  0.50528858754E+02  0.29999996668E+02 0.  0.
        -12    1    1    2    0    0 -0.28085987110E+02  0.29293071811E+02  0.25018071113E+01  0.40659141246E+02  0.00000000000E+00 0.  1.
         11    1    3    3    0    0  0.20934376545E+02 -0.17354658597E+02  0.89420322864E+01  0.28625028175E+02  0.51100000000E-03 0. -1.
        -11    1    3    3    0    0  0.85737889119E+01 -0.62419232034E+01 -0.11989895443E+02  0.16007156355E+02  0.51100000000E-03 0.  1.
        -12    1    3    3    0    0 -0.14221783474E+01 -0.56964900108E+01  0.54605604547E+00  0.58966742236E+01  0.00000000000E+00 0.  1.
</event>
<event>
 7    1  0.9978258E-013  0.5052886E+02  0.7816164E-02  0.1300439E+00
        -11   -1    0    0    0    0  0.00000000000E+00  0.00000000000E+00  0.45593999997E+02  0.45594000000E+02  0.51100000000E-03 0.  1.
         11   -1    0    0    0    0 -0.00000000000E+00 -0.00000000000E+00 -0.45593999997E+02  0.45594000000E+02  0.51100000000E-03 0. -1.
    9900012    2    1    2    0    0 -0.13794266953E+02  0.38174364902E+02 -0.23667701542E+01  0.50528861575E+02  0.30000005244E+02 0.  0.
        -12    1    1    2    0    0  0.13794266953E+02 -0.38174364902E+02  0.23667701542E+01  0.40659138425E+02  0.00000000000E+00 0.  1.
         11    1    3    3    0    0  0.30206989976E+01 -0.25986564039E+01  0.32890344522E+01  0.51667577288E+01  0.51100000000E-03 0.  1.
        -11    1    3    3    0    0 -0.14512033222E+02  0.38204693902E+02 -0.29435467222E+01  0.40973921120E+02  0.51100000000E-03 0. -1.
         12    1    3    3    0    0 -0.23029327291E+01  0.25683274044E+01 -0.27122578842E+01  0.43881827265E+01  0.00000000000E+00 0. -1.
</event>
<event>
 7    1  0.1063263E-012  0.5052884E+02  0.7816164E-02  0.1300439E+00
        -11   -1    0    0    0    0  0.00000000000E+00  0.00000000000E+00  0.45593999997E+02  0.45594000000E+02  0.51100000000E-03 0. -1.
         11   -1    0    0    0    0 -0.00000000000E+00 -0.00000000000E+00 -0.45593999997E+02  0.45594000000E+02  0.51100000000E-03 0.  1.
    9900012    2    1    2    0    0  0.35956011977E+02 -0.18930344102E+02 -0.14052479008E+01  0.50528838095E+02  0.29999933874E+02 0.  0.
        -12    1    1    2    0    0 -0.35956011977E+02  0.18930344102E+02  0.14052479008E+01  0.40659161905E+02  0.00000000000E+00 0.  1.
         11    1    3    3    0    0  0.21311177626E+02 -0.14130665086E+02 -0.92624663505E+01  0.27196236334E+02  0.51100000000E-03 0. -1.
        -11    1    3    3    0    0  0.89113748017E+01  0.51545444532E+01  0.21974725442E+01  0.10526671612E+02  0.51100000000E-03 0.  1.
         12    1    3    3    0    0  0.57334595502E+01 -0.99542234692E+01  0.56597459055E+01  0.12805930150E+02  0.00000000000E+00 0. -1.
</event>
<event>
 7    1  0.9978258E-013  0.5052886E+02  0.7816164E-02  0.1300439E+00
        -11   -1    0    0    0    0  0.00000000000E+00  0.00000000000E+00  0.45593999997E+02  0.45594000000E+02  0.51100000000E-03 0.  1.
         11   -1    0    0    0    0 -0.00000000000E+00 -0.00000000000E+00 -0.45593999997E+02  0.45594000000E+02  0.51100000000E-03 0. -1.
    9900012    2    1    2    0    0  0.36525523389E+02  0.17664997318E+02  0.26456589227E+01  0.50528862033E+02  0.30000006637E+02 0.  0.
        -12    1    1    2    0    0 -0.36525523389E+02 -0.17664997318E+02 -0.26456589227E+01  0.40659137967E+02  0.00000000000E+00 0.  1.
         11    1    3    3    0    0  0.31066562564E+02  0.20242841386E+02  0.11493547006E+02  0.38820169500E+02  0.51100000000E-03 0. -1.
        -11    1    3    3    0    0  0.13441308528E+01  0.12786851528E+01 -0.33685494811E+01  0.38456273009E+01  0.51100000000E-03 0.  1.
         12    1    3    3    0    0  0.41148299715E+01 -0.38565292215E+01 -0.54793386025E+01  0.78630652326E+01  0.00000000000E+00 0. -1.
</event>
<event>
 7    1  0.9978258E-013  0.5052884E+02  0.7816164E-02  0.1300439E+00
        -11   -1    0    0    0    0  0.00000000000E+00  0.00000000000E+00  0.45593999997E+02  0.45594000000E+02  0.51100000000E-03 0.  1.
         11   -1    0    0    0    0 -0.00000000000E+00 -0.00000000000E+00 -0.45593999997E+02  0.45594000000E+02  0.51100000000E-03 0. -1.
    9900012    2    1    2    0    0  0.31697773921E+02 -0.93200291130E+01 -0.23697155074E+02  0.50528843924E+02  0.29999951592E+02 0.  0.
        -12    1    1    2    0    0 -0.31697773921E+02  0.93200291130E+01  0.23697155074E+02  0.40659156076E+02  0.00000000000E+00 0.  1.
         11    1    3    3    0    0  0.20151109688E+02  0.42751643809E+01 -0.18426272185E+02  0.27638230027E+02  0.51100000000E-03 0. -1.
        -11    1    3    3    0    0  0.96484466653E+01 -0.11955171131E+02  0.17241740288E+01  0.15459347210E+02  0.51100000000E-03 0.  1.
        -12    1    3    3    0    0  0.18982175675E+01 -0.16400223628E+01 -0.69950569178E+01  0.74312666866E+01  0.00000000000E+00 0.  1.
</event>
<event>
 7    1  0.9978258E-013  0.5052886E+02  0.7816164E-02  0.1300439E+00
        -11   -1    0    0    0    0  0.00000000000E+00  0.00000000000E+00  0.45593999997E+02  0.45594000000E+02  0.51100000000E-03 0.  1.
         11   -1    0    0    0    0 -0.00000000000E+00 -0.00000000000E+00 -0.45593999997E+02  0.45594000000E+02  0.51100000000E-03 0. -1.
    9900012    2    1    2    0    0 -0.99993887830E+01  0.35047090597E+02 -0.18024409390E+02  0.50528859955E+02  0.30000000319E+02 0.  0.
        -12    1    1    2    0    0  0.99993887830E+01 -0.35047090597E+02  0.18024409390E+02  0.40659140045E+02  0.00000000000E+00 0.  1.
         11    1    3    3    0    0 -0.12214052994E+02  0.23789602152E+02 -0.19847786924E+02  0.33302596102E+02  0.51100000000E-03 0. -1.
        -11    1    3    3    0    0  0.37740544674E+01  0.39353589604E+00  0.45428092652E+01  0.59190771161E+01  0.51100000000E-03 0.  1.
        -12    1    3    3    0    0 -0.15593902563E+01  0.10863952549E+02 -0.27194317317E+01  0.11307186737E+02  0.00000000000E+00 0.  1.
</event>
<event>
 7    1  0.9978258E-013  0.5052886E+02  0.7816164E-02  0.1300439E+00
        -11   -1    0    0    0    0  0.00000000000E+00  0.00000000000E+00  0.45593999997E+02  0.45594000000E+02  0.51100000000E-03 0. -1.
         11   -1    0    0    0    0 -0.00000000000E+00 -0.00000000000E+00 -0.45593999997E+02  0.45594000000E+02  0.51100000000E-03 0.  1.
    9900012    2    1    2    0    0  0.94183301851E+01 -0.16553874980E+02  0.35922551707E+02  0.50528862755E+02  0.30000008830E+02 0.  0.
        -12    1    1    2    0    0 -0.94183301851E+01  0.16553874980E+02 -0.35922551707E+02  0.40659137245E+02  0.00000000000E+00 0.  1.
         11    1    3    3    0    0  0.26880726304E+01 -0.16424266260E+02  0.11458746885E+02  0.20206066838E+02  0.51100000000E-03 0. -1.
        -11    1    3    3    0    0 -0.15649548307E+01  0.66415816661E+01  0.65853416292E+01  0.94829539324E+01  0.51100000000E-03 0.  1.
         12    1    3    3    0    0  0.82952123855E+01 -0.67711903863E+01  0.17878463193E+02  0.20839841984E+02  0.00000000000E+00 0. -1.
</event>
<event>
 7    1  0.9978258E-013  0.5052884E+02  0.7816164E-02  0.1300439E+00
        -11   -1    0    0    0    0  0.00000000000E+00  0.00000000000E+00  0.45593999997E+02  0.45594000000E+02  0.51100000000E-03 0.  1.
         11   -1    0    0    0    0 -0.00000000000E+00 -0.00000000000E+00 -0.45593999997E+02  0.45594000000E+02  0.51100000000E-03 0. -1.
    9900012    2    1    2    0    0 -0.17402776933E+02  0.31182818138E+02 -0.19440736450E+02  0.50528843273E+02  0.29999949613E+02 0.  0.
        -12    1    1    2    0    0  0.17402776933E+02 -0.31182818138E+02  0.19440736450E+02  0.40659156727E+02  0.00000000000E+00 0.  1.
         11    1    3    3    0    0 -0.27228308488E+01  0.14683217041E+02 -0.15458392939E+02  0.21493547474E+02  0.51100000000E-03 0. -1.
        -11    1    3    3    0    0 -0.91033029207E+01  0.11689038957E+02  0.65372984966E+01  0.16193826839E+02  0.51100000000E-03 0.  1.
        -12    1    3    3    0    0 -0.55766431635E+01  0.48105621407E+01 -0.10519642008E+02  0.12841468960E+02  0.00000000000E+00 0.  1.
</event>
<event>
 7    1  0.9978258E-013  0.5052886E+02  0.7816164E-02  0.1300439E+00
        -11   -1    0    0    0    0  0.00000000000E+00  0.00000000000E+00  0.45593999997E+02  0.45594000000E+02  0.51100000000E-03 0.  1.
         11   -1    0    0    0    0 -0.00000000000E+00 -0.00000000000E+00 -0.45593999997E+02  0.45594000000E+02  0.51100000000E-03 0. -1.
    9900012    2    1    2    0    0 -0.12809098839E+02  0.16818663457E+02 -0.34730749093E+02  0.50528863436E+02  0.30000010901E+02 0.  0.
        -12    1    1    2    0    0  0.12809098839E+02 -0.16818663457E+02  0.34730749093E+02  0.40659136564E+02  0.00000000000E+00 0.  1.
         11    1    3    3    0    0 -0.25891955631E+01  0.11978377554E+02 -0.30141560618E+02  0.32537657249E+02  0.51100000000E-03 0. -1.
        -11    1    3    3    0    0 -0.73118428679E+01 -0.28864317135E+01 -0.56312938249E+01  0.96698502866E+01  0.51100000000E-03 0.  1.
         12    1    3    3    0    0 -0.29080604079E+01  0.77267176172E+01  0.10421053503E+01  0.83213559012E+01  0.00000000000E+00 0. -1.
</event>
<event>
 7    1  0.9978258E-013  0.5052886E+02  0.7816164E-02  0.1300439E+00
        -11   -1    0    0    0    0  0.00000000000E+00  0.00000000000E+00  0.45593999997E+02  0.45594000000E+02  0.51100000000E-03 0.  1.
         11   -1    0    0    0    0 -0.00000000000E+00 -0.00000000000E+00 -0.45593999997E+02  0.45594000000E+02  0.51100000000E-03 0. -1.
    9900012    2    1    2    0    0 -0.35055764955E+01 -0.34426808847E+02 -0.21346457435E+02  0.50528862294E+02  0.30000007428E+02 0.  0.
        -12    1    1    2    0    0  0.35055764955E+01  0.34426808847E+02  0.21346457435E+02  0.40659137706E+02  0.00000000000E+00 0.  1.
         11    1    3    3    0    0  0.11724070909E+02 -0.11814986745E+02 -0.56274131247E+01  0.17570302479E+02  0.51100000000E-03 0. -1.
        -11    1    3    3    0    0 -0.28269208336E+00 -0.44026489725E+01  0.37528502496E+00  0.44276485746E+01  0.51100000000E-03 0.  1.
         12    1    3    3    0    0 -0.14946955321E+02 -0.18209173130E+02 -0.16094329335E+02  0.28530911241E+02  0.00000000000E+00 0. -1.
</event>
<event>
 7    1  0.9978258E-013  0.5052887E+02  0.7816164E-02  0.1300439E+00
        -11   -1    0    0    0    0  0.00000000000E+00  0.00000000000E+00  0.45593999997E+02  0.45594000000E+02  0.51100000000E-03 0. -1.
         11   -1    0    0    0    0 -0.00000000000E+00 -0.00000000000E+00 -0.45593999997E+02  0.45594000000E+02  0.51100000000E-03 0.  1.
    9900012    2    1    2    0    0 -0.24253846561E+02 -0.30763327926E+02 -0.10887307685E+02  0.50528869578E+02  0.30000029568E+02 0.  0.
        -12    1    1    2    0    0  0.24253846561E+02  0.30763327926E+02  0.10887307685E+02  0.40659130422E+02  0.00000000000E+00 0.  1.
         11    1    3    3    0    0 -0.10521036779E+02 -0.95581371475E+01  0.97139548205E+01  0.17216594296E+02  0.51100000000E-03 0. -1.
        -11    1    3    3    0    0 -0.61995384842E+01 -0.43000343296E+01 -0.74876728505E+01  0.10629666864E+02  0.51100000000E-03 0.  1.
         12    1    3    3    0    0 -0.75332712979E+01 -0.16905156449E+02 -0.13113589655E+02  0.22682608418E+02  0.00000000000E+00 0. -1.
</event>
<event>
 7    1  0.9978258E-013  0.5052886E+02  0.7816164E-02  0.1300439E+00
        -11   -1    0    0    0    0  0.00000000000E+00  0.00000000000E+00  0.45593999997E+02  0.45594000000E+02  0.51100000000E-03 0.  1.
         11   -1    0    0    0    0 -0.00000000000E+00 -0.00000000000E+00 -0.45593999997E+02  0.45594000000E+02  0.51100000000E-03 0. -1.
    9900012    2    1    2    0    0  0.26840495318E+02  0.21852271050E+02 -0.21336152690E+02  0.50528863873E+02  0.30000012228E+02 0.  0.
        -12    1    1    2    0    0 -0.26840495318E+02 -0.21852271050E+02  0.21336152690E+02  0.40659136127E+02  0.00000000000E+00 0.  1.
         11    1    3    3    0    0  0.88404405688E+01  0.21476031469E+02 -0.11043521630E+02  0.25716389470E+02  0.51100000000E-03 0. -1.
        -11    1    3    3    0    0  0.10764113275E+02  0.37831205060E+00  0.16025455131E+01  0.10889325369E+02  0.51100000000E-03 0.  1.
         12    1    3    3    0    0  0.72359414745E+01 -0.20724698466E-02 -0.11895176573E+02  0.13923149034E+02  0.00000000000E+00 0. -1.
</event>
<event>
 7    1  0.9978258E-013  0.5052886E+02  0.7816164E-02  0.1300439E+00
        -11   -1    0    0    0    0  0.00000000000E+00  0.00000000000E+00  0.45593999997E+02  0.45594000000E+02  0.51100000000E-03 0.  1.
         11   -1    0    0    0    0 -0.00000000000E+00 -0.00000000000E+00 -0.45593999997E+02  0.45594000000E+02  0.51100000000E-03 0. -1.
    9900012    2    1    2    0    0  0.17678066637E+02 -0.22560332202E+02 -0.28838909354E+02  0.50528864227E+02  0.30000013304E+02 0.  0.
        -12    1    1    2    0    0 -0.17678066637E+02  0.22560332202E+02  0.28838909354E+02  0.40659135773E+02  0.00000000000E+00 0.  1.
         11    1    3    3    0    0 -0.12926966979E+01 -0.11154390003E+02 -0.98772565557E+01  0.14954988413E+02  0.51100000000E-03 0. -1.
        -11    1    3    3    0    0  0.12081344034E+02  0.39610839460E+01 -0.48690693635E+01  0.13614583961E+02  0.51100000000E-03 0.  1.
        -12    1    3    3    0    0  0.68894193007E+01 -0.15367026145E+02 -0.14092583434E+02  0.21959291853E+02  0.00000000000E+00 0.  1.
</event>
<event>
 7    1  0.9978258E-013  0.5052885E+02  0.7816164E-02  0.1300439E+00
        -11   -1    0    0    0    0  0.00000000000E+00  0.00000000000E+00  0.45593999997E+02  0.45594000000E+02  0.51100000000E-03 0.  1.
         11   -1    0    0    0    0 -0.00000000000E+00 -0.00000000000E+00 -0.45593999997E+02  0.45594000000E+02  0.51100000000E-03 0. -1.
    9900012    2    1    2    0    0  0.49241210229E+01 -0.18725917952E+02 -0.35752751663E+02  0.50528853151E+02  0.29999979638E+02 0.  0.
        -12    1    1    2    0    0 -0.49241210229E+01  0.18725917952E+02  0.35752751663E+02  0.40659146849E+02  0.00000000000E+00 0.  1.
         11    1    3    3    0    0  0.49877090919E+01 -0.59045049351E+01 -0.23535601857E+02  0.24772262221E+02  0.51100000000E-03 0. -1.
        -11    1    3    3    0    0 -0.70581044813E+01 -0.62853362900E+01  0.92637420537E+00  0.94963393250E+01  0.51100000000E-03 0.  1.
        -12    1    3    3    0    0  0.69945164122E+01 -0.65360767272E+01 -0.13143524011E+02  0.16260251605E+02  0.00000000000E+00 0.  1.
</event>
<event>
 7    1  0.9978258E-013  0.5052885E+02  0.7816164E-02  0.1300439E+00
        -11   -1    0    0    0    0  0.00000000000E+00  0.00000000000E+00  0.45593999997E+02  0.45594000000E+02  0.51100000000E-03 0.  1.
         11   -1    0    0    0    0 -0.00000000000E+00 -0.00000000000E+00 -0.45593999997E+02  0.45594000000E+02  0.51100000000E-03 0. -1.
    9900012    2    1    2    0    0  0.11761816640E+02 -0.23571181456E+02 -0.30971360769E+02  0.50528854487E+02  0.29999983699E+02 0.  0.
        -12    1    1    2    0    0 -0.11761816640E+02  0.23571181456E+02  0.30971360769E+02  0.40659145513E+02  0.00000000000E+00 0.  1.
         11    1    3    3    0    0  0.80459152017E+01 -0.70346005831E+01 -0.29580739980E+02  0.31452226230E+02  0.51100000000E-03 0. -1.
        -11    1    3    3    0    0  0.10236866465E+00 -0.12428746462E+02  0.20737779367E+01  0.12600983023E+02  0.51100000000E-03 0.  1.
        -12    1    3    3    0    0  0.36135327740E+01 -0.41078344116E+01 -0.34643987257E+01  0.64756452337E+01  0.00000000000E+00 0.  1.
</event>
<event>
 7    1  0.9978258E-013  0.5052886E+02  0.7816164E-02  0.1300439E+00
        -11   -1    0    0    0    0  0.00000000000E+00  0.00000000000E+00  0.45593999997E+02  0.45594000000E+02  0.51100000000E-03 0. -1.
         11   -1    0    0    0    0 -0.00000000000E+00 -0.00000000000E+00 -0.45593999997E+02  0.45594000000E+02  0.51100000000E-03 0.  1.
    9900012    2    1    2    0    0  0.98625015049E+01 -0.10274724101E+02  0.38083161335E+02  0.50528855044E+02  0.29999985392E+02 0.  0.
        -12    1    1    2    0    0 -0.98625015049E+01  0.10274724101E+02 -0.38083161335E+02  0.40659144956E+02  0.00000000000E+00 0.  1.
         11    1    3    3    0    0  0.67826677620E+01 -0.14646589302E+02  0.34411530586E+02  0.38008954178E+02  0.51100000000E-03 0. -1.
        -11    1    3    3    0    0  0.69400388723E+00  0.74856352556E+01  0.41182510964E+01  0.85718357969E+01  0.51100000000E-03 0.  1.
        -12    1    3    3    0    0  0.23858298556E+01 -0.31137700549E+01 -0.44662034785E+00  0.39480650691E+01  0.00000000000E+00 0.  1.
</event>
<event>
 7    1  0.9978258E-013  0.5052886E+02  0.7816164E-02  0.1300439E+00
        -11   -1    0    0    0    0  0.00000000000E+00  0.00000000000E+00  0.45593999997E+02  0.45594000000E+02  0.51100000000E-03 0.  1.
         11   -1    0    0    0    0 -0.00000000000E+00 -0.00000000000E+00 -0.45593999997E+02  0.45594000000E+02  0.51100000000E-03 0. -1.
    9900012    2    1    2    0    0  0.27644211859E+02 -0.12872309905E+02 -0.26893620263E+02  0.50528860530E+02  0.30000002067E+02 0.  0.
        -12    1    1    2    0    0 -0.27644211859E+02  0.12872309905E+02  0.26893620263E+02  0.40659139470E+02  0.00000000000E+00 0.  1.
         11    1    3    3    0    0  0.18738656242E+02 -0.20823974123E+02 -0.17739821610E+02  0.33158353503E+02  0.51100000000E-03 0.  1.
        -11    1    3    3    0    0  0.15220143845E+01  0.69487722016E+01 -0.58909958601E+01  0.92361136513E+01  0.51100000000E-03 0. -1.
         12    1    3    3    0    0  0.73835412324E+01  0.10028920158E+01 -0.32628027927E+01  0.81343933757E+01  0.00000000000E+00 0. -1.
</event>
<event>
 7    1  0.9978258E-013  0.5052886E+02  0.7816164E-02  0.1300439E+00
        -11   -1    0    0    0    0  0.00000000000E+00  0.00000000000E+00  0.45593999997E+02  0.45594000000E+02  0.51100000000E-03 0.  1.
         11   -1    0    0    0    0 -0.00000000000E+00 -0.00000000000E+00 -0.45593999997E+02  0.45594000000E+02  0.51100000000E-03 0. -1.
    9900012    2    1    2    0    0  0.11127574915E+02  0.37839263351E+02 -0.98758595001E+01  0.50528863570E+02  0.30000011306E+02 0.  0.
        -12    1    1    2    0    0 -0.11127574915E+02 -0.37839263351E+02  0.98758595001E+01  0.40659136430E+02  0.00000000000E+00 0.  1.
         11    1    3    3    0    0  0.10307087264E+02  0.31215797666E+01  0.19902663749E+00  0.10771254336E+02  0.51100000000E-03 0. -1.
        -11    1    3    3    0    0 -0.11165296277E+01  0.24159251443E+02  0.11677018656E+01  0.24213211200E+02  0.51100000000E-03 0.  1.
         12    1    3    3    0    0  0.19370172780E+01  0.10558432141E+02 -0.11242588003E+02  0.15544398034E+02  0.00000000000E+00 0. -1.
</event>
<event>
 7    1  0.9978258E-013  0.5052886E+02  0.7816164E-02  0.1300439E+00
        -11   -1    0    0    0    0  0.00000000000E+00  0.00000000000E+00  0.45593999997E+02  0.45594000000E+02  0.51100000000E-03 0.  1.
         11   -1    0    0    0    0 -0.00000000000E+00 -0.00000000000E+00 -0.45593999997E+02  0.45594000000E+02  0.51100000000E-03 0. -1.
    9900012    2    1    2    0    0  0.62817938454E+01  0.88360623856E+01 -0.39187098784E+02  0.50528860271E+02  0.30000001279E+02 0.  0.
        -12    1    1    2    0    0 -0.62817938454E+01 -0.88360623856E+01  0.39187098784E+02  0.40659139729E+02  0.00000000000E+00 0.  1.
         11    1    3    3    0    0 -0.43557054118E+00 -0.72014464501E+00 -0.26629133049E+02  0.26642429641E+02  0.51100000000E-03 0. -1.
        -11    1    3    3    0    0  0.10554119450E+02  0.23582601448E+01 -0.11286530716E+02  0.15631270074E+02  0.51100000000E-03 0.  1.
        -12    1    3    3    0    0 -0.38367550632E+01  0.71979468858E+01 -0.12714350199E+01  0.82551605555E+01  0.00000000000E+00 0.  1.
</event>
<event>
 7    1  0.9978258E-013  0.5052882E+02  0.7816164E-02  0.1300439E+00
        -11   -1    0    0    0    0  0.00000000000E+00  0.00000000000E+00  0.45593999997E+02  0.45594000000E+02  0.51100000000E-03 0.  1.
         11   -1    0    0    0    0 -0.00000000000E+00 -0.00000000000E+00 -0.45593999997E+02  0.45594000000E+02  0.51100000000E-03 0. -1.
    9900012    2    1    2    0    0  0.33976722244E+02  0.12053141069E+02 -0.18800889600E+02  0.50528815136E+02  0.29999864087E+02 0.  0.
        -12    1    1    2    0    0 -0.33976722244E+02 -0.12053141069E+02  0.18800889600E+02  0.40659184864E+02  0.00000000000E+00 0.  1.
         11    1    3    3    0    0  0.35509421323E+02  0.71452435000E+01 -0.95676421786E+01  0.37463492689E+02  0.51100000000E-03 0. -1.
        -11    1    3    3    0    0 -0.10193798576E+01 -0.15160105063E+01 -0.26257199627E-01  0.18270503143E+01  0.51100000000E-03 0.  1.
         12    1    3    3    0    0 -0.51331922157E+00  0.64239080749E+01 -0.92069902220E+01  0.11238272133E+02  0.00000000000E+00 0. -1.
</event>
<event>
 7    1  0.9978258E-013  0.5052884E+02  0.7816164E-02  0.1300439E+00
        -11   -1    0    0    0    0  0.00000000000E+00  0.00000000000E+00  0.45593999997E+02  0.45594000000E+02  0.51100000000E-03 0.  1.
         11   -1    0    0    0    0 -0.00000000000E+00 -0.00000000000E+00 -0.45593999997E+02  0.45594000000E+02  0.51100000000E-03 0. -1.
    9900012    2    1    2    0    0 -0.14736676227E+02 -0.28759878672E+01 -0.37785263571E+02  0.50528842661E+02  0.29999947752E+02 0.  0.
        -12    1    1    2    0    0  0.14736676227E+02  0.28759878672E+01  0.37785263571E+02  0.40659157339E+02  0.00000000000E+00 0.  1.
         11    1    3    3    0    0 -0.17008531859E+01  0.65447924582E+01 -0.10499865210E+02  0.12488970317E+02  0.51100000000E-03 0. -1.
        -11    1    3    3    0    0 -0.11917748720E+02 -0.11388600670E+02 -0.74738866404E+01  0.18099501141E+02  0.51100000000E-03 0.  1.
         12    1    3    3    0    0 -0.11180743212E+01  0.19678203445E+01 -0.19811511720E+02  0.19940371204E+02  0.00000000000E+00 0. -1.
</event>
<event>
 7    1  0.9978258E-013  0.5052885E+02  0.7816164E-02  0.1300439E+00
        -11   -1    0    0    0    0  0.00000000000E+00  0.00000000000E+00  0.45593999997E+02  0.45594000000E+02  0.51100000000E-03 0.  1.
         11   -1    0    0    0    0 -0.00000000000E+00 -0.00000000000E+00 -0.45593999997E+02  0.45594000000E+02  0.51100000000E-03 0. -1.
    9900012    2    1    2    0    0 -0.11075912006E+02  0.37099731277E+01 -0.38945180517E+02  0.50528845891E+02  0.29999957571E+02 0.  0.
        -12    1    1    2    0    0  0.11075912006E+02 -0.37099731277E+01  0.38945180517E+02  0.40659154109E+02  0.00000000000E+00 0.  1.
         11    1    3    3    0    0 -0.72093330653E+01  0.13189553003E+02 -0.21712357452E+02  0.26407674227E+02  0.51100000000E-03 0. -1.
        -11    1    3    3    0    0  0.17914099663E+01 -0.63963243690E+01 -0.10788331642E+01  0.67294870799E+01  0.51100000000E-03 0.  1.
         12    1    3    3    0    0 -0.56579889068E+01 -0.30832555067E+01 -0.16153989900E+02  0.17391684585E+02  0.00000000000E+00 0. -1.
</event>
<event>
 7    1  0.9978258E-013  0.5052878E+02  0.7816164E-02  0.1300439E+00
        -11   -1    0    0    0    0  0.00000000000E+00  0.00000000000E+00  0.45593999997E+02  0.45594000000E+02  0.51100000000E-03 0.  1.
         11   -1    0    0    0    0 -0.00000000000E+00 -0.00000000000E+00 -0.45593999997E+02  0.45594000000E+02  0.51100000000E-03 0. -1.
    9900012    2    1    2    0    0  0.25433419319E+02 -0.30007941279E+02 -0.10287688213E+02  0.50528783494E+02  0.29999767909E+02 0.  0.
        -12    1    1    2    0    0 -0.25433419319E+02  0.30007941279E+02  0.10287688213E+02  0.40659216506E+02  0.00000000000E+00 0.  1.
         11    1    3    3    0    0  0.80355243973E+01  0.82046820109E+00  0.64017172365E+01  0.10306541818E+02  0.51100000000E-03 0. -1.
        -11    1    3    3    0    0  0.11044961437E+02 -0.15175704429E+02 -0.42529114401E+01  0.19245270433E+02  0.51100000000E-03 0.  1.
         12    1    3    3    0    0  0.63529334842E+01 -0.15652705051E+02 -0.12436494010E+02  0.20976971243E+02  0.00000000000E+00 0. -1.
</event>
<event>
 7    1  0.9978258E-013  0.5052886E+02  0.7816164E-02  0.1300439E+00
        -11   -1    0    0    0    0  0.00000000000E+00  0.00000000000E+00  0.45593999997E+02  0.45594000000E+02  0.51100000000E-03 0.  1.
         11   -1    0    0    0    0 -0.00000000000E+00 -0.00000000000E+00 -0.45593999997E+02  0.45594000000E+02  0.51100000000E-03 0. -1.
    9900012    2    1    2    0    0 -0.17143082085E+01 -0.33554295928E+02 -0.22898388456E+02  0.50528858079E+02  0.29999994617E+02 0.  0.
        -12    1    1    2    0    0  0.17143082085E+01  0.33554295928E+02  0.22898388456E+02  0.40659141921E+02  0.00000000000E+00 0.  1.
         11    1    3    3    0    0 -0.10720377884E+02 -0.27890582015E+02 -0.14225591710E+02  0.33093481637E+02  0.51100000000E-03 0. -1.
        -11    1    3    3    0    0  0.71018641314E+01  0.18373245069E+01 -0.49338261211E+01  0.88405246416E+01  0.51100000000E-03 0.  1.
         12    1    3    3    0    0  0.19042055439E+01 -0.75010384201E+01 -0.37389706250E+01  0.85948518003E+01  0.00000000000E+00 0. -1.
</event>
<event>
 7    1  0.9978258E-013  0.5052886E+02  0.7816164E-02  0.1300439E+00
        -11   -1    0    0    0    0  0.00000000000E+00  0.00000000000E+00  0.45593999997E+02  0.45594000000E+02  0.51100000000E-03 0.  1.
         11   -1    0    0    0    0 -0.00000000000E+00 -0.00000000000E+00 -0.45593999997E+02  0.45594000000E+02  0.51100000000E-03 0. -1.
    9900012    2    1    2    0    0  0.31737083652E+02 -0.25409999863E+02  0.50523621560E+00  0.50528857911E+02  0.29999994107E+02 0.  0.
        -12    1    1    2    0    0 -0.31737083652E+02  0.25409999863E+02 -0.50523621560E+00  0.40659142089E+02  0.00000000000E+00 0.  1.
         11    1    3    3    0    0  0.18651451110E+02 -0.19423953433E+02 -0.12727020864E+02  0.29784956871E+02  0.51100000000E-03 0. -1.
        -11    1    3    3    0    0  0.29145120991E+01  0.15637587322E+01  0.26440729352E+01  0.42344827424E+01  0.51100000000E-03 0.  1.
        -12    1    3    3    0    0  0.10171120442E+02 -0.75498051620E+01  0.10588184145E+02  0.16509418297E+02  0.00000000000E+00 0.  1.
</event>
<event>
 7    1  0.9978258E-013  0.5052887E+02  0.7816164E-02  0.1300439E+00
        -11   -1    0    0    0    0  0.00000000000E+00  0.00000000000E+00  0.45593999997E+02  0.45594000000E+02  0.51100000000E-03 0.  1.
         11   -1    0    0    0    0 -0.00000000000E+00 -0.00000000000E+00 -0.45593999997E+02  0.45594000000E+02  0.51100000000E-03 0. -1.
    9900012    2    1    2    0    0  0.25349142905E+02  0.19261028974E+01 -0.31731304776E+02  0.50528872843E+02  0.30000039495E+02 0.  0.
        -12    1    1    2    0    0 -0.25349142905E+02 -0.19261028974E+01  0.31731304776E+02  0.40659127157E+02  0.00000000000E+00 0.  1.
         11    1    3    3    0    0  0.10708481519E+02 -0.48502116631E+01 -0.13699869458E+02  0.18052217400E+02  0.51100000000E-03 0. -1.
        -11    1    3    3    0    0  0.69397941162E+01  0.11527005474E+02 -0.13797761429E+01  0.13525397593E+02  0.51100000000E-03 0.  1.
        -12    1    3    3    0    0  0.77008672698E+01 -0.47506909139E+01 -0.16651659174E+02  0.18951257851E+02  0.00000000000E+00 0.  1.
</event>
<event>
 7    1  0.9978258E-013  0.5052886E+02  0.7816164E-02  0.1300439E+00
        -11   -1    0    0    0    0  0.00000000000E+00  0.00000000000E+00  0.45593999997E+02  0.45594000000E+02  0.51100000000E-03 0.  1.
         11   -1    0    0    0    0 -0.00000000000E+00 -0.00000000000E+00 -0.45593999997E+02  0.45594000000E+02  0.51100000000E-03 0. -1.
    9900012    2    1    2    0    0  0.34519705799E+02  0.54770739670E+01 -0.20773958129E+02  0.50528858789E+02  0.29999996776E+02 0.  0.
        -12    1    1    2    0    0 -0.34519705799E+02 -0.54770739670E+01  0.20773958129E+02  0.40659141211E+02  0.00000000000E+00 0.  1.
         11    1    3    3    0    0  0.45231141750E+01 -0.65283123177E+01 -0.74307232247E+01  0.10876261833E+02  0.51100000000E-03 0. -1.
        -11    1    3    3    0    0  0.12609299331E+02  0.13885937403E+02 -0.21286485215E+01  0.18877098081E+02  0.51100000000E-03 0.  1.
        -12    1    3    3    0    0  0.17387292293E+02 -0.18805511182E+01 -0.11214586383E+02  0.20775498875E+02  0.00000000000E+00 0.  1.
</event>
<event>
 7    1  0.9978258E-013  0.5052887E+02  0.7816164E-02  0.1300439E+00
        -11   -1    0    0    0    0  0.00000000000E+00  0.00000000000E+00  0.45593999997E+02  0.45594000000E+02  0.51100000000E-03 0.  1.
         11   -1    0    0    0    0 -0.00000000000E+00 -0.00000000000E+00 -0.45593999997E+02  0.45594000000E+02  0.51100000000E-03 0. -1.
    9900012    2    1    2    0    0 -0.23953826562E+02  0.23188677179E+02 -0.23273684550E+02  0.50528868814E+02  0.30000027248E+02 0.  0.
        -12    1    1    2    0    0  0.23953826562E+02 -0.23188677179E+02  0.23273684550E+02  0.40659131186E+02  0.00000000000E+00 0.  1.
         11    1    3    3    0    0 -0.10546070494E+02  0.84466518389E+01  0.30330202261E+01  0.13847914721E+02  0.51100000000E-03 0. -1.
        -11    1    3    3    0    0  0.22145317281E+01  0.61996925364E+01 -0.27075882892E+01  0.71183827465E+01  0.51100000000E-03 0.  1.
         12    1    3    3    0    0 -0.15622287796E+02  0.85423328033E+01 -0.23599116487E+02  0.29562571347E+02  0.00000000000E+00 0. -1.
</event>
<event>
 7    1  0.9978258E-013  0.5052886E+02  0.7816164E-02  0.1300439E+00
        -11   -1    0    0    0    0  0.00000000000E+00  0.00000000000E+00  0.45593999997E+02  0.45594000000E+02  0.51100000000E-03 0.  1.
         11   -1    0    0    0    0 -0.00000000000E+00 -0.00000000000E+00 -0.45593999997E+02  0.45594000000E+02  0.51100000000E-03 0. -1.
    9900012    2    1    2    0    0  0.15983944196E+01 -0.37236858264E+02 -0.16248920952E+02  0.50528856992E+02  0.29999991311E+02 0.  0.
        -12    1    1    2    0    0 -0.15983944196E+01  0.37236858264E+02  0.16248920952E+02  0.40659143008E+02  0.00000000000E+00 0.  1.
         11    1    3    3    0    0 -0.20695490390E+01 -0.16264162659E+02 -0.12848162306E+02  0.20829817453E+02  0.51100000000E-03 0. -1.
        -11    1    3    3    0    0 -0.49872345672E+01 -0.11432164071E+02  0.59128548989E+01  0.13803214745E+02  0.51100000000E-03 0.  1.
        -12    1    3    3    0    0  0.86551780258E+01 -0.95405315332E+01 -0.93136135447E+01  0.15895824793E+02  0.00000000000E+00 0.  1.
</event>
<event>
 7    1  0.9978258E-013  0.5052885E+02  0.7816164E-02  0.1300439E+00
        -11   -1    0    0    0    0  0.00000000000E+00  0.00000000000E+00  0.45593999997E+02  0.45594000000E+02  0.51100000000E-03 0.  1.
         11   -1    0    0    0    0 -0.00000000000E+00 -0.00000000000E+00 -0.45593999997E+02  0.45594000000E+02  0.51100000000E-03 0. -1.
    9900012    2    1    2    0    0  0.37915415150E+01 -0.34395572327E+01 -0.40335589160E+02  0.50528854733E+02  0.29999984445E+02 0.  0.
        -12    1    1    2    0    0 -0.37915415150E+01  0.34395572327E+01  0.40335589160E+02  0.40659145267E+02  0.00000000000E+00 0.  1.
         11    1    3    3    0    0  0.26061427384E+00 -0.12853577740E+01 -0.41720971307E+01  0.43733807445E+01  0.51100000000E-03 0. -1.
        -11    1    3    3    0    0  0.13265283188E+02  0.68708845142E+00 -0.32936070308E+02  0.35513723490E+02  0.51100000000E-03 0.  1.
        -12    1    3    3    0    0 -0.97343559467E+01 -0.28412879102E+01 -0.32274217215E+01  0.10641750498E+02  0.00000000000E+00 0.  1.
</event>
<event>
 7    1  0.9978258E-013  0.5052887E+02  0.7816164E-02  0.1300439E+00
        -11   -1    0    0    0    0  0.00000000000E+00  0.00000000000E+00  0.45593999997E+02  0.45594000000E+02  0.51100000000E-03 0. -1.
         11   -1    0    0    0    0 -0.00000000000E+00 -0.00000000000E+00 -0.45593999997E+02  0.45594000000E+02  0.51100000000E-03 0.  1.
    9900012    2    1    2    0    0 -0.46912528903E+01 -0.24765819275E+02  0.31903150414E+02  0.50528872312E+02  0.30000037880E+02 0.  0.
        -12    1    1    2    0    0  0.46912528903E+01  0.24765819275E+02 -0.31903150414E+02  0.40659127688E+02  0.00000000000E+00 0.  1.
         11    1    3    3    0    0 -0.10838588583E+02 -0.73687970790E+01  0.96289916265E+01  0.16263199343E+02  0.51100000000E-03 0. -1.
        -11    1    3    3    0    0  0.58112357551E+01 -0.11927638340E+02  0.24880942298E+02  0.28197523070E+02  0.51100000000E-03 0.  1.
         12    1    3    3    0    0  0.33609993739E+00 -0.54693838559E+01 -0.26067835110E+01  0.60681498996E+01  0.00000000000E+00 0. -1.
</event>
<event>
 7    1  0.9978258E-013  0.5052885E+02  0.7816164E-02  0.1300439E+00
        -11   -1    0    0    0    0  0.00000000000E+00  0.00000000000E+00  0.45593999997E+02  0.45594000000E+02  0.51100000000E-03 0.  1.
         11   -1    0    0    0    0 -0.00000000000E+00 -0.00000000000E+00 -0.45593999997E+02  0.45594000000E+02  0.51100000000E-03 0. -1.
    9900012    2    1    2    0    0 -0.10198854887E+02  0.13610059074E+02 -0.36931234325E+02  0.50528850750E+02  0.29999972339E+02 0.  0.
        -12    1    1    2    0    0  0.10198854887E+02 -0.13610059074E+02  0.36931234325E+02  0.40659149250E+02  0.00000000000E+00 0.  1.
         11    1    3    3    0    0 -0.11566752889E+02  0.17360906682E+02 -0.25672049466E+02  0.33079373894E+02  0.51100000000E-03 0. -1.
        -11    1    3    3    0    0 -0.37557570533E+01 -0.41144424779E+00  0.85973311269E+00  0.38748082145E+01  0.51100000000E-03 0.  1.
         12    1    3    3    0    0  0.51236550546E+01 -0.33394033601E+01 -0.12118917971E+02  0.13574668641E+02  0.00000000000E+00 0. -1.
</event>
<event>
 7    1  0.9978258E-013  0.5052886E+02  0.7816164E-02  0.1300439E+00
        -11   -1    0    0    0    0  0.00000000000E+00  0.00000000000E+00  0.45593999997E+02  0.45594000000E+02  0.51100000000E-03 0. -1.
         11   -1    0    0    0    0 -0.00000000000E+00 -0.00000000000E+00 -0.45593999997E+02  0.45594000000E+02  0.51100000000E-03 0.  1.
    9900012    2    1    2    0    0  0.39526640046E+02  0.84249283244E+01 -0.44532211087E+01  0.50528857500E+02  0.29999992857E+02 0.  0.
        -12    1    1    2    0    0 -0.39526640046E+02 -0.84249283244E+01  0.44532211087E+01  0.40659142500E+02  0.00000000000E+00 0.  1.
         11    1    3    3    0    0  0.14332893419E+02  0.43367530380E+01  0.91403267013E+01  0.17543797569E+02  0.51100000000E-03 0. -1.
        -11    1    3    3    0    0  0.26613965527E+02  0.97588205650E+00 -0.11964490294E+02  0.29195967789E+02  0.51100000000E-03 0.  1.
        -12    1    3    3    0    0 -0.14202188999E+01  0.31122932298E+01 -0.16290575164E+01  0.37890921424E+01  0.00000000000E+00 0.  1.
</event>
<event>
 7    1  0.9978258E-013  0.5052883E+02  0.7816164E-02  0.1300439E+00
        -11   -1    0    0    0    0  0.00000000000E+00  0.00000000000E+00  0.45593999997E+02  0.45594000000E+02  0.51100000000E-03 0. -1.
         11   -1    0    0    0    0 -0.00000000000E+00 -0.00000000000E+00 -0.45593999997E+02  0.45594000000E+02  0.51100000000E-03 0.  1.
    9900012    2    1    2    0    0 -0.20143582849E+01  0.36856432846E+01  0.40441641731E+02  0.50528831396E+02  0.29999913510E+02 0.  0.
        -12    1    1    2    0    0  0.20143582849E+01 -0.36856432846E+01 -0.40441641731E+02  0.40659168604E+02  0.00000000000E+00 0.  1.
         11    1    3    3    0    0 -0.56265761651E+01 -0.79695607821E+01  0.35036065084E+02  0.36368916883E+02  0.51100000000E-03 0. -1.
        -11    1    3    3    0    0  0.37912701796E+01  0.66564930546E+01  0.49865506885E+01  0.91404768690E+01  0.51100000000E-03 0.  1.
         12    1    3    3    0    0 -0.17905229947E+00  0.49987110121E+01  0.41902595828E+00  0.50194376440E+01  0.00000000000E+00 0. -1.
</event>
<event>
 7    1  0.9978258E-013  0.5052886E+02  0.7816164E-02  0.1300439E+00
        -11   -1    0    0    0    0  0.00000000000E+00  0.00000000000E+00  0.45593999997E+02  0.45594000000E+02  0.51100000000E-03 0.  1.
         11   -1    0    0    0    0 -0.00000000000E+00 -0.00000000000E+00 -0.45593999997E+02  0.45594000000E+02  0.51100000000E-03 0. -1.
    9900012    2    1    2    0    0 -0.20526858736E+01  0.38627944348E+02 -0.12523336390E+02  0.50528861320E+02  0.30000004468E+02 0.  0.
        -12    1    1    2    0    0  0.20526858736E+01 -0.38627944348E+02  0.12523336390E+02  0.40659138680E+02  0.00000000000E+00 0.  1.
         11    1    3    3    0    0 -0.13370335087E+02  0.83092349783E+01 -0.68667175061E+01  0.17174430291E+02  0.51100000000E-03 0. -1.
        -11    1    3    3    0    0  0.93006033285E+01  0.20315331639E+02 -0.60313665651E+01  0.23142845650E+02  0.51100000000E-03 0.  1.
         12    1    3    3    0    0  0.20170458845E+01  0.10003377731E+02  0.37474768089E+00  0.10211585379E+02  0.00000000000E+00 0. -1.
</event>
<event>
 7    1  0.9978258E-013  0.5052886E+02  0.7816164E-02  0.1300439E+00
        -11   -1    0    0    0    0  0.00000000000E+00  0.00000000000E+00  0.45593999997E+02  0.45594000000E+02  0.51100000000E-03 0.  1.
         11   -1    0    0    0    0 -0.00000000000E+00 -0.00000000000E+00 -0.45593999997E+02  0.45594000000E+02  0.51100000000E-03 0. -1.
    9900012    2    1    2    0    0  0.34540419635E+02 -0.19090978010E+02 -0.97805765074E+01  0.50528859493E+02  0.29999998916E+02 0.  0.
        -12    1    1    2    0    0 -0.34540419635E+02  0.19090978010E+02  0.97805765074E+01  0.40659140507E+02  0.00000000000E+00 0.  1.
         11    1    3    3    0    0  0.34142961668E+02 -0.14906982380E+02 -0.15239153731E+02  0.40251605705E+02  0.51100000000E-03 0. -1.
        -11    1    3    3    0    0  0.48293126816E-01 -0.48283277170E+01  0.70385508083E+01  0.85355889376E+01  0.51100000000E-03 0.  1.
        -12    1    3    3    0    0  0.34916484020E+00  0.64433208693E+00 -0.15799735849E+01  0.17416648509E+01  0.00000000000E+00 0.  1.
</event>
<event>
 7    1  0.9978258E-013  0.5052887E+02  0.7816164E-02  0.1300439E+00
        -11   -1    0    0    0    0  0.00000000000E+00  0.00000000000E+00  0.45593999997E+02  0.45594000000E+02  0.51100000000E-03 0.  1.
         11   -1    0    0    0    0 -0.00000000000E+00 -0.00000000000E+00 -0.45593999997E+02  0.45594000000E+02  0.51100000000E-03 0. -1.
    9900012    2    1    2    0    0  0.26068411763E+02 -0.31256385583E+01 -0.31045663037E+02  0.50528869394E+02  0.30000029009E+02 0.  0.
        -12    1    1    2    0    0 -0.26068411763E+02  0.31256385583E+01  0.31045663037E+02  0.40659130606E+02  0.00000000000E+00 0.  1.
         11    1    3    3    0    0  0.30930957945E+01  0.26839231587E+01 -0.22723693987E+02  0.23089758634E+02  0.51100000000E-03 0. -1.
        -11    1    3    3    0    0  0.12494432533E+02 -0.80089656510E+01 -0.76808462436E+01  0.16710768217E+02  0.51100000000E-03 0.  1.
         12    1    3    3    0    0  0.10480883436E+02  0.21994039340E+01 -0.64112280678E+00  0.10728342543E+02  0.00000000000E+00 0. -1.
</event>
<event>
 7    1  0.9978258E-013  0.5052892E+02  0.7816164E-02  0.1300439E+00
        -11   -1    0    0    0    0  0.00000000000E+00  0.00000000000E+00  0.45593999997E+02  0.45594000000E+02  0.51100000000E-03 0.  1.
         11   -1    0    0    0    0 -0.00000000000E+00 -0.00000000000E+00 -0.45593999997E+02  0.45594000000E+02  0.51100000000E-03 0. -1.
    9900012    2    1    2    0    0 -0.35291632892E+02 -0.13698580010E+02 -0.14832748411E+02  0.50528918949E+02  0.30000179637E+02 0.  0.
        -12    1    1    2    0    0  0.35291632892E+02  0.13698580010E+02  0.14832748411E+02  0.40659081051E+02  0.00000000000E+00 0.  1.
         11    1    3    3    0    0 -0.18534014426E+02 -0.97493359062E+01 -0.59605485617E+01  0.21773547730E+02  0.51100000000E-03 0. -1.
        -11    1    3    3    0    0 -0.42994703363E+01  0.82533213258E+01 -0.60239428720E+01  0.11085605354E+02  0.51100000000E-03 0.  1.
        -12    1    3    3    0    0 -0.12458148130E+02 -0.12202565430E+02 -0.28482569772E+01  0.17669765865E+02  0.00000000000E+00 0.  1.
</event>
<event>
 7    1  0.9978258E-013  0.5052886E+02  0.7816164E-02  0.1300439E+00
        -11   -1    0    0    0    0  0.00000000000E+00  0.00000000000E+00  0.45593999997E+02  0.45594000000E+02  0.51100000000E-03 0.  1.
         11   -1    0    0    0    0 -0.00000000000E+00 -0.00000000000E+00 -0.45593999997E+02  0.45594000000E+02  0.51100000000E-03 0. -1.
    9900012    2    1    2    0    0 -0.17055034003E+02 -0.34734621896E+02 -0.12481884469E+02  0.50528861015E+02  0.30000003540E+02 0.  0.
        -12    1    1    2    0    0  0.17055034003E+02  0.34734621896E+02  0.12481884469E+02  0.40659138985E+02  0.00000000000E+00 0.  1.
         11    1    3    3    0    0 -0.10081568829E+02 -0.26358513905E+02 -0.13896800544E+02  0.31456801347E+02  0.51100000000E-03 0. -1.
        -11    1    3    3    0    0 -0.11852450312E+02 -0.55966255252E+01  0.25246713379E+01  0.13348286830E+02  0.51100000000E-03 0.  1.
        -12    1    3    3    0    0  0.48789851382E+01 -0.27794824659E+01 -0.11097552634E+01  0.57237728380E+01  0.00000000000E+00 0.  1.
</event>
<event>
 7    1  0.9978258E-013  0.5052881E+02  0.7816164E-02  0.1300439E+00
        -11   -1    0    0    0    0  0.00000000000E+00  0.00000000000E+00  0.45593999997E+02  0.45594000000E+02  0.51100000000E-03 0.  1.
         11   -1    0    0    0    0 -0.00000000000E+00 -0.00000000000E+00 -0.45593999997E+02  0.45594000000E+02  0.51100000000E-03 0. -1.
    9900012    2    1    2    0    0 -0.37790070196E+02  0.56355691735E+01 -0.13903967847E+02  0.50528814479E+02  0.29999862089E+02 0.  0.
        -12    1    1    2    0    0  0.37790070196E+02 -0.56355691735E+01  0.13903967847E+02  0.40659185521E+02  0.00000000000E+00 0.  1.
         11    1    3    3    0    0 -0.92006843046E+01  0.77224126754E-01  0.10748991357E+01  0.92635826575E+01  0.51100000000E-03 0. -1.
        -11    1    3    3    0    0 -0.24723161878E+02 -0.29840925872E+01 -0.18736184659E+02  0.31163827712E+02  0.51100000000E-03 0.  1.
        -12    1    3    3    0    0 -0.38662240133E+01  0.85424376340E+01  0.37573176765E+01  0.10101404109E+02  0.00000000000E+00 0.  1.
</event>
<event>
 7    1  0.9978258E-013  0.5052886E+02  0.7816164E-02  0.1300439E+00
        -11   -1    0    0    0    0  0.00000000000E+00  0.00000000000E+00  0.45593999997E+02  0.45594000000E+02  0.51100000000E-03 0.  1.
         11   -1    0    0    0    0 -0.00000000000E+00 -0.00000000000E+00 -0.45593999997E+02  0.45594000000E+02  0.51100000000E-03 0. -1.
    9900012    2    1    2    0    0 -0.77973338425E+01  0.26401001091E+02 -0.29922477245E+02  0.50528856893E+02  0.29999991013E+02 0.  0.
        -12    1    1    2    0    0  0.77973338425E+01 -0.26401001091E+02  0.29922477245E+02  0.40659143107E+02  0.00000000000E+00 0.  1.
         11    1    3    3    0    0  0.58403597282E+01  0.16642585898E+02 -0.15254036465E+02  0.23318899971E+02  0.51100000000E-03 0. -1.
        -11    1    3    3    0    0 -0.98365494758E+01  0.10235980346E+02 -0.17435609807E+02  0.22484071892E+02  0.51100000000E-03 0.  1.
         12    1    3    3    0    0 -0.38011440949E+01 -0.47756515287E+00  0.27671690263E+01  0.47258850309E+01  0.00000000000E+00 0. -1.
</event>
<event>
 7    1  0.9978258E-013  0.5052887E+02  0.7816164E-02  0.1300439E+00
        -11   -1    0    0    0    0  0.00000000000E+00  0.00000000000E+00  0.45593999997E+02  0.45594000000E+02  0.51100000000E-03 0.  1.
         11   -1    0    0    0    0 -0.00000000000E+00 -0.00000000000E+00 -0.45593999997E+02  0.45594000000E+02  0.51100000000E-03 0. -1.
    9900012    2    1    2    0    0  0.44859439483E+01 -0.32898471163E+02 -0.23467668541E+02  0.50528873537E+02  0.30000041604E+02 0.  0.
        -12    1    1    2    0    0 -0.44859439483E+01  0.32898471163E+02  0.23467668541E+02  0.40659126463E+02  0.00000000000E+00 0.  1.
         11    1    3    3    0    0  0.91206670815E+01 -0.41286262271E+01 -0.11486813836E+02  0.15237421531E+02  0.51100000000E-03 0.  1.
        -11    1    3    3    0    0 -0.10617444735E+01 -0.22786266707E+02 -0.17041914083E+01  0.22874560551E+02  0.51100000000E-03 0. -1.
         12    1    3    3    0    0 -0.35729786597E+01 -0.59835782285E+01 -0.10276663296E+02  0.12416891455E+02  0.00000000000E+00 0. -1.
</event>
<event>
 7    1  0.9978258E-013  0.5052888E+02  0.7816164E-02  0.1300439E+00
        -11   -1    0    0    0    0  0.00000000000E+00  0.00000000000E+00  0.45593999997E+02  0.45594000000E+02  0.51100000000E-03 0.  1.
         11   -1    0    0    0    0 -0.00000000000E+00 -0.00000000000E+00 -0.45593999997E+02  0.45594000000E+02  0.51100000000E-03 0. -1.
    9900012    2    1    2    0    0 -0.37834386816E+02  0.14884669486E+02 -0.41186453251E+00  0.50528882402E+02  0.30000068548E+02 0.  0.
        -12    1    1    2    0    0  0.37834386816E+02 -0.14884669486E+02  0.41186453251E+00  0.40659117598E+02  0.00000000000E+00 0.  1.
         11    1    3    3    0    0  0.10709642749E+01  0.35621398572E+01  0.45417349210E+01  0.58705332972E+01  0.51100000000E-03 0.  1.
        -11    1    3    3    0    0 -0.34749056092E+02  0.13828378090E+02  0.44079068121E+00  0.37402075298E+02  0.51100000000E-03 0. -1.
        -12    1    3    3    0    0 -0.41562949995E+01 -0.25058484614E+01 -0.53943901347E+01  0.72562738069E+01  0.00000000000E+00 0.  1.
</event>
<event>
 7    1  0.9978258E-013  0.5052883E+02  0.7816164E-02  0.1300439E+00
        -11   -1    0    0    0    0  0.00000000000E+00  0.00000000000E+00  0.45593999997E+02  0.45594000000E+02  0.51100000000E-03 0.  1.
         11   -1    0    0    0    0 -0.00000000000E+00 -0.00000000000E+00 -0.45593999997E+02  0.45594000000E+02  0.51100000000E-03 0. -1.
    9900012    2    1    2    0    0  0.40598563392E+02 -0.18312577423E+01 -0.12535116098E+01  0.50528829499E+02  0.29999907746E+02 0.  0.
        -12    1    1    2    0    0 -0.40598563392E+02  0.18312577423E+01  0.12535116098E+01  0.40659170501E+02  0.00000000000E+00 0.  1.
         11    1    3    3    0    0  0.31999708724E+02 -0.75476800583E+01  0.23380211741E+01  0.32960812732E+02  0.51100000000E-03 0. -1.
        -11    1    3    3    0    0  0.37375260972E+01  0.45956828584E+01  0.49211998395E+01  0.77011434465E+01  0.51100000000E-03 0.  1.
         12    1    3    3    0    0  0.48613285706E+01  0.11207394576E+01 -0.85127326234E+01  0.98668733204E+01  0.00000000000E+00 0. -1.
</event>
<event>
 7    1  0.9978258E-013  0.5052885E+02  0.7816164E-02  0.1300439E+00
        -11   -1    0    0    0    0  0.00000000000E+00  0.00000000000E+00  0.45593999997E+02  0.45594000000E+02  0.51100000000E-03 0. -1.
         11   -1    0    0    0    0 -0.00000000000E+00 -0.00000000000E+00 -0.45593999997E+02  0.45594000000E+02  0.51100000000E-03 0.  1.
    9900012    2    1    2    0    0  0.39617060987E+02  0.43081960591E+01  0.80681268781E+01  0.50528846715E+02  0.29999960076E+02 0.  0.
        -12    1    1    2    0    0 -0.39617060987E+02 -0.43081960591E+01 -0.80681268781E+01  0.40659153285E+02  0.00000000000E+00 0.  1.
         11    1    3    3    0    0  0.23512689503E+02  0.12799862523E+02  0.37924215262E+01  0.27038223122E+02  0.51100000000E-03 0. -1.
        -11    1    3    3    0    0  0.12324004436E+02 -0.10119552715E+02 -0.19103514649E+01  0.16060382171E+02  0.51100000000E-03 0.  1.
         12    1    3    3    0    0  0.37803670471E+01  0.16278862515E+01  0.61860568168E+01  0.74302414227E+01  0.00000000000E+00 0. -1.
</event>
<event>
 7    1  0.9978258E-013  0.5052886E+02  0.7816164E-02  0.1300439E+00
        -11   -1    0    0    0    0  0.00000000000E+00  0.00000000000E+00  0.45593999997E+02  0.45594000000E+02  0.51100000000E-03 0. -1.
         11   -1    0    0    0    0 -0.00000000000E+00 -0.00000000000E+00 -0.45593999997E+02  0.45594000000E+02  0.51100000000E-03 0.  1.
    9900012    2    1    2    0    0  0.38172563859E+02  0.20071659109E+01  0.13856133819E+02  0.50528858458E+02  0.29999995768E+02 0.  0.
        -12    1    1    2    0    0 -0.38172563859E+02 -0.20071659109E+01 -0.13856133819E+02  0.40659141542E+02  0.00000000000E+00 0.  1.
         11    1    3    3    0    0 -0.31093745574E+01  0.42243558088E+01  0.24580335945E+01  0.57926955341E+01  0.51100000000E-03 0. -1.
        -11    1    3    3    0    0  0.23366414162E+00 -0.21433144820E+01  0.10775074309E+01  0.24102735166E+01  0.51100000000E-03 0.  1.
         12    1    3    3    0    0  0.41048274274E+02 -0.73875415854E-01  0.10320592794E+02  0.42325889407E+02  0.00000000000E+00 0. -1.
</event>
<event>
 7    1  0.9978258E-013  0.5052887E+02  0.7816164E-02  0.1300439E+00
        -11   -1    0    0    0    0  0.00000000000E+00  0.00000000000E+00  0.45593999997E+02  0.45594000000E+02  0.51100000000E-03 0. -1.
         11   -1    0    0    0    0 -0.00000000000E+00 -0.00000000000E+00 -0.45593999997E+02  0.45594000000E+02  0.51100000000E-03 0.  1.
    9900012    2    1    2    0    0  0.20203840414E+02  0.33189539516E+02  0.11975976048E+02  0.50528871836E+02  0.30000036433E+02 0.  0.
        -12    1    1    2    0    0 -0.20203840414E+02 -0.33189539516E+02 -0.11975976048E+02  0.40659128164E+02  0.00000000000E+00 0.  1.
         11    1    3    3    0    0  0.14069069131E+02  0.26637072108E+02 -0.41915767229E+01  0.30414497076E+02  0.51100000000E-03 0. -1.
        -11    1    3    3    0    0 -0.10451358708E+01 -0.69664720589E+00  0.37173334848E+00  0.13098901715E+01  0.51100000000E-03 0.  1.
         12    1    3    3    0    0  0.71799071535E+01  0.72491146140E+01  0.15795819423E+02  0.18804484589E+02  0.00000000000E+00 0. -1.
</event>
<event>
 7    1  0.9978258E-013  0.5052883E+02  0.7816164E-02  0.1300439E+00
        -11   -1    0    0    0    0  0.00000000000E+00  0.00000000000E+00  0.45593999997E+02  0.45594000000E+02  0.51100000000E-03 0. -1.
         11   -1    0    0    0    0 -0.00000000000E+00 -0.00000000000E+00 -0.45593999997E+02  0.45594000000E+02  0.51100000000E-03 0.  1.
    9900012    2    1    2    0    0 -0.10004148538E+01  0.40553284894E+02  0.27564554324E+01  0.50528833849E+02  0.29999920967E+02 0.  0.
        -12    1    1    2    0    0  0.10004148538E+01 -0.40553284894E+02 -0.27564554324E+01  0.40659166151E+02  0.00000000000E+00 0.  1.
         11    1    3    3    0    0 -0.60479050797E+01  0.60720485533E+01  0.29567287705E+01  0.90658245499E+01  0.51100000000E-03 0. -1.
        -11    1    3    3    0    0  0.67337030776E+01  0.16519721481E+00 -0.20931548219E+01  0.70534633072E+01  0.51100000000E-03 0.  1.
        -12    1    3    3    0    0 -0.16862128517E+01  0.34316039126E+02  0.18928814838E+01  0.34409545992E+02  0.00000000000E+00 0.  1.
</event>
<event>
 7    1  0.9978258E-013  0.5052886E+02  0.7816164E-02  0.1300439E+00
        -11   -1    0    0    0    0  0.00000000000E+00  0.00000000000E+00  0.45593999997E+02  0.45594000000E+02  0.51100000000E-03 0.  1.
         11   -1    0    0    0    0 -0.00000000000E+00 -0.00000000000E+00 -0.45593999997E+02  0.45594000000E+02  0.51100000000E-03 0. -1.
    9900012    2    1    2    0    0  0.28331132236E+01  0.24972968081E+02 -0.31960757068E+02  0.50528860096E+02  0.30000000749E+02 0.  0.
        -12    1    1    2    0    0 -0.28331132236E+01 -0.24972968081E+02  0.31960757068E+02  0.40659139904E+02  0.00000000000E+00 0.  1.
         11    1    3    3    0    0  0.38700613463E+01  0.92541651849E+01 -0.56529917640E+01  0.11514046389E+02  0.51100000000E-03 0. -1.
        -11    1    3    3    0    0 -0.67566941477E+01 -0.29959966897E+01 -0.14184197229E+02  0.15994385367E+02  0.51100000000E-03 0.  1.
        -12    1    3    3    0    0  0.57197460250E+01  0.18714799586E+02 -0.12123568076E+02  0.23020428341E+02  0.00000000000E+00 0.  1.
</event>
<event>
 7    1  0.9978258E-013  0.5052883E+02  0.7816164E-02  0.1300439E+00
        -11   -1    0    0    0    0  0.00000000000E+00  0.00000000000E+00  0.45593999997E+02  0.45594000000E+02  0.51100000000E-03 0.  1.
         11   -1    0    0    0    0 -0.00000000000E+00 -0.00000000000E+00 -0.45593999997E+02  0.45594000000E+02  0.51100000000E-03 0. -1.
    9900012    2    1    2    0    0 -0.36861002459E+02 -0.11734362595E+02 -0.12519562326E+02  0.50528828727E+02  0.29999905398E+02 0.  0.
        -12    1    1    2    0    0  0.36861002459E+02  0.11734362595E+02  0.12519562326E+02  0.40659171273E+02  0.00000000000E+00 0.  1.
         11    1    3    3    0    0 -0.37648296300E+02 -0.17977732264E+02 -0.13466818318E+02  0.43840030423E+02  0.51100000000E-03 0. -1.
        -11    1    3    3    0    0  0.12279855145E+01  0.30652114022E+01 -0.12893757132E+00  0.33045566302E+01  0.51100000000E-03 0.  1.
         12    1    3    3    0    0 -0.44069167346E+00  0.31781582667E+01  0.10761935630E+01  0.33842416735E+01  0.00000000000E+00 0. -1.
</event>
<event>
 7    1  0.9978258E-013  0.5052889E+02  0.7816164E-02  0.1300439E+00
        -11   -1    0    0    0    0  0.00000000000E+00  0.00000000000E+00  0.45593999997E+02  0.45594000000E+02  0.51100000000E-03 0.  1.
         11   -1    0    0    0    0 -0.00000000000E+00 -0.00000000000E+00 -0.45593999997E+02  0.45594000000E+02  0.51100000000E-03 0. -1.
    9900012    2    1    2    0    0 -0.96500843122E+01 -0.82817486351E+01 -0.38619322725E+02  0.50528885703E+02  0.30000078582E+02 0.  0.
        -12    1    1    2    0    0  0.96500843122E+01  0.82817486351E+01  0.38619322725E+02  0.40659114297E+02  0.00000000000E+00 0.  1.
         11    1    3    3    0    0 -0.10588069993E+02 -0.91420396714E+01 -0.17564568143E+02  0.22454357480E+02  0.51100000000E-03 0. -1.
        -11    1    3    3    0    0  0.19861656047E+01  0.95304383591E+01 -0.12561952452E+02  0.15892663678E+02  0.51100000000E-03 0.  1.
        -12    1    3    3    0    0 -0.10481799236E+01 -0.86701473228E+01 -0.84928021305E+01  0.12181864544E+02  0.00000000000E+00 0.  1.
</event>
<event>
 7    1  0.9978258E-013  0.5052886E+02  0.7816164E-02  0.1300439E+00
        -11   -1    0    0    0    0  0.00000000000E+00  0.00000000000E+00  0.45593999997E+02  0.45594000000E+02  0.51100000000E-03 0.  1.
         11   -1    0    0    0    0 -0.00000000000E+00 -0.00000000000E+00 -0.45593999997E+02  0.45594000000E+02  0.51100000000E-03 0. -1.
    9900012    2    1    2    0    0  0.41217221157E+01 -0.39005921698E+02 -0.10710515782E+02  0.50528859957E+02  0.30000000325E+02 0.  0.
        -12    1    1    2    0    0 -0.41217221157E+01  0.39005921698E+02  0.10710515782E+02  0.40659140043E+02  0.00000000000E+00 0.  1.
         11    1    3    3    0    0  0.21596707475E+00 -0.12638203485E+01 -0.69434085801E+00  0.14580785778E+01  0.51100000000E-03 0. -1.
        -11    1    3    3    0    0 -0.68250433210E+01  0.17183514148E+01 -0.26428402591E+01  0.75178822027E+01  0.51100000000E-03 0.  1.
        -12    1    3    3    0    0  0.10730798362E+02 -0.39460452765E+02 -0.73733346644E+01  0.41552899176E+02  0.00000000000E+00 0.  1.
</event>
<event>
 7    1  0.9978258E-013  0.5052888E+02  0.7816164E-02  0.1300439E+00
        -11   -1    0    0    0    0  0.00000000000E+00  0.00000000000E+00  0.45593999997E+02  0.45594000000E+02  0.51100000000E-03 0.  1.
         11   -1    0    0    0    0 -0.00000000000E+00 -0.00000000000E+00 -0.45593999997E+02  0.45594000000E+02  0.51100000000E-03 0. -1.
    9900012    2    1    2    0    0  0.29448656169E+02 -0.27447942446E+02 -0.57053433707E+01  0.50528882478E+02  0.30000068781E+02 0.  0.
        -12    1    1    2    0    0 -0.29448656169E+02  0.27447942446E+02  0.57053433707E+01  0.40659117522E+02  0.00000000000E+00 0.  1.
         11    1    3    3    0    0  0.20776716951E+02 -0.13100687934E+02 -0.14939612445E+02  0.28748774093E+02  0.51100000000E-03 0. -1.
        -11    1    3    3    0    0  0.77383426874E+01 -0.72806188266E+01  0.10025590577E+02  0.14608279321E+02  0.51100000000E-03 0.  1.
        -12    1    3    3    0    0  0.93359653024E+00 -0.70666356859E+01 -0.79132150290E+00  0.71718290638E+01  0.00000000000E+00 0.  1.
</event>
<event>
 7    1  0.9978258E-013  0.5052888E+02  0.7816164E-02  0.1300439E+00
        -11   -1    0    0    0    0  0.00000000000E+00  0.00000000000E+00  0.45593999997E+02  0.45594000000E+02  0.51100000000E-03 0.  1.
         11   -1    0    0    0    0 -0.00000000000E+00 -0.00000000000E+00 -0.45593999997E+02  0.45594000000E+02  0.51100000000E-03 0. -1.
    9900012    2    1    2    0    0 -0.27679244831E+02 -0.29527474783E+02 -0.38925537144E+01  0.50528876351E+02  0.30000050156E+02 0.  0.
        -12    1    1    2    0    0  0.27679244831E+02  0.29527474783E+02  0.38925537144E+01  0.40659123649E+02  0.00000000000E+00 0.  1.
         11    1    3    3    0    0 -0.30669943438E+00 -0.16034980257E+02  0.18667466524E+01  0.16146188396E+02  0.51100000000E-03 0. -1.
        -11    1    3    3    0    0 -0.27659962452E+02 -0.15592055424E+02 -0.57208523926E+01  0.32263196796E+02  0.51100000000E-03 0.  1.
        -12    1    3    3    0    0  0.28741705489E+00  0.20995608974E+01 -0.38447974206E-01  0.21194911588E+01  0.00000000000E+00 0.  1.
</event>
<event>
 7    1  0.9978258E-013  0.5052886E+02  0.7816164E-02  0.1300439E+00
        -11   -1    0    0    0    0  0.00000000000E+00  0.00000000000E+00  0.45593999997E+02  0.45594000000E+02  0.51100000000E-03 0.  1.
         11   -1    0    0    0    0 -0.00000000000E+00 -0.00000000000E+00 -0.45593999997E+02  0.45594000000E+02  0.51100000000E-03 0. -1.
    9900012    2    1    2    0    0  0.35241348557E+02 -0.20118517403E+02  0.25412800642E+01  0.50528862098E+02  0.30000006832E+02 0.  0.
        -12    1    1    2    0    0 -0.35241348557E+02  0.20118517403E+02 -0.25412800642E+01  0.40659137902E+02  0.00000000000E+00 0.  1.
         11    1    3    3    0    0 -0.16864811383E+01  0.34551359689E+01 -0.65104885301E+00  0.38994933086E+01  0.51100000000E-03 0. -1.
        -11    1    3    3    0    0  0.15764598567E+02 -0.10881500800E+02 -0.63363904435E+01  0.20176210540E+02  0.51100000000E-03 0.  1.
         12    1    3    3    0    0  0.21163231128E+02 -0.12692152572E+02  0.95287193606E+01  0.26453158249E+02  0.00000000000E+00 0. -1.
</event>
<event>
 7    1  0.9978258E-013  0.5052886E+02  0.7816164E-02  0.1300439E+00
        -11   -1    0    0    0    0  0.00000000000E+00  0.00000000000E+00  0.45593999997E+02  0.45594000000E+02  0.51100000000E-03 0.  1.
         11   -1    0    0    0    0 -0.00000000000E+00 -0.00000000000E+00 -0.45593999997E+02  0.45594000000E+02  0.51100000000E-03 0. -1.
    9900012    2    1    2    0    0  0.38408635304E+02  0.43816634089E+01  0.12599336973E+02  0.50528861639E+02  0.30000005437E+02 0.  0.
        -12    1    1    2    0    0 -0.38408635304E+02 -0.43816634089E+01 -0.12599336973E+02  0.40659138361E+02  0.00000000000E+00 0.  1.
         11    1    3    3    0    0  0.30082314446E+02 -0.38396252536E+01  0.14384535102E+02  0.33564910470E+02  0.51100000000E-03 0. -1.
        -11    1    3    3    0    0  0.42045434544E+00  0.60739338176E+00 -0.53674918931E+01  0.54180880447E+01  0.51100000000E-03 0.  1.
        -12    1    3    3    0    0  0.79058665128E+01  0.76138952807E+01  0.35822937639E+01  0.11545863124E+02  0.00000000000E+00 0.  1.
</event>
<event>
 7    1  0.9978258E-013  0.5052887E+02  0.7816164E-02  0.1300439E+00
        -11   -1    0    0    0    0  0.00000000000E+00  0.00000000000E+00  0.45593999997E+02  0.45594000000E+02  0.51100000000E-03 0. -1.
         11   -1    0    0    0    0 -0.00000000000E+00 -0.00000000000E+00 -0.45593999997E+02  0.45594000000E+02  0.51100000000E-03 0.  1.
    9900012    2    1    2    0    0 -0.61741622686E+01 -0.46738460810E+01  0.39914909440E+02  0.50528866801E+02  0.30000021128E+02 0.  0.
        -12    1    1    2    0    0  0.61741622686E+01  0.46738460810E+01 -0.39914909440E+02  0.40659133199E+02  0.00000000000E+00 0.  1.
         11    1    3    3    0    0 -0.12893886991E+02 -0.12642100099E+02  0.33214116958E+02  0.37805457043E+02  0.51100000000E-03 0. -1.
        -11    1    3    3    0    0  0.25576779420E+01  0.37647170649E+01  0.45320480531E+01  0.64229487660E+01  0.51100000000E-03 0.  1.
         12    1    3    3    0    0  0.41620467803E+01  0.42035369528E+01  0.21687444286E+01  0.63004609920E+01  0.00000000000E+00 0. -1.
</event>
<event>
 7    1  0.9978258E-013  0.5052873E+02  0.7816164E-02  0.1300439E+00
        -11   -1    0    0    0    0  0.00000000000E+00  0.00000000000E+00  0.45593999997E+02  0.45594000000E+02  0.51100000000E-03 0.  1.
         11   -1    0    0    0    0 -0.00000000000E+00 -0.00000000000E+00 -0.45593999997E+02  0.45594000000E+02  0.51100000000E-03 0. -1.
    9900012    2    1    2    0    0  0.25602696297E+02 -0.31353909844E+02 -0.38224119693E+01  0.50528726107E+02  0.29999593473E+02 0.  0.
        -12    1    1    2    0    0 -0.25602696297E+02  0.31353909844E+02  0.38224119693E+01  0.40659273893E+02  0.00000000000E+00 0.  1.
         11    1    3    3    0    0  0.17874846090E+02 -0.19052653979E+02 -0.14993859453E+02  0.30121911757E+02  0.51100000000E-03 0. -1.
        -11    1    3    3    0    0  0.18453841372E+01  0.23450225314E+00  0.48312666307E+01  0.51770234149E+01  0.51100000000E-03 0.  1.
        -12    1    3    3    0    0  0.58824660700E+01 -0.12535758119E+02  0.63401808530E+01  0.15229790935E+02  0.00000000000E+00 0.  1.
</event>
<event>
 7    1  0.9978258E-013  0.5052886E+02  0.7816164E-02  0.1300439E+00
        -11   -1    0    0    0    0  0.00000000000E+00  0.00000000000E+00  0.45593999997E+02  0.45594000000E+02  0.51100000000E-03 0.  1.
         11   -1    0    0    0    0 -0.00000000000E+00 -0.00000000000E+00 -0.45593999997E+02  0.45594000000E+02  0.51100000000E-03 0. -1.
    9900012    2    1    2    0    0  0.10460416856E+02  0.36663670834E+02 -0.14125186484E+02  0.50528856219E+02  0.29999988962E+02 0.  0.
        -12    1    1    2    0    0 -0.10460416856E+02 -0.36663670834E+02  0.14125186484E+02  0.40659143781E+02  0.00000000000E+00 0.  1.
         11    1    3    3    0    0  0.13824786530E+02  0.27452369416E+02 -0.21587697216E+02  0.37560431048E+02  0.51100000000E-03 0. -1.
        -11    1    3    3    0    0 -0.22798649895E+00  0.57795586487E+01  0.52839170243E+01  0.78342233437E+01  0.51100000000E-03 0.  1.
         12    1    3    3    0    0 -0.31363831751E+01  0.34317427694E+01  0.21785937080E+01  0.51342018270E+01  0.00000000000E+00 0. -1.
</event>
<event>
 7    1  0.9978258E-013  0.5052886E+02  0.7816164E-02  0.1300439E+00
        -11   -1    0    0    0    0  0.00000000000E+00  0.00000000000E+00  0.45593999997E+02  0.45594000000E+02  0.51100000000E-03 0.  1.
         11   -1    0    0    0    0 -0.00000000000E+00 -0.00000000000E+00 -0.45593999997E+02  0.45594000000E+02  0.51100000000E-03 0. -1.
    9900012    2    1    2    0    0 -0.47744022961E+01  0.16689029805E+02 -0.36767472616E+02  0.50528859875E+02  0.30000000076E+02 0.  0.
        -12    1    1    2    0    0  0.47744022961E+01 -0.16689029805E+02  0.36767472616E+02  0.40659140125E+02  0.00000000000E+00 0.  1.
         11    1    3    3    0    0  0.89509206319E+01  0.79955768838E+01 -0.15920700328E+02  0.19937826588E+02  0.51100000000E-03 0. -1.
        -11    1    3    3    0    0 -0.96603767729E+00 -0.24694198418E+01  0.10899092178E+01  0.28669087033E+01  0.51100000000E-03 0.  1.
         12    1    3    3    0    0 -0.12759285251E+02  0.11162872763E+02 -0.21936681506E+02  0.27724124583E+02  0.00000000000E+00 0. -1.
</event>
<event>
 7    1  0.9978258E-013  0.5052886E+02  0.7816164E-02  0.1300439E+00
        -11   -1    0    0    0    0  0.00000000000E+00  0.00000000000E+00  0.45593999997E+02  0.45594000000E+02  0.51100000000E-03 0.  1.
         11   -1    0    0    0    0 -0.00000000000E+00 -0.00000000000E+00 -0.45593999997E+02  0.45594000000E+02  0.51100000000E-03 0. -1.
    9900012    2    1    2    0    0 -0.29578181846E+02  0.25785578086E+02 -0.10648996033E+02  0.50528855948E+02  0.29999988139E+02 0.  0.
        -12    1    1    2    0    0  0.29578181846E+02 -0.25785578086E+02  0.10648996033E+02  0.40659144052E+02  0.00000000000E+00 0.  1.
         11    1    3    3    0    0  0.25429338838E+01  0.96176778846E+01 -0.34729827903E+01  0.10536975389E+02  0.51100000000E-03 0. -1.
        -11    1    3    3    0    0 -0.23832053646E+02  0.15197239389E+02 -0.11591939651E+02  0.30549892490E+02  0.51100000000E-03 0.  1.
        -12    1    3    3    0    0 -0.82890620837E+01  0.97066081276E+00  0.44159264089E+01  0.94419880687E+01  0.00000000000E+00 0.  1.
</event>
<event>
 7    1  0.9978258E-013  0.5052887E+02  0.7816164E-02  0.1300439E+00
        -11   -1    0    0    0    0  0.00000000000E+00  0.00000000000E+00  0.45593999997E+02  0.45594000000E+02  0.51100000000E-03 0.  1.
         11   -1    0    0    0    0 -0.00000000000E+00 -0.00000000000E+00 -0.45593999997E+02  0.45594000000E+02  0.51100000000E-03 0. -1.
    9900012    2    1    2    0    0 -0.10216487460E+02 -0.21067973361E+02 -0.33240473072E+02  0.50528866123E+02  0.30000019069E+02 0.  0.
        -12    1    1    2    0    0  0.10216487460E+02  0.21067973361E+02  0.33240473072E+02  0.40659133877E+02  0.00000000000E+00 0.  1.
         11    1    3    3    0    0 -0.33984683437E+01 -0.15665428704E+02 -0.25267333111E+02  0.29923124274E+02  0.51100000000E-03 0. -1.
        -11    1    3    3    0    0 -0.46852764107E+01 -0.81911424857E+01  0.23308915798E+01  0.97200661563E+01  0.51100000000E-03 0.  1.
        -12    1    3    3    0    0 -0.21327427053E+01  0.27885978280E+01 -0.10304031541E+02  0.10885675693E+02  0.00000000000E+00 0.  1.
</event>
<event>
 7    1  0.9978258E-013  0.5052886E+02  0.7816164E-02  0.1300439E+00
        -11   -1    0    0    0    0  0.00000000000E+00  0.00000000000E+00  0.45593999997E+02  0.45594000000E+02  0.51100000000E-03 0.  1.
         11   -1    0    0    0    0 -0.00000000000E+00 -0.00000000000E+00 -0.45593999997E+02  0.45594000000E+02  0.51100000000E-03 0. -1.
    9900012    2    1    2    0    0 -0.22152586112E+02 -0.33926704245E+02 -0.33774647646E+01  0.50528860798E+02  0.30000002882E+02 0.  0.
        -12    1    1    2    0    0  0.22152586112E+02  0.33926704245E+02  0.33774647646E+01  0.40659139202E+02  0.00000000000E+00 0.  1.
         11    1    3    3    0    0 -0.16314718892E+02 -0.11088546176E+02  0.22754348620E+01  0.19857077149E+02  0.51100000000E-03 0. -1.
        -11    1    3    3    0    0  0.55413834314E+01 -0.15851461714E+02 -0.30086945730E+01  0.17059543139E+02  0.51100000000E-03 0.  1.
        -12    1    3    3    0    0 -0.11379250651E+02 -0.69866963547E+01 -0.26442050536E+01  0.13612240510E+02  0.00000000000E+00 0.  1.
</event>
<event>
 7    1  0.9978258E-013  0.5052886E+02  0.7816164E-02  0.1300439E+00
        -11   -1    0    0    0    0  0.00000000000E+00  0.00000000000E+00  0.45593999997E+02  0.45594000000E+02  0.51100000000E-03 0. -1.
         11   -1    0    0    0    0 -0.00000000000E+00 -0.00000000000E+00 -0.45593999997E+02  0.45594000000E+02  0.51100000000E-03 0.  1.
    9900012    2    1    2    0    0 -0.82227054347E+01 -0.38266653786E+01  0.39634703069E+02  0.50528856626E+02  0.29999990199E+02 0.  0.
        -12    1    1    2    0    0  0.82227054347E+01  0.38266653786E+01 -0.39634703069E+02  0.40659143374E+02  0.00000000000E+00 0.  1.
         11    1    3    3    0    0 -0.27949039878E+01 -0.10804272658E+02  0.57391492344E+01  0.12549168505E+02  0.51100000000E-03 0. -1.
        -11    1    3    3    0    0 -0.95356244289E+01  0.43659719066E+01  0.13972321586E+02  0.17470421137E+02  0.51100000000E-03 0.  1.
         12    1    3    3    0    0  0.41078229820E+01  0.26116353731E+01  0.19923232249E+02  0.20509266984E+02  0.00000000000E+00 0. -1.
</event>
<event>
 7    1  0.9978258E-013  0.5052886E+02  0.7816164E-02  0.1300439E+00
        -11   -1    0    0    0    0  0.00000000000E+00  0.00000000000E+00  0.45593999997E+02  0.45594000000E+02  0.51100000000E-03 0.  1.
         11   -1    0    0    0    0 -0.00000000000E+00 -0.00000000000E+00 -0.45593999997E+02  0.45594000000E+02  0.51100000000E-03 0. -1.
    9900012    2    1    2    0    0 -0.34109674654E+02 -0.98383310640E+00 -0.22107190994E+02  0.50528859254E+02  0.29999998188E+02 0.  0.
        -12    1    1    2    0    0  0.34109674654E+02  0.98383310640E+00  0.22107190994E+02  0.40659140746E+02  0.00000000000E+00 0.  1.
         11    1    3    3    0    0 -0.32170228420E+02  0.62472539874E+01 -0.19621970753E+02  0.38196511823E+02  0.51100000000E-03 0. -1.
        -11    1    3    3    0    0  0.97118053963E+00  0.20763100985E+01 -0.84761784397E+00  0.24439131605E+01  0.51100000000E-03 0.  1.
         12    1    3    3    0    0 -0.29106267736E+01 -0.93073971923E+01 -0.16376023974E+01  0.98884342705E+01  0.00000000000E+00 0. -1.
</event>
<event>
 7    1  0.9978258E-013  0.5052886E+02  0.7816164E-02  0.1300439E+00
        -11   -1    0    0    0    0  0.00000000000E+00  0.00000000000E+00  0.45593999997E+02  0.45594000000E+02  0.51100000000E-03 0. -1.
         11   -1    0    0    0    0 -0.00000000000E+00 -0.00000000000E+00 -0.45593999997E+02  0.45594000000E+02  0.51100000000E-03 0.  1.
    9900012    2    1    2    0    0  0.16029019782E+02  0.37304617372E+02  0.21452398608E+01  0.50528855807E+02  0.29999987710E+02 0.  0.
        -12    1    1    2    0    0 -0.16029019782E+02 -0.37304617372E+02 -0.21452398608E+01  0.40659144193E+02  0.00000000000E+00 0.  1.
         11    1    3    3    0    0  0.63798080178E+01  0.22278375702E+02  0.91070227698E+01  0.24899113202E+02  0.51100000000E-03 0. -1.
        -11    1    3    3    0    0  0.70895889711E+01  0.56182657971E+01 -0.11700276731E+02  0.14789308915E+02  0.51100000000E-03 0.  1.
        -12    1    3    3    0    0  0.25596227927E+01  0.94079758735E+01  0.47384938220E+01  0.10840433690E+02  0.00000000000E+00 0.  1.
</event>
<event>
 7    1  0.9978258E-013  0.5052886E+02  0.7816164E-02  0.1300439E+00
        -11   -1    0    0    0    0  0.00000000000E+00  0.00000000000E+00  0.45593999997E+02  0.45594000000E+02  0.51100000000E-03 0. -1.
         11   -1    0    0    0    0 -0.00000000000E+00 -0.00000000000E+00 -0.45593999997E+02  0.45594000000E+02  0.51100000000E-03 0.  1.
    9900012    2    1    2    0    0 -0.15002163050E+02 -0.44287761639E+01  0.37529811250E+02  0.50528859737E+02  0.29999999656E+02 0.  0.
        -12    1    1    2    0    0  0.15002163050E+02  0.44287761639E+01 -0.37529811250E+02  0.40659140263E+02  0.00000000000E+00 0.  1.
         11    1    3    3    0    0 -0.57970996857E+01  0.11970763387E+01  0.18403413611E+01  0.61988880546E+01  0.51100000000E-03 0. -1.
        -11    1    3    3    0    0 -0.50214516410E+00 -0.11825507133E+02  0.29942893669E+02  0.32197385768E+02  0.51100000000E-03 0.  1.
        -12    1    3    3    0    0 -0.87029182003E+01  0.61996546301E+01  0.57465762191E+01  0.12132585915E+02  0.00000000000E+00 0.  1.
</event>
<event>
 7    1  0.9978258E-013  0.5052886E+02  0.7816164E-02  0.1300439E+00
        -11   -1    0    0    0    0  0.00000000000E+00  0.00000000000E+00  0.45593999997E+02  0.45594000000E+02  0.51100000000E-03 0.  1.
         11   -1    0    0    0    0 -0.00000000000E+00 -0.00000000000E+00 -0.45593999997E+02  0.45594000000E+02  0.51100000000E-03 0. -1.
    9900012    2    1    2    0    0 -0.32397776896E+02 -0.22033164691E+02 -0.10866903862E+02  0.50528857195E+02  0.29999991930E+02 0.  0.
        -12    1    1    2    0    0  0.32397776896E+02  0.22033164691E+02  0.10866903862E+02  0.40659142805E+02  0.00000000000E+00 0.  1.
         11    1    3    3    0    0 -0.31545695081E+01  0.32386184707E+00 -0.53195349396E+01  0.61930321743E+01  0.51100000000E-03 0. -1.
        -11    1    3    3    0    0 -0.16374489784E+02 -0.20676520927E+02  0.59042421098E+01  0.27027809909E+02  0.51100000000E-03 0.  1.
        -12    1    3    3    0    0 -0.12868717604E+02 -0.16805056112E+01 -0.11451611033E+02  0.17308015112E+02  0.00000000000E+00 0.  1.
</event>
<event>
 7    1  0.9978258E-013  0.5052885E+02  0.7816164E-02  0.1300439E+00
        -11   -1    0    0    0    0  0.00000000000E+00  0.00000000000E+00  0.45593999997E+02  0.45594000000E+02  0.51100000000E-03 0.  1.
         11   -1    0    0    0    0 -0.00000000000E+00 -0.00000000000E+00 -0.45593999997E+02  0.45594000000E+02  0.51100000000E-03 0. -1.
    9900012    2    1    2    0    0  0.37313820387E+01  0.25466265242E+02 -0.31475582616E+02  0.50528853694E+02  0.29999981288E+02 0.  0.
        -12    1    1    2    0    0 -0.37313820387E+01 -0.25466265242E+02  0.31475582616E+02  0.40659146306E+02  0.00000000000E+00 0.  1.
         11    1    3    3    0    0  0.14967896690E+02  0.16706757201E+02 -0.21839646784E+02  0.31306929574E+02  0.51100000000E-03 0. -1.
        -11    1    3    3    0    0 -0.61498157195E+01  0.29168743101E+01  0.65820474013E-01  0.68068143592E+01  0.51100000000E-03 0.  1.
         12    1    3    3    0    0 -0.50866989313E+01  0.58426337314E+01 -0.97017563062E+01  0.12415109760E+02  0.00000000000E+00 0. -1.
</event>
<event>
 7    1  0.9978258E-013  0.5052885E+02  0.7816164E-02  0.1300439E+00
        -11   -1    0    0    0    0  0.00000000000E+00  0.00000000000E+00  0.45593999997E+02  0.45594000000E+02  0.51100000000E-03 0. -1.
         11   -1    0    0    0    0 -0.00000000000E+00 -0.00000000000E+00 -0.45593999997E+02  0.45594000000E+02  0.51100000000E-03 0.  1.
    9900012    2    1    2    0    0 -0.36109830312E+02 -0.82338301506E+01  0.16776493529E+02  0.50528849256E+02  0.29999967799E+02 0.  0.
        -12    1    1    2    0    0  0.36109830312E+02  0.82338301506E+01 -0.16776493529E+02  0.40659150744E+02  0.00000000000E+00 0.  1.
         11    1    3    3    0    0 -0.97720121219E+01 -0.14004203275E+01  0.18470191554E+01  0.10043150802E+02  0.51100000000E-03 0. -1.
        -11    1    3    3    0    0  0.24437421204E+01  0.51917443524E+01 -0.35596982717E+00  0.57491564382E+01  0.51100000000E-03 0.  1.
        -12    1    3    3    0    0 -0.28781560310E+02 -0.12025154175E+02  0.15285444201E+02  0.34736542016E+02  0.00000000000E+00 0.  1.
</event>
<event>
 7    1  0.9978258E-013  0.5052886E+02  0.7816164E-02  0.1300439E+00
        -11   -1    0    0    0    0  0.00000000000E+00  0.00000000000E+00  0.45593999997E+02  0.45594000000E+02  0.51100000000E-03 0. -1.
         11   -1    0    0    0    0 -0.00000000000E+00 -0.00000000000E+00 -0.45593999997E+02  0.45594000000E+02  0.51100000000E-03 0.  1.
    9900012    2    1    2    0    0 -0.13139067188E+02  0.68034578377E+01  0.37871407426E+02  0.50528860492E+02  0.30000001951E+02 0.  0.
        -12    1    1    2    0    0  0.13139067188E+02 -0.68034578377E+01 -0.37871407426E+02  0.40659139508E+02  0.00000000000E+00 0.  1.
         11    1    3    3    0    0  0.56196992400E+01  0.27523790415E+01  0.18819940732E+02  0.19832972025E+02  0.51100000000E-03 0. -1.
        -11    1    3    3    0    0 -0.13692760834E+02 -0.33737835464E+01  0.72368373572E+01  0.15850739095E+02  0.51100000000E-03 0.  1.
        -12    1    3    3    0    0 -0.50660055944E+01  0.74248623426E+01  0.11814629337E+02  0.14845149372E+02  0.00000000000E+00 0.  1.
</event>
<event>
 7    1  0.9978258E-013  0.5052885E+02  0.7816164E-02  0.1300439E+00
        -11   -1    0    0    0    0  0.00000000000E+00  0.00000000000E+00  0.45593999997E+02  0.45594000000E+02  0.51100000000E-03 0.  1.
         11   -1    0    0    0    0 -0.00000000000E+00 -0.00000000000E+00 -0.45593999997E+02  0.45594000000E+02  0.51100000000E-03 0. -1.
    9900012    2    1    2    0    0 -0.15779054957E+02 -0.30717707776E+02 -0.21461831022E+02  0.50528851741E+02  0.29999975353E+02 0.  0.
        -12    1    1    2    0    0  0.15779054957E+02  0.30717707776E+02  0.21461831022E+02  0.40659148259E+02  0.00000000000E+00 0.  1.
         11    1    3    3    0    0 -0.21867196429E+02 -0.14326581696E+02 -0.16828894605E+02  0.31090785076E+02  0.51100000000E-03 0. -1.
        -11    1    3    3    0    0  0.42924989859E+01 -0.16437215575E+02 -0.47440086746E+01  0.17638401911E+02  0.51100000000E-03 0.  1.
         12    1    3    3    0    0  0.17956424863E+01  0.46089495830E-01  0.11107225819E+00  0.17996647540E+01  0.00000000000E+00 0. -1.
</event>
<event>
 7    1  0.9978258E-013  0.5052886E+02  0.7816164E-02  0.1300439E+00
        -11   -1    0    0    0    0  0.00000000000E+00  0.00000000000E+00  0.45593999997E+02  0.45594000000E+02  0.51100000000E-03 0. -1.
         11   -1    0    0    0    0 -0.00000000000E+00 -0.00000000000E+00 -0.45593999997E+02  0.45594000000E+02  0.51100000000E-03 0.  1.
    9900012    2    1    2    0    0 -0.18949037936E+02 -0.37430989256E+01  0.35778324798E+02  0.50528863836E+02  0.30000012115E+02 0.  0.
        -12    1    1    2    0    0  0.18949037936E+02  0.37430989256E+01 -0.35778324798E+02  0.40659136164E+02  0.00000000000E+00 0.  1.
         11    1    3    3    0    0 -0.14329391857E+02 -0.37951890895E+01  0.36714370946E+02  0.39593938494E+02  0.51100000000E-03 0. -1.
        -11    1    3    3    0    0 -0.64536531821E+01  0.31421602673E+01  0.15494772893E+00  0.71796113822E+01  0.51100000000E-03 0.  1.
         12    1    3    3    0    0  0.18340071034E+01 -0.30900701033E+01 -0.10909938767E+01  0.37553139600E+01  0.00000000000E+00 0. -1.
</event>
<event>
 7    1  0.9978258E-013  0.5052886E+02  0.7816164E-02  0.1300439E+00
        -11   -1    0    0    0    0  0.00000000000E+00  0.00000000000E+00  0.45593999997E+02  0.45594000000E+02  0.51100000000E-03 0.  1.
         11   -1    0    0    0    0 -0.00000000000E+00 -0.00000000000E+00 -0.45593999997E+02  0.45594000000E+02  0.51100000000E-03 0. -1.
    9900012    2    1    2    0    0 -0.18693187884E+02  0.23221206514E+01 -0.36032462450E+02  0.50528857513E+02  0.29999992896E+02 0.  0.
        -12    1    1    2    0    0  0.18693187884E+02 -0.23221206514E+01  0.36032462450E+02  0.40659142487E+02  0.00000000000E+00 0.  1.
         11    1    3    3    0    0  0.42523826969E+01  0.27747026115E+00 -0.20189388691E+02  0.20634223133E+02  0.51100000000E-03 0. -1.
        -11    1    3    3    0    0 -0.73431221811E+01  0.35882062811E+01 -0.87722465844E+00  0.82198656343E+01  0.51100000000E-03 0.  1.
         12    1    3    3    0    0 -0.15602448400E+02 -0.15435558909E+01 -0.14965849100E+02  0.21674768745E+02  0.00000000000E+00 0. -1.
</event>
<event>
 7    1  0.9978258E-013  0.5052887E+02  0.7816164E-02  0.1300439E+00
        -11   -1    0    0    0    0  0.00000000000E+00  0.00000000000E+00  0.45593999997E+02  0.45594000000E+02  0.51100000000E-03 0. -1.
         11   -1    0    0    0    0 -0.00000000000E+00 -0.00000000000E+00 -0.45593999997E+02  0.45594000000E+02  0.51100000000E-03 0.  1.
    9900012    2    1    2    0    0  0.30602572530E+02 -0.24438179941E+02  0.10928074676E+02  0.50528869409E+02  0.30000029055E+02 0.  0.
        -12    1    1    2    0    0 -0.30602572530E+02  0.24438179941E+02 -0.10928074676E+02  0.40659130591E+02  0.00000000000E+00 0.  1.
         11    1    3    3    0    0  0.15038562919E+02 -0.25165412220E+02  0.96231288590E+01  0.30855485025E+02  0.51100000000E-03 0. -1.
        -11    1    3    3    0    0  0.17492010932E+02  0.13694166232E+01  0.16067761914E+01  0.17618952248E+02  0.51100000000E-03 0.  1.
        -12    1    3    3    0    0 -0.19280013206E+01 -0.64218434444E+00 -0.30183037389E+00  0.20544321355E+01  0.00000000000E+00 0.  1.
</event>
<event>
 7    1  0.9978258E-013  0.5052885E+02  0.7816164E-02  0.1300439E+00
        -11   -1    0    0    0    0  0.00000000000E+00  0.00000000000E+00  0.45593999997E+02  0.45594000000E+02  0.51100000000E-03 0. -1.
         11   -1    0    0    0    0 -0.00000000000E+00 -0.00000000000E+00 -0.45593999997E+02  0.45594000000E+02  0.51100000000E-03 0.  1.
    9900012    2    1    2    0    0  0.22425635744E+02 -0.15965214042E+02  0.29922716883E+02  0.50528853629E+02  0.29999981092E+02 0.  0.
        -12    1    1    2    0    0 -0.22425635744E+02  0.15965214042E+02 -0.29922716883E+02  0.40659146371E+02  0.00000000000E+00 0.  1.
         11    1    3    3    0    0  0.10770170215E+02  0.15303664662E+01  0.80666494463E+01  0.13542873459E+02  0.51100000000E-03 0. -1.
        -11    1    3    3    0    0 -0.14965327614E+01 -0.12602516618E+02  0.22711153602E+01  0.12892672363E+02  0.51100000000E-03 0.  1.
        -12    1    3    3    0    0  0.13151998290E+02 -0.48930638907E+01  0.19584952076E+02  0.24093307807E+02  0.00000000000E+00 0.  1.
</event>
<event>
 7    1  0.9978258E-013  0.5052885E+02  0.7816164E-02  0.1300439E+00
        -11   -1    0    0    0    0  0.00000000000E+00  0.00000000000E+00  0.45593999997E+02  0.45594000000E+02  0.51100000000E-03 0.  1.
         11   -1    0    0    0    0 -0.00000000000E+00 -0.00000000000E+00 -0.45593999997E+02  0.45594000000E+02  0.51100000000E-03 0. -1.
    9900012    2    1    2    0    0 -0.16213026546E+02 -0.18557251560E+02 -0.32340884546E+02  0.50528848159E+02  0.29999964463E+02 0.  0.
        -12    1    1    2    0    0  0.16213026546E+02  0.18557251560E+02  0.32340884546E+02  0.40659151841E+02  0.00000000000E+00 0.  1.
         11    1    3    3    0    0 -0.13150122560E+02  0.10120472055E+01 -0.71301334073E+01  0.14992957198E+02  0.51100000000E-03 0. -1.
        -11    1    3    3    0    0 -0.31543917836E+01 -0.13379384582E+02 -0.25885138074E+02  0.29308676065E+02  0.51100000000E-03 0.  1.
        -12    1    3    3    0    0  0.91487797258E-01 -0.61899141833E+01  0.67438693542E+00  0.62272148953E+01  0.00000000000E+00 0.  1.
</event>
<event>
 7    1  0.9978258E-013  0.5052886E+02  0.7816164E-02  0.1300439E+00
        -11   -1    0    0    0    0  0.00000000000E+00  0.00000000000E+00  0.45593999997E+02  0.45594000000E+02  0.51100000000E-03 0.  1.
         11   -1    0    0    0    0 -0.00000000000E+00 -0.00000000000E+00 -0.45593999997E+02  0.45594000000E+02  0.51100000000E-03 0. -1.
    9900012    2    1    2    0    0 -0.27375316088E+02  0.17838594308E+02 -0.24197987407E+02  0.50528856227E+02  0.29999988989E+02 0.  0.
        -12    1    1    2    0    0  0.27375316088E+02 -0.17838594308E+02  0.24197987407E+02  0.40659143773E+02  0.00000000000E+00 0.  1.
         11    1    3    3    0    0 -0.46499694144E+01 -0.20303154909E+01 -0.78039048154E+00  0.51335568676E+01  0.51100000000E-03 0. -1.
        -11    1    3    3    0    0  0.46362260253E+01  0.74322257534E+01 -0.64789104968E+01  0.10895359237E+02  0.51100000000E-03 0.  1.
        -12    1    3    3    0    0 -0.27361572698E+02  0.12436684046E+02 -0.16938686429E+02  0.34499940123E+02  0.00000000000E+00 0.  1.
</event>
<event>
 7    1  0.9978258E-013  0.5052886E+02  0.7816164E-02  0.1300439E+00
        -11   -1    0    0    0    0  0.00000000000E+00  0.00000000000E+00  0.45593999997E+02  0.45594000000E+02  0.51100000000E-03 0.  1.
         11   -1    0    0    0    0 -0.00000000000E+00 -0.00000000000E+00 -0.45593999997E+02  0.45594000000E+02  0.51100000000E-03 0. -1.
    9900012    2    1    2    0    0 -0.12935004428E+02  0.34233182308E+02 -0.17718365984E+02  0.50528860762E+02  0.30000002771E+02 0.  0.
        -12    1    1    2    0    0  0.12935004428E+02 -0.34233182308E+02  0.17718365984E+02  0.40659139238E+02  0.00000000000E+00 0.  1.
         11    1    3    3    0    0 -0.12741918529E+02  0.67182768190E+01 -0.11954132990E+02  0.18718788075E+02  0.51100000000E-03 0.  1.
        -11    1    3    3    0    0 -0.38443395806E+01  0.20924565022E+02  0.15217637329E+01  0.21329138128E+02  0.51100000000E-03 0. -1.
         12    1    3    3    0    0  0.36512536809E+01  0.65903404669E+01 -0.72859967270E+01  0.10480934558E+02  0.00000000000E+00 0. -1.
</event>
<event>
 7    1  0.9978258E-013  0.5052886E+02  0.7816164E-02  0.1300439E+00
        -11   -1    0    0    0    0  0.00000000000E+00  0.00000000000E+00  0.45593999997E+02  0.45594000000E+02  0.51100000000E-03 0.  1.
         11   -1    0    0    0    0 -0.00000000000E+00 -0.00000000000E+00 -0.45593999997E+02  0.45594000000E+02  0.51100000000E-03 0. -1.
    9900012    2    1    2    0    0 -0.26861441156E+02 -0.13130260384E+01 -0.30494333201E+02  0.50528863072E+02  0.30000009793E+02 0.  0.
        -12    1    1    2    0    0  0.26861441156E+02  0.13130260384E+01  0.30494333201E+02  0.40659136928E+02  0.00000000000E+00 0.  1.
         11    1    3    3    0    0 -0.18716415173E+02 -0.12322775986E+02 -0.12569431992E+02  0.25693299239E+02  0.51100000000E-03 0. -1.
        -11    1    3    3    0    0 -0.41095161901E+01  0.10647475051E+02 -0.75151178245E+01  0.13665059256E+02  0.51100000000E-03 0.  1.
         12    1    3    3    0    0 -0.40355097930E+01  0.36227489671E+00 -0.10409783384E+02  0.11170504577E+02  0.00000000000E+00 0. -1.
</event>
<event>
 7    1  0.9978258E-013  0.5052886E+02  0.7816164E-02  0.1300439E+00
        -11   -1    0    0    0    0  0.00000000000E+00  0.00000000000E+00  0.45593999997E+02  0.45594000000E+02  0.51100000000E-03 0. -1.
         11   -1    0    0    0    0 -0.00000000000E+00 -0.00000000000E+00 -0.45593999997E+02  0.45594000000E+02  0.51100000000E-03 0.  1.
    9900012    2    1    2    0    0  0.35716644952E+01  0.32514016973E+02  0.24150521630E+02  0.50528858568E+02  0.29999996102E+02 0.  0.
        -12    1    1    2    0    0 -0.35716644952E+01 -0.32514016973E+02 -0.24150521630E+02  0.40659141432E+02  0.00000000000E+00 0.  1.
         11    1    3    3    0    0  0.95064094271E+01  0.15248744780E+02  0.18476658274E+02  0.25773686946E+02  0.51100000000E-03 0. -1.
        -11    1    3    3    0    0 -0.81506760434E+01  0.26889501484E+01  0.51348364317E+01  0.10001525799E+02  0.51100000000E-03 0.  1.
        -12    1    3    3    0    0  0.22159311114E+01  0.14576322045E+02  0.53902692499E+00  0.14753645823E+02  0.00000000000E+00 0.  1.
</event>
<event>
 7    1  0.9978258E-013  0.5052886E+02  0.7816164E-02  0.1300439E+00
        -11   -1    0    0    0    0  0.00000000000E+00  0.00000000000E+00  0.45593999997E+02  0.45594000000E+02  0.51100000000E-03 0.  1.
         11   -1    0    0    0    0 -0.00000000000E+00 -0.00000000000E+00 -0.45593999997E+02  0.45594000000E+02  0.51100000000E-03 0. -1.
    9900012    2    1    2    0    0  0.39361517770E+02  0.43095874050E+00  0.10180912757E+02  0.50528858455E+02  0.29999995759E+02 0.  0.
        -12    1    1    2    0    0 -0.39361517770E+02 -0.43095874050E+00 -0.10180912757E+02  0.40659141545E+02  0.00000000000E+00 0.  1.
         11    1    3    3    0    0  0.15042354405E+02 -0.31572537491E+00 -0.73486827778E+01  0.16744409437E+02  0.51100000000E-03 0. -1.
        -11    1    3    3    0    0  0.22305429411E+02 -0.48852618697E+01  0.14791528715E+02  0.27206383198E+02  0.51100000000E-03 0.  1.
        -12    1    3    3    0    0  0.20137339544E+01  0.56319459851E+01  0.27380668197E+01  0.65780658196E+01  0.00000000000E+00 0.  1.
</event>
<event>
 7    1  0.9978258E-013  0.5052886E+02  0.7816164E-02  0.1300439E+00
        -11   -1    0    0    0    0  0.00000000000E+00  0.00000000000E+00  0.45593999997E+02  0.45594000000E+02  0.51100000000E-03 0. -1.
         11   -1    0    0    0    0 -0.00000000000E+00 -0.00000000000E+00 -0.45593999997E+02  0.45594000000E+02  0.51100000000E-03 0.  1.
    9900012    2    1    2    0    0 -0.24176978591E+02  0.28966978609E+02 -0.15151014087E+02  0.50528863617E+02  0.30000011451E+02 0.  0.
        -12    1    1    2    0    0  0.24176978591E+02 -0.28966978609E+02  0.15151014087E+02  0.40659136383E+02  0.00000000000E+00 0.  1.
         11    1    3    3    0    0 -0.15986229448E+02  0.31626651749E+02 -0.19699848257E+02  0.40544896774E+02  0.51100000000E-03 0. -1.
        -11    1    3    3    0    0 -0.39166284565E+01 -0.40643147629E+00  0.28558412250E+01  0.48642568163E+01  0.51100000000E-03 0.  1.
         12    1    3    3    0    0 -0.42741206872E+01 -0.22532416641E+01  0.16929929452E+01  0.51197100268E+01  0.00000000000E+00 0. -1.
</event>
<event>
 7    1  0.9978258E-013  0.5052887E+02  0.7816164E-02  0.1300439E+00
        -11   -1    0    0    0    0  0.00000000000E+00  0.00000000000E+00  0.45593999997E+02  0.45594000000E+02  0.51100000000E-03 0.  1.
         11   -1    0    0    0    0 -0.00000000000E+00 -0.00000000000E+00 -0.45593999997E+02  0.45594000000E+02  0.51100000000E-03 0. -1.
    9900012    2    1    2    0    0  0.20269006186E+02 -0.27667144742E+02 -0.21837163219E+02  0.50528865634E+02  0.30000017581E+02 0.  0.
        -12    1    1    2    0    0 -0.20269006186E+02  0.27667144742E+02  0.21837163219E+02  0.40659134366E+02  0.00000000000E+00 0.  1.
         11    1    3    3    0    0  0.37426928442E+01 -0.84629912586E+00  0.23898427140E+00  0.38446177547E+01  0.51100000000E-03 0. -1.
        -11    1    3    3    0    0  0.46959001085E+01 -0.24478295630E+02 -0.23846563497E+02  0.34494884051E+02  0.51100000000E-03 0.  1.
        -12    1    3    3    0    0  0.11830413233E+02 -0.23425499859E+01  0.17704160065E+01  0.12189363828E+02  0.00000000000E+00 0.  1.
</event>
<event>
 7    1  0.9978258E-013  0.5052886E+02  0.7816164E-02  0.1300439E+00
        -11   -1    0    0    0    0  0.00000000000E+00  0.00000000000E+00  0.45593999997E+02  0.45594000000E+02  0.51100000000E-03 0.  1.
         11   -1    0    0    0    0 -0.00000000000E+00 -0.00000000000E+00 -0.45593999997E+02  0.45594000000E+02  0.51100000000E-03 0. -1.
    9900012    2    1    2    0    0  0.13503173579E+02  0.25882629662E+02 -0.28300515169E+02  0.50528863588E+02  0.30000011362E+02 0.  0.
        -12    1    1    2    0    0 -0.13503173579E+02 -0.25882629662E+02  0.28300515169E+02  0.40659136412E+02  0.00000000000E+00 0.  1.
         11    1    3    3    0    0 -0.47656346496E+00  0.64545033707E+00 -0.17607752845E+02  0.17626022790E+02  0.51100000000E-03 0. -1.
        -11    1    3    3    0    0  0.12266982306E+02  0.12106366538E+02 -0.93101263985E+01  0.19588808526E+02  0.51100000000E-03 0.  1.
         12    1    3    3    0    0  0.17127547374E+01  0.13130812787E+02 -0.13826359254E+01  0.13314032272E+02  0.00000000000E+00 0. -1.
</event>
<event>
 7    1  0.9978258E-013  0.5052888E+02  0.7816164E-02  0.1300439E+00
        -11   -1    0    0    0    0  0.00000000000E+00  0.00000000000E+00  0.45593999997E+02  0.45594000000E+02  0.51100000000E-03 0. -1.
         11   -1    0    0    0    0 -0.00000000000E+00 -0.00000000000E+00 -0.45593999997E+02  0.45594000000E+02  0.51100000000E-03 0.  1.
    9900012    2    1    2    0    0 -0.31394081001E+02  0.47197283398E+00  0.25833179164E+02  0.50528877702E+02  0.30000054264E+02 0.  0.
        -12    1    1    2    0    0  0.31394081001E+02 -0.47197283398E+00 -0.25833179164E+02  0.40659122298E+02  0.00000000000E+00 0.  1.
         11    1    3    3    0    0 -0.10547406497E+01  0.10574531010E+02  0.65029121845E+01  0.12458774059E+02  0.51100000000E-03 0. -1.
        -11    1    3    3    0    0 -0.22576249986E+02 -0.99722468909E+01  0.12211612860E+02  0.27536453300E+02  0.51100000000E-03 0.  1.
         12    1    3    3    0    0 -0.77630903660E+01 -0.13031128512E+00  0.71186541201E+01  0.10533650343E+02  0.00000000000E+00 0. -1.
</event>
<event>
 7    1  0.9978258E-013  0.5052885E+02  0.7816164E-02  0.1300439E+00
        -11   -1    0    0    0    0  0.00000000000E+00  0.00000000000E+00  0.45593999997E+02  0.45594000000E+02  0.51100000000E-03 0.  1.
         11   -1    0    0    0    0 -0.00000000000E+00 -0.00000000000E+00 -0.45593999997E+02  0.45594000000E+02  0.51100000000E-03 0. -1.
    9900012    2    1    2    0    0  0.39958212664E+02  0.70617173999E+01  0.25767288787E+01  0.50528854121E+02  0.29999982585E+02 0.  0.
        -12    1    1    2    0    0 -0.39958212664E+02 -0.70617173999E+01 -0.25767288787E+01  0.40659145879E+02  0.00000000000E+00 0.  1.
         11    1    3    3    0    0  0.28937916633E+02 -0.25374065715E+01 -0.63155125286E+00  0.29055813677E+02  0.51100000000E-03 0. -1.
        -11    1    3    3    0    0  0.43575940795E+01  0.97757896176E+01 -0.42092267654E+01  0.11500968613E+02  0.51100000000E-03 0.  1.
        -12    1    3    3    0    0  0.66627019511E+01 -0.17666564623E+00  0.74175068970E+01  0.99720718312E+01  0.00000000000E+00 0.  1.
</event>
<event>
 7    1  0.9978258E-013  0.5052888E+02  0.7816164E-02  0.1300439E+00
        -11   -1    0    0    0    0  0.00000000000E+00  0.00000000000E+00  0.45593999997E+02  0.45594000000E+02  0.51100000000E-03 0.  1.
         11   -1    0    0    0    0 -0.00000000000E+00 -0.00000000000E+00 -0.45593999997E+02  0.45594000000E+02  0.51100000000E-03 0. -1.
    9900012    2    1    2    0    0  0.25184224406E+02 -0.95702496671E+01 -0.30452074336E+02  0.50528884552E+02  0.30000075085E+02 0.  0.
        -12    1    1    2    0    0 -0.25184224406E+02  0.95702496671E+01  0.30452074336E+02  0.40659115448E+02  0.00000000000E+00 0.  1.
         11    1    3    3    0    0  0.17301687029E+02 -0.19244670464E+02 -0.18372131680E+02  0.31737059379E+02  0.51100000000E-03 0. -1.
        -11    1    3    3    0    0  0.20985892965E+01  0.33353527667E+01  0.40846516079E-01  0.39408531834E+01  0.51100000000E-03 0.  1.
         12    1    3    3    0    0  0.57839480807E+01  0.63390680298E+01 -0.12120789172E+02  0.14850971990E+02  0.00000000000E+00 0. -1.
</event>
<event>
 7    1  0.9978258E-013  0.5052887E+02  0.7816164E-02  0.1300439E+00
        -11   -1    0    0    0    0  0.00000000000E+00  0.00000000000E+00  0.45593999997E+02  0.45594000000E+02  0.51100000000E-03 0. -1.
         11   -1    0    0    0    0 -0.00000000000E+00 -0.00000000000E+00 -0.45593999997E+02  0.45594000000E+02  0.51100000000E-03 0.  1.
    9900012    2    1    2    0    0 -0.22478013123E+02  0.11877593519E+02  0.31730532007E+02  0.50528868637E+02  0.30000026708E+02 0.  0.
        -12    1    1    2    0    0  0.22478013123E+02 -0.11877593519E+02 -0.31730532007E+02  0.40659131363E+02  0.00000000000E+00 0.  1.
         11    1    3    3    0    0 -0.16357995722E+02  0.11103456056E+02  0.15901284342E+02  0.25371669326E+02  0.51100000000E-03 0. -1.
        -11    1    3    3    0    0  0.76835355932E+00 -0.51597648160E+01 -0.16360258673E+01  0.54671858436E+01  0.51100000000E-03 0.  1.
        -12    1    3    3    0    0 -0.68883709611E+01  0.59339022787E+01  0.17465273533E+02  0.19690013467E+02  0.00000000000E+00 0.  1.
</event>
<event>
 7    1  0.9978258E-013  0.5052886E+02  0.7816164E-02  0.1300439E+00
        -11   -1    0    0    0    0  0.00000000000E+00  0.00000000000E+00  0.45593999997E+02  0.45594000000E+02  0.51100000000E-03 0. -1.
         11   -1    0    0    0    0 -0.00000000000E+00 -0.00000000000E+00 -0.45593999997E+02  0.45594000000E+02  0.51100000000E-03 0.  1.
    9900012    2    1    2    0    0 -0.32964433795E+02  0.20485197578E+02  0.12118933912E+02  0.50528858662E+02  0.29999996388E+02 0.  0.
        -12    1    1    2    0    0  0.32964433795E+02 -0.20485197578E+02 -0.12118933912E+02  0.40659141338E+02  0.00000000000E+00 0.  1.
         11    1    3    3    0    0 -0.29334804184E+02  0.66988862593E+01  0.30373502693E+01  0.30242872062E+02  0.51100000000E-03 0. -1.
        -11    1    3    3    0    0 -0.13850798741E+00 -0.12803477233E+01  0.36884251527E+01  0.39067832194E+01  0.51100000000E-03 0.  1.
         12    1    3    3    0    0 -0.34911216234E+01  0.15066659042E+02  0.53931584896E+01  0.16379203380E+02  0.00000000000E+00 0. -1.
</event>
<event>
 7    1  0.9978258E-013  0.5052885E+02  0.7816164E-02  0.1300439E+00
        -11   -1    0    0    0    0  0.00000000000E+00  0.00000000000E+00  0.45593999997E+02  0.45594000000E+02  0.51100000000E-03 0.  1.
         11   -1    0    0    0    0 -0.00000000000E+00 -0.00000000000E+00 -0.45593999997E+02  0.45594000000E+02  0.51100000000E-03 0. -1.
    9900012    2    1    2    0    0 -0.10463591655E+02  0.23195663157E+01 -0.39221155423E+02  0.50528853785E+02  0.29999981566E+02 0.  0.
        -12    1    1    2    0    0  0.10463591655E+02 -0.23195663157E+01  0.39221155423E+02  0.40659146215E+02  0.00000000000E+00 0.  1.
         11    1    3    3    0    0 -0.87774152925E+01  0.18188855883E+01 -0.41313457087E+02  0.42274733597E+02  0.51100000000E-03 0. -1.
        -11    1    3    3    0    0 -0.26116692118E+01  0.35854501604E+01  0.23561484430E+01  0.50227188525E+01  0.51100000000E-03 0.  1.
         12    1    3    3    0    0  0.92549284967E+00 -0.30847694330E+01 -0.26384677920E+00  0.32314013357E+01  0.00000000000E+00 0. -1.
</event>
<event>
 7    1  0.9978258E-013  0.5052887E+02  0.7816164E-02  0.1300439E+00
        -11   -1    0    0    0    0  0.00000000000E+00  0.00000000000E+00  0.45593999997E+02  0.45594000000E+02  0.51100000000E-03 0. -1.
         11   -1    0    0    0    0 -0.00000000000E+00 -0.00000000000E+00 -0.45593999997E+02  0.45594000000E+02  0.51100000000E-03 0.  1.
    9900012    2    1    2    0    0 -0.34412334014E+02  0.13471413595E+02  0.16955159404E+02  0.50528866377E+02  0.30000019840E+02 0.  0.
        -12    1    1    2    0    0  0.34412334014E+02 -0.13471413595E+02 -0.16955159404E+02  0.40659133623E+02  0.00000000000E+00 0.  1.
         11    1    3    3    0    0 -0.27576603167E+02  0.47144153547E+01  0.21482759459E+02  0.35273271872E+02  0.51100000000E-03 0. -1.
        -11    1    3    3    0    0 -0.11262082825E+01  0.56657422484E+01 -0.62778781517E+01  0.85311625626E+01  0.51100000000E-03 0.  1.
         12    1    3    3    0    0 -0.57095225653E+01  0.30912559917E+01  0.17502780966E+01  0.67244319422E+01  0.00000000000E+00 0. -1.
</event>
<event>
 7    1  0.9978258E-013  0.5052888E+02  0.7816164E-02  0.1300439E+00
        -11   -1    0    0    0    0  0.00000000000E+00  0.00000000000E+00  0.45593999997E+02  0.45594000000E+02  0.51100000000E-03 0. -1.
         11   -1    0    0    0    0 -0.00000000000E+00 -0.00000000000E+00 -0.45593999997E+02  0.45594000000E+02  0.51100000000E-03 0.  1.
    9900012    2    1    2    0    0 -0.28026771363E+02  0.29455412295E+02 -0.20660200588E+00  0.50528881578E+02  0.30000066043E+02 0.  0.
        -12    1    1    2    0    0  0.28026771363E+02 -0.29455412295E+02  0.20660200588E+00  0.40659118422E+02  0.00000000000E+00 0.  1.
         11    1    3    3    0    0 -0.74054083725E+01 -0.16094320078E+01  0.37372377239E+01  0.84496917469E+01  0.51100000000E-03 0. -1.
        -11    1    3    3    0    0 -0.22463199751E+02  0.26416449244E+02 -0.80628774562E+01  0.35601041093E+02  0.51100000000E-03 0.  1.
        -12    1    3    3    0    0  0.18418367613E+01  0.46483950588E+01  0.41190377265E+01  0.64781487379E+01  0.00000000000E+00 0.  1.
</event>
<event>
 7    1  0.9978258E-013  0.5052884E+02  0.7816164E-02  0.1300439E+00
        -11   -1    0    0    0    0  0.00000000000E+00  0.00000000000E+00  0.45593999997E+02  0.45594000000E+02  0.51100000000E-03 0.  1.
         11   -1    0    0    0    0 -0.00000000000E+00 -0.00000000000E+00 -0.45593999997E+02  0.45594000000E+02  0.51100000000E-03 0. -1.
    9900012    2    1    2    0    0 -0.32810879752E+02  0.15840892582E+02 -0.18046599912E+02  0.50528837733E+02  0.29999932773E+02 0.  0.
        -12    1    1    2    0    0  0.32810879752E+02 -0.15840892582E+02  0.18046599912E+02  0.40659162267E+02  0.00000000000E+00 0.  1.
         11    1    3    3    0    0 -0.54010113048E+01 -0.41186875602E+01 -0.75362796952E+01  0.10145443422E+02  0.51100000000E-03 0. -1.
        -11    1    3    3    0    0 -0.12516352958E+02  0.16738568501E+02 -0.13463927365E+02  0.24861940938E+02  0.51100000000E-03 0.  1.
        -12    1    3    3    0    0 -0.14893515489E+02  0.32210116406E+01  0.29536071485E+01  0.15521453373E+02  0.00000000000E+00 0.  1.
</event>
<event>
 7    1  0.9978258E-013  0.5052886E+02  0.7816164E-02  0.1300439E+00
        -11   -1    0    0    0    0  0.00000000000E+00  0.00000000000E+00  0.45593999997E+02  0.45594000000E+02  0.51100000000E-03 0.  1.
         11   -1    0    0    0    0 -0.00000000000E+00 -0.00000000000E+00 -0.45593999997E+02  0.45594000000E+02  0.51100000000E-03 0. -1.
    9900012    2    1    2    0    0 -0.65983746976E+01  0.36903352969E+02 -0.15740697274E+02  0.50528861302E+02  0.30000004413E+02 0.  0.
        -12    1    1    2    0    0  0.65983746976E+01 -0.36903352969E+02  0.15740697274E+02  0.40659138698E+02  0.00000000000E+00 0.  1.
         11    1    3    3    0    0 -0.13333425573E+02  0.51433112365E+01 -0.99343073538E+01  0.17404722085E+02  0.51100000000E-03 0. -1.
        -11    1    3    3    0    0  0.19254721787E+01  0.11974980350E+02 -0.79257572749E+00  0.12154660590E+02  0.51100000000E-03 0.  1.
         12    1    3    3    0    0  0.48095786970E+01  0.19785061382E+02 -0.50138141932E+01  0.20969478627E+02  0.00000000000E+00 0. -1.
</event>
<event>
 7    1  0.9978258E-013  0.5052887E+02  0.7816164E-02  0.1300439E+00
        -11   -1    0    0    0    0  0.00000000000E+00  0.00000000000E+00  0.45593999997E+02  0.45594000000E+02  0.51100000000E-03 0.  1.
         11   -1    0    0    0    0 -0.00000000000E+00 -0.00000000000E+00 -0.45593999997E+02  0.45594000000E+02  0.51100000000E-03 0. -1.
    9900012    2    1    2    0    0  0.11028302196E+02 -0.53583106813E+01 -0.38766354326E+02  0.50528866089E+02  0.30000018965E+02 0.  0.
        -12    1    1    2    0    0 -0.11028302196E+02  0.53583106813E+01  0.38766354326E+02  0.40659133911E+02  0.00000000000E+00 0.  1.
         11    1    3    3    0    0 -0.25106808089E+00  0.67447130741E+00 -0.68868820180E+01  0.69243837933E+01  0.51100000000E-03 0. -1.
        -11    1    3    3    0    0  0.19483892117E+02 -0.18588359509E+01 -0.26494462365E+02  0.32939852146E+02  0.51100000000E-03 0.  1.
        -12    1    3    3    0    0 -0.82045218404E+01 -0.41739460378E+01 -0.53850099423E+01  0.10664630150E+02  0.00000000000E+00 0.  1.
</event>
<event>
 7    1  0.9978258E-013  0.5052886E+02  0.7816164E-02  0.1300439E+00
        -11   -1    0    0    0    0  0.00000000000E+00  0.00000000000E+00  0.45593999997E+02  0.45594000000E+02  0.51100000000E-03 0.  1.
         11   -1    0    0    0    0 -0.00000000000E+00 -0.00000000000E+00 -0.45593999997E+02  0.45594000000E+02  0.51100000000E-03 0. -1.
    9900012    2    1    2    0    0  0.38965248763E+02 -0.62882250555E+01 -0.97638577281E+01  0.50528864455E+02  0.30000013997E+02 0.  0.
        -12    1    1    2    0    0 -0.38965248763E+02  0.62882250555E+01  0.97638577281E+01  0.40659135545E+02  0.00000000000E+00 0.  1.
         11    1    3    3    0    0  0.28024724726E+02  0.48211976886E+01 -0.11353570546E+02  0.30619155892E+02  0.51100000000E-03 0. -1.
        -11    1    3    3    0    0  0.11426964065E+02 -0.57555356145E+01  0.47800944095E+01  0.13658367427E+02  0.51100000000E-03 0.  1.
        -12    1    3    3    0    0 -0.48644002775E+00 -0.53538871296E+01 -0.31903815917E+01  0.62513411360E+01  0.00000000000E+00 0.  1.
</event>
<event>
 7    1  0.9978258E-013  0.5052886E+02  0.7816164E-02  0.1300439E+00
        -11   -1    0    0    0    0  0.00000000000E+00  0.00000000000E+00  0.45593999997E+02  0.45594000000E+02  0.51100000000E-03 0.  1.
         11   -1    0    0    0    0 -0.00000000000E+00 -0.00000000000E+00 -0.45593999997E+02  0.45594000000E+02  0.51100000000E-03 0. -1.
    9900012    2    1    2    0    0 -0.28453183289E+02 -0.27408750618E+02 -0.96095139214E+01  0.50528855795E+02  0.29999987674E+02 0.  0.
        -12    1    1    2    0    0  0.28453183289E+02  0.27408750618E+02  0.96095139214E+01  0.40659144205E+02  0.00000000000E+00 0.  1.
         11    1    3    3    0    0 -0.31008424790E+01 -0.94465576917E+01  0.42323017498E+00  0.99514722702E+01  0.51100000000E-03 0. -1.
        -11    1    3    3    0    0 -0.15549515601E+01 -0.68713267616E+01 -0.12352320046E+02  0.14220155295E+02  0.51100000000E-03 0.  1.
        -12    1    3    3    0    0 -0.23797389250E+02 -0.11090866165E+02  0.23195759499E+01  0.26357228230E+02  0.00000000000E+00 0.  1.
</event>
<event>
 7    1  0.9978258E-013  0.5052882E+02  0.7816164E-02  0.1300439E+00
        -11   -1    0    0    0    0  0.00000000000E+00  0.00000000000E+00  0.45593999997E+02  0.45594000000E+02  0.51100000000E-03 0. -1.
         11   -1    0    0    0    0 -0.00000000000E+00 -0.00000000000E+00 -0.45593999997E+02  0.45594000000E+02  0.51100000000E-03 0.  1.
    9900012    2    1    2    0    0  0.16904821049E+02  0.36522985127E+02 -0.57851118677E+01  0.50528819774E+02  0.29999878186E+02 0.  0.
        -12    1    1    2    0    0 -0.16904821049E+02 -0.36522985127E+02  0.57851118677E+01  0.40659180226E+02  0.00000000000E+00 0.  1.
         11    1    3    3    0    0  0.11988733863E+01 -0.30752105312E+01  0.27819444492E+01  0.43166459650E+01  0.51100000000E-03 0. -1.
        -11    1    3    3    0    0  0.12603178758E+02  0.15643698044E+02 -0.90948579225E+01  0.22051799115E+02  0.51100000000E-03 0.  1.
         12    1    3    3    0    0  0.31027689042E+01  0.23954497615E+02  0.52780160567E+00  0.24160374695E+02  0.00000000000E+00 0. -1.
</event>
<event>
 7    1  0.9978258E-013  0.5052884E+02  0.7816164E-02  0.1300439E+00
        -11   -1    0    0    0    0  0.00000000000E+00  0.00000000000E+00  0.45593999997E+02  0.45594000000E+02  0.51100000000E-03 0.  1.
         11   -1    0    0    0    0 -0.00000000000E+00 -0.00000000000E+00 -0.45593999997E+02  0.45594000000E+02  0.51100000000E-03 0. -1.
    9900012    2    1    2    0    0 -0.12189281318E+02  0.22653505347E+02 -0.31486622331E+02  0.50528840277E+02  0.29999940506E+02 0.  0.
        -12    1    1    2    0    0  0.12189281318E+02 -0.22653505347E+02  0.31486622331E+02  0.40659159723E+02  0.00000000000E+00 0.  1.
         11    1    3    3    0    0 -0.48299200224E+01  0.12558446694E+02 -0.31961573848E+02  0.34678306099E+02  0.51100000000E-03 0. -1.
        -11    1    3    3    0    0 -0.58821544930E+01  0.79686752386E+00  0.21002148528E+01  0.62964785412E+01  0.51100000000E-03 0.  1.
         12    1    3    3    0    0 -0.14772068022E+01  0.92981911285E+01 -0.16252633360E+01  0.95540556367E+01  0.00000000000E+00 0. -1.
</event>
<event>
 7    1  0.9978258E-013  0.5052886E+02  0.7816164E-02  0.1300439E+00
        -11   -1    0    0    0    0  0.00000000000E+00  0.00000000000E+00  0.45593999997E+02  0.45594000000E+02  0.51100000000E-03 0.  1.
         11   -1    0    0    0    0 -0.00000000000E+00 -0.00000000000E+00 -0.45593999997E+02  0.45594000000E+02  0.51100000000E-03 0. -1.
    9900012    2    1    2    0    0  0.79920506842E+01  0.11225691453E+02 -0.38252794793E+02  0.50528864099E+02  0.30000012914E+02 0.  0.
        -12    1    1    2    0    0 -0.79920506842E+01 -0.11225691453E+02  0.38252794793E+02  0.40659135901E+02  0.00000000000E+00 0.  1.
         11    1    3    3    0    0  0.27239995908E+01  0.77934611841E+01 -0.38138677143E+01  0.90941628643E+01  0.51100000000E-03 0. -1.
        -11    1    3    3    0    0  0.71085006461E+01  0.45287859694E+01 -0.37084622522E+02  0.38030381429E+02  0.51100000000E-03 0.  1.
        -12    1    3    3    0    0 -0.18404495527E+01 -0.10965557002E+01  0.26456954428E+01  0.34043198051E+01  0.00000000000E+00 0.  1.
</event>
<event>
 7    1  0.9978258E-013  0.5052886E+02  0.7816164E-02  0.1300439E+00
        -11   -1    0    0    0    0  0.00000000000E+00  0.00000000000E+00  0.45593999997E+02  0.45594000000E+02  0.51100000000E-03 0. -1.
         11   -1    0    0    0    0 -0.00000000000E+00 -0.00000000000E+00 -0.45593999997E+02  0.45594000000E+02  0.51100000000E-03 0.  1.
    9900012    2    1    2    0    0 -0.36398118058E+02  0.27406403568E+01  0.17911780727E+02  0.50528855930E+02  0.29999988084E+02 0.  0.
        -12    1    1    2    0    0  0.36398118058E+02 -0.27406403568E+01 -0.17911780727E+02  0.40659144070E+02  0.00000000000E+00 0.  1.
         11    1    3    3    0    0 -0.39220969864E+02  0.58641516882E+01  0.14730468160E+02  0.42304366731E+02  0.51100000000E-03 0. -1.
        -11    1    3    3    0    0  0.33105410020E+01  0.97344217904E+00  0.12644126603E+01  0.36750525219E+01  0.51100000000E-03 0.  1.
         12    1    3    3    0    0 -0.48768919611E+00 -0.40969535105E+01  0.19168999068E+01  0.45494366763E+01  0.00000000000E+00 0. -1.
</event>
<event>
 7    1  0.9978258E-013  0.5052886E+02  0.7816164E-02  0.1300439E+00
        -11   -1    0    0    0    0  0.00000000000E+00  0.00000000000E+00  0.45593999997E+02  0.45594000000E+02  0.51100000000E-03 0.  1.
         11   -1    0    0    0    0 -0.00000000000E+00 -0.00000000000E+00 -0.45593999997E+02  0.45594000000E+02  0.51100000000E-03 0. -1.
    9900012    2    1    2    0    0 -0.19536274206E+02 -0.22597613469E+02 -0.27583464174E+02  0.50528860311E+02  0.30000001403E+02 0.  0.
        -12    1    1    2    0    0  0.19536274206E+02  0.22597613469E+02  0.27583464174E+02  0.40659139689E+02  0.00000000000E+00 0.  1.
         11    1    3    3    0    0 -0.19812246562E+02 -0.15902047563E+02 -0.11048674135E+02  0.27703310830E+02  0.51100000000E-03 0. -1.
        -11    1    3    3    0    0  0.37464517848E+01  0.13296619029E+01  0.16119801255E+00  0.39786790285E+01  0.51100000000E-03 0.  1.
         12    1    3    3    0    0 -0.34704794287E+01 -0.80252278092E+01 -0.16695988052E+02  0.18846870453E+02  0.00000000000E+00 0. -1.
</event>
<event>
 7    1  0.9978258E-013  0.5052886E+02  0.7816164E-02  0.1300439E+00
        -11   -1    0    0    0    0  0.00000000000E+00  0.00000000000E+00  0.45593999997E+02  0.45594000000E+02  0.51100000000E-03 0.  1.
         11   -1    0    0    0    0 -0.00000000000E+00 -0.00000000000E+00 -0.45593999997E+02  0.45594000000E+02  0.51100000000E-03 0. -1.
    9900012    2    1    2    0    0 -0.26524975758E+02 -0.98282967990E+01 -0.29206094457E+02  0.50528859449E+02  0.29999998781E+02 0.  0.
        -12    1    1    2    0    0  0.26524975758E+02  0.98282967990E+01  0.29206094457E+02  0.40659140551E+02  0.00000000000E+00 0.  1.
         11    1    3    3    0    0 -0.22889847327E+01  0.64310905980E+01 -0.27013043867E+01  0.73413502189E+01  0.51100000000E-03 0.  1.
        -11    1    3    3    0    0 -0.14242533477E+02 -0.13070275569E+02 -0.61447193143E+01  0.20283970001E+02  0.51100000000E-03 0. -1.
        -12    1    3    3    0    0 -0.99934575488E+01 -0.31891118276E+01 -0.20360070756E+02  0.22903539229E+02  0.00000000000E+00 0.  1.
</event>
<event>
 7    1  0.9978258E-013  0.5052886E+02  0.7816164E-02  0.1300439E+00
        -11   -1    0    0    0    0  0.00000000000E+00  0.00000000000E+00  0.45593999997E+02  0.45594000000E+02  0.51100000000E-03 0.  1.
         11   -1    0    0    0    0 -0.00000000000E+00 -0.00000000000E+00 -0.45593999997E+02  0.45594000000E+02  0.51100000000E-03 0. -1.
    9900012    2    1    2    0    0  0.33384375645E+02 -0.23200106816E+02 -0.63577622227E+00  0.50528859516E+02  0.29999998985E+02 0.  0.
        -12    1    1    2    0    0 -0.33384375645E+02  0.23200106816E+02  0.63577622227E+00  0.40659140484E+02  0.00000000000E+00 0.  1.
         11    1    3    3    0    0  0.22970076239E+02 -0.82785570423E+01 -0.53940818468E+01  0.25005100047E+02  0.51100000000E-03 0. -1.
        -11    1    3    3    0    0  0.57659152263E+01 -0.80935782028E+01  0.11255511444E+02  0.15014603713E+02  0.51100000000E-03 0.  1.
        -12    1    3    3    0    0  0.46483841803E+01 -0.68279715707E+01 -0.64972058194E+01  0.10509155757E+02  0.00000000000E+00 0.  1.
</event>
<event>
 7    1  0.9978258E-013  0.5052888E+02  0.7816164E-02  0.1300439E+00
        -11   -1    0    0    0    0  0.00000000000E+00  0.00000000000E+00  0.45593999997E+02  0.45594000000E+02  0.51100000000E-03 0.  1.
         11   -1    0    0    0    0 -0.00000000000E+00 -0.00000000000E+00 -0.45593999997E+02  0.45594000000E+02  0.51100000000E-03 0. -1.
    9900012    2    1    2    0    0 -0.47452786663E+01 -0.32565097615E+02 -0.23878038497E+02  0.50528880792E+02  0.30000063655E+02 0.  0.
        -12    1    1    2    0    0  0.47452786663E+01  0.32565097615E+02  0.23878038497E+02  0.40659119208E+02  0.00000000000E+00 0.  1.
         11    1    3    3    0    0  0.11108945070E+02 -0.15705235328E+02 -0.33018725279E+01  0.19518335988E+02  0.51100000000E-03 0. -1.
        -11    1    3    3    0    0 -0.12116245344E+02 -0.11963139302E+02 -0.14639635324E+02  0.22455267219E+02  0.51100000000E-03 0.  1.
         12    1    3    3    0    0 -0.37379783923E+01 -0.48967229862E+01 -0.59365306448E+01  0.85552775853E+01  0.00000000000E+00 0. -1.
</event>
<event>
 7    1  0.9978258E-013  0.5052887E+02  0.7816164E-02  0.1300439E+00
        -11   -1    0    0    0    0  0.00000000000E+00  0.00000000000E+00  0.45593999997E+02  0.45594000000E+02  0.51100000000E-03 0.  1.
         11   -1    0    0    0    0 -0.00000000000E+00 -0.00000000000E+00 -0.45593999997E+02  0.45594000000E+02  0.51100000000E-03 0. -1.
    9900012    2    1    2    0    0 -0.15704701509E+02 -0.37417809174E+02 -0.25366780901E+01  0.50528870292E+02  0.30000031740E+02 0.  0.
        -12    1    1    2    0    0  0.15704701509E+02  0.37417809174E+02  0.25366780901E+01  0.40659129708E+02  0.00000000000E+00 0.  1.
         11    1    3    3    0    0 -0.95255929204E+01 -0.21621175294E+02  0.45239022118E+01  0.24055723499E+02  0.51100000000E-03 0. -1.
        -11    1    3    3    0    0 -0.83827151594E+01  0.73801718897E+00 -0.46634771221E+01  0.96209460005E+01  0.51100000000E-03 0.  1.
        -12    1    3    3    0    0  0.22036065710E+01 -0.16534651069E+02 -0.23971031798E+01  0.16852200792E+02  0.00000000000E+00 0.  1.
</event>
<event>
 7    1  0.9978258E-013  0.5052900E+02  0.7816164E-02  0.1300438E+00
        -11   -1    0    0    0    0  0.00000000000E+00  0.00000000000E+00  0.45593999997E+02  0.45594000000E+02  0.51100000000E-03 0.  1.
         11   -1    0    0    0    0 -0.00000000000E+00 -0.00000000000E+00 -0.45593999997E+02  0.45594000000E+02  0.51100000000E-03 0. -1.
    9900012    2    1    2    0    0  0.33578746834E+02 -0.18605217703E+02  0.13396568004E+02  0.50528998549E+02  0.30000421586E+02 0.  0.
        -12    1    1    2    0    0 -0.33578746834E+02  0.18605217703E+02 -0.13396568004E+02  0.40659001451E+02  0.00000000000E+00 0.  1.
         11    1    3    3    0    0  0.29635268613E+02 -0.96294865556E+01  0.15722626438E+02  0.34902394466E+02  0.51100000000E-03 0.  1.
        -11    1    3    3    0    0  0.32655941401E+01  0.10389992584E+01 -0.41946389710E+01  0.54165137225E+01  0.51100000000E-03 0. -1.
        -12    1    3    3    0    0  0.67788408046E+00 -0.10014730406E+02  0.18685805372E+01  0.10210090360E+02  0.00000000000E+00 0.  1.
</event>
<event>
 7    1  0.9978258E-013  0.5052886E+02  0.7816164E-02  0.1300439E+00
        -11   -1    0    0    0    0  0.00000000000E+00  0.00000000000E+00  0.45593999997E+02  0.45594000000E+02  0.51100000000E-03 0. -1.
         11   -1    0    0    0    0 -0.00000000000E+00 -0.00000000000E+00 -0.45593999997E+02  0.45594000000E+02  0.51100000000E-03 0.  1.
    9900012    2    1    2    0    0  0.29496992767E+02 -0.27604332073E+02  0.45928224221E+01  0.50528858970E+02  0.29999997325E+02 0.  0.
        -12    1    1    2    0    0 -0.29496992767E+02  0.27604332073E+02 -0.45928224221E+01  0.40659141030E+02  0.00000000000E+00 0.  1.
         11    1    3    3    0    0  0.12567103961E+02 -0.10389255192E+02  0.84291562506E+01  0.18355364360E+02  0.51100000000E-03 0. -1.
        -11    1    3    3    0    0  0.52561625867E+01 -0.17479107937E+02 -0.77906054158E+01  0.19845402299E+02  0.51100000000E-03 0.  1.
        -12    1    3    3    0    0  0.11673726219E+02  0.26403105636E+00  0.39542715872E+01  0.12328092311E+02  0.00000000000E+00 0.  1.
</event>
<event>
 7    1  0.9978258E-013  0.5052886E+02  0.7816164E-02  0.1300439E+00
        -11   -1    0    0    0    0  0.00000000000E+00  0.00000000000E+00  0.45593999997E+02  0.45594000000E+02  0.51100000000E-03 0.  1.
         11   -1    0    0    0    0 -0.00000000000E+00 -0.00000000000E+00 -0.45593999997E+02  0.45594000000E+02  0.51100000000E-03 0. -1.
    9900012    2    1    2    0    0 -0.66771040539E+01 -0.28382301577E+02 -0.28337732643E+02  0.50528857699E+02  0.29999993461E+02 0.  0.
        -12    1    1    2    0    0  0.66771040539E+01  0.28382301577E+02  0.28337732643E+02  0.40659142301E+02  0.00000000000E+00 0.  1.
         11    1    3    3    0    0 -0.81710356911E+01  0.26522955375E+01 -0.10491869454E+02  0.13560229378E+02  0.51100000000E-03 0. -1.
        -11    1    3    3    0    0  0.46708178117E+01 -0.18311462946E+02 -0.13220235299E+02  0.23062975434E+02  0.51100000000E-03 0.  1.
        -12    1    3    3    0    0 -0.31768861745E+01 -0.12723134168E+02 -0.46256278890E+01  0.13905652887E+02  0.00000000000E+00 0.  1.
</event>
<event>
 7    1  0.9978258E-013  0.5052886E+02  0.7816164E-02  0.1300439E+00
        -11   -1    0    0    0    0  0.00000000000E+00  0.00000000000E+00  0.45593999997E+02  0.45594000000E+02  0.51100000000E-03 0. -1.
         11   -1    0    0    0    0 -0.00000000000E+00 -0.00000000000E+00 -0.45593999997E+02  0.45594000000E+02  0.51100000000E-03 0.  1.
    9900012    2    1    2    0    0 -0.24565680127E+02 -0.61941450947E+01  0.31801348140E+02  0.50528858136E+02  0.29999994791E+02 0.  0.
        -12    1    1    2    0    0  0.24565680127E+02  0.61941450947E+01 -0.31801348140E+02  0.40659141864E+02  0.00000000000E+00 0.  1.
         11    1    3    3    0    0 -0.17178483065E+01 -0.50000207967E+01  0.22657102741E+02  0.23265758437E+02  0.51100000000E-03 0. -1.
        -11    1    3    3    0    0 -0.17203066583E+02  0.38933736571E+01  0.39984508431E+01  0.18085670231E+02  0.51100000000E-03 0.  1.
         12    1    3    3    0    0 -0.56447652373E+01 -0.50874979551E+01  0.51457945562E+01  0.91774294681E+01  0.00000000000E+00 0. -1.
</event>
<event>
 7    1  0.9978258E-013  0.5052886E+02  0.7816164E-02  0.1300439E+00
        -11   -1    0    0    0    0  0.00000000000E+00  0.00000000000E+00  0.45593999997E+02  0.45594000000E+02  0.51100000000E-03 0. -1.
         11   -1    0    0    0    0 -0.00000000000E+00 -0.00000000000E+00 -0.45593999997E+02  0.45594000000E+02  0.51100000000E-03 0.  1.
    9900012    2    1    2    0    0 -0.68348438444E+01  0.40069222143E+02  0.95272122441E+00  0.50528864110E+02  0.30000012950E+02 0.  0.
        -12    1    1    2    0    0  0.68348438444E+01 -0.40069222143E+02 -0.95272122441E+00  0.40659135890E+02  0.00000000000E+00 0.  1.
         11    1    3    3    0    0 -0.80182403336E+01  0.27419759197E+02  0.60551055301E+01  0.29202734045E+02  0.51100000000E-03 0. -1.
        -11    1    3    3    0    0  0.83781286025E+01  0.84846147107E+01 -0.76276975771E+00  0.11948369915E+02  0.51100000000E-03 0.  1.
        -12    1    3    3    0    0 -0.71947321134E+01  0.41648482360E+01 -0.43396145480E+01  0.93777601503E+01  0.00000000000E+00 0.  1.
</event>
<event>
 7    1  0.9978258E-013  0.5052886E+02  0.7816164E-02  0.1300439E+00
        -11   -1    0    0    0    0  0.00000000000E+00  0.00000000000E+00  0.45593999997E+02  0.45594000000E+02  0.51100000000E-03 0. -1.
         11   -1    0    0    0    0 -0.00000000000E+00 -0.00000000000E+00 -0.45593999997E+02  0.45594000000E+02  0.51100000000E-03 0.  1.
    9900012    2    1    2    0    0  0.16683374480E+02  0.22582139565E+02  0.29408796240E+02  0.50528864401E+02  0.30000013833E+02 0.  0.
        -12    1    1    2    0    0 -0.16683374480E+02 -0.22582139565E+02 -0.29408796240E+02  0.40659135599E+02  0.00000000000E+00 0.  1.
         11    1    3    3    0    0 -0.48843953785E+01  0.11996123562E+02  0.12801273369E+02  0.18210900551E+02  0.51100000000E-03 0. -1.
        -11    1    3    3    0    0  0.16037089473E+02  0.10892605725E+02  0.18161873530E+02  0.26564840459E+02  0.51100000000E-03 0.  1.
         12    1    3    3    0    0  0.55306803858E+01 -0.30658972212E+00 -0.15543506585E+01  0.57531233915E+01  0.00000000000E+00 0. -1.
</event>
<event>
 7    1  0.9978258E-013  0.5052887E+02  0.7816164E-02  0.1300439E+00
        -11   -1    0    0    0    0  0.00000000000E+00  0.00000000000E+00  0.45593999997E+02  0.45594000000E+02  0.51100000000E-03 0. -1.
         11   -1    0    0    0    0 -0.00000000000E+00 -0.00000000000E+00 -0.45593999997E+02  0.45594000000E+02  0.51100000000E-03 0.  1.
    9900012    2    1    2    0    0 -0.25508031200E+02  0.31630305376E+02 -0.14244664059E+01  0.50528868450E+02  0.30000026139E+02 0.  0.
        -12    1    1    2    0    0  0.25508031200E+02 -0.31630305376E+02  0.14244664059E+01  0.40659131550E+02  0.00000000000E+00 0.  1.
         11    1    3    3    0    0 -0.98560092408E+01  0.31733612572E+02  0.43539031396E+01  0.33512975962E+02  0.51100000000E-03 0. -1.
        -11    1    3    3    0    0 -0.95335237007E+01  0.14933787107E+01 -0.29663042580E+01  0.10095405655E+02  0.51100000000E-03 0.  1.
         12    1    3    3    0    0 -0.61184982584E+01 -0.15966859062E+01 -0.28120652874E+01  0.69204868327E+01  0.00000000000E+00 0. -1.
</event>
<event>
 7    1  0.9978258E-013  0.5052887E+02  0.7816164E-02  0.1300439E+00
        -11   -1    0    0    0    0  0.00000000000E+00  0.00000000000E+00  0.45593999997E+02  0.45594000000E+02  0.51100000000E-03 0.  1.
         11   -1    0    0    0    0 -0.00000000000E+00 -0.00000000000E+00 -0.45593999997E+02  0.45594000000E+02  0.51100000000E-03 0. -1.
    9900012    2    1    2    0    0 -0.10589166897E+02  0.47692153071E+01 -0.38965228975E+02  0.50528868931E+02  0.30000027601E+02 0.  0.
        -12    1    1    2    0    0  0.10589166897E+02 -0.47692153071E+01  0.38965228975E+02  0.40659131069E+02  0.00000000000E+00 0.  1.
         11    1    3    3    0    0  0.25071525851E+00 -0.92005046679E+01 -0.18144407358E+02  0.20345310588E+02  0.51100000000E-03 0. -1.
        -11    1    3    3    0    0 -0.42819159977E+00  0.48901122714E+01  0.33114766643E+00  0.49199801942E+01  0.51100000000E-03 0.  1.
         12    1    3    3    0    0 -0.10411690555E+02  0.90796077036E+01 -0.21151969284E+02  0.25263578148E+02  0.00000000000E+00 0. -1.
</event>
<event>
 7    1  0.9978258E-013  0.5052886E+02  0.7816164E-02  0.1300439E+00
        -11   -1    0    0    0    0  0.00000000000E+00  0.00000000000E+00  0.45593999997E+02  0.45594000000E+02  0.51100000000E-03 0.  1.
         11   -1    0    0    0    0 -0.00000000000E+00 -0.00000000000E+00 -0.45593999997E+02  0.45594000000E+02  0.51100000000E-03 0. -1.
    9900012    2    1    2    0    0  0.14482084447E+02  0.16255591757E+02  0.34339340170E+02  0.50528864291E+02  0.30000013499E+02 0.  0.
        -12    1    1    2    0    0 -0.14482084447E+02 -0.16255591757E+02 -0.34339340170E+02  0.40659135709E+02  0.00000000000E+00 0.  1.
         11    1    3    3    0    0  0.57522665213E+01  0.59165712620E+01 -0.13355768770E+01  0.83593152522E+01  0.51100000000E-03 0. -1.
        -11    1    3    3    0    0 -0.19380227387E+01 -0.22154477440E+01  0.17056740800E+02  0.17308857496E+02  0.51100000000E-03 0.  1.
        -12    1    3    3    0    0  0.10667840664E+02  0.12554468239E+02  0.18618176247E+02  0.24860691542E+02  0.00000000000E+00 0.  1.
</event>
<event>
 7    1  0.9978258E-013  0.5052886E+02  0.7816164E-02  0.1300439E+00
        -11   -1    0    0    0    0  0.00000000000E+00  0.00000000000E+00  0.45593999997E+02  0.45594000000E+02  0.51100000000E-03 0.  1.
         11   -1    0    0    0    0 -0.00000000000E+00 -0.00000000000E+00 -0.45593999997E+02  0.45594000000E+02  0.51100000000E-03 0. -1.
    9900012    2    1    2    0    0 -0.78201527325E+01 -0.54686594800E+01 -0.39523472261E+02  0.50528857303E+02  0.29999992258E+02 0.  0.
        -12    1    1    2    0    0  0.78201527325E+01  0.54686594800E+01  0.39523472261E+02  0.40659142697E+02  0.00000000000E+00 0.  1.
         11    1    3    3    0    0 -0.10656767027E+02 -0.54709471825E+01 -0.26827052791E+02  0.29380073319E+02  0.51100000000E-03 0. -1.
        -11    1    3    3    0    0  0.87174944039E+01  0.40818113176E+01 -0.85647925644E+01  0.12884547499E+02  0.51100000000E-03 0.  1.
        -12    1    3    3    0    0 -0.58808801092E+01 -0.40795236151E+01 -0.41316269061E+01  0.82642364847E+01  0.00000000000E+00 0.  1.
</event>
<event>
 7    1  0.9978258E-013  0.5052886E+02  0.7816164E-02  0.1300439E+00
        -11   -1    0    0    0    0  0.00000000000E+00  0.00000000000E+00  0.45593999997E+02  0.45594000000E+02  0.51100000000E-03 0.  1.
         11   -1    0    0    0    0 -0.00000000000E+00 -0.00000000000E+00 -0.45593999997E+02  0.45594000000E+02  0.51100000000E-03 0. -1.
    9900012    2    1    2    0    0  0.35477451794E+01 -0.39644980278E+00 -0.40502127825E+02  0.50528855560E+02  0.29999986959E+02 0.  0.
        -12    1    1    2    0    0 -0.35477451794E+01  0.39644980278E+00  0.40502127825E+02  0.40659144440E+02  0.00000000000E+00 0.  1.
         11    1    3    3    0    0  0.15763277070E+01  0.16974005811E+01 -0.76473606943E+01  0.79905008368E+01  0.51100000000E-03 0.  1.
        -11    1    3    3    0    0  0.11045150663E+02  0.63504779758E+01 -0.88202015384E+01  0.15495801984E+02  0.51100000000E-03 0. -1.
        -12    1    3    3    0    0 -0.90737331904E+01 -0.84443283597E+01 -0.24034565592E+02  0.27042552739E+02  0.00000000000E+00 0.  1.
</event>
<event>
 7    1  0.9978258E-013  0.5052886E+02  0.7816164E-02  0.1300439E+00
        -11   -1    0    0    0    0  0.00000000000E+00  0.00000000000E+00  0.45593999997E+02  0.45594000000E+02  0.51100000000E-03 0.  1.
         11   -1    0    0    0    0 -0.00000000000E+00 -0.00000000000E+00 -0.45593999997E+02  0.45594000000E+02  0.51100000000E-03 0. -1.
    9900012    2    1    2    0    0 -0.26541774791E+02  0.30041320683E+02 -0.67984366991E+01  0.50528862048E+02  0.30000006682E+02 0.  0.
        -12    1    1    2    0    0  0.26541774791E+02 -0.30041320683E+02  0.67984366991E+01  0.40659137952E+02  0.00000000000E+00 0.  1.
         11    1    3    3    0    0 -0.10206586359E+01  0.19205654849E+02  0.13325574081E+01  0.19278864898E+02  0.51100000000E-03 0. -1.
        -11    1    3    3    0    0 -0.13664537787E+02  0.52094543685E+01  0.18794857523E+01  0.14744167481E+02  0.51100000000E-03 0.  1.
         12    1    3    3    0    0 -0.11856578369E+02  0.56262114647E+01 -0.10010479859E+02  0.16505829669E+02  0.00000000000E+00 0. -1.
</event>
<event>
 7    1  0.9978258E-013  0.5052887E+02  0.7816164E-02  0.1300439E+00
        -11   -1    0    0    0    0  0.00000000000E+00  0.00000000000E+00  0.45593999997E+02  0.45594000000E+02  0.51100000000E-03 0.  1.
         11   -1    0    0    0    0 -0.00000000000E+00 -0.00000000000E+00 -0.45593999997E+02  0.45594000000E+02  0.51100000000E-03 0. -1.
    9900012    2    1    2    0    0  0.91426454935E+01 -0.25349540222E+02 -0.30446311173E+02  0.50528867937E+02  0.30000024582E+02 0.  0.
        -12    1    1    2    0    0 -0.91426454935E+01  0.25349540222E+02  0.30446311173E+02  0.40659132063E+02  0.00000000000E+00 0.  1.
         11    1    3    3    0    0  0.16448845086E+02 -0.14205187626E+02 -0.29786314646E+02  0.36872434157E+02  0.51100000000E-03 0. -1.
        -11    1    3    3    0    0 -0.35464615682E+01 -0.63934797271E+01  0.98809481389E+00  0.73776896315E+01  0.51100000000E-03 0.  1.
         12    1    3    3    0    0 -0.37597380243E+01 -0.47508728687E+01 -0.16480913402E+01  0.62787441492E+01  0.00000000000E+00 0. -1.
</event>
<event>
 7    1  0.9978258E-013  0.5052884E+02  0.7816164E-02  0.1300439E+00
        -11   -1    0    0    0    0  0.00000000000E+00  0.00000000000E+00  0.45593999997E+02  0.45594000000E+02  0.51100000000E-03 0.  1.
         11   -1    0    0    0    0 -0.00000000000E+00 -0.00000000000E+00 -0.45593999997E+02  0.45594000000E+02  0.51100000000E-03 0. -1.
    9900012    2    1    2    0    0  0.12219455417E+02 -0.15254563515E+02 -0.35653193474E+02  0.50528843546E+02  0.29999950441E+02 0.  0.
        -12    1    1    2    0    0 -0.12219455417E+02  0.15254563515E+02  0.35653193474E+02  0.40659156454E+02  0.00000000000E+00 0.  1.
         11    1    3    3    0    0 -0.12978463575E+01 -0.17761857469E+02 -0.29404908526E+02  0.34377560000E+02  0.51100000000E-03 0. -1.
        -11    1    3    3    0    0  0.90992946093E+01 -0.11196283861E+01 -0.41318058250E+01  0.10055970851E+02  0.51100000000E-03 0.  1.
         12    1    3    3    0    0  0.44180071650E+01  0.36269223400E+01 -0.21164791228E+01  0.60953126948E+01  0.00000000000E+00 0. -1.
</event>
<event>
 7    1  0.9978258E-013  0.5052891E+02  0.7816164E-02  0.1300439E+00
        -11   -1    0    0    0    0  0.00000000000E+00  0.00000000000E+00  0.45593999997E+02  0.45594000000E+02  0.51100000000E-03 0.  1.
         11   -1    0    0    0    0 -0.00000000000E+00 -0.00000000000E+00 -0.45593999997E+02  0.45594000000E+02  0.51100000000E-03 0. -1.
    9900012    2    1    2    0    0 -0.35401267611E+02  0.11315823193E+02 -0.16488289683E+02  0.50528913689E+02  0.30000163649E+02 0.  0.
        -12    1    1    2    0    0  0.35401267611E+02 -0.11315823193E+02  0.16488289683E+02  0.40659086311E+02  0.00000000000E+00 0.  1.
         11    1    3    3    0    0 -0.32543660603E+02  0.75798323718E+01 -0.12853743927E+02  0.35801709979E+02  0.51100000000E-03 0. -1.
        -11    1    3    3    0    0  0.30512843488E+01 -0.15138019542E+01  0.28986133895E+01  0.44725711147E+01  0.51100000000E-03 0.  1.
        -12    1    3    3    0    0 -0.59088913568E+01  0.52497927754E+01 -0.65331591455E+01  0.10254632596E+02  0.00000000000E+00 0.  1.
</event>
<event>
 7    1  0.9978258E-013  0.5052886E+02  0.7816164E-02  0.1300439E+00
        -11   -1    0    0    0    0  0.00000000000E+00  0.00000000000E+00  0.45593999997E+02  0.45594000000E+02  0.51100000000E-03 0. -1.
         11   -1    0    0    0    0 -0.00000000000E+00 -0.00000000000E+00 -0.45593999997E+02  0.45594000000E+02  0.51100000000E-03 0.  1.
    9900012    2    1    2    0    0  0.27072334343E+02  0.29079529673E+02  0.86391781533E+01  0.50528859183E+02  0.29999997974E+02 0.  0.
        -12    1    1    2    0    0 -0.27072334343E+02 -0.29079529673E+02 -0.86391781533E+01  0.40659140817E+02  0.00000000000E+00 0.  1.
         11    1    3    3    0    0  0.21403929775E+02  0.14279344355E+02 -0.16881520829E+01  0.25785223341E+02  0.51100000000E-03 0. -1.
        -11    1    3    3    0    0  0.47547697264E+01  0.13931659561E+02  0.14332030814E+02  0.20545220388E+02  0.51100000000E-03 0.  1.
         12    1    3    3    0    0  0.91363484172E+00  0.86852575725E+00 -0.40047005776E+01  0.41984154548E+01  0.00000000000E+00 0. -1.
</event>
<event>
 7    1  0.9978258E-013  0.5052886E+02  0.7816164E-02  0.1300439E+00
        -11   -1    0    0    0    0  0.00000000000E+00  0.00000000000E+00  0.45593999997E+02  0.45594000000E+02  0.51100000000E-03 0.  1.
         11   -1    0    0    0    0 -0.00000000000E+00 -0.00000000000E+00 -0.45593999997E+02  0.45594000000E+02  0.51100000000E-03 0. -1.
    9900012    2    1    2    0    0  0.34897687165E+02 -0.84700204207E+01 -0.19067664539E+02  0.50528860235E+02  0.30000001171E+02 0.  0.
        -12    1    1    2    0    0 -0.34897687165E+02  0.84700204207E+01  0.19067664539E+02  0.40659139765E+02  0.00000000000E+00 0.  1.
         11    1    3    3    0    0  0.14794368746E+02 -0.28396771452E+01 -0.18657393270E+02  0.23979896513E+02  0.51100000000E-03 0. -1.
        -11    1    3    3    0    0  0.16020762815E+02 -0.42338803423E+00  0.62115211523E+01  0.17187992724E+02  0.51100000000E-03 0.  1.
        -12    1    3    3    0    0  0.40825556041E+01 -0.52069552412E+01 -0.66217924220E+01  0.93609709979E+01  0.00000000000E+00 0.  1.
</event>
<event>
 7    1  0.9978258E-013  0.5052886E+02  0.7816164E-02  0.1300439E+00
        -11   -1    0    0    0    0  0.00000000000E+00  0.00000000000E+00  0.45593999997E+02  0.45594000000E+02  0.51100000000E-03 0.  1.
         11   -1    0    0    0    0 -0.00000000000E+00 -0.00000000000E+00 -0.45593999997E+02  0.45594000000E+02  0.51100000000E-03 0. -1.
    9900012    2    1    2    0    0  0.25328251937E+01  0.31183214174E+02 -0.25968394372E+02  0.50528861348E+02  0.30000004553E+02 0.  0.
        -12    1    1    2    0    0 -0.25328251937E+01 -0.31183214174E+02  0.25968394372E+02  0.40659138652E+02  0.00000000000E+00 0.  1.
         11    1    3    3    0    0 -0.87867925474E+01  0.14705811516E+02 -0.17322517819E+02  0.24362640240E+02  0.51100000000E-03 0. -1.
        -11    1    3    3    0    0  0.14694268174E+02  0.11412101299E+02 -0.62928446355E+01  0.19640709434E+02  0.51100000000E-03 0.  1.
        -12    1    3    3    0    0 -0.33746504324E+01  0.50653013588E+01 -0.23530319176E+01  0.65255116736E+01  0.00000000000E+00 0.  1.
</event>
<event>
 7    1  0.9978258E-013  0.5052887E+02  0.7816164E-02  0.1300439E+00
        -11   -1    0    0    0    0  0.00000000000E+00  0.00000000000E+00  0.45593999997E+02  0.45594000000E+02  0.51100000000E-03 0.  1.
         11   -1    0    0    0    0 -0.00000000000E+00 -0.00000000000E+00 -0.45593999997E+02  0.45594000000E+02  0.51100000000E-03 0. -1.
    9900012    2    1    2    0    0  0.29361005673E+02 -0.70399624167E+00 -0.28117626179E+02  0.50528866133E+02  0.30000019099E+02 0.  0.
        -12    1    1    2    0    0 -0.29361005673E+02  0.70399624167E+00  0.28117626179E+02  0.40659133867E+02  0.00000000000E+00 0.  1.
         11    1    3    3    0    0  0.34973397467E+01 -0.70346446224E+01 -0.15839366147E+02  0.17680586259E+02  0.51100000000E-03 0. -1.
        -11    1    3    3    0    0  0.26914109905E+02  0.43561106258E+01 -0.13362420826E+02  0.30362794706E+02  0.51100000000E-03 0.  1.
        -12    1    3    3    0    0 -0.10504439789E+01  0.19745377550E+01  0.10841607930E+01  0.24854851687E+01  0.00000000000E+00 0.  1.
</event>
<event>
 7    1  0.9978258E-013  0.5052887E+02  0.7816164E-02  0.1300439E+00
        -11   -1    0    0    0    0  0.00000000000E+00  0.00000000000E+00  0.45593999997E+02  0.45594000000E+02  0.51100000000E-03 0.  1.
         11   -1    0    0    0    0 -0.00000000000E+00 -0.00000000000E+00 -0.45593999997E+02  0.45594000000E+02  0.51100000000E-03 0. -1.
    9900012    2    1    2    0    0 -0.13596958768E+02  0.18102978325E+02 -0.33772319633E+02  0.50528872054E+02  0.30000037094E+02 0.  0.
        -12    1    1    2    0    0  0.13596958768E+02 -0.18102978325E+02  0.33772319633E+02  0.40659127946E+02  0.00000000000E+00 0.  1.
         11    1    3    3    0    0 -0.11997378524E+02  0.12780124499E+02 -0.14798958382E+02  0.22940746351E+02  0.51100000000E-03 0. -1.
        -11    1    3    3    0    0  0.87713772957E+00 -0.61321794074E+01 -0.13074164158E+02  0.14467438045E+02  0.51100000000E-03 0.  1.
        -12    1    3    3    0    0 -0.24767179734E+01  0.11455033233E+02 -0.58991970926E+01  0.13120687658E+02  0.00000000000E+00 0.  1.
</event>
<event>
 7    1  0.9978258E-013  0.5052886E+02  0.7816164E-02  0.1300439E+00
        -11   -1    0    0    0    0  0.00000000000E+00  0.00000000000E+00  0.45593999997E+02  0.45594000000E+02  0.51100000000E-03 0. -1.
         11   -1    0    0    0    0 -0.00000000000E+00 -0.00000000000E+00 -0.45593999997E+02  0.45594000000E+02  0.51100000000E-03 0.  1.
    9900012    2    1    2    0    0 -0.16738111474E+02  0.25779093281E+02  0.26616535494E+02  0.50528856037E+02  0.29999988411E+02 0.  0.
        -12    1    1    2    0    0  0.16738111474E+02 -0.25779093281E+02 -0.26616535494E+02  0.40659143963E+02  0.00000000000E+00 0.  1.
         11    1    3    3    0    0 -0.17327627417E+02  0.43036918207E+01  0.58868781758E+01  0.18799568349E+02  0.51100000000E-03 0. -1.
        -11    1    3    3    0    0  0.11171592644E+01  0.14560370655E+02  0.66743450001E+01  0.16056130289E+02  0.51100000000E-03 0.  1.
        -12    1    3    3    0    0 -0.52764332152E+00  0.69150308058E+01  0.14055312318E+02  0.15673157399E+02  0.00000000000E+00 0.  1.
</event>
<event>
 7    1  0.9978258E-013  0.5052885E+02  0.7816164E-02  0.1300439E+00
        -11   -1    0    0    0    0  0.00000000000E+00  0.00000000000E+00  0.45593999997E+02  0.45594000000E+02  0.51100000000E-03 0.  1.
         11   -1    0    0    0    0 -0.00000000000E+00 -0.00000000000E+00 -0.45593999997E+02  0.45594000000E+02  0.51100000000E-03 0. -1.
    9900012    2    1    2    0    0  0.13792888731E+02 -0.36812413631E+02  0.10381180431E+02  0.50528849935E+02  0.29999969863E+02 0.  0.
        -12    1    1    2    0    0 -0.13792888731E+02  0.36812413631E+02 -0.10381180431E+02  0.40659150065E+02  0.00000000000E+00 0.  1.
         11    1    3    3    0    0  0.68975347107E+01 -0.27366588377E+02 -0.48122854877E+01  0.28629778839E+02  0.51100000000E-03 0. -1.
        -11    1    3    3    0    0 -0.76006684530E+00  0.13178996447E+01 -0.28829254477E+00  0.15484424223E+01  0.51100000000E-03 0.  1.
         12    1    3    3    0    0  0.76554208658E+01 -0.10763724898E+02  0.15481758463E+02  0.20350628674E+02  0.00000000000E+00 0. -1.
</event>
<event>
 7    1  0.9978258E-013  0.5052888E+02  0.7816164E-02  0.1300439E+00
        -11   -1    0    0    0    0  0.00000000000E+00  0.00000000000E+00  0.45593999997E+02  0.45594000000E+02  0.51100000000E-03 0. -1.
         11   -1    0    0    0    0 -0.00000000000E+00 -0.00000000000E+00 -0.45593999997E+02  0.45594000000E+02  0.51100000000E-03 0.  1.
    9900012    2    1    2    0    0  0.60362213694E+01  0.39283753117E+01  0.40016195275E+02  0.50528880663E+02  0.30000063262E+02 0.  0.
        -12    1    1    2    0    0 -0.60362213694E+01 -0.39283753117E+01 -0.40016195275E+02  0.40659119337E+02  0.00000000000E+00 0.  1.
         11    1    3    3    0    0 -0.48243044789E+00 -0.10451545312E+02  0.10292384519E+02  0.14676536304E+02  0.51100000000E-03 0.  1.
        -11    1    3    3    0    0  0.98478578606E+01  0.74308486721E+01  0.18677705200E+02  0.22384246430E+02  0.51100000000E-03 0. -1.
        -12    1    3    3    0    0 -0.33292060433E+01  0.69490719512E+01  0.11046105556E+02  0.13468097929E+02  0.00000000000E+00 0.  1.
</event>
<event>
 7    1  0.9978258E-013  0.5052886E+02  0.7816164E-02  0.1300439E+00
        -11   -1    0    0    0    0  0.00000000000E+00  0.00000000000E+00  0.45593999997E+02  0.45594000000E+02  0.51100000000E-03 0.  1.
         11   -1    0    0    0    0 -0.00000000000E+00 -0.00000000000E+00 -0.45593999997E+02  0.45594000000E+02  0.51100000000E-03 0. -1.
    9900012    2    1    2    0    0 -0.65705831259E+01 -0.40061180150E+02  0.22571790625E+01  0.50528861114E+02  0.30000003842E+02 0.  0.
        -12    1    1    2    0    0  0.65705831259E+01  0.40061180150E+02 -0.22571790625E+01  0.40659138886E+02  0.00000000000E+00 0.  1.
         11    1    3    3    0    0 -0.11878193131E+01 -0.20448215375E+02  0.11597773220E+02  0.23538240602E+02  0.51100000000E-03 0. -1.
        -11    1    3    3    0    0 -0.61533059412E+01 -0.38669954152E+01 -0.85283602875E+01  0.11204898795E+02  0.51100000000E-03 0.  1.
         12    1    3    3    0    0  0.77054212841E+00 -0.15745969360E+02 -0.81223386991E+00  0.15785721717E+02  0.00000000000E+00 0. -1.
</event>
<event>
 7    1  0.9978258E-013  0.5052887E+02  0.7816164E-02  0.1300439E+00
        -11   -1    0    0    0    0  0.00000000000E+00  0.00000000000E+00  0.45593999997E+02  0.45594000000E+02  0.51100000000E-03 0.  1.
         11   -1    0    0    0    0 -0.00000000000E+00 -0.00000000000E+00 -0.45593999997E+02  0.45594000000E+02  0.51100000000E-03 0. -1.
    9900012    2    1    2    0    0 -0.11341716691E+02  0.30390569981E+02 -0.24514157249E+02  0.50528865886E+02  0.30000018346E+02 0.  0.
        -12    1    1    2    0    0  0.11341716691E+02 -0.30390569981E+02  0.24514157249E+02  0.40659134114E+02  0.00000000000E+00 0.  1.
         11    1    3    3    0    0 -0.15645631606E+02  0.10673949439E+02 -0.12374270244E+02  0.22623915429E+02  0.51100000000E-03 0. -1.
        -11    1    3    3    0    0  0.56821950194E+01  0.43684332416E+01  0.15033563064E+01  0.73232936354E+01  0.51100000000E-03 0.  1.
         12    1    3    3    0    0 -0.13782801043E+01  0.15348187301E+02 -0.13643243312E+02  0.20581656822E+02  0.00000000000E+00 0. -1.
</event>
<event>
 7    1  0.9978258E-013  0.5052888E+02  0.7816164E-02  0.1300439E+00
        -11   -1    0    0    0    0  0.00000000000E+00  0.00000000000E+00  0.45593999997E+02  0.45594000000E+02  0.51100000000E-03 0.  1.
         11   -1    0    0    0    0 -0.00000000000E+00 -0.00000000000E+00 -0.45593999997E+02  0.45594000000E+02  0.51100000000E-03 0. -1.
    9900012    2    1    2    0    0  0.32166641164E+02 -0.83950892278E+01 -0.23409265140E+02  0.50528880220E+02  0.30000061915E+02 0.  0.
        -12    1    1    2    0    0 -0.32166641164E+02  0.83950892278E+01  0.23409265140E+02  0.40659119780E+02  0.00000000000E+00 0.  1.
         11    1    3    3    0    0  0.30593257829E+01 -0.38555994645E+01 -0.12134522910E+02  0.13094722906E+02  0.51100000000E-03 0. -1.
        -11    1    3    3    0    0  0.28350351774E+02  0.23667135358E+01 -0.10935438070E+02  0.30478313351E+02  0.51100000000E-03 0.  1.
        -12    1    3    3    0    0  0.75696360687E+00 -0.69062032991E+01 -0.33930415955E+00  0.69558439620E+01  0.00000000000E+00 0.  1.
</event>
<event>
 7    1  0.9978258E-013  0.5052890E+02  0.7816164E-02  0.1300439E+00
        -11   -1    0    0    0    0  0.00000000000E+00  0.00000000000E+00  0.45593999997E+02  0.45594000000E+02  0.51100000000E-03 0.  1.
         11   -1    0    0    0    0 -0.00000000000E+00 -0.00000000000E+00 -0.45593999997E+02  0.45594000000E+02  0.51100000000E-03 0. -1.
    9900012    2    1    2    0    0  0.31463283373E+02 -0.87222577039E+01 -0.24231105510E+02  0.50528899490E+02  0.30000120488E+02 0.  0.
        -12    1    1    2    0    0 -0.31463283373E+02  0.87222577039E+01  0.24231105510E+02  0.40659100510E+02  0.00000000000E+00 0.  1.
         11    1    3    3    0    0  0.24131418688E+02 -0.17245981315E+02 -0.22894690841E+02  0.37468868523E+02  0.51100000000E-03 0. -1.
        -11    1    3    3    0    0  0.37414050777E+01  0.68662621936E+01  0.17866656056E+01  0.80209627049E+01  0.51100000000E-03 0.  1.
         12    1    3    3    0    0  0.35904596075E+01  0.16574614176E+01 -0.31230802749E+01  0.50390682618E+01  0.00000000000E+00 0. -1.
</event>
<event>
 7    1  0.9978258E-013  0.5052886E+02  0.7816164E-02  0.1300439E+00
        -11   -1    0    0    0    0  0.00000000000E+00  0.00000000000E+00  0.45593999997E+02  0.45594000000E+02  0.51100000000E-03 0.  1.
         11   -1    0    0    0    0 -0.00000000000E+00 -0.00000000000E+00 -0.45593999997E+02  0.45594000000E+02  0.51100000000E-03 0. -1.
    9900012    2    1    2    0    0 -0.24440401283E+02  0.90056216027E+01 -0.31220686814E+02  0.50528859324E+02  0.29999998402E+02 0.  0.
        -12    1    1    2    0    0  0.24440401283E+02 -0.90056216027E+01  0.31220686814E+02  0.40659140676E+02  0.00000000000E+00 0.  1.
         11    1    3    3    0    0 -0.15101600768E+01 -0.36531315585E+00 -0.14204891171E+02  0.14289610582E+02  0.51100000000E-03 0. -1.
        -11    1    3    3    0    0 -0.20348458116E+02  0.63734635440E+01 -0.28276747081E+01  0.21509917010E+02  0.51100000000E-03 0.  1.
        -12    1    3    3    0    0 -0.25817830906E+01  0.29974712145E+01 -0.14188120936E+02  0.14729331733E+02  0.00000000000E+00 0.  1.
</event>
<event>
 7    1  0.9978258E-013  0.5052886E+02  0.7816164E-02  0.1300439E+00
        -11   -1    0    0    0    0  0.00000000000E+00  0.00000000000E+00  0.45593999997E+02  0.45594000000E+02  0.51100000000E-03 0. -1.
         11   -1    0    0    0    0 -0.00000000000E+00 -0.00000000000E+00 -0.45593999997E+02  0.45594000000E+02  0.51100000000E-03 0.  1.
    9900012    2    1    2    0    0  0.31360902138E+02  0.68829939209E+01  0.24945614132E+02  0.50528862618E+02  0.30000008415E+02 0.  0.
        -12    1    1    2    0    0 -0.31360902138E+02 -0.68829939209E+01 -0.24945614132E+02  0.40659137382E+02  0.00000000000E+00 0.  1.
         11    1    3    3    0    0  0.97506264870E+01 -0.41767422262E+01  0.99561498618E+00  0.10654160782E+02  0.51100000000E-03 0. -1.
        -11    1    3    3    0    0  0.13191548279E+02 -0.23280837196E+01  0.19107228330E+02  0.23335018631E+02  0.51100000000E-03 0.  1.
        -12    1    3    3    0    0  0.84187273716E+01  0.13387819867E+02  0.48427708157E+01  0.16539683205E+02  0.00000000000E+00 0.  1.
</event>
<event>
 7    1  0.9978258E-013  0.5052886E+02  0.7816164E-02  0.1300439E+00
        -11   -1    0    0    0    0  0.00000000000E+00  0.00000000000E+00  0.45593999997E+02  0.45594000000E+02  0.51100000000E-03 0. -1.
         11   -1    0    0    0    0 -0.00000000000E+00 -0.00000000000E+00 -0.45593999997E+02  0.45594000000E+02  0.51100000000E-03 0.  1.
    9900012    2    1    2    0    0  0.23622805208E+02  0.26987862268E+02  0.19151608574E+02  0.50528859003E+02  0.29999997424E+02 0.  0.
        -12    1    1    2    0    0 -0.23622805208E+02 -0.26987862268E+02 -0.19151608574E+02  0.40659140997E+02  0.00000000000E+00 0.  1.
         11    1    3    3    0    0  0.12620334252E+02  0.27600101260E+01  0.10118172899E+02  0.16409384986E+02  0.51100000000E-03 0. -1.
        -11    1    3    3    0    0 -0.53326494273E+01  0.93775079957E+01  0.37362860154E+01  0.11416419735E+02  0.51100000000E-03 0.  1.
        -12    1    3    3    0    0  0.16335120384E+02  0.14850344146E+02  0.52971496591E+01  0.22703054282E+02  0.00000000000E+00 0.  1.
</event>
<event>
 7    1  0.9978258E-013  0.5052887E+02  0.7816164E-02  0.1300439E+00
        -11   -1    0    0    0    0  0.00000000000E+00  0.00000000000E+00  0.45593999997E+02  0.45594000000E+02  0.51100000000E-03 0.  1.
         11   -1    0    0    0    0 -0.00000000000E+00 -0.00000000000E+00 -0.45593999997E+02  0.45594000000E+02  0.51100000000E-03 0. -1.
    9900012    2    1    2    0    0  0.18178615031E+02 -0.34600819336E+02 -0.11202056104E+02  0.50528870593E+02  0.30000032654E+02 0.  0.
        -12    1    1    2    0    0 -0.18178615031E+02  0.34600819336E+02  0.11202056104E+02  0.40659129407E+02  0.00000000000E+00 0.  1.
         11    1    3    3    0    0  0.16632617058E+02 -0.18473794685E+02  0.64127046543E+01  0.25671926719E+02  0.51100000000E-03 0. -1.
        -11    1    3    3    0    0 -0.20752832823E+01 -0.18230411346E+01 -0.23520865766E+01  0.36280285563E+01  0.51100000000E-03 0.  1.
         12    1    3    3    0    0  0.36212812558E+01 -0.14303983517E+02 -0.15262674181E+02  0.21228915317E+02  0.00000000000E+00 0. -1.
</event>
<event>
 7    1  0.9978258E-013  0.5052885E+02  0.7816164E-02  0.1300439E+00
        -11   -1    0    0    0    0  0.00000000000E+00  0.00000000000E+00  0.45593999997E+02  0.45594000000E+02  0.51100000000E-03 0. -1.
         11   -1    0    0    0    0 -0.00000000000E+00 -0.00000000000E+00 -0.45593999997E+02  0.45594000000E+02  0.51100000000E-03 0.  1.
    9900012    2    1    2    0    0 -0.39298107180E+02 -0.61226497948E+01  0.84461834915E+01  0.50528854854E+02  0.29999984815E+02 0.  0.
        -12    1    1    2    0    0  0.39298107180E+02  0.61226497948E+01 -0.84461834915E+01  0.40659145146E+02  0.00000000000E+00 0.  1.
         11    1    3    3    0    0 -0.19809292584E+02 -0.74689399485E+01 -0.32888241882E+01  0.21424507029E+02  0.51100000000E-03 0. -1.
        -11    1    3    3    0    0 -0.30254637190E+01 -0.53128945334E+01  0.93702472745E+01  0.11188467870E+02  0.51100000000E-03 0.  1.
        -12    1    3    3    0    0 -0.16463350876E+02  0.66591846871E+01  0.23647604052E+01  0.17915879955E+02  0.00000000000E+00 0.  1.
</event>
<event>
 7    1  0.9978258E-013  0.5052891E+02  0.7816164E-02  0.1300439E+00
        -11   -1    0    0    0    0  0.00000000000E+00  0.00000000000E+00  0.45593999997E+02  0.45594000000E+02  0.51100000000E-03 0.  1.
         11   -1    0    0    0    0 -0.00000000000E+00 -0.00000000000E+00 -0.45593999997E+02  0.45594000000E+02  0.51100000000E-03 0. -1.
    9900012    2    1    2    0    0 -0.28648427891E+02 -0.35037606434E+01 -0.28638304215E+02  0.50528914575E+02  0.30000166343E+02 0.  0.
        -12    1    1    2    0    0  0.28648427891E+02  0.35037606434E+01  0.28638304215E+02  0.40659085425E+02  0.00000000000E+00 0.  1.
         11    1    3    3    0    0 -0.85362445606E+01  0.10832441074E+02 -0.67426650511E+01  0.15351637798E+02  0.51100000000E-03 0. -1.
        -11    1    3    3    0    0 -0.98369863767E+01 -0.12106903172E+02 -0.73888247400E+01  0.17260884586E+02  0.51100000000E-03 0.  1.
        -12    1    3    3    0    0 -0.10275196954E+02 -0.22292985458E+01 -0.14506814424E+02  0.17916392192E+02  0.00000000000E+00 0.  1.
</event>
<event>
 7    1  0.9978258E-013  0.5052886E+02  0.7816164E-02  0.1300439E+00
        -11   -1    0    0    0    0  0.00000000000E+00  0.00000000000E+00  0.45593999997E+02  0.45594000000E+02  0.51100000000E-03 0. -1.
         11   -1    0    0    0    0 -0.00000000000E+00 -0.00000000000E+00 -0.45593999997E+02  0.45594000000E+02  0.51100000000E-03 0.  1.
    9900012    2    1    2    0    0 -0.82438972314E+01 -0.39161948445E+02  0.71795301673E+01  0.50528859564E+02  0.29999999130E+02 0.  0.
        -12    1    1    2    0    0  0.82438972314E+01  0.39161948445E+02 -0.71795301673E+01  0.40659140436E+02  0.00000000000E+00 0.  1.
         11    1    3    3    0    0 -0.66208853297E+01 -0.97473080495E+01  0.65060224886E+01  0.13460106450E+02  0.51100000000E-03 0. -1.
        -11    1    3    3    0    0  0.13137661661E+01 -0.32274908457E+02  0.28503536255E+01  0.32427152412E+02  0.51100000000E-03 0.  1.
        -12    1    3    3    0    0 -0.29367780678E+01  0.28602680615E+01 -0.21768459468E+01  0.46416007023E+01  0.00000000000E+00 0.  1.
</event>
<event>
 7    1  0.9978258E-013  0.5052888E+02  0.7816164E-02  0.1300439E+00
        -11   -1    0    0    0    0  0.00000000000E+00  0.00000000000E+00  0.45593999997E+02  0.45594000000E+02  0.51100000000E-03 0. -1.
         11   -1    0    0    0    0 -0.00000000000E+00 -0.00000000000E+00 -0.45593999997E+02  0.45594000000E+02  0.51100000000E-03 0.  1.
    9900012    2    1    2    0    0 -0.25776118943E+02 -0.30193094987E+02  0.87825196878E+01  0.50528881162E+02  0.30000064779E+02 0.  0.
        -12    1    1    2    0    0  0.25776118943E+02  0.30193094987E+02 -0.87825196878E+01  0.40659118838E+02  0.00000000000E+00 0.  1.
         11    1    3    3    0    0 -0.97736056198E+00 -0.10271655710E+02  0.56834404419E+01  0.11779797970E+02  0.51100000000E-03 0. -1.
        -11    1    3    3    0    0 -0.21501264740E+02 -0.24738391340E+02  0.22978917281E+01  0.32856851617E+02  0.51100000000E-03 0.  1.
        -12    1    3    3    0    0 -0.32974936408E+01  0.48169520636E+01  0.80118751777E+00  0.58922315750E+01  0.00000000000E+00 0.  1.
</event>
<event>
 7    1  0.9978258E-013  0.5052886E+02  0.7816164E-02  0.1300439E+00
        -11   -1    0    0    0    0  0.00000000000E+00  0.00000000000E+00  0.45593999997E+02  0.45594000000E+02  0.51100000000E-03 0.  1.
         11   -1    0    0    0    0 -0.00000000000E+00 -0.00000000000E+00 -0.45593999997E+02  0.45594000000E+02  0.51100000000E-03 0. -1.
    9900012    2    1    2    0    0  0.15557372529E+02 -0.29105430249E+02 -0.23748847350E+02  0.50528860062E+02  0.30000000645E+02 0.  0.
        -12    1    1    2    0    0 -0.15557372529E+02  0.29105430249E+02  0.23748847350E+02  0.40659139938E+02  0.00000000000E+00 0.  1.
         11    1    3    3    0    0  0.18953288349E+02 -0.18361108680E+02 -0.14431336235E+02  0.30076916680E+02  0.51100000000E-03 0.  1.
        -11    1    3    3    0    0 -0.40647905955E+01  0.66565321160E+00 -0.79333330642E+01  0.89388696462E+01  0.51100000000E-03 0. -1.
         12    1    3    3    0    0  0.66887477532E+00 -0.11409974781E+02 -0.13841780514E+01  0.11513073736E+02  0.00000000000E+00 0. -1.
</event>
<event>
 7    1  0.9978258E-013  0.5052886E+02  0.7816164E-02  0.1300439E+00
        -11   -1    0    0    0    0  0.00000000000E+00  0.00000000000E+00  0.45593999997E+02  0.45594000000E+02  0.51100000000E-03 0. -1.
         11   -1    0    0    0    0 -0.00000000000E+00 -0.00000000000E+00 -0.45593999997E+02  0.45594000000E+02  0.51100000000E-03 0.  1.
    9900012    2    1    2    0    0  0.37034205314E+02 -0.16537453403E+02  0.28541018999E+01  0.50528860487E+02  0.30000001935E+02 0.  0.
        -12    1    1    2    0    0 -0.37034205314E+02  0.16537453403E+02 -0.28541018999E+01  0.40659139513E+02  0.00000000000E+00 0.  1.
         11    1    3    3    0    0  0.37287923794E+02 -0.15519473342E+02  0.60247207294E+01  0.40835530777E+02  0.51100000000E-03 0. -1.
        -11    1    3    3    0    0  0.27115345768E+01  0.36636233899E+00 -0.51764006055E+01  0.58550631605E+01  0.51100000000E-03 0.  1.
         12    1    3    3    0    0 -0.29652530568E+01 -0.13843424001E+01  0.20057817760E+01  0.38382665494E+01  0.00000000000E+00 0. -1.
</event>
<event>
 7    1  0.9978258E-013  0.5052887E+02  0.7816164E-02  0.1300439E+00
        -11   -1    0    0    0    0  0.00000000000E+00  0.00000000000E+00  0.45593999997E+02  0.45594000000E+02  0.51100000000E-03 0. -1.
         11   -1    0    0    0    0 -0.00000000000E+00 -0.00000000000E+00 -0.45593999997E+02  0.45594000000E+02  0.51100000000E-03 0.  1.
    9900012    2    1    2    0    0 -0.34802880453E+02  0.16435128546E+02 -0.13107655728E+02  0.50528873388E+02  0.30000041151E+02 0.  0.
        -12    1    1    2    0    0  0.34802880453E+02 -0.16435128546E+02  0.13107655728E+02  0.40659126612E+02  0.00000000000E+00 0.  1.
         11    1    3    3    0    0 -0.46171313130E+01  0.63121763456E+01 -0.35836197642E+01  0.86025462891E+01  0.51100000000E-03 0.  1.
        -11    1    3    3    0    0 -0.10160192184E+02  0.30793000823E+01  0.88725292084E+01  0.13835944819E+02  0.51100000000E-03 0. -1.
        -12    1    3    3    0    0 -0.20025556956E+02  0.70436521185E+01 -0.18396565172E+02  0.28090382281E+02  0.00000000000E+00 0.  1.
</event>
<event>
 7    1  0.9978258E-013  0.5052886E+02  0.7816164E-02  0.1300439E+00
        -11   -1    0    0    0    0  0.00000000000E+00  0.00000000000E+00  0.45593999997E+02  0.45594000000E+02  0.51100000000E-03 0. -1.
         11   -1    0    0    0    0 -0.00000000000E+00 -0.00000000000E+00 -0.45593999997E+02  0.45594000000E+02  0.51100000000E-03 0.  1.
    9900012    2    1    2    0    0 -0.18273358184E+02 -0.17242121056E+02  0.31968104629E+02  0.50528855009E+02  0.29999985286E+02 0.  0.
        -12    1    1    2    0    0  0.18273358184E+02  0.17242121056E+02 -0.31968104629E+02  0.40659144991E+02  0.00000000000E+00 0.  1.
         11    1    3    3    0    0  0.58992573723E+01  0.18311299856E+01  0.10378261660E+01  0.62634940713E+01  0.51100000000E-03 0. -1.
        -11    1    3    3    0    0 -0.12870998703E+02 -0.13015715388E+02  0.14094224854E+02  0.23102351161E+02  0.51100000000E-03 0.  1.
        -12    1    3    3    0    0 -0.11301616853E+02 -0.60575356540E+01  0.16836053608E+02  0.21163009776E+02  0.00000000000E+00 0.  1.
</event>
<event>
 7    1  0.9978258E-013  0.5052884E+02  0.7816164E-02  0.1300439E+00
        -11   -1    0    0    0    0  0.00000000000E+00  0.00000000000E+00  0.45593999997E+02  0.45594000000E+02  0.51100000000E-03 0. -1.
         11   -1    0    0    0    0 -0.00000000000E+00 -0.00000000000E+00 -0.45593999997E+02  0.45594000000E+02  0.51100000000E-03 0.  1.
    9900012    2    1    2    0    0 -0.33110515870E+02  0.35948224477E+01  0.23322485405E+02  0.50528839469E+02  0.29999938050E+02 0.  0.
        -12    1    1    2    0    0  0.33110515870E+02 -0.35948224477E+01 -0.23322485405E+02  0.40659160531E+02  0.00000000000E+00 0.  1.
         11    1    3    3    0    0 -0.21271788125E+02  0.14956215217E+02  0.17939306677E+02  0.31591075765E+02  0.51100000000E-03 0. -1.
        -11    1    3    3    0    0 -0.48031977274E+01 -0.97215928509E+01  0.23078266268E+01  0.11086304162E+02  0.51100000000E-03 0.  1.
         12    1    3    3    0    0 -0.70355300173E+01 -0.16397999184E+01  0.30753521016E+01  0.78514595424E+01  0.00000000000E+00 0. -1.
</event>
<event>
 7    1  0.9978258E-013  0.5052886E+02  0.7816164E-02  0.1300439E+00
        -11   -1    0    0    0    0  0.00000000000E+00  0.00000000000E+00  0.45593999997E+02  0.45594000000E+02  0.51100000000E-03 0.  1.
         11   -1    0    0    0    0 -0.00000000000E+00 -0.00000000000E+00 -0.45593999997E+02  0.45594000000E+02  0.51100000000E-03 0. -1.
    9900012    2    1    2    0    0  0.22023096485E+02 -0.24877455493E+02 -0.23436315472E+02  0.50528862607E+02  0.30000008381E+02 0.  0.
        -12    1    1    2    0    0 -0.22023096485E+02  0.24877455493E+02  0.23436315472E+02  0.40659137393E+02  0.00000000000E+00 0.  1.
         11    1    3    3    0    0  0.16019759860E+02 -0.73968545989E+01  0.22595826998E+01  0.17789094360E+02  0.51100000000E-03 0. -1.
        -11    1    3    3    0    0 -0.14845172021E+01 -0.60276684409E+01 -0.11202208899E+02  0.12807266009E+02  0.51100000000E-03 0.  1.
         12    1    3    3    0    0  0.74878538275E+01 -0.11452932453E+02 -0.14493689272E+02  0.19932502238E+02  0.00000000000E+00 0. -1.
</event>
<event>
 7    1  0.9978258E-013  0.5052886E+02  0.7816164E-02  0.1300439E+00
        -11   -1    0    0    0    0  0.00000000000E+00  0.00000000000E+00  0.45593999997E+02  0.45594000000E+02  0.51100000000E-03 0.  1.
         11   -1    0    0    0    0 -0.00000000000E+00 -0.00000000000E+00 -0.45593999997E+02  0.45594000000E+02  0.51100000000E-03 0. -1.
    9900012    2    1    2    0    0 -0.29982306201E+02  0.12040119360E+02 -0.24683239755E+02  0.50528862231E+02  0.30000007237E+02 0.  0.
        -12    1    1    2    0    0  0.29982306201E+02 -0.12040119360E+02  0.24683239755E+02  0.40659137769E+02  0.00000000000E+00 0.  1.
         11    1    3    3    0    0 -0.24697910675E+02  0.11233760472E+02 -0.78781098889E+01  0.28253296829E+02  0.51100000000E-03 0.  1.
        -11    1    3    3    0    0  0.30556040466E+01  0.25406125084E+01 -0.67009155272E+00  0.40299442871E+01  0.51100000000E-03 0. -1.
         12    1    3    3    0    0 -0.83399995729E+01 -0.17342536202E+01 -0.16135038313E+02  0.18245621115E+02  0.00000000000E+00 0. -1.
</event>
<event>
 7    1  0.9978258E-013  0.5052886E+02  0.7816164E-02  0.1300439E+00
        -11   -1    0    0    0    0  0.00000000000E+00  0.00000000000E+00  0.45593999997E+02  0.45594000000E+02  0.51100000000E-03 0. -1.
         11   -1    0    0    0    0 -0.00000000000E+00 -0.00000000000E+00 -0.45593999997E+02  0.45594000000E+02  0.51100000000E-03 0.  1.
    9900012    2    1    2    0    0 -0.37775404827E+02  0.12570195720E+02  0.82567938483E+01  0.50528859884E+02  0.30000000104E+02 0.  0.
        -12    1    1    2    0    0  0.37775404827E+02 -0.12570195720E+02 -0.82567938483E+01  0.40659140116E+02  0.00000000000E+00 0.  1.
         11    1    3    3    0    0 -0.19926535010E+02  0.89666274434E+01 -0.17018721587E+00  0.21851685728E+02  0.51100000000E-03 0. -1.
        -11    1    3    3    0    0 -0.46381857947E+01 -0.81175216448E+01  0.62587489261E+00  0.93700931032E+01  0.51100000000E-03 0.  1.
        -12    1    3    3    0    0 -0.13210684022E+02  0.11721089921E+02  0.78011061716E+01  0.19307081053E+02  0.00000000000E+00 0.  1.
</event>
<event>
 7    1  0.9978258E-013  0.5052886E+02  0.7816164E-02  0.1300439E+00
        -11   -1    0    0    0    0  0.00000000000E+00  0.00000000000E+00  0.45593999997E+02  0.45594000000E+02  0.51100000000E-03 0.  1.
         11   -1    0    0    0    0 -0.00000000000E+00 -0.00000000000E+00 -0.45593999997E+02  0.45594000000E+02  0.51100000000E-03 0. -1.
    9900012    2    1    2    0    0 -0.17527611357E+02  0.92723223706E+01 -0.35496091380E+02  0.50528860495E+02  0.30000001960E+02 0.  0.
        -12    1    1    2    0    0  0.17527611357E+02 -0.92723223706E+01  0.35496091380E+02  0.40659139505E+02  0.00000000000E+00 0.  1.
         11    1    3    3    0    0 -0.71470819261E+01  0.14584690651E+02 -0.24139528717E+02  0.29094859140E+02  0.51100000000E-03 0. -1.
        -11    1    3    3    0    0 -0.11814325184E+02 -0.18243270857E+01 -0.30890977467E+01  0.12347022881E+02  0.51100000000E-03 0.  1.
        -12    1    3    3    0    0  0.14337957523E+01 -0.34880411951E+01 -0.82674649164E+01  0.90869784738E+01  0.00000000000E+00 0.  1.
</event>
<event>
 7    1  0.9978258E-013  0.5052887E+02  0.7816164E-02  0.1300439E+00
        -11   -1    0    0    0    0  0.00000000000E+00  0.00000000000E+00  0.45593999997E+02  0.45594000000E+02  0.51100000000E-03 0.  1.
         11   -1    0    0    0    0 -0.00000000000E+00 -0.00000000000E+00 -0.45593999997E+02  0.45594000000E+02  0.51100000000E-03 0. -1.
    9900012    2    1    2    0    0 -0.23058036105E+02 -0.27302114561E+02 -0.19392956308E+02  0.50528865198E+02  0.30000016255E+02 0.  0.
        -12    1    1    2    0    0  0.23058036105E+02  0.27302114561E+02  0.19392956308E+02  0.40659134802E+02  0.00000000000E+00 0.  1.
         11    1    3    3    0    0 -0.22492646666E+01  0.46363903787E+01 -0.92054063985E+01  0.10549635752E+02  0.51100000000E-03 0. -1.
        -11    1    3    3    0    0 -0.65691262097E+01 -0.63778542944E+01 -0.54590104393E+00  0.91721563860E+01  0.51100000000E-03 0.  1.
         12    1    3    3    0    0 -0.14239645229E+02 -0.25560650645E+02 -0.96416488653E+01  0.30807073059E+02  0.00000000000E+00 0. -1.
</event>
<event>
 7    1  0.9978258E-013  0.5052886E+02  0.7816164E-02  0.1300439E+00
        -11   -1    0    0    0    0  0.00000000000E+00  0.00000000000E+00  0.45593999997E+02  0.45594000000E+02  0.51100000000E-03 0.  1.
         11   -1    0    0    0    0 -0.00000000000E+00 -0.00000000000E+00 -0.45593999997E+02  0.45594000000E+02  0.51100000000E-03 0. -1.
    9900012    2    1    2    0    0  0.25164995768E+02 -0.24912961417E+02 -0.19980806549E+02  0.50528864631E+02  0.30000014532E+02 0.  0.
        -12    1    1    2    0    0 -0.25164995768E+02  0.24912961417E+02  0.19980806549E+02  0.40659135369E+02  0.00000000000E+00 0.  1.
         11    1    3    3    0    0  0.50603940345E+01 -0.12370393890E+02  0.30476057403E+00  0.13368885968E+02  0.51100000000E-03 0. -1.
        -11    1    3    3    0    0  0.18647651555E+02 -0.20060457130E+00 -0.13277821432E+02  0.22892699555E+02  0.51100000000E-03 0.  1.
        -12    1    3    3    0    0  0.14569501787E+01 -0.12341962956E+02 -0.70077456920E+01  0.14267279107E+02  0.00000000000E+00 0.  1.
</event>
<event>
 7    1  0.9978258E-013  0.5052886E+02  0.7816164E-02  0.1300439E+00
        -11   -1    0    0    0    0  0.00000000000E+00  0.00000000000E+00  0.45593999997E+02  0.45594000000E+02  0.51100000000E-03 0.  1.
         11   -1    0    0    0    0 -0.00000000000E+00 -0.00000000000E+00 -0.45593999997E+02  0.45594000000E+02  0.51100000000E-03 0. -1.
    9900012    2    1    2    0    0 -0.23355480067E+02  0.12341085963E+02 -0.30909303767E+02  0.50528856978E+02  0.29999991271E+02 0.  0.
        -12    1    1    2    0    0  0.23355480067E+02 -0.12341085963E+02  0.30909303767E+02  0.40659143022E+02  0.00000000000E+00 0.  1.
         11    1    3    3    0    0 -0.25574527791E+02  0.10344150875E+02 -0.30668605737E+02  0.41250712808E+02  0.51100000000E-03 0. -1.
        -11    1    3    3    0    0 -0.10310519298E+01  0.48449226893E+01 -0.16189538100E+00  0.49560623808E+01  0.51100000000E-03 0.  1.
         12    1    3    3    0    0  0.32500996534E+01 -0.28479876020E+01 -0.78802649023E-01  0.43220817896E+01  0.00000000000E+00 0. -1.
</event>
<event>
 7    1  0.9978258E-013  0.5052883E+02  0.7816164E-02  0.1300439E+00
        -11   -1    0    0    0    0  0.00000000000E+00  0.00000000000E+00  0.45593999997E+02  0.45594000000E+02  0.51100000000E-03 0.  1.
         11   -1    0    0    0    0 -0.00000000000E+00 -0.00000000000E+00 -0.45593999997E+02  0.45594000000E+02  0.51100000000E-03 0. -1.
    9900012    2    1    2    0    0 -0.39445467122E+02 -0.93243159040E+00  0.98159852602E+01  0.50528832869E+02  0.29999917988E+02 0.  0.
        -12    1    1    2    0    0  0.39445467122E+02  0.93243159040E+00 -0.98159852602E+01  0.40659167131E+02  0.00000000000E+00 0.  1.
         11    1    3    3    0    0 -0.11931662354E+01 -0.25236836565E+01 -0.75670751206E+00  0.28922709734E+01  0.51100000000E-03 0.  1.
        -11    1    3    3    0    0 -0.97114622717E+01  0.11570689539E+02  0.84930701244E+01  0.17329904681E+02  0.51100000000E-03 0. -1.
        -12    1    3    3    0    0 -0.28540838615E+02 -0.99794374726E+01  0.20796226479E+01  0.30306657214E+02  0.00000000000E+00 0.  1.
</event>
<event>
 7    1  0.9978258E-013  0.5052887E+02  0.7816164E-02  0.1300439E+00
        -11   -1    0    0    0    0  0.00000000000E+00  0.00000000000E+00  0.45593999997E+02  0.45594000000E+02  0.51100000000E-03 0. -1.
         11   -1    0    0    0    0 -0.00000000000E+00 -0.00000000000E+00 -0.45593999997E+02  0.45594000000E+02  0.51100000000E-03 0.  1.
    9900012    2    1    2    0    0 -0.28590353700E+02 -0.21713344215E+02 -0.19086314708E+02  0.50528867560E+02  0.30000023435E+02 0.  0.
        -12    1    1    2    0    0  0.28590353700E+02  0.21713344215E+02  0.19086314708E+02  0.40659132440E+02  0.00000000000E+00 0.  1.
         11    1    3    3    0    0 -0.36664915227E+00 -0.32429771558E+01  0.33030377040E+01  0.46434244657E+01  0.51100000000E-03 0. -1.
        -11    1    3    3    0    0 -0.22541478815E+02 -0.21145924402E+01 -0.14262826480E+02  0.26758512436E+02  0.51100000000E-03 0.  1.
        -12    1    3    3    0    0 -0.56822257325E+01 -0.16355774619E+02 -0.81265259318E+01  0.19126930658E+02  0.00000000000E+00 0.  1.
</event>
<event>
 7    1  0.9978258E-013  0.5052885E+02  0.7816164E-02  0.1300439E+00
        -11   -1    0    0    0    0  0.00000000000E+00  0.00000000000E+00  0.45593999997E+02  0.45594000000E+02  0.51100000000E-03 0.  1.
         11   -1    0    0    0    0 -0.00000000000E+00 -0.00000000000E+00 -0.45593999997E+02  0.45594000000E+02  0.51100000000E-03 0. -1.
    9900012    2    1    2    0    0  0.39531444891E+02  0.72388368137E+01  0.61669065563E+01  0.50528848139E+02  0.29999964402E+02 0.  0.
        -12    1    1    2    0    0 -0.39531444891E+02 -0.72388368137E+01 -0.61669065563E+01  0.40659151861E+02  0.00000000000E+00 0.  1.
         11    1    3    3    0    0  0.11031645279E+01  0.54935945239E+01 -0.66102531274E+01  0.86655640000E+01  0.51100000000E-03 0. -1.
        -11    1    3    3    0    0  0.23841297323E+02 -0.28257970960E+01  0.11211228768E+02  0.26496872231E+02  0.51100000000E-03 0.  1.
         12    1    3    3    0    0  0.14586983040E+02  0.45710393859E+01  0.15659309158E+01  0.15366411908E+02  0.00000000000E+00 0. -1.
</event>
<event>
 7    1  0.9978258E-013  0.5052886E+02  0.7816164E-02  0.1300439E+00
        -11   -1    0    0    0    0  0.00000000000E+00  0.00000000000E+00  0.45593999997E+02  0.45594000000E+02  0.51100000000E-03 0.  1.
         11   -1    0    0    0    0 -0.00000000000E+00 -0.00000000000E+00 -0.45593999997E+02  0.45594000000E+02  0.51100000000E-03 0. -1.
    9900012    2    1    2    0    0  0.32474383717E+02 -0.79775289855E+00 -0.24452890030E+02  0.50528857876E+02  0.29999993999E+02 0.  0.
        -12    1    1    2    0    0 -0.32474383717E+02  0.79775289855E+00  0.24452890030E+02  0.40659142124E+02  0.00000000000E+00 0.  1.
         11    1    3    3    0    0  0.27020775069E+02 -0.47469694765E+01 -0.15641409128E+02  0.31580210327E+02  0.51100000000E-03 0. -1.
        -11    1    3    3    0    0  0.30099798647E-01  0.27470859741E+01 -0.12157229953E+02  0.12463772613E+02  0.51100000000E-03 0.  1.
         12    1    3    3    0    0  0.54235088492E+01  0.12021306039E+01  0.33457490510E+01  0.64848749362E+01  0.00000000000E+00 0. -1.
</event>
<event>
 7    1  0.9978258E-013  0.5052880E+02  0.7816164E-02  0.1300439E+00
        -11   -1    0    0    0    0  0.00000000000E+00  0.00000000000E+00  0.45593999997E+02  0.45594000000E+02  0.51100000000E-03 0.  1.
         11   -1    0    0    0    0 -0.00000000000E+00 -0.00000000000E+00 -0.45593999997E+02  0.45594000000E+02  0.51100000000E-03 0. -1.
    9900012    2    1    2    0    0 -0.94935448888E+01 -0.38805659494E+02  0.75606987916E+01  0.50528797234E+02  0.29999809672E+02 0.  0.
        -12    1    1    2    0    0  0.94935448888E+01  0.38805659494E+02 -0.75606987916E+01  0.40659202766E+02  0.00000000000E+00 0.  1.
         11    1    3    3    0    0  0.91256522301E+00 -0.23147843402E+02  0.54928615814E-01  0.23165889728E+02  0.51100000000E-03 0. -1.
        -11    1    3    3    0    0 -0.12060321615E+01  0.27744876138E+01  0.59849234726E+01  0.67060871100E+01  0.51100000000E-03 0.  1.
        -12    1    3    3    0    0 -0.92000779503E+01 -0.18432303706E+02  0.15208467032E+01  0.20656820397E+02  0.00000000000E+00 0.  1.
</event>
<event>
 7    1  0.9978258E-013  0.5052876E+02  0.7816164E-02  0.1300439E+00
        -11   -1    0    0    0    0  0.00000000000E+00  0.00000000000E+00  0.45593999997E+02  0.45594000000E+02  0.51100000000E-03 0.  1.
         11   -1    0    0    0    0 -0.00000000000E+00 -0.00000000000E+00 -0.45593999997E+02  0.45594000000E+02  0.51100000000E-03 0. -1.
    9900012    2    1    2    0    0  0.17731784149E+02  0.12849991031E+02 -0.34258357318E+02  0.50528763845E+02  0.29999708180E+02 0.  0.
        -12    1    1    2    0    0 -0.17731784149E+02 -0.12849991031E+02  0.34258357318E+02  0.40659236155E+02  0.00000000000E+00 0.  1.
         11    1    3    3    0    0  0.14374098870E+02  0.34446951491E+01 -0.75665114321E+01  0.16605202152E+02  0.51100000000E-03 0. -1.
        -11    1    3    3    0    0 -0.58046586803E+01 -0.21160691888E+01 -0.88452357112E+01  0.10789346887E+02  0.51100000000E-03 0.  1.
         12    1    3    3    0    0  0.91623439594E+01  0.11521365071E+02 -0.17846610175E+02  0.23134214805E+02  0.00000000000E+00 0. -1.
</event>
<event>
 7    1  0.9978258E-013  0.5052887E+02  0.7816164E-02  0.1300439E+00
        -11   -1    0    0    0    0  0.00000000000E+00  0.00000000000E+00  0.45593999997E+02  0.45594000000E+02  0.51100000000E-03 0. -1.
         11   -1    0    0    0    0 -0.00000000000E+00 -0.00000000000E+00 -0.45593999997E+02  0.45594000000E+02  0.51100000000E-03 0.  1.
    9900012    2    1    2    0    0  0.29782544042E+01  0.21833345568E+02  0.34170165144E+02  0.50528866168E+02  0.30000019206E+02 0.  0.
        -12    1    1    2    0    0 -0.29782544042E+01 -0.21833345568E+02 -0.34170165144E+02  0.40659133832E+02  0.00000000000E+00 0.  1.
         11    1    3    3    0    0 -0.36585440031E-01  0.15542705734E+02  0.16070930451E+02  0.22357366702E+02  0.51100000000E-03 0. -1.
        -11    1    3    3    0    0  0.45143397056E+01 -0.60493656421E+01  0.19571713240E+01  0.77977309201E+01  0.51100000000E-03 0.  1.
        -12    1    3    3    0    0 -0.14994998614E+01  0.12340005476E+02  0.16142063369E+02  0.20373768546E+02  0.00000000000E+00 0.  1.
</event>
<event>
 7    1  0.9978258E-013  0.5052887E+02  0.7816164E-02  0.1300439E+00
        -11   -1    0    0    0    0  0.00000000000E+00  0.00000000000E+00  0.45593999997E+02  0.45594000000E+02  0.51100000000E-03 0. -1.
         11   -1    0    0    0    0 -0.00000000000E+00 -0.00000000000E+00 -0.45593999997E+02  0.45594000000E+02  0.51100000000E-03 0.  1.
    9900012    2    1    2    0    0  0.40321496105E+01 -0.40057351063E+02 -0.56846490593E+01  0.50528870157E+02  0.30000031330E+02 0.  0.
        -12    1    1    2    0    0 -0.40321496105E+01  0.40057351063E+02  0.56846490593E+01  0.40659129843E+02  0.00000000000E+00 0.  1.
         11    1    3    3    0    0 -0.52539941017E-01 -0.44327113056E+01  0.94944587535E+01  0.10478379514E+02  0.51100000000E-03 0. -1.
        -11    1    3    3    0    0  0.96462254896E+00  0.53028730551E-01 -0.13485582176E+01  0.16588906641E+01  0.51100000000E-03 0.  1.
         12    1    3    3    0    0  0.31200670025E+01 -0.35677668488E+02 -0.13830549595E+02  0.38391599979E+02  0.00000000000E+00 0. -1.
</event>
<event>
 7    1  0.9978258E-013  0.5052886E+02  0.7816164E-02  0.1300439E+00
        -11   -1    0    0    0    0  0.00000000000E+00  0.00000000000E+00  0.45593999997E+02  0.45594000000E+02  0.51100000000E-03 0. -1.
         11   -1    0    0    0    0 -0.00000000000E+00 -0.00000000000E+00 -0.45593999997E+02  0.45594000000E+02  0.51100000000E-03 0.  1.
    9900012    2    1    2    0    0 -0.28014591329E+02  0.28664681552E+02  0.68326120940E+01  0.50528857315E+02  0.29999992296E+02 0.  0.
        -12    1    1    2    0    0  0.28014591329E+02 -0.28664681552E+02 -0.68326120940E+01  0.40659142685E+02  0.00000000000E+00 0.  1.
         11    1    3    3    0    0 -0.14192667725E+02  0.77150950837E+01  0.13211354830E+02  0.20868502725E+02  0.51100000000E-03 0. -1.
        -11    1    3    3    0    0  0.42125661309E+00  0.96158039301E+01  0.16510738133E+01  0.97656124925E+01  0.51100000000E-03 0.  1.
         12    1    3    3    0    0 -0.14243180217E+02  0.11333782538E+02 -0.80298165488E+01  0.19894742097E+02  0.00000000000E+00 0. -1.
</event>
<event>
 7    1  0.9978258E-013  0.5052886E+02  0.7816164E-02  0.1300439E+00
        -11   -1    0    0    0    0  0.00000000000E+00  0.00000000000E+00  0.45593999997E+02  0.45594000000E+02  0.51100000000E-03 0.  1.
         11   -1    0    0    0    0 -0.00000000000E+00 -0.00000000000E+00 -0.45593999997E+02  0.45594000000E+02  0.51100000000E-03 0. -1.
    9900012    2    1    2    0    0  0.30155839355E+02 -0.19436912424E+02 -0.19131058364E+02  0.50528860733E+02  0.30000002684E+02 0.  0.
        -12    1    1    2    0    0 -0.30155839355E+02  0.19436912424E+02  0.19131058364E+02  0.40659139267E+02  0.00000000000E+00 0.  1.
         11    1    3    3    0    0  0.15265755300E+02 -0.18769285425E+01 -0.63227456363E+01  0.16629589841E+02  0.51100000000E-03 0. -1.
        -11    1    3    3    0    0  0.10766478124E+02 -0.12715962006E+02 -0.18827574854E+02  0.25141406406E+02  0.51100000000E-03 0.  1.
        -12    1    3    3    0    0  0.41236059305E+01 -0.48440218761E+01  0.60192621261E+01  0.87578644857E+01  0.00000000000E+00 0.  1.
</event>
<event>
 7    1  0.9978258E-013  0.5052886E+02  0.7816164E-02  0.1300439E+00
        -11   -1    0    0    0    0  0.00000000000E+00  0.00000000000E+00  0.45593999997E+02  0.45594000000E+02  0.51100000000E-03 0.  1.
         11   -1    0    0    0    0 -0.00000000000E+00 -0.00000000000E+00 -0.45593999997E+02  0.45594000000E+02  0.51100000000E-03 0. -1.
    9900012    2    1    2    0    0  0.28503786964E+02 -0.28615245406E+02 -0.46763118694E+01  0.50528855474E+02  0.29999986698E+02 0.  0.
        -12    1    1    2    0    0 -0.28503786964E+02  0.28615245406E+02  0.46763118694E+01  0.40659144526E+02  0.00000000000E+00 0.  1.
         11    1    3    3    0    0  0.24814002149E+02 -0.15621200588E+02 -0.14437614536E+02  0.32683349342E+02  0.51100000000E-03 0. -1.
        -11    1    3    3    0    0  0.15624373243E+01 -0.44602346555E+01  0.73286179531E+01  0.87202950029E+01  0.51100000000E-03 0.  1.
         12    1    3    3    0    0  0.21273474908E+01 -0.85338101617E+01  0.24326847139E+01  0.91252111285E+01  0.00000000000E+00 0. -1.
</event>
<event>
 7    1  0.9978258E-013  0.5052887E+02  0.7816164E-02  0.1300439E+00
        -11   -1    0    0    0    0  0.00000000000E+00  0.00000000000E+00  0.45593999997E+02  0.45594000000E+02  0.51100000000E-03 0.  1.
         11   -1    0    0    0    0 -0.00000000000E+00 -0.00000000000E+00 -0.45593999997E+02  0.45594000000E+02  0.51100000000E-03 0. -1.
    9900012    2    1    2    0    0  0.35318157900E+02 -0.15227133749E+02 -0.13188132847E+02  0.50528871534E+02  0.30000035515E+02 0.  0.
        -12    1    1    2    0    0 -0.35318157900E+02  0.15227133749E+02  0.13188132847E+02  0.40659128466E+02  0.00000000000E+00 0.  1.
         11    1    3    3    0    0  0.17666413511E+02 -0.14664727683E+02 -0.17072655869E+02  0.28611745543E+02  0.51100000000E-03 0. -1.
        -11    1    3    3    0    0  0.43707790741E+01  0.36523919466E+01  0.54654902300E+01  0.78940015430E+01  0.51100000000E-03 0.  1.
         12    1    3    3    0    0  0.13280965314E+02 -0.42147980125E+01 -0.15809672084E+01  0.14023124448E+02  0.00000000000E+00 0. -1.
</event>
<event>
 7    1  0.9978258E-013  0.5052887E+02  0.7816164E-02  0.1300439E+00
        -11   -1    0    0    0    0  0.00000000000E+00  0.00000000000E+00  0.45593999997E+02  0.45594000000E+02  0.51100000000E-03 0.  1.
         11   -1    0    0    0    0 -0.00000000000E+00 -0.00000000000E+00 -0.45593999997E+02  0.45594000000E+02  0.51100000000E-03 0. -1.
    9900012    2    1    2    0    0 -0.13909393003E+02 -0.60627182126E+01 -0.37721836044E+02  0.50528872115E+02  0.30000037281E+02 0.  0.
        -12    1    1    2    0    0  0.13909393003E+02  0.60627182126E+01  0.37721836044E+02  0.40659127885E+02  0.00000000000E+00 0.  1.
         11    1    3    3    0    0 -0.37699936110E+01 -0.76186621243E+01 -0.17260358040E+02  0.19239979842E+02  0.51100000000E-03 0. -1.
        -11    1    3    3    0    0  0.65013741581E+01  0.23280551649E+01 -0.73872402003E+01  0.10112320448E+02  0.51100000000E-03 0.  1.
        -12    1    3    3    0    0 -0.16640773550E+02 -0.77211125326E+00 -0.13074237803E+02  0.21176571825E+02  0.00000000000E+00 0.  1.
</event>
<event>
 7    1  0.9978258E-013  0.5052886E+02  0.7816164E-02  0.1300439E+00
        -11   -1    0    0    0    0  0.00000000000E+00  0.00000000000E+00  0.45593999997E+02  0.45594000000E+02  0.51100000000E-03 0. -1.
         11   -1    0    0    0    0 -0.00000000000E+00 -0.00000000000E+00 -0.45593999997E+02  0.45594000000E+02  0.51100000000E-03 0.  1.
    9900012    2    1    2    0    0  0.23873313944E+02  0.23277088368E+02  0.23268174747E+02  0.50528856900E+02  0.29999991034E+02 0.  0.
        -12    1    1    2    0    0 -0.23873313944E+02 -0.23277088368E+02 -0.23268174747E+02  0.40659143100E+02  0.00000000000E+00 0.  1.
         11    1    3    3    0    0  0.24168850784E+02  0.26918037776E+02  0.26400711628E+02  0.44785172553E+02  0.51100000000E-03 0. -1.
        -11    1    3    3    0    0  0.11990457779E+01 -0.27255424365E+01 -0.14413326714E+01  0.33081312673E+01  0.51100000000E-03 0.  1.
         12    1    3    3    0    0 -0.14945826182E+01 -0.91540697185E+00 -0.16912042092E+01  0.24355530797E+01  0.00000000000E+00 0. -1.
</event>
<event>
 7    1  0.9978258E-013  0.5052886E+02  0.7816164E-02  0.1300439E+00
        -11   -1    0    0    0    0  0.00000000000E+00  0.00000000000E+00  0.45593999997E+02  0.45594000000E+02  0.51100000000E-03 0. -1.
         11   -1    0    0    0    0 -0.00000000000E+00 -0.00000000000E+00 -0.45593999997E+02  0.45594000000E+02  0.51100000000E-03 0.  1.
    9900012    2    1    2    0    0  0.40105296007E+01  0.37284507361E+02  0.15714549883E+02  0.50528856934E+02  0.29999991138E+02 0.  0.
        -12    1    1    2    0    0 -0.40105296007E+01 -0.37284507361E+02 -0.15714549883E+02  0.40659143066E+02  0.00000000000E+00 0.  1.
         11    1    3    3    0    0  0.84632157100E+00  0.64937534530E+01  0.15755000853E+02  0.17061803722E+02  0.51100000000E-03 0.  1.
        -11    1    3    3    0    0 -0.88410607165E+00  0.54850376295E+01 -0.48704216224E+01  0.73883887542E+01  0.51100000000E-03 0. -1.
         12    1    3    3    0    0  0.40483141014E+01  0.25305716278E+02  0.48299706522E+01  0.26078664458E+02  0.00000000000E+00 0. -1.
</event>
<event>
 7    1  0.9978258E-013  0.5052888E+02  0.7816164E-02  0.1300439E+00
        -11   -1    0    0    0    0  0.00000000000E+00  0.00000000000E+00  0.45593999997E+02  0.45594000000E+02  0.51100000000E-03 0.  1.
         11   -1    0    0    0    0 -0.00000000000E+00 -0.00000000000E+00 -0.45593999997E+02  0.45594000000E+02  0.51100000000E-03 0. -1.
    9900012    2    1    2    0    0 -0.13482041816E+02 -0.35698730446E+02 -0.14035629268E+02  0.50528884221E+02  0.30000074078E+02 0.  0.
        -12    1    1    2    0    0  0.13482041816E+02  0.35698730446E+02  0.14035629268E+02  0.40659115779E+02  0.00000000000E+00 0.  1.
         11    1    3    3    0    0 -0.16222067318E+02 -0.35485924144E+02 -0.12460356772E+02  0.40959330702E+02  0.51100000000E-03 0. -1.
        -11    1    3    3    0    0  0.55026285313E+01 -0.21896014229E+01 -0.26370241426E+00  0.59281375127E+01  0.51100000000E-03 0.  1.
         12    1    3    3    0    0 -0.27626030290E+01  0.19767951213E+01 -0.13115700822E+01  0.36414160059E+01  0.00000000000E+00 0. -1.
</event>
<event>
 7    1  0.9978258E-013  0.5052886E+02  0.7816164E-02  0.1300439E+00
        -11   -1    0    0    0    0  0.00000000000E+00  0.00000000000E+00  0.45593999997E+02  0.45594000000E+02  0.51100000000E-03 0. -1.
         11   -1    0    0    0    0 -0.00000000000E+00 -0.00000000000E+00 -0.45593999997E+02  0.45594000000E+02  0.51100000000E-03 0.  1.
    9900012    2    1    2    0    0 -0.28846505595E+02  0.62833297007E+01  0.27956477898E+02  0.50528858670E+02  0.29999996414E+02 0.  0.
        -12    1    1    2    0    0  0.28846505595E+02 -0.62833297007E+01 -0.27956477898E+02  0.40659141330E+02  0.00000000000E+00 0.  1.
         11    1    3    3    0    0  0.29289379023E+00  0.52111995573E+01  0.15881544207E+02  0.16717231656E+02  0.51100000000E-03 0. -1.
        -11    1    3    3    0    0 -0.12880335066E+02  0.64046235159E+01  0.42754814014E+01  0.15006730999E+02  0.51100000000E-03 0.  1.
         12    1    3    3    0    0 -0.16259064320E+02 -0.53324933725E+01  0.77994522904E+01  0.18804896015E+02  0.00000000000E+00 0. -1.
</event>
<event>
 7    1  0.9978258E-013  0.5052885E+02  0.7816164E-02  0.1300439E+00
        -11   -1    0    0    0    0  0.00000000000E+00  0.00000000000E+00  0.45593999997E+02  0.45594000000E+02  0.51100000000E-03 0. -1.
         11   -1    0    0    0    0 -0.00000000000E+00 -0.00000000000E+00 -0.45593999997E+02  0.45594000000E+02  0.51100000000E-03 0.  1.
    9900012    2    1    2    0    0  0.11374288825E+02  0.37158265702E+02  0.11960570716E+02  0.50528850868E+02  0.29999972699E+02 0.  0.
        -12    1    1    2    0    0 -0.11374288825E+02 -0.37158265702E+02 -0.11960570716E+02  0.40659149132E+02  0.00000000000E+00 0.  1.
         11    1    3    3    0    0  0.12333014357E+02  0.36356808910E+02  0.10334151265E+02  0.39758212735E+02  0.51100000000E-03 0. -1.
        -11    1    3    3    0    0 -0.17768730797E+01 -0.45571301471E+01  0.21129604259E+01  0.53281624545E+01  0.51100000000E-03 0.  1.
         12    1    3    3    0    0  0.81814754738E+00  0.53585869397E+01 -0.48654097480E+00  0.54424756793E+01  0.00000000000E+00 0. -1.
</event>
<event>
 7    1  0.9978258E-013  0.5052886E+02  0.7816164E-02  0.1300439E+00
        -11   -1    0    0    0    0  0.00000000000E+00  0.00000000000E+00  0.45593999997E+02  0.45594000000E+02  0.51100000000E-03 0.  1.
         11   -1    0    0    0    0 -0.00000000000E+00 -0.00000000000E+00 -0.45593999997E+02  0.45594000000E+02  0.51100000000E-03 0. -1.
    9900012    2    1    2    0    0 -0.33714150676E+02  0.21814238187E+02 -0.63765724285E+01  0.50528860567E+02  0.30000002179E+02 0.  0.
        -12    1    1    2    0    0  0.33714150676E+02 -0.21814238187E+02  0.63765724285E+01  0.40659139433E+02  0.00000000000E+00 0.  1.
         11    1    3    3    0    0 -0.29022028959E+02  0.83033780818E+01 -0.15003621398E+02  0.33709537342E+02  0.51100000000E-03 0. -1.
        -11    1    3    3    0    0 -0.11122841174E+01  0.61285140829E+01  0.39450584878E+01  0.73728791904E+01  0.51100000000E-03 0.  1.
         12    1    3    3    0    0 -0.35798375998E+01  0.73823460220E+01  0.46819904819E+01  0.94464440347E+01  0.00000000000E+00 0. -1.
</event>
<event>
 7    1  0.9978258E-013  0.5052886E+02  0.7816164E-02  0.1300439E+00
        -11   -1    0    0    0    0  0.00000000000E+00  0.00000000000E+00  0.45593999997E+02  0.45594000000E+02  0.51100000000E-03 0.  1.
         11   -1    0    0    0    0 -0.00000000000E+00 -0.00000000000E+00 -0.45593999997E+02  0.45594000000E+02  0.51100000000E-03 0. -1.
    9900012    2    1    2    0    0  0.14442913975E+02 -0.37798359377E+02 -0.39814736609E+01  0.50528857508E+02  0.29999992881E+02 0.  0.
        -12    1    1    2    0    0 -0.14442913975E+02  0.37798359377E+02  0.39814736609E+01  0.40659142492E+02  0.00000000000E+00 0.  1.
         11    1    3    3    0    0  0.39357189652E+01 -0.13740238951E+01 -0.16704711470E+01  0.44909129975E+01  0.51100000000E-03 0. -1.
        -11    1    3    3    0    0  0.68796071262E+01 -0.18317296677E+02  0.11753299065E+02  0.22825257741E+02  0.51100000000E-03 0.  1.
        -12    1    3    3    0    0  0.36275878841E+01 -0.18107038805E+02 -0.14064301579E+02  0.23212686770E+02  0.00000000000E+00 0.  1.
</event>
<event>
 7    1  0.9978258E-013  0.5052886E+02  0.7816164E-02  0.1300439E+00
        -11   -1    0    0    0    0  0.00000000000E+00  0.00000000000E+00  0.45593999997E+02  0.45594000000E+02  0.51100000000E-03 0. -1.
         11   -1    0    0    0    0 -0.00000000000E+00 -0.00000000000E+00 -0.45593999997E+02  0.45594000000E+02  0.51100000000E-03 0.  1.
    9900012    2    1    2    0    0 -0.14709395654E+02  0.27377867045E+02  0.26215492876E+02  0.50528855996E+02  0.29999988284E+02 0.  0.
        -12    1    1    2    0    0  0.14709395654E+02 -0.27377867045E+02 -0.26215492876E+02  0.40659144004E+02  0.00000000000E+00 0.  1.
         11    1    3    3    0    0 -0.11811767919E+02  0.19697034783E+01  0.15920817060E+01  0.12080244931E+02  0.51100000000E-03 0.  1.
        -11    1    3    3    0    0 -0.31040239632E+01  0.16426122175E+02  0.24253625556E+02  0.29456591917E+02  0.51100000000E-03 0. -1.
         12    1    3    3    0    0  0.20639622836E+00  0.89820413914E+01  0.36978561405E+00  0.89920191482E+01  0.00000000000E+00 0. -1.
</event>
<event>
 7    1  0.9978258E-013  0.5052886E+02  0.7816164E-02  0.1300439E+00
        -11   -1    0    0    0    0  0.00000000000E+00  0.00000000000E+00  0.45593999997E+02  0.45594000000E+02  0.51100000000E-03 0. -1.
         11   -1    0    0    0    0 -0.00000000000E+00 -0.00000000000E+00 -0.45593999997E+02  0.45594000000E+02  0.51100000000E-03 0.  1.
    9900012    2    1    2    0    0 -0.27163513280E+02  0.26098386074E+01  0.30141304322E+02  0.50528856656E+02  0.29999990290E+02 0.  0.
        -12    1    1    2    0    0  0.27163513280E+02 -0.26098386074E+01 -0.30141304322E+02  0.40659143344E+02  0.00000000000E+00 0.  1.
         11    1    3    3    0    0 -0.23527825792E+02  0.20740164928E+01  0.34021710966E+02  0.41416626471E+02  0.51100000000E-03 0. -1.
        -11    1    3    3    0    0  0.22009181041E+01 -0.18173487586E+00 -0.18815236639E+01  0.29012410491E+01  0.51100000000E-03 0.  1.
         12    1    3    3    0    0 -0.58366055921E+01  0.71755699045E+00 -0.19988829803E+01  0.62109891354E+01  0.00000000000E+00 0. -1.
</event>
<event>
 7    1  0.9978258E-013  0.5052886E+02  0.7816164E-02  0.1300439E+00
        -11   -1    0    0    0    0  0.00000000000E+00  0.00000000000E+00  0.45593999997E+02  0.45594000000E+02  0.51100000000E-03 0.  1.
         11   -1    0    0    0    0 -0.00000000000E+00 -0.00000000000E+00 -0.45593999997E+02  0.45594000000E+02  0.51100000000E-03 0. -1.
    9900012    2    1    2    0    0 -0.36264464809E+02 -0.12068194536E+02  0.13871288784E+02  0.50528863514E+02  0.30000011139E+02 0.  0.
        -12    1    1    2    0    0  0.36264464809E+02  0.12068194536E+02 -0.13871288784E+02  0.40659136486E+02  0.00000000000E+00 0.  1.
         11    1    3    3    0    0 -0.31680938960E+02 -0.17803263579E+02  0.41188085356E+01  0.36573250764E+02  0.51100000000E-03 0. -1.
        -11    1    3    3    0    0 -0.60257979093E+01  0.53193167669E+01  0.63727041047E+01  0.10257520615E+02  0.51100000000E-03 0.  1.
         12    1    3    3    0    0  0.14422720609E+01  0.41575227605E+00  0.33797761440E+01  0.36980921346E+01  0.00000000000E+00 0. -1.
</event>
<event>
 7    1  0.9978258E-013  0.5052885E+02  0.7816164E-02  0.1300439E+00
        -11   -1    0    0    0    0  0.00000000000E+00  0.00000000000E+00  0.45593999997E+02  0.45594000000E+02  0.51100000000E-03 0. -1.
         11   -1    0    0    0    0 -0.00000000000E+00 -0.00000000000E+00 -0.45593999997E+02  0.45594000000E+02  0.51100000000E-03 0.  1.
    9900012    2    1    2    0    0 -0.79270687529E+01 -0.84148562214E+01  0.38980995446E+02  0.50528853056E+02  0.29999979350E+02 0.  0.
        -12    1    1    2    0    0  0.79270687529E+01  0.84148562214E+01 -0.38980995446E+02  0.40659146944E+02  0.00000000000E+00 0.  1.
         11    1    3    3    0    0 -0.15760753958E+02 -0.13328293642E+02  0.21877475535E+02  0.30077711229E+02  0.51100000000E-03 0. -1.
        -11    1    3    3    0    0  0.89095669488E+01  0.39100307000E+01  0.14531245257E+02  0.17487876151E+02  0.51100000000E-03 0.  1.
         12    1    3    3    0    0 -0.10758817437E+01  0.10034067203E+01  0.25722746547E+01  0.29632656770E+01  0.00000000000E+00 0. -1.
</event>
<event>
 7    1  0.9978258E-013  0.5052886E+02  0.7816164E-02  0.1300439E+00
        -11   -1    0    0    0    0  0.00000000000E+00  0.00000000000E+00  0.45593999997E+02  0.45594000000E+02  0.51100000000E-03 0.  1.
         11   -1    0    0    0    0 -0.00000000000E+00 -0.00000000000E+00 -0.45593999997E+02  0.45594000000E+02  0.51100000000E-03 0. -1.
    9900012    2    1    2    0    0 -0.56303071177E+01 -0.40265855976E+02 -0.35521798941E+00  0.50528859631E+02  0.29999999335E+02 0.  0.
        -12    1    1    2    0    0  0.56303071177E+01  0.40265855976E+02  0.35521798941E+00  0.40659140369E+02  0.00000000000E+00 0.  1.
         11    1    3    3    0    0 -0.16075526046E+02 -0.19721402874E+02 -0.14352073600E+01  0.25483643566E+02  0.51100000000E-03 0. -1.
        -11    1    3    3    0    0  0.19617573040E+01 -0.14401734428E+02  0.22460830815E+00  0.14536467776E+02  0.51100000000E-03 0.  1.
         12    1    3    3    0    0  0.84834616243E+01 -0.61427186736E+01  0.85538106240E+00  0.10508748289E+02  0.00000000000E+00 0. -1.
</event>
<event>
 7    1  0.9978258E-013  0.5052886E+02  0.7816164E-02  0.1300439E+00
        -11   -1    0    0    0    0  0.00000000000E+00  0.00000000000E+00  0.45593999997E+02  0.45594000000E+02  0.51100000000E-03 0.  1.
         11   -1    0    0    0    0 -0.00000000000E+00 -0.00000000000E+00 -0.45593999997E+02  0.45594000000E+02  0.51100000000E-03 0. -1.
    9900012    2    1    2    0    0 -0.14098977060E+02 -0.37843403064E+02 -0.47182263791E+01  0.50528856259E+02  0.29999989084E+02 0.  0.
        -12    1    1    2    0    0  0.14098977060E+02  0.37843403064E+02  0.47182263791E+01  0.40659143741E+02  0.00000000000E+00 0.  1.
         11    1    3    3    0    0 -0.54369661114E+01 -0.19823136486E+02 -0.73995930386E+01  0.21846540184E+02  0.51100000000E-03 0. -1.
        -11    1    3    3    0    0  0.21521782591E+01  0.35652835338E+01 -0.93997575167E+00  0.42692707352E+01  0.51100000000E-03 0.  1.
        -12    1    3    3    0    0 -0.10814189208E+02 -0.21585550112E+02  0.36213424112E+01  0.24413045339E+02  0.00000000000E+00 0.  1.
</event>
<event>
 7    1  0.9978258E-013  0.5052885E+02  0.7816164E-02  0.1300439E+00
        -11   -1    0    0    0    0  0.00000000000E+00  0.00000000000E+00  0.45593999997E+02  0.45594000000E+02  0.51100000000E-03 0. -1.
         11   -1    0    0    0    0 -0.00000000000E+00 -0.00000000000E+00 -0.45593999997E+02  0.45594000000E+02  0.51100000000E-03 0.  1.
    9900012    2    1    2    0    0 -0.20969087438E+02  0.30239761811E+02 -0.17292212868E+02  0.50528850375E+02  0.29999971201E+02 0.  0.
        -12    1    1    2    0    0  0.20969087438E+02 -0.30239761811E+02  0.17292212868E+02  0.40659149625E+02  0.00000000000E+00 0.  1.
         11    1    3    3    0    0 -0.19667414688E+02  0.27442150931E+02 -0.13520039989E+02  0.36368534886E+02  0.51100000000E-03 0. -1.
        -11    1    3    3    0    0  0.47924029809E+01 -0.72613649779E+00 -0.50566613127E+01  0.70045859576E+01  0.51100000000E-03 0.  1.
        -12    1    3    3    0    0 -0.60940757309E+01  0.35237473774E+01  0.12844884334E+01  0.71557295316E+01  0.00000000000E+00 0.  1.
</event>
<event>
 7    1  0.9978258E-013  0.5052887E+02  0.7816164E-02  0.1300439E+00
        -11   -1    0    0    0    0  0.00000000000E+00  0.00000000000E+00  0.45593999997E+02  0.45594000000E+02  0.51100000000E-03 0.  1.
         11   -1    0    0    0    0 -0.00000000000E+00 -0.00000000000E+00 -0.45593999997E+02  0.45594000000E+02  0.51100000000E-03 0. -1.
    9900012    2    1    2    0    0 -0.50321477969E+01  0.18296486357E+02 -0.35959438906E+02  0.50528866083E+02  0.30000018945E+02 0.  0.
        -12    1    1    2    0    0  0.50321477969E+01 -0.18296486357E+02  0.35959438906E+02  0.40659133917E+02  0.00000000000E+00 0.  1.
         11    1    3    3    0    0 -0.23369487558E+01  0.10869102710E+02 -0.32110166070E+01  0.11571920805E+02  0.51100000000E-03 0. -1.
        -11    1    3    3    0    0 -0.82303536547E+01 -0.10109924180E+01 -0.24681466302E+02  0.26037196586E+02  0.51100000000E-03 0.  1.
        -12    1    3    3    0    0  0.55351546136E+01  0.84383760644E+01 -0.80669559968E+01  0.12919748692E+02  0.00000000000E+00 0.  1.
</event>
<event>
 7    1  0.9978258E-013  0.5052885E+02  0.7816164E-02  0.1300439E+00
        -11   -1    0    0    0    0  0.00000000000E+00  0.00000000000E+00  0.45593999997E+02  0.45594000000E+02  0.51100000000E-03 0.  1.
         11   -1    0    0    0    0 -0.00000000000E+00 -0.00000000000E+00 -0.45593999997E+02  0.45594000000E+02  0.51100000000E-03 0. -1.
    9900012    2    1    2    0    0  0.19335708008E+02 -0.30224305271E+02 -0.19125588311E+02  0.50528851441E+02  0.29999974441E+02 0.  0.
        -12    1    1    2    0    0 -0.19335708008E+02  0.30224305271E+02  0.19125588311E+02  0.40659148559E+02  0.00000000000E+00 0.  1.
         11    1    3    3    0    0  0.11331228295E+02 -0.53932669924E-01 -0.10823346174E+02  0.15669858521E+02  0.51100000000E-03 0. -1.
        -11    1    3    3    0    0 -0.31673751880E+01 -0.30406441015E+01 -0.90628809940E-01  0.43915824000E+01  0.51100000000E-03 0.  1.
         12    1    3    3    0    0  0.11171854902E+02 -0.27129728500E+02 -0.82116133262E+01  0.30467410520E+02  0.00000000000E+00 0. -1.
</event>
<event>
 7    1  0.9978258E-013  0.5052887E+02  0.7816164E-02  0.1300439E+00
        -11   -1    0    0    0    0  0.00000000000E+00  0.00000000000E+00  0.45593999997E+02  0.45594000000E+02  0.51100000000E-03 0.  1.
         11   -1    0    0    0    0 -0.00000000000E+00 -0.00000000000E+00 -0.45593999997E+02  0.45594000000E+02  0.51100000000E-03 0. -1.
    9900012    2    1    2    0    0  0.20705932364E+02  0.24377211954E+02 -0.25103399872E+02  0.50528870854E+02  0.30000033448E+02 0.  0.
        -12    1    1    2    0    0 -0.20705932364E+02 -0.24377211954E+02  0.25103399872E+02  0.40659129146E+02  0.00000000000E+00 0.  1.
         11    1    3    3    0    0 -0.65035639090E-01  0.10116594948E+02 -0.13692150631E+02  0.17024238960E+02  0.51100000000E-03 0. -1.
        -11    1    3    3    0    0  0.82223112681E+01  0.10095491051E+02  0.35921815545E+01  0.13506632101E+02  0.51100000000E-03 0.  1.
         12    1    3    3    0    0  0.12548656735E+02  0.41651259553E+01 -0.15003430796E+02  0.19997999793E+02  0.00000000000E+00 0. -1.
</event>
<event>
 7    1  0.9978258E-013  0.5052886E+02  0.7816164E-02  0.1300439E+00
        -11   -1    0    0    0    0  0.00000000000E+00  0.00000000000E+00  0.45593999997E+02  0.45594000000E+02  0.51100000000E-03 0.  1.
         11   -1    0    0    0    0 -0.00000000000E+00 -0.00000000000E+00 -0.45593999997E+02  0.45594000000E+02  0.51100000000E-03 0. -1.
    9900012    2    1    2    0    0  0.48775100169E+01  0.39153274184E+02 -0.98181754379E+01  0.50528861394E+02  0.30000004692E+02 0.  0.
        -12    1    1    2    0    0 -0.48775100169E+01 -0.39153274184E+02  0.98181754379E+01  0.40659138606E+02  0.00000000000E+00 0.  1.
         11    1    3    3    0    0  0.19595441981E+01  0.28443377487E+02 -0.18348736854E+02  0.33904891693E+02  0.51100000000E-03 0. -1.
        -11    1    3    3    0    0  0.45300845805E+01  0.11536448746E+02  0.79368564455E+01  0.14717506802E+02  0.51100000000E-03 0.  1.
         12    1    3    3    0    0 -0.16121187617E+01 -0.82655204874E+00  0.59370497034E+00  0.19064628984E+01  0.00000000000E+00 0. -1.
</event>
<event>
 7    1  0.9978258E-013  0.5052886E+02  0.7816164E-02  0.1300439E+00
        -11   -1    0    0    0    0  0.00000000000E+00  0.00000000000E+00  0.45593999997E+02  0.45594000000E+02  0.51100000000E-03 0.  1.
         11   -1    0    0    0    0 -0.00000000000E+00 -0.00000000000E+00 -0.45593999997E+02  0.45594000000E+02  0.51100000000E-03 0. -1.
    9900012    2    1    2    0    0 -0.37228123941E+02  0.54814679404E+01 -0.15400844774E+02  0.50528859297E+02  0.29999998318E+02 0.  0.
        -12    1    1    2    0    0  0.37228123941E+02 -0.54814679404E+01  0.15400844774E+02  0.40659140703E+02  0.00000000000E+00 0.  1.
         11    1    3    3    0    0 -0.37261808571E+02 -0.37398391019E+01 -0.11148315274E+02  0.39073184003E+02  0.51100000000E-03 0. -1.
        -11    1    3    3    0    0  0.17053686106E+01  0.24087711343E+01 -0.32157953162E+01  0.43648367956E+01  0.51100000000E-03 0.  1.
         12    1    3    3    0    0 -0.16716839813E+01  0.68125359081E+01 -0.10367341843E+01  0.70908384977E+01  0.00000000000E+00 0. -1.
</event>
<event>
 7    1  0.9978258E-013  0.5052887E+02  0.7816164E-02  0.1300439E+00
        -11   -1    0    0    0    0  0.00000000000E+00  0.00000000000E+00  0.45593999997E+02  0.45594000000E+02  0.51100000000E-03 0.  1.
         11   -1    0    0    0    0 -0.00000000000E+00 -0.00000000000E+00 -0.45593999997E+02  0.45594000000E+02  0.51100000000E-03 0. -1.
    9900012    2    1    2    0    0 -0.39865935379E+01  0.34237748535E+02 -0.21564983318E+02  0.50528869927E+02  0.30000030629E+02 0.  0.
        -12    1    1    2    0    0  0.39865935379E+01 -0.34237748535E+02  0.21564983318E+02  0.40659130073E+02  0.00000000000E+00 0.  1.
         11    1    3    3    0    0  0.54388929674E+01  0.12390920845E+02 -0.79401050826E+01  0.15689542539E+02  0.51100000000E-03 0. -1.
        -11    1    3    3    0    0 -0.99533741948E+01 -0.13901712124E+00 -0.56488638789E+01  0.11445464036E+02  0.51100000000E-03 0.  1.
        -12    1    3    3    0    0  0.52788768941E+00  0.21985844811E+02 -0.79760143569E+01  0.23393863351E+02  0.00000000000E+00 0.  1.
</event>
<event>
 7    1  0.9978258E-013  0.5052887E+02  0.7816164E-02  0.1300439E+00
        -11   -1    0    0    0    0  0.00000000000E+00  0.00000000000E+00  0.45593999997E+02  0.45594000000E+02  0.51100000000E-03 0.  1.
         11   -1    0    0    0    0 -0.00000000000E+00 -0.00000000000E+00 -0.45593999997E+02  0.45594000000E+02  0.51100000000E-03 0. -1.
    9900012    2    1    2    0    0 -0.53230424780E+01  0.36113395136E+02 -0.17906789634E+02  0.50528865670E+02  0.30000017692E+02 0.  0.
        -12    1    1    2    0    0  0.53230424780E+01 -0.36113395136E+02  0.17906789634E+02  0.40659134330E+02  0.00000000000E+00 0.  1.
         11    1    3    3    0    0  0.63946194840E+01  0.26929211858E+02 -0.88065362470E+01  0.29045286891E+02  0.51100000000E-03 0. -1.
        -11    1    3    3    0    0 -0.13734825279E+02  0.58118394668E+01 -0.48207985441E+01  0.15673640365E+02  0.51100000000E-03 0.  1.
        -12    1    3    3    0    0  0.20171633172E+01  0.33723438105E+01 -0.42794548427E+01  0.58099384141E+01  0.00000000000E+00 0.  1.
</event>
<event>
 7    1  0.9978258E-013  0.5052886E+02  0.7816164E-02  0.1300439E+00
        -11   -1    0    0    0    0  0.00000000000E+00  0.00000000000E+00  0.45593999997E+02  0.45594000000E+02  0.51100000000E-03 0.  1.
         11   -1    0    0    0    0 -0.00000000000E+00 -0.00000000000E+00 -0.45593999997E+02  0.45594000000E+02  0.51100000000E-03 0. -1.
    9900012    2    1    2    0    0  0.63631164832E+01  0.35884928266E+02 -0.18026325499E+02  0.50528859096E+02  0.29999997709E+02 0.  0.
        -12    1    1    2    0    0 -0.63631164832E+01 -0.35884928266E+02  0.18026325499E+02  0.40659140904E+02  0.00000000000E+00 0.  1.
         11    1    3    3    0    0  0.14088247372E+02  0.14811821217E+02 -0.16139812575E+02  0.26045389457E+02  0.51100000000E-03 0. -1.
        -11    1    3    3    0    0 -0.11666453606E+01  0.74120088536E+01  0.36576119631E+01  0.83472787289E+01  0.51100000000E-03 0.  1.
         12    1    3    3    0    0 -0.65584855278E+01  0.13661098196E+02 -0.55441248867E+01  0.16136190910E+02  0.00000000000E+00 0. -1.
</event>
<event>
 7    1  0.9978258E-013  0.5052886E+02  0.7816164E-02  0.1300439E+00
        -11   -1    0    0    0    0  0.00000000000E+00  0.00000000000E+00  0.45593999997E+02  0.45594000000E+02  0.51100000000E-03 0.  1.
         11   -1    0    0    0    0 -0.00000000000E+00 -0.00000000000E+00 -0.45593999997E+02  0.45594000000E+02  0.51100000000E-03 0. -1.
    9900012    2    1    2    0    0  0.13794773381E+02  0.26318284950E+02 -0.27752791508E+02  0.50528864104E+02  0.30000012930E+02 0.  0.
        -12    1    1    2    0    0 -0.13794773381E+02 -0.26318284950E+02  0.27752791508E+02  0.40659135896E+02  0.00000000000E+00 0.  1.
         11    1    3    3    0    0  0.80846926606E+01  0.26566053918E+02 -0.26517959398E+02  0.38396870277E+02  0.51100000000E-03 0. -1.
        -11    1    3    3    0    0  0.89733137444E+00 -0.48627066174E+01  0.11027291324E+01  0.50662738816E+01  0.51100000000E-03 0.  1.
        -12    1    3    3    0    0  0.48127493464E+01  0.46149376494E+01 -0.23375612418E+01  0.70657199448E+01  0.00000000000E+00 0.  1.
</event>
<event>
 7    1  0.9978258E-013  0.5052893E+02  0.7816164E-02  0.1300439E+00
        -11   -1    0    0    0    0  0.00000000000E+00  0.00000000000E+00  0.45593999997E+02  0.45594000000E+02  0.51100000000E-03 0. -1.
         11   -1    0    0    0    0 -0.00000000000E+00 -0.00000000000E+00 -0.45593999997E+02  0.45594000000E+02  0.51100000000E-03 0.  1.
    9900012    2    1    2    0    0  0.21215402310E+02 -0.19102598141E+02  0.28950951793E+02  0.50528927696E+02  0.30000206225E+02 0.  0.
        -12    1    1    2    0    0 -0.21215402310E+02  0.19102598141E+02 -0.28950951793E+02  0.40659072304E+02  0.00000000000E+00 0.  1.
         11    1    3    3    0    0  0.12291239139E+02  0.14620380306E+00 -0.16457633581E+01  0.12401793113E+02  0.51100000000E-03 0. -1.
        -11    1    3    3    0    0  0.42186071061E+01 -0.12438055085E+02  0.12081501379E+02  0.17845574691E+02  0.51100000000E-03 0.  1.
         12    1    3    3    0    0  0.47055560650E+01 -0.68107468586E+01  0.18515213772E+02  0.20281559892E+02  0.00000000000E+00 0. -1.
</event>
<event>
 7    1  0.9978258E-013  0.5052887E+02  0.7816164E-02  0.1300439E+00
        -11   -1    0    0    0    0  0.00000000000E+00  0.00000000000E+00  0.45593999997E+02  0.45594000000E+02  0.51100000000E-03 0.  1.
         11   -1    0    0    0    0 -0.00000000000E+00 -0.00000000000E+00 -0.45593999997E+02  0.45594000000E+02  0.51100000000E-03 0. -1.
    9900012    2    1    2    0    0 -0.49991401210E+01 -0.35740492285E+01 -0.40192034887E+02  0.50528869436E+02  0.30000029138E+02 0.  0.
        -12    1    1    2    0    0  0.49991401210E+01  0.35740492285E+01  0.40192034887E+02  0.40659130564E+02  0.00000000000E+00 0.  1.
         11    1    3    3    0    0 -0.10659501839E+02  0.25464425316E+01 -0.43064310181E+01  0.11775172924E+02  0.51100000000E-03 0.  1.
        -11    1    3    3    0    0  0.26177910305E+01 -0.89614878675E+01 -0.30787860776E+02  0.32172246830E+02  0.51100000000E-03 0. -1.
         12    1    3    3    0    0  0.30425706874E+01  0.28409961074E+01 -0.50977430929E+01  0.65814496816E+01  0.00000000000E+00 0. -1.
</event>
<event>
 7    1  0.9978258E-013  0.5052887E+02  0.7816164E-02  0.1300439E+00
        -11   -1    0    0    0    0  0.00000000000E+00  0.00000000000E+00  0.45593999997E+02  0.45594000000E+02  0.51100000000E-03 0. -1.
         11   -1    0    0    0    0 -0.00000000000E+00 -0.00000000000E+00 -0.45593999997E+02  0.45594000000E+02  0.51100000000E-03 0.  1.
    9900012    2    1    2    0    0  0.19598301010E+02 -0.33907848020E+02  0.10923810054E+02  0.50528865898E+02  0.30000018384E+02 0.  0.
        -12    1    1    2    0    0 -0.19598301010E+02  0.33907848020E+02 -0.10923810054E+02  0.40659134102E+02  0.00000000000E+00 0.  1.
         11    1    3    3    0    0  0.21043654155E+02 -0.28449411691E+02  0.11896704444E+02  0.37332773573E+02  0.51100000000E-03 0. -1.
        -11    1    3    3    0    0 -0.40607454831E+01 -0.81833667541E+01 -0.18445460790E+01  0.93198441945E+01  0.51100000000E-03 0.  1.
         12    1    3    3    0    0  0.26153923386E+01  0.27249304250E+01  0.87165168910E+00  0.38762481309E+01  0.00000000000E+00 0. -1.
</event>
<event>
 7    1  0.9978258E-013  0.5052875E+02  0.7816164E-02  0.1300439E+00
        -11   -1    0    0    0    0  0.00000000000E+00  0.00000000000E+00  0.45593999997E+02  0.45594000000E+02  0.51100000000E-03 0.  1.
         11   -1    0    0    0    0 -0.00000000000E+00 -0.00000000000E+00 -0.45593999997E+02  0.45594000000E+02  0.51100000000E-03 0. -1.
    9900012    2    1    2    0    0 -0.31128428187E+02  0.25223586227E+02  0.69257654193E+01  0.50528750497E+02  0.29999667608E+02 0.  0.
        -12    1    1    2    0    0  0.31128428187E+02 -0.25223586227E+02 -0.69257654193E+01  0.40659249503E+02  0.00000000000E+00 0.  1.
         11    1    3    3    0    0 -0.14383573145E+02  0.10218927526E+02 -0.11194138369E+02  0.20895511247E+02  0.51100000000E-03 0. -1.
        -11    1    3    3    0    0 -0.20484066325E+01  0.28446871710E+01  0.62522232208E+01  0.71678804606E+01  0.51100000000E-03 0.  1.
         12    1    3    3    0    0 -0.14696448410E+02  0.12159971530E+02  0.11867680568E+02  0.22465358789E+02  0.00000000000E+00 0. -1.
</event>
<event>
 7    1  0.9978258E-013  0.5052886E+02  0.7816164E-02  0.1300439E+00
        -11   -1    0    0    0    0  0.00000000000E+00  0.00000000000E+00  0.45593999997E+02  0.45594000000E+02  0.51100000000E-03 0.  1.
         11   -1    0    0    0    0 -0.00000000000E+00 -0.00000000000E+00 -0.45593999997E+02  0.45594000000E+02  0.51100000000E-03 0. -1.
    9900012    2    1    2    0    0 -0.94225811516E+01  0.22043251256E+02 -0.32840151075E+02  0.50528862231E+02  0.30000007237E+02 0.  0.
        -12    1    1    2    0    0  0.94225811516E+01 -0.22043251256E+02  0.32840151075E+02  0.40659137769E+02  0.00000000000E+00 0.  1.
         11    1    3    3    0    0 -0.15678094642E+02  0.17583441753E+02 -0.32765265096E+02  0.40355206264E+02  0.51100000000E-03 0. -1.
        -11    1    3    3    0    0  0.69217273017E+01  0.18695652611E+01 -0.12046815275E+01  0.72702710368E+01  0.51100000000E-03 0.  1.
         12    1    3    3    0    0 -0.66621381121E+00  0.25902442412E+01  0.11297955487E+01  0.29033849303E+01  0.00000000000E+00 0. -1.
</event>
<event>
 7    1  0.9978258E-013  0.5052886E+02  0.7816164E-02  0.1300439E+00
        -11   -1    0    0    0    0  0.00000000000E+00  0.00000000000E+00  0.45593999997E+02  0.45594000000E+02  0.51100000000E-03 0. -1.
         11   -1    0    0    0    0 -0.00000000000E+00 -0.00000000000E+00 -0.45593999997E+02  0.45594000000E+02  0.51100000000E-03 0.  1.
    9900012    2    1    2    0    0 -0.25981314350E+02  0.90418475020E+01  0.29939642910E+02  0.50528856881E+02  0.29999990976E+02 0.  0.
        -12    1    1    2    0    0  0.25981314350E+02 -0.90418475020E+01 -0.29939642910E+02  0.40659143119E+02  0.00000000000E+00 0.  1.
         11    1    3    3    0    0 -0.11526230777E+02 -0.31086102440E+01  0.25761522267E+02  0.28393194314E+02  0.51100000000E-03 0. -1.
        -11    1    3    3    0    0 -0.55168653102E+01  0.20557184980E+01 -0.32674226400E+01  0.67333373867E+01  0.51100000000E-03 0.  1.
         12    1    3    3    0    0 -0.89382182628E+01  0.10094739248E+02  0.74455432827E+01  0.15402325181E+02  0.00000000000E+00 0. -1.
</event>
<event>
 7    1  0.1366983E-012  0.5052884E+02  0.7816164E-02  0.1300439E+00
        -11   -1    0    0    0    0  0.00000000000E+00  0.00000000000E+00  0.45593999997E+02  0.45594000000E+02  0.51100000000E-03 0. -1.
         11   -1    0    0    0    0 -0.00000000000E+00 -0.00000000000E+00 -0.45593999997E+02  0.45594000000E+02  0.51100000000E-03 0.  1.
    9900012    2    1    2    0    0  0.45434015856E+01 -0.54630412491E+01  0.40033487737E+02  0.50528837957E+02  0.29999933455E+02 0.  0.
        -12    1    1    2    0    0 -0.45434015856E+01  0.54630412491E+01 -0.40033487737E+02  0.40659162043E+02  0.00000000000E+00 0.  1.
         11    1    3    3    0    0  0.56342401740E+01 -0.25946000158E+01  0.32477590324E+02  0.33064641010E+02  0.51100000000E-03 0. -1.
        -11    1    3    3    0    0 -0.47041488037E+01  0.39536905972E+01 -0.67205492169E+00  0.61816133319E+01  0.51100000000E-03 0.  1.
         12    1    3    3    0    0  0.36133102153E+01 -0.68221318305E+01  0.82279523341E+01  0.11282583615E+02  0.00000000000E+00 0. -1.
</event>
<event>
 7    1  0.9978258E-013  0.5052887E+02  0.7816164E-02  0.1300439E+00
        -11   -1    0    0    0    0  0.00000000000E+00  0.00000000000E+00  0.45593999997E+02  0.45594000000E+02  0.51100000000E-03 0.  1.
         11   -1    0    0    0    0 -0.00000000000E+00 -0.00000000000E+00 -0.45593999997E+02  0.45594000000E+02  0.51100000000E-03 0. -1.
    9900012    2    1    2    0    0 -0.26627747101E+02  0.30428402292E+02 -0.42708807573E+01  0.50528868133E+02  0.30000025178E+02 0.  0.
        -12    1    1    2    0    0  0.26627747101E+02 -0.30428402292E+02  0.42708807573E+01  0.40659131867E+02  0.00000000000E+00 0.  1.
         11    1    3    3    0    0 -0.13772102794E+02  0.11311264100E+02 -0.89619648041E+00  0.17844289824E+02  0.51100000000E-03 0. -1.
        -11    1    3    3    0    0 -0.30387556804E+01  0.23243919730E+01 -0.11110769516E+02  0.11751001389E+02  0.51100000000E-03 0.  1.
        -12    1    3    3    0    0 -0.98168886258E+01  0.16792746219E+02  0.77360852395E+01  0.20933576921E+02  0.00000000000E+00 0.  1.
</event>
<event>
 7    1  0.9978258E-013  0.5052886E+02  0.7816164E-02  0.1300439E+00
        -11   -1    0    0    0    0  0.00000000000E+00  0.00000000000E+00  0.45593999997E+02  0.45594000000E+02  0.51100000000E-03 0.  1.
         11   -1    0    0    0    0 -0.00000000000E+00 -0.00000000000E+00 -0.45593999997E+02  0.45594000000E+02  0.51100000000E-03 0. -1.
    9900012    2    1    2    0    0 -0.19921381871E+02 -0.15456805958E+02 -0.31896571818E+02  0.50528860808E+02  0.30000002913E+02 0.  0.
        -12    1    1    2    0    0  0.19921381871E+02  0.15456805958E+02  0.31896571818E+02  0.40659139192E+02  0.00000000000E+00 0.  1.
         11    1    3    3    0    0 -0.62749125123E+01  0.48729479578E+01 -0.84163923262E+01  0.11573927980E+02  0.51100000000E-03 0. -1.
        -11    1    3    3    0    0 -0.17463564059E+01 -0.17655162416E+02 -0.18910750410E+02  0.25930117662E+02  0.51100000000E-03 0.  1.
         12    1    3    3    0    0 -0.11900112953E+02 -0.26745914991E+01 -0.45694290819E+01  0.13024815166E+02  0.00000000000E+00 0. -1.
</event>
<event>
 7    1  0.9978258E-013  0.5052886E+02  0.7816164E-02  0.1300439E+00
        -11   -1    0    0    0    0  0.00000000000E+00  0.00000000000E+00  0.45593999997E+02  0.45594000000E+02  0.51100000000E-03 0.  1.
         11   -1    0    0    0    0 -0.00000000000E+00 -0.00000000000E+00 -0.45593999997E+02  0.45594000000E+02  0.51100000000E-03 0. -1.
    9900012    2    1    2    0    0  0.38069757536E+02 -0.75583924241E+01 -0.12113213881E+02  0.50528859756E+02  0.29999999713E+02 0.  0.
        -12    1    1    2    0    0 -0.38069757536E+02  0.75583924241E+01  0.12113213881E+02  0.40659140244E+02  0.00000000000E+00 0.  1.
         11    1    3    3    0    0  0.37305989917E+02  0.82835777952E+00 -0.16408963663E+02  0.40763674382E+02  0.51100000000E-03 0. -1.
        -11    1    3    3    0    0  0.15292813328E+01 -0.37962713900E+01  0.16582946190E+01  0.44159165715E+01  0.51100000000E-03 0.  1.
         12    1    3    3    0    0 -0.76551371408E+00 -0.45904788136E+01  0.26374551632E+01  0.53492688026E+01  0.00000000000E+00 0. -1.
</event>
<event>
 7    1  0.9978258E-013  0.5052886E+02  0.7816164E-02  0.1300439E+00
        -11   -1    0    0    0    0  0.00000000000E+00  0.00000000000E+00  0.45593999997E+02  0.45594000000E+02  0.51100000000E-03 0. -1.
         11   -1    0    0    0    0 -0.00000000000E+00 -0.00000000000E+00 -0.45593999997E+02  0.45594000000E+02  0.51100000000E-03 0.  1.
    9900012    2    1    2    0    0 -0.20238035578E+02 -0.13014636761E+02  0.32775093111E+02  0.50528861021E+02  0.30000003559E+02 0.  0.
        -12    1    1    2    0    0  0.20238035578E+02  0.13014636761E+02 -0.32775093111E+02  0.40659138979E+02  0.00000000000E+00 0.  1.
         11    1    3    3    0    0 -0.16566248240E+02 -0.12104733669E+01  0.31038217135E+02  0.35203362761E+02  0.51100000000E-03 0. -1.
        -11    1    3    3    0    0 -0.62603983206E+01 -0.10228620305E+02  0.36210049888E+00  0.11997848870E+02  0.51100000000E-03 0.  1.
         12    1    3    3    0    0  0.25886109828E+01 -0.15755430899E+01  0.13747754773E+01  0.33276493898E+01  0.00000000000E+00 0. -1.
</event>
<event>
 7    1  0.9978258E-013  0.5052890E+02  0.7816164E-02  0.1300439E+00
        -11   -1    0    0    0    0  0.00000000000E+00  0.00000000000E+00  0.45593999997E+02  0.45594000000E+02  0.51100000000E-03 0.  1.
         11   -1    0    0    0    0 -0.00000000000E+00 -0.00000000000E+00 -0.45593999997E+02  0.45594000000E+02  0.51100000000E-03 0. -1.
    9900012    2    1    2    0    0 -0.44446024251E+01 -0.40328888635E+02 -0.26436801947E+01  0.50528895310E+02  0.30000107784E+02 0.  0.
        -12    1    1    2    0    0  0.44446024251E+01  0.40328888635E+02  0.26436801947E+01  0.40659104690E+02  0.00000000000E+00 0.  1.
         11    1    3    3    0    0  0.63068273752E+01 -0.18742197056E+02  0.10531819916E+01  0.19802909246E+02  0.51100000000E-03 0. -1.
        -11    1    3    3    0    0 -0.33271918053E+01  0.29926290854E+01  0.10938047947E+01  0.46067823198E+01  0.51100000000E-03 0.  1.
         12    1    3    3    0    0 -0.74242379949E+01 -0.24579320664E+02 -0.47906669810E+01  0.26119203744E+02  0.00000000000E+00 0. -1.
</event>
<event>
 7    1  0.9978258E-013  0.5052886E+02  0.7816164E-02  0.1300439E+00
        -11   -1    0    0    0    0  0.00000000000E+00  0.00000000000E+00  0.45593999997E+02  0.45594000000E+02  0.51100000000E-03 0.  1.
         11   -1    0    0    0    0 -0.00000000000E+00 -0.00000000000E+00 -0.45593999997E+02  0.45594000000E+02  0.51100000000E-03 0. -1.
    9900012    2    1    2    0    0  0.51649068398E+01 -0.22629917679E+02 -0.33382269741E+02  0.50528863635E+02  0.30000011506E+02 0.  0.
        -12    1    1    2    0    0 -0.51649068398E+01  0.22629917679E+02  0.33382269741E+02  0.40659136365E+02  0.00000000000E+00 0.  1.
         11    1    3    3    0    0  0.70205573048E+01 -0.24246579082E+02 -0.24166692602E+02  0.34945870337E+02  0.51100000000E-03 0. -1.
        -11    1    3    3    0    0  0.45102825416E+01  0.37321927740E+01 -0.44773900907E+01  0.73701379765E+01  0.51100000000E-03 0.  1.
         12    1    3    3    0    0 -0.63659330066E+01 -0.21155313708E+01 -0.47381870487E+01  0.82128553217E+01  0.00000000000E+00 0. -1.
</event>
<event>
 7    1  0.9978258E-013  0.5052884E+02  0.7816164E-02  0.1300439E+00
        -11   -1    0    0    0    0  0.00000000000E+00  0.00000000000E+00  0.45593999997E+02  0.45594000000E+02  0.51100000000E-03 0.  1.
         11   -1    0    0    0    0 -0.00000000000E+00 -0.00000000000E+00 -0.45593999997E+02  0.45594000000E+02  0.51100000000E-03 0. -1.
    9900012    2    1    2    0    0  0.12303959462E+02 -0.20999253403E+02 -0.32570100541E+02  0.50528837304E+02  0.29999931468E+02 0.  0.
        -12    1    1    2    0    0 -0.12303959462E+02  0.20999253403E+02  0.32570100541E+02  0.40659162696E+02  0.00000000000E+00 0.  1.
         11    1    3    3    0    0  0.65020565162E+01 -0.19250709135E+02 -0.10962065848E+02  0.23087516737E+02  0.51100000000E-03 0. -1.
        -11    1    3    3    0    0 -0.29359209888E+01 -0.32692198979E+01 -0.16774749444E+02  0.17340693468E+02  0.51100000000E-03 0.  1.
        -12    1    3    3    0    0  0.87378239348E+01  0.15206756305E+01 -0.48332852496E+01  0.10100627099E+02  0.00000000000E+00 0.  1.
</event>
<event>
 7    1  0.9978258E-013  0.5052886E+02  0.7816164E-02  0.1300439E+00
        -11   -1    0    0    0    0  0.00000000000E+00  0.00000000000E+00  0.45593999997E+02  0.45594000000E+02  0.51100000000E-03 0.  1.
         11   -1    0    0    0    0 -0.00000000000E+00 -0.00000000000E+00 -0.45593999997E+02  0.45594000000E+02  0.51100000000E-03 0. -1.
    9900012    2    1    2    0    0 -0.10580391052E+02  0.20195765199E+02 -0.33665291431E+02  0.50528862602E+02  0.30000008365E+02 0.  0.
        -12    1    1    2    0    0  0.10580391052E+02 -0.20195765199E+02  0.33665291431E+02  0.40659137398E+02  0.00000000000E+00 0.  1.
         11    1    3    3    0    0 -0.22646213224E+01 -0.32263166636E+01 -0.18238415169E+02  0.18659512777E+02  0.51100000000E-03 0. -1.
        -11    1    3    3    0    0 -0.75012037992E+01  0.16129911756E+02 -0.16726553118E+02  0.24417610267E+02  0.51100000000E-03 0.  1.
         12    1    3    3    0    0 -0.81456593074E+00  0.72921701061E+01  0.12996768551E+01  0.74517395579E+01  0.00000000000E+00 0. -1.
</event>
<event>
 7    1  0.9978258E-013  0.5052887E+02  0.7816164E-02  0.1300439E+00
        -11   -1    0    0    0    0  0.00000000000E+00  0.00000000000E+00  0.45593999997E+02  0.45594000000E+02  0.51100000000E-03 0.  1.
         11   -1    0    0    0    0 -0.00000000000E+00 -0.00000000000E+00 -0.45593999997E+02  0.45594000000E+02  0.51100000000E-03 0. -1.
    9900012    2    1    2    0    0  0.22029972300E+02  0.30047547099E+02 -0.16278520644E+02  0.50528868177E+02  0.30000025311E+02 0.  0.
        -12    1    1    2    0    0 -0.22029972300E+02 -0.30047547099E+02  0.16278520644E+02  0.40659131823E+02  0.00000000000E+00 0.  1.
         11    1    3    3    0    0  0.12004340646E+02  0.17141784433E+02  0.18520428775E+01  0.21008927412E+02  0.51100000000E-03 0. -1.
        -11    1    3    3    0    0  0.47979850833E+01 -0.19153222985E+01 -0.11218943223E+02  0.12351267452E+02  0.51100000000E-03 0.  1.
         12    1    3    3    0    0  0.52276465706E+01  0.14821084965E+02 -0.69116202991E+01  0.17168673314E+02  0.00000000000E+00 0. -1.
</event>
<event>
 7    1  0.9978258E-013  0.5052886E+02  0.7816164E-02  0.1300439E+00
        -11   -1    0    0    0    0  0.00000000000E+00  0.00000000000E+00  0.45593999997E+02  0.45594000000E+02  0.51100000000E-03 0. -1.
         11   -1    0    0    0    0 -0.00000000000E+00 -0.00000000000E+00 -0.45593999997E+02  0.45594000000E+02  0.51100000000E-03 0.  1.
    9900012    2    1    2    0    0  0.29852833295E+02  0.22073612730E+02 -0.16574979982E+02  0.50528855935E+02  0.29999988101E+02 0.  0.
        -12    1    1    2    0    0 -0.29852833295E+02 -0.22073612730E+02  0.16574979982E+02  0.40659144065E+02  0.00000000000E+00 0.  1.
         11    1    3    3    0    0  0.14954859726E+02  0.25281350884E+02 -0.13676081678E+02  0.32401076252E+02  0.51100000000E-03 0. -1.
        -11    1    3    3    0    0  0.68262129077E+01 -0.93512958499E+00 -0.60504808193E+01  0.91695129864E+01  0.51100000000E-03 0.  1.
         12    1    3    3    0    0  0.80717606607E+01 -0.22726085686E+01  0.31515825149E+01  0.89582666972E+01  0.00000000000E+00 0. -1.
</event>
<event>
 7    1  0.9978258E-013  0.5052885E+02  0.7816164E-02  0.1300439E+00
        -11   -1    0    0    0    0  0.00000000000E+00  0.00000000000E+00  0.45593999997E+02  0.45594000000E+02  0.51100000000E-03 0.  1.
         11   -1    0    0    0    0 -0.00000000000E+00 -0.00000000000E+00 -0.45593999997E+02  0.45594000000E+02  0.51100000000E-03 0. -1.
    9900012    2    1    2    0    0  0.28615103490E+02 -0.34946842872E+01 -0.28672799298E+02  0.50528851145E+02  0.29999973541E+02 0.  0.
        -12    1    1    2    0    0 -0.28615103490E+02  0.34946842872E+01  0.28672799298E+02  0.40659148855E+02  0.00000000000E+00 0.  1.
         11    1    3    3    0    0  0.10524807610E+01 -0.29134119224E+01  0.13510727282E+01  0.33795092188E+01  0.51100000000E-03 0. -1.
        -11    1    3    3    0    0  0.70151911775E+01  0.88199119933E+01 -0.18800684750E+02  0.21919614553E+02  0.51100000000E-03 0.  1.
        -12    1    3    3    0    0  0.20547431552E+02 -0.94011843581E+01 -0.11223187275E+02  0.25229727373E+02  0.00000000000E+00 0.  1.
</event>
<event>
 7    1  0.9978258E-013  0.5052882E+02  0.7816164E-02  0.1300439E+00
        -11   -1    0    0    0    0  0.00000000000E+00  0.00000000000E+00  0.45593999997E+02  0.45594000000E+02  0.51100000000E-03 0.  1.
         11   -1    0    0    0    0 -0.00000000000E+00 -0.00000000000E+00 -0.45593999997E+02  0.45594000000E+02  0.51100000000E-03 0. -1.
    9900012    2    1    2    0    0  0.37837647596E+02  0.95183391768E+01 -0.11440380102E+02  0.50528823260E+02  0.29999888781E+02 0.  0.
        -12    1    1    2    0    0 -0.37837647596E+02 -0.95183391768E+01  0.11440380102E+02  0.40659176740E+02  0.00000000000E+00 0.  1.
         11    1    3    3    0    0  0.26226313139E+02 -0.22250527466E+00  0.11729362287E+01  0.26253471944E+02  0.51100000000E-03 0.  1.
        -11    1    3    3    0    0  0.40325156387E+01  0.12075695672E+02 -0.67269275114E+01  0.14399137556E+02  0.51100000000E-03 0. -1.
         12    1    3    3    0    0  0.75788188189E+01 -0.23348512206E+01 -0.58863888192E+01  0.98762137605E+01  0.00000000000E+00 0. -1.
</event>
<event>
 7    1  0.9978258E-013  0.5052886E+02  0.7816164E-02  0.1300439E+00
        -11   -1    0    0    0    0  0.00000000000E+00  0.00000000000E+00  0.45593999997E+02  0.45594000000E+02  0.51100000000E-03 0. -1.
         11   -1    0    0    0    0 -0.00000000000E+00 -0.00000000000E+00 -0.45593999997E+02  0.45594000000E+02  0.51100000000E-03 0.  1.
    9900012    2    1    2    0    0 -0.13956561634E+02  0.12933315353E+02  0.35932010875E+02  0.50528860016E+02  0.30000000506E+02 0.  0.
        -12    1    1    2    0    0  0.13956561634E+02 -0.12933315353E+02 -0.35932010875E+02  0.40659139984E+02  0.00000000000E+00 0.  1.
         11    1    3    3    0    0 -0.13072480446E+02  0.38994490535E+01  0.11101692127E+02  0.17588149882E+02  0.51100000000E-03 0. -1.
        -11    1    3    3    0    0  0.64296994854E+01  0.33355064604E+01  0.22127932195E+02  0.23283299214E+02  0.51100000000E-03 0.  1.
         12    1    3    3    0    0 -0.73137806735E+01  0.56983598388E+01  0.27023865535E+01  0.96574109199E+01  0.00000000000E+00 0. -1.
</event>
<event>
 7    1  0.9978258E-013  0.5052887E+02  0.7816164E-02  0.1300439E+00
        -11   -1    0    0    0    0  0.00000000000E+00  0.00000000000E+00  0.45593999997E+02  0.45594000000E+02  0.51100000000E-03 0.  1.
         11   -1    0    0    0    0 -0.00000000000E+00 -0.00000000000E+00 -0.45593999997E+02  0.45594000000E+02  0.51100000000E-03 0. -1.
    9900012    2    1    2    0    0  0.22955596091E+02 -0.29811627523E+02 -0.15410131524E+02  0.50528872106E+02  0.30000037255E+02 0.  0.
        -12    1    1    2    0    0 -0.22955596091E+02  0.29811627523E+02  0.15410131524E+02  0.40659127894E+02  0.00000000000E+00 0.  1.
         11    1    3    3    0    0 -0.30287382632E+01 -0.40032930818E+01 -0.46824451703E+01  0.68647581166E+01  0.51100000000E-03 0. -1.
        -11    1    3    3    0    0  0.20847238994E+02 -0.13113114252E+02 -0.15570796103E+02  0.29137790421E+02  0.51100000000E-03 0.  1.
        -12    1    3    3    0    0  0.51370953602E+01 -0.12695220189E+02  0.48431097491E+01  0.14526323569E+02  0.00000000000E+00 0.  1.
</event>
<event>
 7    1  0.9978258E-013  0.5052886E+02  0.7816164E-02  0.1300439E+00
        -11   -1    0    0    0    0  0.00000000000E+00  0.00000000000E+00  0.45593999997E+02  0.45594000000E+02  0.51100000000E-03 0.  1.
         11   -1    0    0    0    0 -0.00000000000E+00 -0.00000000000E+00 -0.45593999997E+02  0.45594000000E+02  0.51100000000E-03 0. -1.
    9900012    2    1    2    0    0  0.35356055153E+02 -0.19577135599E+02 -0.44554217635E+01  0.50528860100E+02  0.30000000761E+02 0.  0.
        -12    1    1    2    0    0 -0.35356055153E+02  0.19577135599E+02  0.44554217635E+01  0.40659139900E+02  0.00000000000E+00 0.  1.
         11    1    3    3    0    0 -0.27327552578E+01  0.28432387171E+00 -0.17141747586E+01  0.32383926147E+01  0.51100000000E-03 0.  1.
        -11    1    3    3    0    0  0.35115255817E+02 -0.98764788714E+01  0.15120572903E+00  0.36478060385E+02  0.51100000000E-03 0. -1.
        -12    1    3    3    0    0  0.29735545940E+01 -0.99849805995E+01 -0.28924527340E+01  0.10812407101E+02  0.00000000000E+00 0.  1.
</event>
<event>
 7    1  0.9978258E-013  0.5052886E+02  0.7816164E-02  0.1300439E+00
        -11   -1    0    0    0    0  0.00000000000E+00  0.00000000000E+00  0.45593999997E+02  0.45594000000E+02  0.51100000000E-03 0.  1.
         11   -1    0    0    0    0 -0.00000000000E+00 -0.00000000000E+00 -0.45593999997E+02  0.45594000000E+02  0.51100000000E-03 0. -1.
    9900012    2    1    2    0    0  0.13550815741E+02 -0.35532814193E+02  0.14386100968E+02  0.50528863354E+02  0.30000010650E+02 0.  0.
        -12    1    1    2    0    0 -0.13550815741E+02  0.35532814193E+02 -0.14386100968E+02  0.40659136646E+02  0.00000000000E+00 0.  1.
         11    1    3    3    0    0  0.12507841017E+01 -0.17929173363E+02  0.79758422675E+00  0.17990437994E+02  0.51100000000E-03 0. -1.
        -11    1    3    3    0    0  0.17728939736E+02 -0.16038300947E+02  0.10687666598E+02  0.26187184251E+02  0.51100000000E-03 0.  1.
        -12    1    3    3    0    0 -0.54289080965E+01 -0.15653398831E+01  0.29008501426E+01  0.63512411086E+01  0.00000000000E+00 0.  1.
</event>
<event>
 7    1  0.9978258E-013  0.5052888E+02  0.7816164E-02  0.1300439E+00
        -11   -1    0    0    0    0  0.00000000000E+00  0.00000000000E+00  0.45593999997E+02  0.45594000000E+02  0.51100000000E-03 0.  1.
         11   -1    0    0    0    0 -0.00000000000E+00 -0.00000000000E+00 -0.45593999997E+02  0.45594000000E+02  0.51100000000E-03 0. -1.
    9900012    2    1    2    0    0  0.43280479539E+01 -0.39513760048E+02  0.85495345552E+01  0.50528883269E+02  0.30000071184E+02 0.  0.
        -12    1    1    2    0    0 -0.43280479539E+01  0.39513760048E+02 -0.85495345552E+01  0.40659116731E+02  0.00000000000E+00 0.  1.
         11    1    3    3    0    0  0.45912781363E+01 -0.12432781566E+02  0.56653846324E+01  0.14413551807E+02  0.51100000000E-03 0. -1.
        -11    1    3    3    0    0 -0.11206783762E+02 -0.17262578356E+02  0.52089357227E+01  0.21230205497E+02  0.51100000000E-03 0.  1.
        -12    1    3    3    0    0  0.10943553580E+02 -0.98184001255E+01 -0.23247857999E+01  0.14885125965E+02  0.00000000000E+00 0.  1.
</event>
<event>
 7    1  0.9978258E-013  0.5052886E+02  0.7816164E-02  0.1300439E+00
        -11   -1    0    0    0    0  0.00000000000E+00  0.00000000000E+00  0.45593999997E+02  0.45594000000E+02  0.51100000000E-03 0.  1.
         11   -1    0    0    0    0 -0.00000000000E+00 -0.00000000000E+00 -0.45593999997E+02  0.45594000000E+02  0.51100000000E-03 0. -1.
    9900012    2    1    2    0    0  0.39768161021E+02  0.25105816395E+01 -0.80843043676E+01  0.50528860458E+02  0.30000001850E+02 0.  0.
        -12    1    1    2    0    0 -0.39768161021E+02 -0.25105816395E+01  0.80843043676E+01  0.40659139542E+02  0.00000000000E+00 0.  1.
         11    1    3    3    0    0  0.11927753281E+02  0.77415196943E+01 -0.37098915115E+01  0.14695772209E+02  0.51100000000E-03 0. -1.
        -11    1    3    3    0    0  0.28631228569E+02 -0.67838243200E+01  0.17398599836E+01  0.29475322471E+02  0.51100000000E-03 0.  1.
        -12    1    3    3    0    0 -0.79082082937E+00  0.15528862651E+01 -0.61142728397E+01  0.63577657785E+01  0.00000000000E+00 0.  1.
</event>
<event>
 7    1  0.9978258E-013  0.5052886E+02  0.7816164E-02  0.1300439E+00
        -11   -1    0    0    0    0  0.00000000000E+00  0.00000000000E+00  0.45593999997E+02  0.45594000000E+02  0.51100000000E-03 0. -1.
         11   -1    0    0    0    0 -0.00000000000E+00 -0.00000000000E+00 -0.45593999997E+02  0.45594000000E+02  0.51100000000E-03 0.  1.
    9900012    2    1    2    0    0  0.40588662509E+02  0.19288775297E+01  0.14162550150E+01  0.50528857473E+02  0.29999992774E+02 0.  0.
        -12    1    1    2    0    0 -0.40588662509E+02 -0.19288775297E+01 -0.14162550150E+01  0.40659142527E+02  0.00000000000E+00 0.  1.
         11    1    3    3    0    0  0.25604662217E+02 -0.18892846272E+01 -0.82502789278E+01  0.26967299203E+02  0.51100000000E-03 0. -1.
        -11    1    3    3    0    0  0.14191711697E+02  0.76696512555E+01  0.39243377868E+01  0.16602067901E+02  0.51100000000E-03 0.  1.
         12    1    3    3    0    0  0.79228859476E+00 -0.38514890986E+01  0.57421961560E+01  0.69594903684E+01  0.00000000000E+00 0. -1.
</event>
<event>
 7    1  0.9978258E-013  0.5052886E+02  0.7816164E-02  0.1300439E+00
        -11   -1    0    0    0    0  0.00000000000E+00  0.00000000000E+00  0.45593999997E+02  0.45594000000E+02  0.51100000000E-03 0.  1.
         11   -1    0    0    0    0 -0.00000000000E+00 -0.00000000000E+00 -0.45593999997E+02  0.45594000000E+02  0.51100000000E-03 0. -1.
    9900012    2    1    2    0    0 -0.10508113855E+02  0.74854536477E+01 -0.38557923444E+02  0.50528856706E+02  0.29999990444E+02 0.  0.
        -12    1    1    2    0    0  0.10508113855E+02 -0.74854536477E+01  0.38557923444E+02  0.40659143294E+02  0.00000000000E+00 0.  1.
         11    1    3    3    0    0 -0.87164680117E+01  0.17718636857E+02 -0.22152764342E+02  0.29676116237E+02  0.51100000000E-03 0. -1.
        -11    1    3    3    0    0  0.20830698699E+01 -0.82369338192E+01 -0.11354063782E+02  0.14181009254E+02  0.51100000000E-03 0.  1.
        -12    1    3    3    0    0 -0.38747157133E+01 -0.19962493897E+01 -0.50510953201E+01  0.66717312159E+01  0.00000000000E+00 0.  1.
</event>
<event>
 7    1  0.9978258E-013  0.5052886E+02  0.7816164E-02  0.1300439E+00
        -11   -1    0    0    0    0  0.00000000000E+00  0.00000000000E+00  0.45593999997E+02  0.45594000000E+02  0.51100000000E-03 0.  1.
         11   -1    0    0    0    0 -0.00000000000E+00 -0.00000000000E+00 -0.45593999997E+02  0.45594000000E+02  0.51100000000E-03 0. -1.
    9900012    2    1    2    0    0  0.82258108603E+01  0.22144711781E+02 -0.33092495423E+02  0.50528862312E+02  0.30000007485E+02 0.  0.
        -12    1    1    2    0    0 -0.82258108603E+01 -0.22144711781E+02  0.33092495423E+02  0.40659137688E+02  0.00000000000E+00 0.  1.
         11    1    3    3    0    0 -0.54797238983E+01  0.17672488439E+01 -0.21569219923E+01  0.61484026560E+01  0.51100000000E-03 0. -1.
        -11    1    3    3    0    0  0.15276018584E+02  0.11430182182E+02 -0.29575131482E+02  0.35195087880E+02  0.51100000000E-03 0.  1.
        -12    1    3    3    0    0 -0.15704838259E+01  0.89472807556E+01 -0.13604419490E+01  0.91853717760E+01  0.00000000000E+00 0.  1.
</event>
<event>
 7    1  0.9978258E-013  0.5052887E+02  0.7816164E-02  0.1300439E+00
        -11   -1    0    0    0    0  0.00000000000E+00  0.00000000000E+00  0.45593999997E+02  0.45594000000E+02  0.51100000000E-03 0.  1.
         11   -1    0    0    0    0 -0.00000000000E+00 -0.00000000000E+00 -0.45593999997E+02  0.45594000000E+02  0.51100000000E-03 0. -1.
    9900012    2    1    2    0    0 -0.23022202508E+02  0.33499794264E+02  0.95248437520E+00  0.50528865104E+02  0.30000015970E+02 0.  0.
        -12    1    1    2    0    0  0.23022202508E+02 -0.33499794264E+02 -0.95248437520E+00  0.40659134896E+02  0.00000000000E+00 0.  1.
         11    1    3    3    0    0 -0.19736386814E+02  0.18195739695E+02 -0.57447736705E+00  0.26850324617E+02  0.51100000000E-03 0. -1.
        -11    1    3    3    0    0  0.36512721187E+01  0.12096962222E+02  0.68420413219E+01  0.14369475036E+02  0.51100000000E-03 0.  1.
        -12    1    3    3    0    0 -0.69370878128E+01  0.32070923460E+01 -0.53150795796E+01  0.93090654512E+01  0.00000000000E+00 0.  1.
</event>
<event>
 7    1  0.9978258E-013  0.5052886E+02  0.7816164E-02  0.1300439E+00
        -11   -1    0    0    0    0  0.00000000000E+00  0.00000000000E+00  0.45593999997E+02  0.45594000000E+02  0.51100000000E-03 0.  1.
         11   -1    0    0    0    0 -0.00000000000E+00 -0.00000000000E+00 -0.45593999997E+02  0.45594000000E+02  0.51100000000E-03 0. -1.
    9900012    2    1    2    0    0  0.81604901637E+01 -0.26610408057E+02 -0.29638798237E+02  0.50528858622E+02  0.29999996268E+02 0.  0.
        -12    1    1    2    0    0 -0.81604901637E+01  0.26610408057E+02  0.29638798237E+02  0.40659141378E+02  0.00000000000E+00 0.  1.
         11    1    3    3    0    0  0.11894948897E+02 -0.86998413719E+01 -0.33071966892E+01  0.15103463158E+02  0.51100000000E-03 0. -1.
        -11    1    3    3    0    0 -0.57213168939E+01 -0.28666571484E+01 -0.19187839041E+01  0.66807875388E+01  0.51100000000E-03 0.  1.
         12    1    3    3    0    0  0.19868581609E+01 -0.15043909536E+02 -0.24412817644E+02  0.28744607926E+02  0.00000000000E+00 0. -1.
</event>
<event>
 7    1  0.9978258E-013  0.5052887E+02  0.7816164E-02  0.1300439E+00
        -11   -1    0    0    0    0  0.00000000000E+00  0.00000000000E+00  0.45593999997E+02  0.45594000000E+02  0.51100000000E-03 0.  1.
         11   -1    0    0    0    0 -0.00000000000E+00 -0.00000000000E+00 -0.45593999997E+02  0.45594000000E+02  0.51100000000E-03 0. -1.
    9900012    2    1    2    0    0  0.15937700050E+02  0.57410521273E+01 -0.36962072486E+02  0.50528871076E+02  0.30000034122E+02 0.  0.
        -12    1    1    2    0    0 -0.15937700050E+02 -0.57410521273E+01  0.36962072486E+02  0.40659128924E+02  0.00000000000E+00 0.  1.
         11    1    3    3    0    0  0.71121571840E+01 -0.40509226833E+01 -0.14320404351E+02  0.16494445593E+02  0.51100000000E-03 0. -1.
        -11    1    3    3    0    0 -0.51409336815E+01  0.92104807214E+01 -0.14254195917E+02  0.17732576117E+02  0.51100000000E-03 0.  1.
        -12    1    3    3    0    0  0.13966476548E+02  0.58149408913E+00 -0.83874722182E+01  0.16301849366E+02  0.00000000000E+00 0.  1.
</event>
<event>
 7    1  0.9978258E-013  0.5052886E+02  0.7816164E-02  0.1300439E+00
        -11   -1    0    0    0    0  0.00000000000E+00  0.00000000000E+00  0.45593999997E+02  0.45594000000E+02  0.51100000000E-03 0.  1.
         11   -1    0    0    0    0 -0.00000000000E+00 -0.00000000000E+00 -0.45593999997E+02  0.45594000000E+02  0.51100000000E-03 0. -1.
    9900012    2    1    2    0    0 -0.10586782520E+02 -0.16227752757E+02 -0.35745572429E+02  0.50528857461E+02  0.29999992740E+02 0.  0.
        -12    1    1    2    0    0  0.10586782520E+02  0.16227752757E+02  0.35745572429E+02  0.40659142539E+02  0.00000000000E+00 0.  1.
         11    1    3    3    0    0 -0.15388088158E+02 -0.19099041070E+02 -0.26925870043E+02  0.36422096381E+02  0.51100000000E-03 0.  1.
        -11    1    3    3    0    0  0.61208751561E-01  0.49918496559E+01 -0.16575744011E+01  0.52602150769E+01  0.51100000000E-03 0. -1.
         12    1    3    3    0    0  0.47400968871E+01 -0.21205613426E+01 -0.71621279854E+01  0.88465460031E+01  0.00000000000E+00 0. -1.
</event>
<event>
 7    1  0.9978258E-013  0.5052886E+02  0.7816164E-02  0.1300439E+00
        -11   -1    0    0    0    0  0.00000000000E+00  0.00000000000E+00  0.45593999997E+02  0.45594000000E+02  0.51100000000E-03 0.  1.
         11   -1    0    0    0    0 -0.00000000000E+00 -0.00000000000E+00 -0.45593999997E+02  0.45594000000E+02  0.51100000000E-03 0. -1.
    9900012    2    1    2    0    0  0.13489778543E+02 -0.28507479652E+02 -0.25661543853E+02  0.50528863830E+02  0.30000012097E+02 0.  0.
        -12    1    1    2    0    0 -0.13489778543E+02  0.28507479652E+02  0.25661543853E+02  0.40659136170E+02  0.00000000000E+00 0.  1.
         11    1    3    3    0    0 -0.77120858565E+01 -0.73340665098E+01 -0.80359952231E+01  0.13335742173E+02  0.51100000000E-03 0. -1.
        -11    1    3    3    0    0  0.12511330835E+02 -0.56404810836E+01 -0.27505241608E+01  0.13996921431E+02  0.51100000000E-03 0.  1.
        -12    1    3    3    0    0  0.86905335641E+01 -0.15532932058E+02 -0.14875024469E+02  0.23196200225E+02  0.00000000000E+00 0.  1.
</event>
<event>
 7    1  0.9978258E-013  0.5052887E+02  0.7816164E-02  0.1300439E+00
        -11   -1    0    0    0    0  0.00000000000E+00  0.00000000000E+00  0.45593999997E+02  0.45594000000E+02  0.51100000000E-03 0. -1.
         11   -1    0    0    0    0 -0.00000000000E+00 -0.00000000000E+00 -0.45593999997E+02  0.45594000000E+02  0.51100000000E-03 0.  1.
    9900012    2    1    2    0    0  0.38136064579E+02  0.39011916346E+01  0.13549397808E+02  0.50528869430E+02  0.30000029119E+02 0.  0.
        -12    1    1    2    0    0 -0.38136064579E+02 -0.39011916346E+01 -0.13549397808E+02  0.40659130570E+02  0.00000000000E+00 0.  1.
         11    1    3    3    0    0  0.21244372683E+01  0.57078865038E+00  0.35280447066E-01  0.22000632631E+01  0.51100000000E-03 0.  1.
        -11    1    3    3    0    0  0.34355887990E+02  0.67936074040E+01  0.20338734075E+02  0.40498694364E+02  0.51100000000E-03 0. -1.
        -12    1    3    3    0    0  0.16557393210E+01 -0.34632044198E+01 -0.68246167141E+01  0.78301118030E+01  0.00000000000E+00 0.  1.
</event>
<event>
 7    1  0.9978258E-013  0.5052887E+02  0.7816164E-02  0.1300439E+00
        -11   -1    0    0    0    0  0.00000000000E+00  0.00000000000E+00  0.45593999997E+02  0.45594000000E+02  0.51100000000E-03 0.  1.
         11   -1    0    0    0    0 -0.00000000000E+00 -0.00000000000E+00 -0.45593999997E+02  0.45594000000E+02  0.51100000000E-03 0. -1.
    9900012    2    1    2    0    0  0.27852163921E+02  0.21418829766E+02 -0.20461082575E+02  0.50528865679E+02  0.30000017718E+02 0.  0.
        -12    1    1    2    0    0 -0.27852163921E+02 -0.21418829766E+02  0.20461082575E+02  0.40659134321E+02  0.00000000000E+00 0.  1.
         11    1    3    3    0    0  0.14011037868E+02  0.19112138220E+02 -0.15041434723E+02  0.28068269777E+02  0.51100000000E-03 0. -1.
        -11    1    3    3    0    0  0.10453257007E+02 -0.14056646543E+01  0.44009384531E+01  0.11428680357E+02  0.51100000000E-03 0.  1.
        -12    1    3    3    0    0  0.33878690462E+01  0.37123562003E+01 -0.98205863047E+01  0.11031915545E+02  0.00000000000E+00 0.  1.
</event>
<event>
 7    1  0.9978258E-013  0.5052886E+02  0.7816164E-02  0.1300439E+00
        -11   -1    0    0    0    0  0.00000000000E+00  0.00000000000E+00  0.45593999997E+02  0.45594000000E+02  0.51100000000E-03 0.  1.
         11   -1    0    0    0    0 -0.00000000000E+00 -0.00000000000E+00 -0.45593999997E+02  0.45594000000E+02  0.51100000000E-03 0. -1.
    9900012    2    1    2    0    0 -0.39215973307E+02  0.20720515096E+00 -0.10734544244E+02  0.50528856668E+02  0.29999990327E+02 0.  0.
        -12    1    1    2    0    0  0.39215973307E+02 -0.20720515096E+00  0.10734544244E+02  0.40659143332E+02  0.00000000000E+00 0.  1.
         11    1    3    3    0    0 -0.10567783778E+02  0.21826752814E+01 -0.10199530258E+02  0.14848317854E+02  0.51100000000E-03 0. -1.
        -11    1    3    3    0    0 -0.50627491872E+01  0.54604210727E+01  0.65911848308E+01  0.99444127709E+01  0.51100000000E-03 0.  1.
        -12    1    3    3    0    0 -0.23585440342E+02 -0.74358912032E+01 -0.71261988172E+01  0.25736126042E+02  0.00000000000E+00 0.  1.
</event>
<event>
 7    1  0.9978258E-013  0.5052886E+02  0.7816164E-02  0.1300439E+00
        -11   -1    0    0    0    0  0.00000000000E+00  0.00000000000E+00  0.45593999997E+02  0.45594000000E+02  0.51100000000E-03 0. -1.
         11   -1    0    0    0    0 -0.00000000000E+00 -0.00000000000E+00 -0.45593999997E+02  0.45594000000E+02  0.51100000000E-03 0.  1.
    9900012    2    1    2    0    0  0.16182302715E+02 -0.36289650642E+02 -0.86232073088E+01  0.50528863644E+02  0.30000011533E+02 0.  0.
        -12    1    1    2    0    0 -0.16182302715E+02  0.36289650642E+02  0.86232073088E+01  0.40659136356E+02  0.00000000000E+00 0.  1.
         11    1    3    3    0    0  0.91785154649E+01 -0.31847020111E+02  0.13250656939E+01  0.33169769904E+02  0.51100000000E-03 0. -1.
        -11    1    3    3    0    0  0.81288871362E+01 -0.71221610398E+00 -0.18424909189E+01  0.83654546140E+01  0.51100000000E-03 0.  1.
         12    1    3    3    0    0 -0.11250998865E+01 -0.37304144272E+01 -0.81057820838E+01  0.89936391268E+01  0.00000000000E+00 0. -1.
</event>
<event>
 7    1  0.9978258E-013  0.5052885E+02  0.7816164E-02  0.1300439E+00
        -11   -1    0    0    0    0  0.00000000000E+00  0.00000000000E+00  0.45593999997E+02  0.45594000000E+02  0.51100000000E-03 0.  1.
         11   -1    0    0    0    0 -0.00000000000E+00 -0.00000000000E+00 -0.45593999997E+02  0.45594000000E+02  0.51100000000E-03 0. -1.
    9900012    2    1    2    0    0  0.30815014144E+02 -0.26424601521E+02  0.23112592135E+01  0.50528848738E+02  0.29999966223E+02 0.  0.
        -12    1    1    2    0    0 -0.30815014144E+02  0.26424601521E+02 -0.23112592135E+01  0.40659151262E+02  0.00000000000E+00 0.  1.
         11    1    3    3    0    0  0.13458372814E+00 -0.69507603322E+01 -0.63591297881E+00  0.69810864164E+01  0.51100000000E-03 0. -1.
        -11    1    3    3    0    0  0.31953292114E+02 -0.19966232041E+02 -0.26644996491E+01  0.37772514577E+02  0.51100000000E-03 0.  1.
        -12    1    3    3    0    0 -0.12728616981E+01  0.49239085245E+00  0.56116718414E+01  0.57752477444E+01  0.00000000000E+00 0.  1.
</event>
<event>
 7    1  0.9978258E-013  0.5052886E+02  0.7816164E-02  0.1300439E+00
        -11   -1    0    0    0    0  0.00000000000E+00  0.00000000000E+00  0.45593999997E+02  0.45594000000E+02  0.51100000000E-03 0. -1.
         11   -1    0    0    0    0 -0.00000000000E+00 -0.00000000000E+00 -0.45593999997E+02  0.45594000000E+02  0.51100000000E-03 0.  1.
    9900012    2    1    2    0    0  0.31080574033E+02 -0.83684372206E+01 -0.24842160483E+02  0.50528858823E+02  0.29999996879E+02 0.  0.
        -12    1    1    2    0    0 -0.31080574033E+02  0.83684372206E+01  0.24842160483E+02  0.40659141177E+02  0.00000000000E+00 0.  1.
         11    1    3    3    0    0  0.43470017531E+00  0.49483335708E+01  0.19941558390E+01  0.53527214706E+01  0.51100000000E-03 0. -1.
        -11    1    3    3    0    0  0.21913820794E+02 -0.10730029563E+02 -0.26557793940E+02  0.36064740335E+02  0.51100000000E-03 0.  1.
         12    1    3    3    0    0  0.87320530639E+01 -0.25867412286E+01 -0.27852238227E+00  0.91113970176E+01  0.00000000000E+00 0. -1.
</event>
<event>
 7    1  0.9978258E-013  0.5052886E+02  0.7816164E-02  0.1300439E+00
        -11   -1    0    0    0    0  0.00000000000E+00  0.00000000000E+00  0.45593999997E+02  0.45594000000E+02  0.51100000000E-03 0. -1.
         11   -1    0    0    0    0 -0.00000000000E+00 -0.00000000000E+00 -0.45593999997E+02  0.45594000000E+02  0.51100000000E-03 0.  1.
    9900012    2    1    2    0    0  0.33259367024E+02  0.13585656817E+02  0.19037071087E+02  0.50528860295E+02  0.30000001354E+02 0.  0.
        -12    1    1    2    0    0 -0.33259367024E+02 -0.13585656817E+02 -0.19037071087E+02  0.40659139705E+02  0.00000000000E+00 0.  1.
         11    1    3    3    0    0  0.28341421107E+02  0.94055174868E+01  0.13625233141E+02  0.32822962815E+02  0.51100000000E-03 0. -1.
        -11    1    3    3    0    0 -0.57516014629E-01  0.95416654747E+01  0.32071937635E+01  0.10066418441E+02  0.51100000000E-03 0.  1.
         12    1    3    3    0    0  0.49754619310E+01 -0.53615261444E+01  0.22046441823E+01  0.76394790395E+01  0.00000000000E+00 0. -1.
</event>
<event>
 7    1  0.9978258E-013  0.5052885E+02  0.7816164E-02  0.1300439E+00
        -11   -1    0    0    0    0  0.00000000000E+00  0.00000000000E+00  0.45593999997E+02  0.45594000000E+02  0.51100000000E-03 0. -1.
         11   -1    0    0    0    0 -0.00000000000E+00 -0.00000000000E+00 -0.45593999997E+02  0.45594000000E+02  0.51100000000E-03 0.  1.
    9900012    2    1    2    0    0 -0.16321024158E+02 -0.14456526321E+02  0.34319077801E+02  0.50528854855E+02  0.29999984817E+02 0.  0.
        -12    1    1    2    0    0  0.16321024158E+02  0.14456526321E+02 -0.34319077801E+02  0.40659145145E+02  0.00000000000E+00 0.  1.
         11    1    3    3    0    0 -0.15601863709E+02 -0.12007031687E+02  0.36757341204E+02  0.41697590983E+02  0.51100000000E-03 0. -1.
        -11    1    3    3    0    0  0.27391025890E+01 -0.32760626102E+01  0.38983402787E+00  0.42880345206E+01  0.51100000000E-03 0.  1.
         12    1    3    3    0    0 -0.34582630380E+01  0.82656797710E+00 -0.28280974311E+01  0.45432293515E+01  0.00000000000E+00 0. -1.
</event>
<event>
 7    1  0.9978258E-013  0.5052887E+02  0.7816164E-02  0.1300439E+00
        -11   -1    0    0    0    0  0.00000000000E+00  0.00000000000E+00  0.45593999997E+02  0.45594000000E+02  0.51100000000E-03 0.  1.
         11   -1    0    0    0    0 -0.00000000000E+00 -0.00000000000E+00 -0.45593999997E+02  0.45594000000E+02  0.51100000000E-03 0. -1.
    9900012    2    1    2    0    0  0.67893771456E+01 -0.21339441666E+02 -0.33936671486E+02  0.50528867149E+02  0.30000022187E+02 0.  0.
        -12    1    1    2    0    0 -0.67893771456E+01  0.21339441666E+02  0.33936671486E+02  0.40659132851E+02  0.00000000000E+00 0.  1.
         11    1    3    3    0    0  0.90645733300E+01 -0.11010991093E+00 -0.33605742526E+01  0.96680956458E+01  0.51100000000E-03 0. -1.
        -11    1    3    3    0    0  0.12878655051E+01 -0.18006537872E+02 -0.12008652748E+02  0.21681829830E+02  0.51100000000E-03 0.  1.
         12    1    3    3    0    0 -0.35630616896E+01 -0.32227938829E+01 -0.18567444485E+02  0.19178941674E+02  0.00000000000E+00 0. -1.
</event>
<event>
 7    1  0.9978258E-013  0.5052887E+02  0.7816164E-02  0.1300439E+00
        -11   -1    0    0    0    0  0.00000000000E+00  0.00000000000E+00  0.45593999997E+02  0.45594000000E+02  0.51100000000E-03 0.  1.
         11   -1    0    0    0    0 -0.00000000000E+00 -0.00000000000E+00 -0.45593999997E+02  0.45594000000E+02  0.51100000000E-03 0. -1.
    9900012    2    1    2    0    0  0.39563394930E+02  0.84327763739E+01 -0.40976239001E+01  0.50528874857E+02  0.30000045616E+02 0.  0.
        -12    1    1    2    0    0 -0.39563394930E+02 -0.84327763739E+01  0.40976239001E+01  0.40659125143E+02  0.00000000000E+00 0.  1.
         11    1    3    3    0    0  0.17928977695E+02  0.89464663477E+01 -0.22977470294E+01  0.20168469029E+02  0.51100000000E-03 0. -1.
        -11    1    3    3    0    0  0.20768820724E+02 -0.83535581800E+01 -0.70189313362E+00  0.22396841356E+02  0.51100000000E-03 0.  1.
        -12    1    3    3    0    0  0.86559651133E+00  0.78398682062E+01 -0.10979837370E+01  0.79635644718E+01  0.00000000000E+00 0.  1.
</event>
<event>
 7    1  0.9978258E-013  0.5052887E+02  0.7816164E-02  0.1300439E+00
        -11   -1    0    0    0    0  0.00000000000E+00  0.00000000000E+00  0.45593999997E+02  0.45594000000E+02  0.51100000000E-03 0.  1.
         11   -1    0    0    0    0 -0.00000000000E+00 -0.00000000000E+00 -0.45593999997E+02  0.45594000000E+02  0.51100000000E-03 0. -1.
    9900012    2    1    2    0    0  0.38717586416E+02  0.10430992129E+02 -0.67311261628E+01  0.50528866290E+02  0.30000019575E+02 0.  0.
        -12    1    1    2    0    0 -0.38717586416E+02 -0.10430992129E+02  0.67311261628E+01  0.40659133710E+02  0.00000000000E+00 0.  1.
         11    1    3    3    0    0  0.38503345859E+02  0.72307059436E+01 -0.32770943461E+01  0.39313230576E+02  0.51100000000E-03 0. -1.
        -11    1    3    3    0    0  0.16687041518E+00  0.32709473420E+01  0.31894549846E+01  0.45716042709E+01  0.51100000000E-03 0.  1.
         12    1    3    3    0    0  0.47370141820E-01 -0.70661156584E-01 -0.66434868013E+01  0.66440314425E+01  0.00000000000E+00 0. -1.
</event>
<event>
 7    1  0.9978258E-013  0.5052886E+02  0.7816164E-02  0.1300439E+00
        -11   -1    0    0    0    0  0.00000000000E+00  0.00000000000E+00  0.45593999997E+02  0.45594000000E+02  0.51100000000E-03 0.  1.
         11   -1    0    0    0    0 -0.00000000000E+00 -0.00000000000E+00 -0.45593999997E+02  0.45594000000E+02  0.51100000000E-03 0. -1.
    9900012    2    1    2    0    0 -0.76398406245E+01  0.14876598352E+01 -0.39907209743E+02  0.50528859749E+02  0.29999999692E+02 0.  0.
        -12    1    1    2    0    0  0.76398406245E+01 -0.14876598352E+01  0.39907209743E+02  0.40659140251E+02  0.00000000000E+00 0.  1.
         11    1    3    3    0    0 -0.13031682282E+02  0.95275249197E+01 -0.20612685219E+02  0.26181697164E+02  0.51100000000E-03 0.  1.
        -11    1    3    3    0    0  0.77691567339E+01 -0.57914723240E+01 -0.18642687199E+02  0.21010729029E+02  0.51100000000E-03 0. -1.
        -12    1    3    3    0    0 -0.23773150759E+01 -0.22483927605E+01 -0.65183732465E+00  0.33364335560E+01  0.00000000000E+00 0.  1.
</event>
<event>
 7    1  0.9978258E-013  0.5052887E+02  0.7816164E-02  0.1300439E+00
        -11   -1    0    0    0    0  0.00000000000E+00  0.00000000000E+00  0.45593999997E+02  0.45594000000E+02  0.51100000000E-03 0.  1.
         11   -1    0    0    0    0 -0.00000000000E+00 -0.00000000000E+00 -0.45593999997E+02  0.45594000000E+02  0.51100000000E-03 0. -1.
    9900012    2    1    2    0    0 -0.34373318619E+02 -0.21351405809E+02  0.39695798084E+01  0.50528866625E+02  0.30000020594E+02 0.  0.
        -12    1    1    2    0    0  0.34373318619E+02  0.21351405809E+02 -0.39695798084E+01  0.40659133375E+02  0.00000000000E+00 0.  1.
         11    1    3    3    0    0 -0.34590442656E+02 -0.18384655121E+02  0.46121538048E+01  0.39443202584E+02  0.51100000000E-03 0. -1.
        -11    1    3    3    0    0 -0.65839610003E+00 -0.44904624748E+01 -0.47794703673E+01  0.65909844421E+01  0.51100000000E-03 0.  1.
         12    1    3    3    0    0  0.87552013669E+00  0.15237117871E+01  0.41368963709E+01  0.44946795997E+01  0.00000000000E+00 0. -1.
</event>
<event>
 7    1  0.9978258E-013  0.5052886E+02  0.7816164E-02  0.1300439E+00
        -11   -1    0    0    0    0  0.00000000000E+00  0.00000000000E+00  0.45593999997E+02  0.45594000000E+02  0.51100000000E-03 0. -1.
         11   -1    0    0    0    0 -0.00000000000E+00 -0.00000000000E+00 -0.45593999997E+02  0.45594000000E+02  0.51100000000E-03 0.  1.
    9900012    2    1    2    0    0  0.19464454427E+02 -0.34665665072E+02 -0.85200930831E+01  0.50528864408E+02  0.30000013853E+02 0.  0.
        -12    1    1    2    0    0 -0.19464454427E+02  0.34665665072E+02  0.85200930831E+01  0.40659135592E+02  0.00000000000E+00 0.  1.
         11    1    3    3    0    0  0.17040455328E+02 -0.37744229406E+02 -0.90223475005E+01  0.42384038575E+02  0.51100000000E-03 0. -1.
        -11    1    3    3    0    0 -0.23528760881E+01  0.94610816786E+00 -0.96234659495E+00  0.27124265485E+01  0.51100000000E-03 0.  1.
         12    1    3    3    0    0  0.47768751873E+01  0.21324561667E+01  0.14646010124E+01  0.54323992842E+01  0.00000000000E+00 0. -1.
</event>
<event>
 7    1  0.9978258E-013  0.5052886E+02  0.7816164E-02  0.1300439E+00
        -11   -1    0    0    0    0  0.00000000000E+00  0.00000000000E+00  0.45593999997E+02  0.45594000000E+02  0.51100000000E-03 0. -1.
         11   -1    0    0    0    0 -0.00000000000E+00 -0.00000000000E+00 -0.45593999997E+02  0.45594000000E+02  0.51100000000E-03 0.  1.
    9900012    2    1    2    0    0  0.31255243620E+02 -0.23621618602E+02  0.10876340875E+02  0.50528856995E+02  0.29999991321E+02 0.  0.
        -12    1    1    2    0    0 -0.31255243620E+02  0.23621618602E+02 -0.10876340875E+02  0.40659143005E+02  0.00000000000E+00 0.  1.
         11    1    3    3    0    0  0.29335945749E+02 -0.21318074350E+02  0.13953596965E+02  0.38855641489E+02  0.51100000000E-03 0. -1.
        -11    1    3    3    0    0 -0.42336079782E+01 -0.20300550254E+01  0.19444263199E+00  0.46991880275E+01  0.51100000000E-03 0.  1.
         12    1    3    3    0    0  0.61529058485E+01 -0.27348922678E+00 -0.32716987222E+01  0.69740274782E+01  0.00000000000E+00 0. -1.
</event>
<event>
 7    1  0.9978258E-013  0.5052886E+02  0.7816164E-02  0.1300439E+00
        -11   -1    0    0    0    0  0.00000000000E+00  0.00000000000E+00  0.45593999997E+02  0.45594000000E+02  0.51100000000E-03 0. -1.
         11   -1    0    0    0    0 -0.00000000000E+00 -0.00000000000E+00 -0.45593999997E+02  0.45594000000E+02  0.51100000000E-03 0.  1.
    9900012    2    1    2    0    0  0.12601285734E+02  0.10214721228E+02  0.37283141091E+02  0.50528861525E+02  0.30000005092E+02 0.  0.
        -12    1    1    2    0    0 -0.12601285734E+02 -0.10214721228E+02 -0.37283141091E+02  0.40659138475E+02  0.00000000000E+00 0.  1.
         11    1    3    3    0    0  0.18532732996E+01 -0.27530644646E+01  0.15963830477E+02  0.16305148562E+02  0.51100000000E-03 0. -1.
        -11    1    3    3    0    0  0.42956145541E+01  0.17915446751E+02  0.12712621180E+02  0.22383616200E+02  0.51100000000E-03 0.  1.
        -12    1    3    3    0    0  0.64523978802E+01 -0.49476610579E+01  0.86066894332E+01  0.11840096763E+02  0.00000000000E+00 0.  1.
</event>
<event>
 7    1  0.9978258E-013  0.5052885E+02  0.7816164E-02  0.1300439E+00
        -11   -1    0    0    0    0  0.00000000000E+00  0.00000000000E+00  0.45593999997E+02  0.45594000000E+02  0.51100000000E-03 0. -1.
         11   -1    0    0    0    0 -0.00000000000E+00 -0.00000000000E+00 -0.45593999997E+02  0.45594000000E+02  0.51100000000E-03 0.  1.
    9900012    2    1    2    0    0 -0.45904906030E+01 -0.23448205436E+02  0.32897953240E+02  0.50528852573E+02  0.29999977879E+02 0.  0.
        -12    1    1    2    0    0  0.45904906030E+01  0.23448205436E+02 -0.32897953240E+02  0.40659147427E+02  0.00000000000E+00 0.  1.
         11    1    3    3    0    0 -0.14525691953E+02 -0.21573967382E+02  0.17084840932E+02  0.31117898149E+02  0.51100000000E-03 0. -1.
        -11    1    3    3    0    0  0.81685429224E+01  0.69462764125E-01  0.92439707398E+01  0.12336162849E+02  0.51100000000E-03 0.  1.
         12    1    3    3    0    0  0.17666584272E+01 -0.19437008182E+01  0.65691415680E+01  0.70747915736E+01  0.00000000000E+00 0. -1.
</event>
<event>
 7    1  0.9978258E-013  0.5052885E+02  0.7816164E-02  0.1300439E+00
        -11   -1    0    0    0    0  0.00000000000E+00  0.00000000000E+00  0.45593999997E+02  0.45594000000E+02  0.51100000000E-03 0. -1.
         11   -1    0    0    0    0 -0.00000000000E+00 -0.00000000000E+00 -0.45593999997E+02  0.45594000000E+02  0.51100000000E-03 0.  1.
    9900012    2    1    2    0    0  0.19662224213E+02 -0.31740245026E+02  0.16097223101E+02  0.50528845964E+02  0.29999957793E+02 0.  0.
        -12    1    1    2    0    0 -0.19662224213E+02  0.31740245026E+02 -0.16097223101E+02  0.40659154036E+02  0.00000000000E+00 0.  1.
         11    1    3    3    0    0  0.16523316428E+02 -0.24771532635E+02  0.34039380527E+01  0.29970579064E+02  0.51100000000E-03 0. -1.
        -11    1    3    3    0    0  0.56421148415E+01 -0.10753654464E+01  0.12932779853E+02  0.14150853886E+02  0.51100000000E-03 0.  1.
         12    1    3    3    0    0 -0.25032070567E+01 -0.58933469447E+01 -0.23949480432E+00  0.64074130147E+01  0.00000000000E+00 0. -1.
</event>
<event>
 7    1  0.9978258E-013  0.5052886E+02  0.7816164E-02  0.1300439E+00
        -11   -1    0    0    0    0  0.00000000000E+00  0.00000000000E+00  0.45593999997E+02  0.45594000000E+02  0.51100000000E-03 0.  1.
         11   -1    0    0    0    0 -0.00000000000E+00 -0.00000000000E+00 -0.45593999997E+02  0.45594000000E+02  0.51100000000E-03 0. -1.
    9900012    2    1    2    0    0  0.14428344854E+02  0.36583375702E+01 -0.37836556005E+02  0.50528861552E+02  0.30000005175E+02 0.  0.
        -12    1    1    2    0    0 -0.14428344854E+02 -0.36583375702E+01  0.37836556005E+02  0.40659138448E+02  0.00000000000E+00 0.  1.
         11    1    3    3    0    0  0.18990303734E+01 -0.17194507058E+01 -0.14826367197E+02  0.15046062329E+02  0.51100000000E-03 0. -1.
        -11    1    3    3    0    0  0.10866457065E+02  0.10821741438E+02 -0.43021103157E+01  0.15927904141E+02  0.51100000000E-03 0.  1.
        -12    1    3    3    0    0  0.16628574162E+01 -0.54439531623E+01 -0.18708078492E+02  0.19554895082E+02  0.00000000000E+00 0.  1.
</event>
<event>
 7    1  0.9978258E-013  0.5052885E+02  0.7816164E-02  0.1300439E+00
        -11   -1    0    0    0    0  0.00000000000E+00  0.00000000000E+00  0.45593999997E+02  0.45594000000E+02  0.51100000000E-03 0.  1.
         11   -1    0    0    0    0 -0.00000000000E+00 -0.00000000000E+00 -0.45593999997E+02  0.45594000000E+02  0.51100000000E-03 0. -1.
    9900012    2    1    2    0    0  0.45236272297E+01  0.35542034560E+02 -0.19221526417E+02  0.50528849716E+02  0.29999969198E+02 0.  0.
        -12    1    1    2    0    0 -0.45236272297E+01 -0.35542034560E+02  0.19221526417E+02  0.40659150284E+02  0.00000000000E+00 0.  1.
         11    1    3    3    0    0 -0.58030709452E+01  0.16096910718E+02 -0.10141836913E+01  0.17141024937E+02  0.51100000000E-03 0. -1.
        -11    1    3    3    0    0  0.67085983918E+01  0.14419506305E+02 -0.21206359149E+02  0.26507303203E+02  0.51100000000E-03 0.  1.
        -12    1    3    3    0    0  0.36180997830E+01  0.50256175369E+01  0.29990164229E+01  0.68805215770E+01  0.00000000000E+00 0.  1.
</event>
<event>
 7    1  0.9978258E-013  0.5052883E+02  0.7816164E-02  0.1300439E+00
        -11   -1    0    0    0    0  0.00000000000E+00  0.00000000000E+00  0.45593999997E+02  0.45594000000E+02  0.51100000000E-03 0.  1.
         11   -1    0    0    0    0 -0.00000000000E+00 -0.00000000000E+00 -0.45593999997E+02  0.45594000000E+02  0.51100000000E-03 0. -1.
    9900012    2    1    2    0    0 -0.32401530161E+02 -0.42374905081E+01 -0.24194058905E+02  0.50528831675E+02  0.29999914359E+02 0.  0.
        -12    1    1    2    0    0  0.32401530161E+02  0.42374905081E+01  0.24194058905E+02  0.40659168325E+02  0.00000000000E+00 0.  1.
         11    1    3    3    0    0  0.35207794054E+01 -0.30787569871E+01  0.19034183254E+01  0.50495181741E+01  0.51100000000E-03 0. -1.
        -11    1    3    3    0    0 -0.79655382701E+01 -0.20660501012E+01 -0.17893828392E+01  0.84214163987E+01  0.51100000000E-03 0.  1.
         12    1    3    3    0    0 -0.27956771297E+02  0.90731658020E+00 -0.24308094391E+02  0.37057897102E+02  0.00000000000E+00 0. -1.
</event>
<event>
 7    1  0.1331075E-012  0.5052886E+02  0.7816164E-02  0.1300439E+00
        -11   -1    0    0    0    0  0.00000000000E+00  0.00000000000E+00  0.45593999997E+02  0.45594000000E+02  0.51100000000E-03 0. -1.
         11   -1    0    0    0    0 -0.00000000000E+00 -0.00000000000E+00 -0.45593999997E+02  0.45594000000E+02  0.51100000000E-03 0.  1.
    9900012    2    1    2    0    0 -0.10051737434E+02  0.21779324653E+02  0.32829705422E+02  0.50528856307E+02  0.29999989230E+02 0.  0.
        -12    1    1    2    0    0  0.10051737434E+02 -0.21779324653E+02 -0.32829705422E+02  0.40659143693E+02  0.00000000000E+00 0.  1.
         11    1    3    3    0    0  0.39751749342E+01  0.14187792719E+02  0.22453145625E+02  0.26855897429E+02  0.51100000000E-03 0.  1.
        -11    1    3    3    0    0 -0.33294189869E+01 -0.12344318677E+01 -0.28160000229E+01  0.45319652709E+01  0.51100000000E-03 0. -1.
         12    1    3    3    0    0 -0.10697493381E+02  0.88259638015E+01  0.13192559819E+02  0.19140993607E+02  0.00000000000E+00 0. -1.
</event>
<event>
 7    1  0.9978258E-013  0.5052886E+02  0.7816164E-02  0.1300439E+00
        -11   -1    0    0    0    0  0.00000000000E+00  0.00000000000E+00  0.45593999997E+02  0.45594000000E+02  0.51100000000E-03 0.  1.
         11   -1    0    0    0    0 -0.00000000000E+00 -0.00000000000E+00 -0.45593999997E+02  0.45594000000E+02  0.51100000000E-03 0. -1.
    9900012    2    1    2    0    0 -0.33475302641E+02 -0.22029742404E+02  0.68746111970E+01  0.50528859375E+02  0.29999998555E+02 0.  0.
        -12    1    1    2    0    0  0.33475302641E+02  0.22029742404E+02 -0.68746111970E+01  0.40659140625E+02  0.00000000000E+00 0.  1.
         11    1    3    3    0    0 -0.45327712466E+01 -0.56297288826E+01 -0.27776600506E+00  0.72330503026E+01  0.51100000000E-03 0. -1.
        -11    1    3    3    0    0 -0.32794701043E+02 -0.85601596938E+01  0.46620299486E+01  0.34212618637E+02  0.51100000000E-03 0.  1.
        -12    1    3    3    0    0  0.38521696488E+01 -0.78398538276E+01  0.24903472534E+01  0.90831904353E+01  0.00000000000E+00 0.  1.
</event>
<event>
 7    1  0.9978258E-013  0.5052887E+02  0.7816164E-02  0.1300439E+00
        -11   -1    0    0    0    0  0.00000000000E+00  0.00000000000E+00  0.45593999997E+02  0.45594000000E+02  0.51100000000E-03 0.  1.
         11   -1    0    0    0    0 -0.00000000000E+00 -0.00000000000E+00 -0.45593999997E+02  0.45594000000E+02  0.51100000000E-03 0. -1.
    9900012    2    1    2    0    0 -0.19740257852E+02  0.31792377246E+02 -0.15897550968E+02  0.50528866244E+02  0.30000019434E+02 0.  0.
        -12    1    1    2    0    0  0.19740257852E+02 -0.31792377246E+02  0.15897550968E+02  0.40659133756E+02  0.00000000000E+00 0.  1.
         11    1    3    3    0    0 -0.47791293441E+01 -0.25979596144E+01  0.43838847663E+01  0.69862663384E+01  0.51100000000E-03 0.  1.
        -11    1    3    3    0    0 -0.11120295356E+02  0.31984799694E+02 -0.19018243502E+02  0.38837893435E+02  0.51100000000E-03 0. -1.
        -12    1    3    3    0    0 -0.38408331518E+01  0.24055371668E+01 -0.12631922315E+01  0.47047064706E+01  0.00000000000E+00 0.  1.
</event>
<event>
 7    1  0.9978258E-013  0.5052883E+02  0.7816164E-02  0.1300439E+00
        -11   -1    0    0    0    0  0.00000000000E+00  0.00000000000E+00  0.45593999997E+02  0.45594000000E+02  0.51100000000E-03 0.  1.
         11   -1    0    0    0    0 -0.00000000000E+00 -0.00000000000E+00 -0.45593999997E+02  0.45594000000E+02  0.51100000000E-03 0. -1.
    9900012    2    1    2    0    0  0.16931997065E+02  0.35515602442E+02 -0.10252672487E+02  0.50528833327E+02  0.29999919380E+02 0.  0.
        -12    1    1    2    0    0 -0.16931997065E+02 -0.35515602442E+02  0.10252672487E+02  0.40659166673E+02  0.00000000000E+00 0.  1.
         11    1    3    3    0    0  0.42758902878E+01  0.15728124885E+01 -0.11738521631E+02  0.12591658637E+02  0.51100000000E-03 0. -1.
        -11    1    3    3    0    0  0.19170115243E+01  0.20674534409E+02  0.20032341110E+01  0.20859632149E+02  0.51100000000E-03 0.  1.
         12    1    3    3    0    0  0.10739095253E+02  0.13268255544E+02 -0.51738496683E+00  0.17077542541E+02  0.00000000000E+00 0. -1.
</event>
<event>
 7    1  0.9978258E-013  0.5052885E+02  0.7816164E-02  0.1300439E+00
        -11   -1    0    0    0    0  0.00000000000E+00  0.00000000000E+00  0.45593999997E+02  0.45594000000E+02  0.51100000000E-03 0.  1.
         11   -1    0    0    0    0 -0.00000000000E+00 -0.00000000000E+00 -0.45593999997E+02  0.45594000000E+02  0.51100000000E-03 0. -1.
    9900012    2    1    2    0    0 -0.24797759540E+02  0.11733165557E+02 -0.30009501595E+02  0.50528852958E+02  0.29999979052E+02 0.  0.
        -12    1    1    2    0    0  0.24797759540E+02 -0.11733165557E+02  0.30009501595E+02  0.40659147042E+02  0.00000000000E+00 0.  1.
         11    1    3    3    0    0 -0.59354851325E+01  0.14091941691E+02 -0.99922644335E+01  0.18266311974E+02  0.51100000000E-03 0. -1.
        -11    1    3    3    0    0 -0.72531197710E+01 -0.90502363616E+01 -0.68169266971E+01  0.13453067103E+02  0.51100000000E-03 0.  1.
        -12    1    3    3    0    0 -0.11609154636E+02  0.66914602279E+01 -0.13200310464E+02  0.18809473882E+02  0.00000000000E+00 0.  1.
</event>
<event>
 7    1  0.9978258E-013  0.5052887E+02  0.7816164E-02  0.1300439E+00
        -11   -1    0    0    0    0  0.00000000000E+00  0.00000000000E+00  0.45593999997E+02  0.45594000000E+02  0.51100000000E-03 0.  1.
         11   -1    0    0    0    0 -0.00000000000E+00 -0.00000000000E+00 -0.45593999997E+02  0.45594000000E+02  0.51100000000E-03 0. -1.
    9900012    2    1    2    0    0 -0.37544075061E+02  0.83277440146E+01 -0.13200615709E+02  0.50528866369E+02  0.30000019815E+02 0.  0.
        -12    1    1    2    0    0  0.37544075061E+02 -0.83277440146E+01  0.13200615709E+02  0.40659133631E+02  0.00000000000E+00 0.  1.
         11    1    3    3    0    0 -0.49402273928E+01 -0.12958882330E+00 -0.11564998511E+02  0.12576638294E+02  0.51100000000E-03 0. -1.
        -11    1    3    3    0    0 -0.31343042767E+02  0.10700186708E+02  0.23563814347E+01  0.33202904379E+02  0.51100000000E-03 0.  1.
        -12    1    3    3    0    0 -0.12608049010E+01 -0.22428538705E+01 -0.39919986328E+01  0.47493236957E+01  0.00000000000E+00 0.  1.
</event>
<event>
 7    1  0.9978258E-013  0.5052887E+02  0.7816164E-02  0.1300439E+00
        -11   -1    0    0    0    0  0.00000000000E+00  0.00000000000E+00  0.45593999997E+02  0.45594000000E+02  0.51100000000E-03 0.  1.
         11   -1    0    0    0    0 -0.00000000000E+00 -0.00000000000E+00 -0.45593999997E+02  0.45594000000E+02  0.51100000000E-03 0. -1.
    9900012    2    1    2    0    0 -0.25299476507E+02 -0.10755694120E+02 -0.29956904755E+02  0.50528872980E+02  0.30000039910E+02 0.  0.
        -12    1    1    2    0    0  0.25299476507E+02  0.10755694120E+02  0.29956904755E+02  0.40659127020E+02  0.00000000000E+00 0.  1.
         11    1    3    3    0    0 -0.19064104535E+02 -0.16517454877E+02 -0.26861553843E+02  0.36848466351E+02  0.51100000000E-03 0. -1.
        -11    1    3    3    0    0  0.17266011087E+01  0.18072041833E+01  0.22026413830E+01  0.33314813029E+01  0.51100000000E-03 0.  1.
        -12    1    3    3    0    0 -0.79619730805E+01  0.39545565742E+01 -0.52979922956E+01  0.10348925326E+02  0.00000000000E+00 0.  1.
</event>
<event>
 7    1  0.9978258E-013  0.5052884E+02  0.7816164E-02  0.1300439E+00
        -11   -1    0    0    0    0  0.00000000000E+00  0.00000000000E+00  0.45593999997E+02  0.45594000000E+02  0.51100000000E-03 0. -1.
         11   -1    0    0    0    0 -0.00000000000E+00 -0.00000000000E+00 -0.45593999997E+02  0.45594000000E+02  0.51100000000E-03 0.  1.
    9900012    2    1    2    0    0 -0.32600328811E+02  0.73296325915E+01  0.23165977927E+02  0.50528837615E+02  0.29999932416E+02 0.  0.
        -12    1    1    2    0    0  0.32600328811E+02 -0.73296325915E+01 -0.23165977927E+02  0.40659162385E+02  0.00000000000E+00 0.  1.
         11    1    3    3    0    0 -0.16319282943E+01 -0.92291035485E+00 -0.52984868481E+01  0.56204018202E+01  0.51100000000E-03 0. -1.
        -11    1    3    3    0    0 -0.11372254114E+02 -0.26070897015E+01  0.57616010694E+01  0.13012345196E+02  0.51100000000E-03 0.  1.
         12    1    3    3    0    0 -0.19596146402E+02  0.10859632648E+02  0.22702863706E+02  0.31896090599E+02  0.00000000000E+00 0. -1.
</event>
<event>
 7    1  0.9978258E-013  0.5052885E+02  0.7816164E-02  0.1300439E+00
        -11   -1    0    0    0    0  0.00000000000E+00  0.00000000000E+00  0.45593999997E+02  0.45594000000E+02  0.51100000000E-03 0.  1.
         11   -1    0    0    0    0 -0.00000000000E+00 -0.00000000000E+00 -0.45593999997E+02  0.45594000000E+02  0.51100000000E-03 0. -1.
    9900012    2    1    2    0    0 -0.25231704623E+02  0.64313252981E+01 -0.31227637894E+02  0.50528853038E+02  0.29999979295E+02 0.  0.
        -12    1    1    2    0    0  0.25231704623E+02 -0.64313252981E+01  0.31227637894E+02  0.40659146962E+02  0.00000000000E+00 0.  1.
         11    1    3    3    0    0 -0.41102717726E+00  0.97314176450E+00 -0.92757509551E+01  0.93357112357E+01  0.51100000000E-03 0. -1.
        -11    1    3    3    0    0 -0.13990205026E+02 -0.10802121958E+01  0.19333136689E+01  0.14164405991E+02  0.51100000000E-03 0.  1.
        -12    1    3    3    0    0 -0.10830472419E+02  0.65383957293E+01 -0.23885200607E+02  0.27028735812E+02  0.00000000000E+00 0.  1.
</event>
<event>
 7    1  0.9978258E-013  0.5052886E+02  0.7816164E-02  0.1300439E+00
        -11   -1    0    0    0    0  0.00000000000E+00  0.00000000000E+00  0.45593999997E+02  0.45594000000E+02  0.51100000000E-03 0.  1.
         11   -1    0    0    0    0 -0.00000000000E+00 -0.00000000000E+00 -0.45593999997E+02  0.45594000000E+02  0.51100000000E-03 0. -1.
    9900012    2    1    2    0    0  0.96377433832E+01 -0.20868580870E+02 -0.33537763422E+02  0.50528863998E+02  0.30000012609E+02 0.  0.
        -12    1    1    2    0    0 -0.96377433832E+01  0.20868580870E+02  0.33537763422E+02  0.40659136002E+02  0.00000000000E+00 0.  1.
         11    1    3    3    0    0 -0.17528026943E+01 -0.14022932169E+00 -0.18354761798E+02  0.18438797750E+02  0.51100000000E-03 0. -1.
        -11    1    3    3    0    0  0.56551152024E+00 -0.15295269759E+02 -0.45359481995E+01  0.15963705917E+02  0.51100000000E-03 0.  1.
         12    1    3    3    0    0  0.10825034557E+02 -0.54330817897E+01 -0.10647053425E+02  0.16126360331E+02  0.00000000000E+00 0. -1.
</event>
<event>
 7    1  0.9978258E-013  0.5052885E+02  0.7816164E-02  0.1300439E+00
        -11   -1    0    0    0    0  0.00000000000E+00  0.00000000000E+00  0.45593999997E+02  0.45594000000E+02  0.51100000000E-03 0.  1.
         11   -1    0    0    0    0 -0.00000000000E+00 -0.00000000000E+00 -0.45593999997E+02  0.45594000000E+02  0.51100000000E-03 0. -1.
    9900012    2    1    2    0    0  0.13154368171E+02  0.18154104896E+02 -0.33919863796E+02  0.50528854823E+02  0.29999984721E+02 0.  0.
        -12    1    1    2    0    0 -0.13154368171E+02 -0.18154104896E+02  0.33919863796E+02  0.40659145177E+02  0.00000000000E+00 0.  1.
         11    1    3    3    0    0  0.16828811585E+02  0.12021413105E+02 -0.19712656989E+02  0.28571176353E+02  0.51100000000E-03 0. -1.
        -11    1    3    3    0    0  0.96310977770E+00  0.44610289805E+01  0.20253901596E+01  0.49930517290E+01  0.51100000000E-03 0.  1.
         12    1    3    3    0    0 -0.46375531914E+01  0.16716628102E+01 -0.16232596967E+02  0.16964626741E+02  0.00000000000E+00 0. -1.
</event>
<event>
 7    1  0.9978258E-013  0.5052886E+02  0.7816164E-02  0.1300439E+00
        -11   -1    0    0    0    0  0.00000000000E+00  0.00000000000E+00  0.45593999997E+02  0.45594000000E+02  0.51100000000E-03 0.  1.
         11   -1    0    0    0    0 -0.00000000000E+00 -0.00000000000E+00 -0.45593999997E+02  0.45594000000E+02  0.51100000000E-03 0. -1.
    9900012    2    1    2    0    0 -0.22320315372E+01 -0.40365997039E+02  0.43323979215E+01  0.50528863837E+02  0.30000012120E+02 0.  0.
        -12    1    1    2    0    0  0.22320315372E+01  0.40365997039E+02 -0.43323979215E+01  0.40659136163E+02  0.00000000000E+00 0.  1.
         11    1    3    3    0    0  0.14429760804E+01 -0.14270882307E+02 -0.11074813066E+02  0.18121582340E+02  0.51100000000E-03 0. -1.
        -11    1    3    3    0    0 -0.40991162545E+01 -0.33001556559E+01  0.52986438632E+01  0.74678918358E+01  0.51100000000E-03 0.  1.
         12    1    3    3    0    0  0.42410863699E+00 -0.22794959076E+02  0.10108567124E+02  0.24939389662E+02  0.00000000000E+00 0. -1.
</event>
<event>
 7    1  0.9978258E-013  0.5052871E+02  0.7816164E-02  0.1300439E+00
        -11   -1    0    0    0    0  0.00000000000E+00  0.00000000000E+00  0.45593999997E+02  0.45594000000E+02  0.51100000000E-03 0. -1.
         11   -1    0    0    0    0 -0.00000000000E+00 -0.00000000000E+00 -0.45593999997E+02  0.45594000000E+02  0.51100000000E-03 0.  1.
    9900012    2    1    2    0    0  0.29882050961E+02 -0.26851903445E+02 -0.62622636461E+01  0.50528712817E+02  0.29999553076E+02 0.  0.
        -12    1    1    2    0    0 -0.29882050961E+02  0.26851903445E+02  0.62622636461E+01  0.40659287183E+02  0.00000000000E+00 0.  1.
         11    1    3    3    0    0  0.45918918929E+01  0.27868598690E+01  0.36400724474E+01  0.64886197892E+01  0.51100000000E-03 0. -1.
        -11    1    3    3    0    0  0.26775340642E+02 -0.23070546514E+02 -0.49664290921E+01  0.35690816762E+02  0.51100000000E-03 0.  1.
        -12    1    3    3    0    0 -0.14851815744E+01 -0.65682167995E+01 -0.49359070013E+01  0.83492762656E+01  0.00000000000E+00 0.  1.
</event>
<event>
 7    1  0.9978258E-013  0.5052879E+02  0.7816164E-02  0.1300439E+00
        -11   -1    0    0    0    0  0.00000000000E+00  0.00000000000E+00  0.45593999997E+02  0.45594000000E+02  0.51100000000E-03 0. -1.
         11   -1    0    0    0    0 -0.00000000000E+00 -0.00000000000E+00 -0.45593999997E+02  0.45594000000E+02  0.51100000000E-03 0.  1.
    9900012    2    1    2    0    0  0.80122829297E+01  0.39852786467E+02 -0.85451534894E+00  0.50528788702E+02  0.29999783737E+02 0.  0.
        -12    1    1    2    0    0 -0.80122829297E+01 -0.39852786467E+02  0.85451534894E+00  0.40659211298E+02  0.00000000000E+00 0.  1.
         11    1    3    3    0    0  0.71975998886E+01  0.36965950819E+02 -0.96060183071E+01  0.38865956210E+02  0.51100000000E-03 0. -1.
        -11    1    3    3    0    0  0.10617624581E+01  0.48034626488E+01  0.83464762572E+01  0.96883568838E+01  0.51100000000E-03 0.  1.
         12    1    3    3    0    0 -0.24707941705E+00 -0.19166270010E+01  0.40502670097E+00  0.19744756083E+01  0.00000000000E+00 0. -1.
</event>
<event>
 7    1  0.9978258E-013  0.5052889E+02  0.7816164E-02  0.1300439E+00
        -11   -1    0    0    0    0  0.00000000000E+00  0.00000000000E+00  0.45593999997E+02  0.45594000000E+02  0.51100000000E-03 0.  1.
         11   -1    0    0    0    0 -0.00000000000E+00 -0.00000000000E+00 -0.45593999997E+02  0.45594000000E+02  0.51100000000E-03 0. -1.
    9900012    2    1    2    0    0  0.39485886064E+02  0.95617597382E+01 -0.16126251211E+01  0.50528892689E+02  0.30000099818E+02 0.  0.
        -12    1    1    2    0    0 -0.39485886064E+02 -0.95617597382E+01  0.16126251211E+01  0.40659107311E+02  0.00000000000E+00 0.  1.
         11    1    3    3    0    0 -0.22042327142E+01  0.39223476082E+00 -0.57195427533E+01  0.61421217453E+01  0.51100000000E-03 0.  1.
        -11    1    3    3    0    0  0.22375166799E+02  0.57834957079E+01 -0.34596885768E+01  0.23368062761E+02  0.51100000000E-03 0. -1.
        -12    1    3    3    0    0  0.19314951979E+02  0.33860292695E+01  0.75666062089E+01  0.21018708183E+02  0.00000000000E+00 0.  1.
</event>
<event>
 7    1  0.9978258E-013  0.5052885E+02  0.7816164E-02  0.1300439E+00
        -11   -1    0    0    0    0  0.00000000000E+00  0.00000000000E+00  0.45593999997E+02  0.45594000000E+02  0.51100000000E-03 0. -1.
         11   -1    0    0    0    0 -0.00000000000E+00 -0.00000000000E+00 -0.45593999997E+02  0.45594000000E+02  0.51100000000E-03 0.  1.
    9900012    2    1    2    0    0  0.16522324178E+02  0.37149368225E+02 -0.32223369892E+00  0.50528848628E+02  0.29999965890E+02 0.  0.
        -12    1    1    2    0    0 -0.16522324178E+02 -0.37149368225E+02  0.32223369892E+00  0.40659151372E+02  0.00000000000E+00 0.  1.
         11    1    3    3    0    0  0.16007510455E+02  0.20217065354E+02 -0.87337150621E+01  0.27225868242E+02  0.51100000000E-03 0. -1.
        -11    1    3    3    0    0 -0.55351729678E+01  0.54657482567E+01  0.66210089410E+01  0.10215199628E+02  0.51100000000E-03 0.  1.
         12    1    3    3    0    0  0.60499866908E+01  0.11466554614E+02  0.17904724223E+01  0.13087780758E+02  0.00000000000E+00 0. -1.
</event>
<event>
 7    1  0.9978258E-013  0.5052886E+02  0.7816164E-02  0.1300439E+00
        -11   -1    0    0    0    0  0.00000000000E+00  0.00000000000E+00  0.45593999997E+02  0.45594000000E+02  0.51100000000E-03 0.  1.
         11   -1    0    0    0    0 -0.00000000000E+00 -0.00000000000E+00 -0.45593999997E+02  0.45594000000E+02  0.51100000000E-03 0. -1.
    9900012    2    1    2    0    0  0.26715209953E+02 -0.33849671224E+01 -0.30463180093E+02  0.50528858511E+02  0.29999995930E+02 0.  0.
        -12    1    1    2    0    0 -0.26715209953E+02  0.33849671224E+01  0.30463180093E+02  0.40659141489E+02  0.00000000000E+00 0.  1.
         11    1    3    3    0    0  0.11529380451E+02  0.73647277898E+01 -0.27692678024E+01  0.13958319147E+02  0.51100000000E-03 0. -1.
        -11    1    3    3    0    0 -0.16160391362E+00 -0.71659893617E+01 -0.13843526715E+02  0.15589122859E+02  0.51100000000E-03 0.  1.
         12    1    3    3    0    0  0.15347433416E+02 -0.35837055504E+01 -0.13850385576E+02  0.20981416504E+02  0.00000000000E+00 0. -1.
</event>
<event>
 7    1  0.9978258E-013  0.5052886E+02  0.7816164E-02  0.1300439E+00
        -11   -1    0    0    0    0  0.00000000000E+00  0.00000000000E+00  0.45593999997E+02  0.45594000000E+02  0.51100000000E-03 0. -1.
         11   -1    0    0    0    0 -0.00000000000E+00 -0.00000000000E+00 -0.45593999997E+02  0.45594000000E+02  0.51100000000E-03 0.  1.
    9900012    2    1    2    0    0  0.32426176201E+02 -0.24200318094E+02  0.40066516004E+01  0.50528861348E+02  0.30000004554E+02 0.  0.
        -12    1    1    2    0    0 -0.32426176201E+02  0.24200318094E+02 -0.40066516004E+01  0.40659138652E+02  0.00000000000E+00 0.  1.
         11    1    3    3    0    0  0.12919896790E+02 -0.13322415708E+02 -0.93176210757E+01  0.20766043344E+02  0.51100000000E-03 0. -1.
        -11    1    3    3    0    0  0.65982938651E+01 -0.19073955191E+01  0.12203914949E+02  0.14003970149E+02  0.51100000000E-03 0.  1.
         12    1    3    3    0    0  0.12907985546E+02 -0.89705068660E+01  0.11203577271E+01  0.15758847855E+02  0.00000000000E+00 0. -1.
</event>
<event>
 7    1  0.9978258E-013  0.5052885E+02  0.7816164E-02  0.1300439E+00
        -11   -1    0    0    0    0  0.00000000000E+00  0.00000000000E+00  0.45593999997E+02  0.45594000000E+02  0.51100000000E-03 0.  1.
         11   -1    0    0    0    0 -0.00000000000E+00 -0.00000000000E+00 -0.45593999997E+02  0.45594000000E+02  0.51100000000E-03 0. -1.
    9900012    2    1    2    0    0  0.55717466856E+01 -0.24027570497E+02  0.32323332429E+02  0.50528851897E+02  0.29999975827E+02 0.  0.
        -12    1    1    2    0    0 -0.55717466856E+01  0.24027570497E+02 -0.32323332429E+02  0.40659148103E+02  0.00000000000E+00 0.  1.
         11    1    3    3    0    0  0.12957120656E+02 -0.25634651500E+02  0.25521773399E+02  0.38423732912E+02  0.51100000000E-03 0. -1.
        -11    1    3    3    0    0 -0.16378999457E+01  0.32429760354E+01  0.42934774571E+01  0.56243718524E+01  0.51100000000E-03 0.  1.
         12    1    3    3    0    0 -0.57474740247E+01 -0.16358950326E+01  0.25080815727E+01  0.64807471326E+01  0.00000000000E+00 0. -1.
</event>
<event>
 7    1  0.9978258E-013  0.5052888E+02  0.7816164E-02  0.1300439E+00
        -11   -1    0    0    0    0  0.00000000000E+00  0.00000000000E+00  0.45593999997E+02  0.45594000000E+02  0.51100000000E-03 0. -1.
         11   -1    0    0    0    0 -0.00000000000E+00 -0.00000000000E+00 -0.45593999997E+02  0.45594000000E+02  0.51100000000E-03 0.  1.
    9900012    2    1    2    0    0  0.15056452052E+02  0.13965809090E+02  0.35091643963E+02  0.50528879892E+02  0.30000060920E+02 0.  0.
        -12    1    1    2    0    0 -0.15056452052E+02 -0.13965809090E+02 -0.35091643963E+02  0.40659120108E+02  0.00000000000E+00 0.  1.
         11    1    3    3    0    0  0.53066368038E+01 -0.75629895621E+00  0.78608687362E+01  0.95144962992E+01  0.51100000000E-03 0. -1.
        -11    1    3    3    0    0 -0.99592593644E+00  0.19057062203E+02  0.16931516691E+02  0.25511561027E+02  0.51100000000E-03 0.  1.
        -12    1    3    3    0    0  0.10745741185E+02 -0.43349541568E+01  0.10299258535E+02  0.15502822566E+02  0.00000000000E+00 0.  1.
</event>
<event>
 7    1  0.9978258E-013  0.5052886E+02  0.7816164E-02  0.1300439E+00
        -11   -1    0    0    0    0  0.00000000000E+00  0.00000000000E+00  0.45593999997E+02  0.45594000000E+02  0.51100000000E-03 0. -1.
         11   -1    0    0    0    0 -0.00000000000E+00 -0.00000000000E+00 -0.45593999997E+02  0.45594000000E+02  0.51100000000E-03 0.  1.
    9900012    2    1    2    0    0 -0.31148080663E+01 -0.28297793460E+02  0.29029269710E+02  0.50528860267E+02  0.30000001266E+02 0.  0.
        -12    1    1    2    0    0  0.31148080663E+01  0.28297793460E+02 -0.29029269710E+02  0.40659139733E+02  0.00000000000E+00 0.  1.
         11    1    3    3    0    0 -0.15253517242E+01 -0.15297110020E+01  0.10065786351E+02  0.10294987555E+02  0.51100000000E-03 0. -1.
        -11    1    3    3    0    0 -0.16567522275E+01 -0.30097363638E+02  0.20613738283E+02  0.36517425048E+02  0.51100000000E-03 0.  1.
        -12    1    3    3    0    0  0.67295885370E-01  0.33292811808E+01 -0.16502549240E+01  0.37164476629E+01  0.00000000000E+00 0.  1.
</event>
<event>
 7    1  0.9978258E-013  0.5052886E+02  0.7816164E-02  0.1300439E+00
        -11   -1    0    0    0    0  0.00000000000E+00  0.00000000000E+00  0.45593999997E+02  0.45594000000E+02  0.51100000000E-03 0.  1.
         11   -1    0    0    0    0 -0.00000000000E+00 -0.00000000000E+00 -0.45593999997E+02  0.45594000000E+02  0.51100000000E-03 0. -1.
    9900012    2    1    2    0    0 -0.15252119557E+02 -0.20842575235E+01 -0.37632356488E+02  0.50528861602E+02  0.30000005326E+02 0.  0.
        -12    1    1    2    0    0  0.15252119557E+02  0.20842575235E+01  0.37632356488E+02  0.40659138398E+02  0.00000000000E+00 0.  1.
         11    1    3    3    0    0  0.26976245376E+01  0.44818463351E+01  0.18878675643E+00  0.52344785239E+01  0.51100000000E-03 0. -1.
        -11    1    3    3    0    0 -0.58936887688E+01  0.37100430058E+01 -0.21282562732E+02  0.22393022643E+02  0.51100000000E-03 0.  1.
         12    1    3    3    0    0 -0.12056055326E+02 -0.10276146864E+02 -0.16538580513E+02  0.22901360435E+02  0.00000000000E+00 0. -1.
</event>
<event>
 7    1  0.9978258E-013  0.5052886E+02  0.7816164E-02  0.1300439E+00
        -11   -1    0    0    0    0  0.00000000000E+00  0.00000000000E+00  0.45593999997E+02  0.45594000000E+02  0.51100000000E-03 0. -1.
         11   -1    0    0    0    0 -0.00000000000E+00 -0.00000000000E+00 -0.45593999997E+02  0.45594000000E+02  0.51100000000E-03 0.  1.
    9900012    2    1    2    0    0  0.11525008182E+02 -0.20642583676E+02  0.33079052096E+02  0.50528858814E+02  0.29999996851E+02 0.  0.
        -12    1    1    2    0    0 -0.11525008182E+02  0.20642583676E+02 -0.33079052096E+02  0.40659141186E+02  0.00000000000E+00 0.  1.
         11    1    3    3    0    0 -0.67093334600E+01 -0.11109949370E+02  0.76376922860E+01  0.15059232192E+02  0.51100000000E-03 0. -1.
        -11    1    3    3    0    0  0.19196301621E+02 -0.72226619293E+01  0.16920256836E+02  0.26588718151E+02  0.51100000000E-03 0.  1.
        -12    1    3    3    0    0 -0.96195997889E+00 -0.23099723771E+01  0.85211029739E+01  0.88809084713E+01  0.00000000000E+00 0.  1.
</event>
<event>
 7    1  0.9978258E-013  0.5052886E+02  0.7816164E-02  0.1300439E+00
        -11   -1    0    0    0    0  0.00000000000E+00  0.00000000000E+00  0.45593999997E+02  0.45594000000E+02  0.51100000000E-03 0. -1.
         11   -1    0    0    0    0 -0.00000000000E+00 -0.00000000000E+00 -0.45593999997E+02  0.45594000000E+02  0.51100000000E-03 0.  1.
    9900012    2    1    2    0    0 -0.34704004639E+02  0.11307418474E+02  0.17914800552E+02  0.50528859216E+02  0.29999998072E+02 0.  0.
        -12    1    1    2    0    0  0.34704004639E+02 -0.11307418474E+02 -0.17914800552E+02  0.40659140784E+02  0.00000000000E+00 0.  1.
         11    1    3    3    0    0 -0.19933052576E+02  0.18548126593E+00  0.13872519449E+02  0.24285958585E+02  0.51100000000E-03 0. -1.
        -11    1    3    3    0    0 -0.86368397542E+01  0.11876284388E+02 -0.48048904830E+01  0.15450828607E+02  0.51100000000E-03 0.  1.
         12    1    3    3    0    0 -0.61341123090E+01 -0.75434718089E+00  0.88471715866E+01  0.10792072024E+02  0.00000000000E+00 0. -1.
</event>
<event>
 7    1  0.9978258E-013  0.5052887E+02  0.7816164E-02  0.1300439E+00
        -11   -1    0    0    0    0  0.00000000000E+00  0.00000000000E+00  0.45593999997E+02  0.45594000000E+02  0.51100000000E-03 0.  1.
         11   -1    0    0    0    0 -0.00000000000E+00 -0.00000000000E+00 -0.45593999997E+02  0.45594000000E+02  0.51100000000E-03 0. -1.
    9900012    2    1    2    0    0 -0.34782508567E+02  0.16397888043E+02 -0.13207990712E+02  0.50528872450E+02  0.30000038300E+02 0.  0.
        -12    1    1    2    0    0  0.34782508567E+02 -0.16397888043E+02  0.13207990712E+02  0.40659127550E+02  0.00000000000E+00 0.  1.
         11    1    3    3    0    0  0.19650385014E+00  0.50423755137E+01  0.32771066110E-01  0.50463094226E+01  0.51100000000E-03 0. -1.
        -11    1    3    3    0    0 -0.21444659659E+02  0.97718550309E+01 -0.19404205827E+02  0.30526804331E+02  0.51100000000E-03 0.  1.
        -12    1    3    3    0    0 -0.13534352758E+02  0.15836574982E+01  0.61634440492E+01  0.14955758697E+02  0.00000000000E+00 0.  1.
</event>
<event>
 7    1  0.9978258E-013  0.5052886E+02  0.7816164E-02  0.1300439E+00
        -11   -1    0    0    0    0  0.00000000000E+00  0.00000000000E+00  0.45593999997E+02  0.45594000000E+02  0.51100000000E-03 0.  1.
         11   -1    0    0    0    0 -0.00000000000E+00 -0.00000000000E+00 -0.45593999997E+02  0.45594000000E+02  0.51100000000E-03 0. -1.
    9900012    2    1    2    0    0  0.33159658344E+02  0.39461314033E+01 -0.23195490874E+02  0.50528859681E+02  0.29999999486E+02 0.  0.
        -12    1    1    2    0    0 -0.33159658344E+02 -0.39461314033E+01  0.23195490874E+02  0.40659140319E+02  0.00000000000E+00 0.  1.
         11    1    3    3    0    0  0.21582903592E+02  0.52801582850E+01 -0.29257554756E+02  0.36738349304E+02  0.51100000000E-03 0. -1.
        -11    1    3    3    0    0  0.74055540744E+01 -0.18991873249E+01  0.57565760555E+01  0.95701260069E+01  0.51100000000E-03 0.  1.
         12    1    3    3    0    0  0.41712006781E+01  0.56516044322E+00  0.30548782638E+00  0.42203843706E+01  0.00000000000E+00 0. -1.
</event>
<event>
 7    1  0.9978258E-013  0.5052886E+02  0.7816164E-02  0.1300439E+00
        -11   -1    0    0    0    0  0.00000000000E+00  0.00000000000E+00  0.45593999997E+02  0.45594000000E+02  0.51100000000E-03 0. -1.
         11   -1    0    0    0    0 -0.00000000000E+00 -0.00000000000E+00 -0.45593999997E+02  0.45594000000E+02  0.51100000000E-03 0.  1.
    9900012    2    1    2    0    0  0.17069294786E+02  0.27221065031E+02  0.24916222199E+02  0.50528864070E+02  0.30000012827E+02 0.  0.
        -12    1    1    2    0    0 -0.17069294786E+02 -0.27221065031E+02 -0.24916222199E+02  0.40659135930E+02  0.00000000000E+00 0.  1.
         11    1    3    3    0    0 -0.12564297031E+01  0.22659566682E+02  0.14438811579E+02  0.26898212912E+02  0.51100000000E-03 0. -1.
        -11    1    3    3    0    0  0.12219280298E+02  0.44373400856E+01  0.11597211597E+02  0.17421139892E+02  0.51100000000E-03 0.  1.
         12    1    3    3    0    0  0.61064441911E+01  0.12415826374E+00 -0.11198009771E+01  0.62095112660E+01  0.00000000000E+00 0. -1.
</event>
<event>
 7    1  0.9978258E-013  0.5052886E+02  0.7816164E-02  0.1300439E+00
        -11   -1    0    0    0    0  0.00000000000E+00  0.00000000000E+00  0.45593999997E+02  0.45594000000E+02  0.51100000000E-03 0. -1.
         11   -1    0    0    0    0 -0.00000000000E+00 -0.00000000000E+00 -0.45593999997E+02  0.45594000000E+02  0.51100000000E-03 0.  1.
    9900012    2    1    2    0    0 -0.22786889076E+02 -0.77115851382E+01  0.32778872597E+02  0.50528863907E+02  0.30000012332E+02 0.  0.
        -12    1    1    2    0    0  0.22786889076E+02  0.77115851382E+01 -0.32778872597E+02  0.40659136093E+02  0.00000000000E+00 0.  1.
         11    1    3    3    0    0 -0.53321575901E+01  0.71373765001E+01  0.10630382926E+02  0.13870078921E+02  0.51100000000E-03 0. -1.
        -11    1    3    3    0    0 -0.13641481171E+02 -0.78743533586E+01  0.31479848651E+01  0.16062542088E+02  0.51100000000E-03 0.  1.
         12    1    3    3    0    0 -0.38132503145E+01 -0.69746082798E+01  0.19000504806E+02  0.20596242898E+02  0.00000000000E+00 0. -1.
</event>
<event>
 7    1  0.9978258E-013  0.5052886E+02  0.7816164E-02  0.1300439E+00
        -11   -1    0    0    0    0  0.00000000000E+00  0.00000000000E+00  0.45593999997E+02  0.45594000000E+02  0.51100000000E-03 0.  1.
         11   -1    0    0    0    0 -0.00000000000E+00 -0.00000000000E+00 -0.45593999997E+02  0.45594000000E+02  0.51100000000E-03 0. -1.
    9900012    2    1    2    0    0 -0.17231146202E+02 -0.20080257586E+02 -0.30871290019E+02  0.50528859679E+02  0.29999999482E+02 0.  0.
        -12    1    1    2    0    0  0.17231146202E+02  0.20080257586E+02  0.30871290019E+02  0.40659140321E+02  0.00000000000E+00 0.  1.
         11    1    3    3    0    0  0.40899879494E+01 -0.15657396550E+02 -0.18381486167E+02  0.24490020460E+02  0.51100000000E-03 0. -1.
        -11    1    3    3    0    0 -0.11625869322E+02 -0.13162193212E+00 -0.35107898949E+01  0.12145114564E+02  0.51100000000E-03 0.  1.
         12    1    3    3    0    0 -0.96952648295E+01 -0.42912391038E+01 -0.89790139571E+01  0.13893724655E+02  0.00000000000E+00 0. -1.
</event>
<event>
 7    1  0.9978258E-013  0.5052892E+02  0.7816164E-02  0.1300439E+00
        -11   -1    0    0    0    0  0.00000000000E+00  0.00000000000E+00  0.45593999997E+02  0.45594000000E+02  0.51100000000E-03 0. -1.
         11   -1    0    0    0    0 -0.00000000000E+00 -0.00000000000E+00 -0.45593999997E+02  0.45594000000E+02  0.51100000000E-03 0.  1.
    9900012    2    1    2    0    0  0.33389443765E+02 -0.21011963003E+02 -0.98388710955E+01  0.50528918252E+02  0.30000177519E+02 0.  0.
        -12    1    1    2    0    0 -0.33389443765E+02  0.21011963003E+02  0.98388710955E+01  0.40659081748E+02  0.00000000000E+00 0.  1.
         11    1    3    3    0    0  0.45820719718E+01 -0.13715861702E+02  0.52711108212E+01  0.15391713853E+02  0.51100000000E-03 0. -1.
        -11    1    3    3    0    0  0.19243385535E+02 -0.72878947036E+01 -0.15183983895E+02  0.25572928327E+02  0.51100000000E-03 0.  1.
         12    1    3    3    0    0  0.95639862580E+01 -0.82065975945E-02  0.74001978421E-01  0.95642760722E+01  0.00000000000E+00 0. -1.
</event>
<event>
 7    1  0.9978258E-013  0.5052886E+02  0.7816164E-02  0.1300439E+00
        -11   -1    0    0    0    0  0.00000000000E+00  0.00000000000E+00  0.45593999997E+02  0.45594000000E+02  0.51100000000E-03 0. -1.
         11   -1    0    0    0    0 -0.00000000000E+00 -0.00000000000E+00 -0.45593999997E+02  0.45594000000E+02  0.51100000000E-03 0.  1.
    9900012    2    1    2    0    0 -0.14463350363E+02 -0.37978320789E+02  0.12744792662E+01  0.50528860178E+02  0.30000000998E+02 0.  0.
        -12    1    1    2    0    0  0.14463350363E+02  0.37978320789E+02 -0.12744792662E+01  0.40659139822E+02  0.00000000000E+00 0.  1.
         11    1    3    3    0    0 -0.14393793968E+02 -0.12906616754E+02  0.94340017613E+00  0.19355931003E+02  0.51100000000E-03 0. -1.
        -11    1    3    3    0    0  0.12670316781E+01  0.28710221967E+01  0.60976818440E+00  0.31968664699E+01  0.51100000000E-03 0.  1.
        -12    1    3    3    0    0 -0.13365880729E+01 -0.27942726231E+02 -0.27868909434E+00  0.27976062706E+02  0.00000000000E+00 0.  1.
</event>
<event>
 7    1  0.9978258E-013  0.5052886E+02  0.7816164E-02  0.1300439E+00
        -11   -1    0    0    0    0  0.00000000000E+00  0.00000000000E+00  0.45593999997E+02  0.45594000000E+02  0.51100000000E-03 0.  1.
         11   -1    0    0    0    0 -0.00000000000E+00 -0.00000000000E+00 -0.45593999997E+02  0.45594000000E+02  0.51100000000E-03 0. -1.
    9900012    2    1    2    0    0 -0.28484334757E+02 -0.17065247258E+02 -0.23464563860E+02  0.50528858990E+02  0.29999997387E+02 0.  0.
        -12    1    1    2    0    0  0.28484334757E+02  0.17065247258E+02  0.23464563860E+02  0.40659141010E+02  0.00000000000E+00 0.  1.
         11    1    3    3    0    0 -0.19075986984E+02 -0.48525563922E+01 -0.51925432268E+01  0.20356892896E+02  0.51100000000E-03 0. -1.
        -11    1    3    3    0    0 -0.48201816581E+01 -0.24337212164E+01 -0.18597190881E+02  0.19365243585E+02  0.51100000000E-03 0.  1.
        -12    1    3    3    0    0 -0.45881661142E+01 -0.97789696496E+01  0.32517024776E+00  0.10806722509E+02  0.00000000000E+00 0.  1.
</event>
<event>
 7    1  0.9978258E-013  0.5052887E+02  0.7816164E-02  0.1300439E+00
        -11   -1    0    0    0    0  0.00000000000E+00  0.00000000000E+00  0.45593999997E+02  0.45594000000E+02  0.51100000000E-03 0. -1.
         11   -1    0    0    0    0 -0.00000000000E+00 -0.00000000000E+00 -0.45593999997E+02  0.45594000000E+02  0.51100000000E-03 0.  1.
    9900012    2    1    2    0    0  0.69422298433E+01 -0.17349248024E+02  0.36110583387E+02  0.50528865790E+02  0.30000018055E+02 0.  0.
        -12    1    1    2    0    0 -0.69422298433E+01  0.17349248024E+02 -0.36110583387E+02  0.40659134210E+02  0.00000000000E+00 0.  1.
         11    1    3    3    0    0 -0.31063212881E+00 -0.19396648218E+02  0.35710088089E+02  0.40639104887E+02  0.51100000000E-03 0. -1.
        -11    1    3    3    0    0  0.48110244642E+01 -0.15037566449E+01 -0.13811140126E+01  0.52263483063E+01  0.51100000000E-03 0.  1.
         12    1    3    3    0    0  0.24418375079E+01  0.35511568393E+01  0.17816093099E+01  0.46634125966E+01  0.00000000000E+00 0. -1.
</event>
<event>
 7    1  0.9978258E-013  0.5052872E+02  0.7816164E-02  0.1300439E+00
        -11   -1    0    0    0    0  0.00000000000E+00  0.00000000000E+00  0.45593999997E+02  0.45594000000E+02  0.51100000000E-03 0. -1.
         11   -1    0    0    0    0 -0.00000000000E+00 -0.00000000000E+00 -0.45593999997E+02  0.45594000000E+02  0.51100000000E-03 0.  1.
    9900012    2    1    2    0    0 -0.64026704478E+00 -0.38668751661E+02  0.12549692540E+02  0.50528719636E+02  0.29999573801E+02 0.  0.
        -12    1    1    2    0    0  0.64026704478E+00  0.38668751661E+02 -0.12549692540E+02  0.40659280364E+02  0.00000000000E+00 0.  1.
         11    1    3    3    0    0 -0.13286969274E+02 -0.12305270115E+02  0.10308693880E+01  0.18139071560E+02  0.51100000000E-03 0. -1.
        -11    1    3    3    0    0  0.92328075872E+01 -0.10899460438E+02  0.38497178262E+01  0.14794029248E+02  0.51100000000E-03 0.  1.
         12    1    3    3    0    0  0.34138946420E+01 -0.15464021108E+02  0.76691053255E+01  0.17595618828E+02  0.00000000000E+00 0. -1.
</event>
<event>
 7    1  0.9978258E-013  0.5052886E+02  0.7816164E-02  0.1300439E+00
        -11   -1    0    0    0    0  0.00000000000E+00  0.00000000000E+00  0.45593999997E+02  0.45594000000E+02  0.51100000000E-03 0.  1.
         11   -1    0    0    0    0 -0.00000000000E+00 -0.00000000000E+00 -0.45593999997E+02  0.45594000000E+02  0.51100000000E-03 0. -1.
    9900012    2    1    2    0    0  0.19233889937E+02 -0.34882478053E+02 -0.81508120062E+01  0.50528861623E+02  0.30000005388E+02 0.  0.
        -12    1    1    2    0    0 -0.19233889937E+02  0.34882478053E+02  0.81508120062E+01  0.40659138377E+02  0.00000000000E+00 0.  1.
         11    1    3    3    0    0  0.94715093682E+01 -0.17992186927E+02 -0.34765558779E+01  0.20628008173E+02  0.51100000000E-03 0. -1.
        -11    1    3    3    0    0  0.11775304374E+02 -0.15033863487E+01 -0.76194678874E+01  0.14105823435E+02  0.51100000000E-03 0.  1.
        -12    1    3    3    0    0 -0.20129238057E+01 -0.15386904777E+02  0.29452117592E+01  0.15795030015E+02  0.00000000000E+00 0.  1.
</event>
<event>
 7    1  0.9978258E-013  0.5052887E+02  0.7816164E-02  0.1300439E+00
        -11   -1    0    0    0    0  0.00000000000E+00  0.00000000000E+00  0.45593999997E+02  0.45594000000E+02  0.51100000000E-03 0.  1.
         11   -1    0    0    0    0 -0.00000000000E+00 -0.00000000000E+00 -0.45593999997E+02  0.45594000000E+02  0.51100000000E-03 0. -1.
    9900012    2    1    2    0    0 -0.18445657087E+02 -0.17431238971E+02 -0.31765939249E+02  0.50528865063E+02  0.30000015846E+02 0.  0.
        -12    1    1    2    0    0  0.18445657087E+02  0.17431238971E+02  0.31765939249E+02  0.40659134937E+02  0.00000000000E+00 0.  1.
         11    1    3    3    0    0 -0.22809324203E+02 -0.19788978610E+02 -0.22659448081E+02  0.37753404252E+02  0.51100000000E-03 0. -1.
        -11    1    3    3    0    0 -0.20703548100E+00  0.34106944466E+01 -0.66598510155E+01  0.74852732821E+01  0.51100000000E-03 0.  1.
         12    1    3    3    0    0  0.45707025967E+01 -0.10529548075E+01 -0.24466401528E+01  0.52901875289E+01  0.00000000000E+00 0. -1.
</event>
<event>
 7    1  0.9978258E-013  0.5052886E+02  0.7816164E-02  0.1300439E+00
        -11   -1    0    0    0    0  0.00000000000E+00  0.00000000000E+00  0.45593999997E+02  0.45594000000E+02  0.51100000000E-03 0.  1.
         11   -1    0    0    0    0 -0.00000000000E+00 -0.00000000000E+00 -0.45593999997E+02  0.45594000000E+02  0.51100000000E-03 0. -1.
    9900012    2    1    2    0    0  0.28842951776E+02  0.87751047950E+01 -0.27280900066E+02  0.50528857858E+02  0.29999993945E+02 0.  0.
        -12    1    1    2    0    0 -0.28842951776E+02 -0.87751047950E+01  0.27280900066E+02  0.40659142142E+02  0.00000000000E+00 0.  1.
         11    1    3    3    0    0  0.22233119072E+02  0.18340447203E+02 -0.14963272495E+02  0.32474345433E+02  0.51100000000E-03 0. -1.
        -11    1    3    3    0    0  0.42437071924E+01 -0.73348700640E+01 -0.45158144400E+01  0.96021846425E+01  0.51100000000E-03 0.  1.
         12    1    3    3    0    0  0.23661255108E+01 -0.22304723436E+01 -0.78018131313E+01  0.84523277826E+01  0.00000000000E+00 0. -1.
</event>
<event>
 7    1  0.9978258E-013  0.5052879E+02  0.7816164E-02  0.1300439E+00
        -11   -1    0    0    0    0  0.00000000000E+00  0.00000000000E+00  0.45593999997E+02  0.45594000000E+02  0.51100000000E-03 0.  1.
         11   -1    0    0    0    0 -0.00000000000E+00 -0.00000000000E+00 -0.45593999997E+02  0.45594000000E+02  0.51100000000E-03 0. -1.
    9900012    2    1    2    0    0  0.18687245567E+01  0.34823686724E+02 -0.20904303059E+02  0.50528792249E+02  0.29999794520E+02 0.  0.
        -12    1    1    2    0    0 -0.18687245567E+01 -0.34823686724E+02  0.20904303059E+02  0.40659207751E+02  0.00000000000E+00 0.  1.
         11    1    3    3    0    0  0.41470552152E+01  0.21102410296E+02 -0.40815122669E+01  0.21889918453E+02  0.51100000000E-03 0.  1.
        -11    1    3    3    0    0 -0.45657186775E+01  0.16251358527E+02 -0.18322290159E+02  0.24913023862E+02  0.51100000000E-03 0. -1.
        -12    1    3    3    0    0  0.22873880191E+01 -0.25300820991E+01  0.14994993664E+01  0.37258499336E+01  0.00000000000E+00 0.  1.
</event>
<event>
 7    1  0.9978258E-013  0.5052887E+02  0.7816164E-02  0.1300439E+00
        -11   -1    0    0    0    0  0.00000000000E+00  0.00000000000E+00  0.45593999997E+02  0.45594000000E+02  0.51100000000E-03 0.  1.
         11   -1    0    0    0    0 -0.00000000000E+00 -0.00000000000E+00 -0.45593999997E+02  0.45594000000E+02  0.51100000000E-03 0. -1.
    9900012    2    1    2    0    0  0.20187640835E+02  0.35223129434E+02  0.22260916643E+01  0.50528866049E+02  0.30000018841E+02 0.  0.
        -12    1    1    2    0    0 -0.20187640835E+02 -0.35223129434E+02 -0.22260916643E+01  0.40659133951E+02  0.00000000000E+00 0.  1.
         11    1    3    3    0    0  0.22783630171E+02  0.39247833153E+02  0.49565715065E+00  0.45384269160E+02  0.51100000000E-03 0. -1.
        -11    1    3    3    0    0 -0.11993266789E+01 -0.15794731973E+01  0.37090533443E+00  0.20175953737E+01  0.51100000000E-03 0.  1.
         12    1    3    3    0    0 -0.13966626569E+01 -0.24452305219E+01  0.13595291792E+01  0.31270015144E+01  0.00000000000E+00 0. -1.
</event>
<event>
 7    1  0.9978258E-013  0.5052888E+02  0.7816164E-02  0.1300439E+00
        -11   -1    0    0    0    0  0.00000000000E+00  0.00000000000E+00  0.45593999997E+02  0.45594000000E+02  0.51100000000E-03 0. -1.
         11   -1    0    0    0    0 -0.00000000000E+00 -0.00000000000E+00 -0.45593999997E+02  0.45594000000E+02  0.51100000000E-03 0.  1.
    9900012    2    1    2    0    0 -0.79434856803E+01  0.38177983318E+02 -0.11511170498E+02  0.50528875302E+02  0.30000046968E+02 0.  0.
        -12    1    1    2    0    0  0.79434856803E+01 -0.38177983318E+02  0.11511170498E+02  0.40659124698E+02  0.00000000000E+00 0.  1.
         11    1    3    3    0    0 -0.41203893265E+01  0.72461882627E+01 -0.54085977541E+01  0.99366887074E+01  0.51100000000E-03 0. -1.
        -11    1    3    3    0    0  0.23490046928E+01  0.56959842666E+01  0.87233469453E+01  0.10679833426E+02  0.51100000000E-03 0.  1.
        -12    1    3    3    0    0 -0.61721010466E+01  0.25235810788E+02 -0.14825919689E+02  0.29912353169E+02  0.00000000000E+00 0.  1.
</event>
<event>
 7    1  0.9978258E-013  0.5052886E+02  0.7816164E-02  0.1300439E+00
        -11   -1    0    0    0    0  0.00000000000E+00  0.00000000000E+00  0.45593999997E+02  0.45594000000E+02  0.51100000000E-03 0.  1.
         11   -1    0    0    0    0 -0.00000000000E+00 -0.00000000000E+00 -0.45593999997E+02  0.45594000000E+02  0.51100000000E-03 0. -1.
    9900012    2    1    2    0    0  0.30673198270E+02 -0.26663816637E+02 -0.11668645742E+01  0.50528858559E+02  0.29999996076E+02 0.  0.
        -12    1    1    2    0    0 -0.30673198270E+02  0.26663816637E+02  0.11668645742E+01  0.40659141441E+02  0.00000000000E+00 0.  1.
         11    1    3    3    0    0  0.19608692741E+02 -0.96230932784E+01  0.11287687412E+02  0.24586920154E+02  0.51100000000E-03 0.  1.
        -11    1    3    3    0    0  0.11432351420E+02 -0.17717161015E+02 -0.99377442230E+01  0.23309980994E+02  0.51100000000E-03 0. -1.
        -12    1    3    3    0    0 -0.36784589133E+00  0.67643765611E+00 -0.25168077629E+01  0.26319574118E+01  0.00000000000E+00 0.  1.
</event>
<event>
 7    1  0.9978258E-013  0.5052887E+02  0.7816164E-02  0.1300439E+00
        -11   -1    0    0    0    0  0.00000000000E+00  0.00000000000E+00  0.45593999997E+02  0.45594000000E+02  0.51100000000E-03 0. -1.
         11   -1    0    0    0    0 -0.00000000000E+00 -0.00000000000E+00 -0.45593999997E+02  0.45594000000E+02  0.51100000000E-03 0.  1.
    9900012    2    1    2    0    0 -0.37074534311E+02  0.65707029473E+01  0.15345017232E+02  0.50528870823E+02  0.30000033353E+02 0.  0.
        -12    1    1    2    0    0  0.37074534311E+02 -0.65707029473E+01 -0.15345017232E+02  0.40659129177E+02  0.00000000000E+00 0.  1.
         11    1    3    3    0    0 -0.27678360369E+02  0.46557934982E+01  0.22340704991E+02  0.35873042045E+02  0.51100000000E-03 0. -1.
        -11    1    3    3    0    0 -0.46469935739E+01 -0.31051534051E+01 -0.13943221904E+01  0.57602657557E+01  0.51100000000E-03 0.  1.
         12    1    3    3    0    0 -0.47491803688E+01  0.50200628542E+01 -0.56013655693E+01  0.88955630219E+01  0.00000000000E+00 0. -1.
</event>
<event>
 7    1  0.9978258E-013  0.5052887E+02  0.7816164E-02  0.1300439E+00
        -11   -1    0    0    0    0  0.00000000000E+00  0.00000000000E+00  0.45593999997E+02  0.45594000000E+02  0.51100000000E-03 0.  1.
         11   -1    0    0    0    0 -0.00000000000E+00 -0.00000000000E+00 -0.45593999997E+02  0.45594000000E+02  0.51100000000E-03 0. -1.
    9900012    2    1    2    0    0 -0.12682202229E+02  0.32336766765E+02 -0.21134344433E+02  0.50528865075E+02  0.30000015883E+02 0.  0.
        -12    1    1    2    0    0  0.12682202229E+02 -0.32336766765E+02  0.21134344433E+02  0.40659134925E+02  0.00000000000E+00 0.  1.
         11    1    3    3    0    0 -0.70759232025E+01  0.26385847288E+02 -0.93501123182E+01  0.28873971443E+02  0.51100000000E-03 0. -1.
        -11    1    3    3    0    0 -0.43893077786E+01  0.26897817873E+01 -0.15637011744E+02  0.16462596557E+02  0.51100000000E-03 0.  1.
        -12    1    3    3    0    0 -0.12169712480E+01  0.32611376900E+01  0.38527796291E+01  0.51922970756E+01  0.00000000000E+00 0.  1.
</event>
<event>
 7    1  0.9978258E-013  0.5052888E+02  0.7816164E-02  0.1300439E+00
        -11   -1    0    0    0    0  0.00000000000E+00  0.00000000000E+00  0.45593999997E+02  0.45594000000E+02  0.51100000000E-03 0.  1.
         11   -1    0    0    0    0 -0.00000000000E+00 -0.00000000000E+00 -0.45593999997E+02  0.45594000000E+02  0.51100000000E-03 0. -1.
    9900012    2    1    2    0    0  0.22330651717E+01 -0.37461350887E+02 -0.15646882833E+02  0.50528876391E+02  0.30000050277E+02 0.  0.
        -12    1    1    2    0    0 -0.22330651717E+01  0.37461350887E+02  0.15646882833E+02  0.40659123609E+02  0.00000000000E+00 0.  1.
         11    1    3    3    0    0  0.64464153895E+01 -0.99342540459E+01 -0.15268505940E+02  0.19322860780E+02  0.51100000000E-03 0. -1.
        -11    1    3    3    0    0 -0.59905583806E+01 -0.28272763953E+02 -0.15648546020E+01  0.28942783927E+02  0.51100000000E-03 0.  1.
        -12    1    3    3    0    0  0.17772081628E+01  0.74566711228E+00  0.11864777099E+01  0.22632316833E+01  0.00000000000E+00 0.  1.
</event>
<event>
 7    1  0.9978258E-013  0.5052886E+02  0.7816164E-02  0.1300439E+00
        -11   -1    0    0    0    0  0.00000000000E+00  0.00000000000E+00  0.45593999997E+02  0.45594000000E+02  0.51100000000E-03 0.  1.
         11   -1    0    0    0    0 -0.00000000000E+00 -0.00000000000E+00 -0.45593999997E+02  0.45594000000E+02  0.51100000000E-03 0. -1.
    9900012    2    1    2    0    0 -0.32124350114E+02 -0.13825565492E+02 -0.20737534753E+02  0.50528862293E+02  0.30000007427E+02 0.  0.
        -12    1    1    2    0    0  0.32124350114E+02  0.13825565492E+02  0.20737534753E+02  0.40659137707E+02  0.00000000000E+00 0.  1.
         11    1    3    3    0    0 -0.28583457114E+02 -0.11567110307E+02 -0.64774843152E+01  0.31508250741E+02  0.51100000000E-03 0. -1.
        -11    1    3    3    0    0 -0.67465920643E+01 -0.25087833974E+01 -0.14064288714E+02  0.15799199850E+02  0.51100000000E-03 0.  1.
         12    1    3    3    0    0  0.32056990643E+01  0.25032821193E+00 -0.19576172388E+00  0.32214117025E+01  0.00000000000E+00 0. -1.
</event>
<event>
 7    1  0.9978258E-013  0.5052885E+02  0.7816164E-02  0.1300439E+00
        -11   -1    0    0    0    0  0.00000000000E+00  0.00000000000E+00  0.45593999997E+02  0.45594000000E+02  0.51100000000E-03 0. -1.
         11   -1    0    0    0    0 -0.00000000000E+00 -0.00000000000E+00 -0.45593999997E+02  0.45594000000E+02  0.51100000000E-03 0.  1.
    9900012    2    1    2    0    0  0.65736500963E+01 -0.25127760610E+02  0.31281765694E+02  0.50528854733E+02  0.29999984448E+02 0.  0.
        -12    1    1    2    0    0 -0.65736500963E+01  0.25127760610E+02 -0.31281765694E+02  0.40659145267E+02  0.00000000000E+00 0.  1.
         11    1    3    3    0    0 -0.75034946194E+01 -0.18103449806E+01  0.61378805246E+01  0.98617117199E+01  0.51100000000E-03 0. -1.
        -11    1    3    3    0    0  0.11646631990E+02 -0.14166841617E+02  0.59765055662E+01  0.19288910211E+02  0.51100000000E-03 0.  1.
         12    1    3    3    0    0  0.24305127258E+01 -0.91505740124E+01  0.19167379604E+02  0.21378232802E+02  0.00000000000E+00 0. -1.
</event>
<event>
 7    1  0.9978258E-013  0.5052887E+02  0.7816164E-02  0.1300439E+00
        -11   -1    0    0    0    0  0.00000000000E+00  0.00000000000E+00  0.45593999997E+02  0.45594000000E+02  0.51100000000E-03 0. -1.
         11   -1    0    0    0    0 -0.00000000000E+00 -0.00000000000E+00 -0.45593999997E+02  0.45594000000E+02  0.51100000000E-03 0.  1.
    9900012    2    1    2    0    0  0.13262479811E+02  0.36872165363E+02  0.10849649781E+02  0.50528870033E+02  0.30000030953E+02 0.  0.
        -12    1    1    2    0    0 -0.13262479811E+02 -0.36872165363E+02 -0.10849649781E+02  0.40659129967E+02  0.00000000000E+00 0.  1.
         11    1    3    3    0    0  0.19089840645E+02  0.32731371830E+02  0.12557134913E+02  0.39917995381E+02  0.51100000000E-03 0. -1.
        -11    1    3    3    0    0 -0.41325535964E+01  0.57683417893E+01 -0.32451347022E+01  0.78027345029E+01  0.51100000000E-03 0.  1.
        -12    1    3    3    0    0 -0.16948072371E+01 -0.16275482569E+01  0.15376495701E+01  0.28081401496E+01  0.00000000000E+00 0.  1.
</event>
<event>
 7    1  0.9978258E-013  0.5052887E+02  0.7816164E-02  0.1300439E+00
        -11   -1    0    0    0    0  0.00000000000E+00  0.00000000000E+00  0.45593999997E+02  0.45594000000E+02  0.51100000000E-03 0.  1.
         11   -1    0    0    0    0 -0.00000000000E+00 -0.00000000000E+00 -0.45593999997E+02  0.45594000000E+02  0.51100000000E-03 0. -1.
    9900012    2    1    2    0    0  0.72162607458E-01  0.34880456070E+02 -0.20892912362E+02  0.50528865601E+02  0.30000017481E+02 0.  0.
        -12    1    1    2    0    0 -0.72162607458E-01 -0.34880456070E+02  0.20892912362E+02  0.40659134399E+02  0.00000000000E+00 0.  1.
         11    1    3    3    0    0 -0.91788417427E+01  0.62624805849E+00 -0.59968475402E+01  0.10982053681E+02  0.51100000000E-03 0. -1.
        -11    1    3    3    0    0  0.44187562622E+01  0.39425362022E+01 -0.28676114567E+01  0.65796804131E+01  0.51100000000E-03 0.  1.
         12    1    3    3    0    0  0.48322480879E+01  0.30311671809E+02 -0.12028453366E+02  0.32967131507E+02  0.00000000000E+00 0. -1.
</event>
<event>
 7    1  0.9978258E-013  0.5052885E+02  0.7816164E-02  0.1300439E+00
        -11   -1    0    0    0    0  0.00000000000E+00  0.00000000000E+00  0.45593999997E+02  0.45594000000E+02  0.51100000000E-03 0. -1.
         11   -1    0    0    0    0 -0.00000000000E+00 -0.00000000000E+00 -0.45593999997E+02  0.45594000000E+02  0.51100000000E-03 0.  1.
    9900012    2    1    2    0    0 -0.42109032482E+01  0.37478560897E+02 -0.15191845659E+02  0.50528850874E+02  0.29999972718E+02 0.  0.
        -12    1    1    2    0    0  0.42109032482E+01 -0.37478560897E+02  0.15191845659E+02  0.40659149126E+02  0.00000000000E+00 0.  1.
         11    1    3    3    0    0  0.12533713588E+02  0.21204740478E+02 -0.59092791815E+01  0.25330901598E+02  0.51100000000E-03 0. -1.
        -11    1    3    3    0    0 -0.65207196267E+01  0.53023323651E+01 -0.27815310683E+01  0.88527638795E+01  0.51100000000E-03 0.  1.
         12    1    3    3    0    0 -0.10223897210E+02  0.10971488054E+02 -0.65010354091E+01  0.16345185397E+02  0.00000000000E+00 0. -1.
</event>
<event>
 7    1  0.9978258E-013  0.5052887E+02  0.7816164E-02  0.1300439E+00
        -11   -1    0    0    0    0  0.00000000000E+00  0.00000000000E+00  0.45593999997E+02  0.45594000000E+02  0.51100000000E-03 0.  1.
         11   -1    0    0    0    0 -0.00000000000E+00 -0.00000000000E+00 -0.45593999997E+02  0.45594000000E+02  0.51100000000E-03 0. -1.
    9900012    2    1    2    0    0  0.36127328017E+02  0.15145795979E+02 -0.10889726481E+02  0.50528866852E+02  0.30000021285E+02 0.  0.
        -12    1    1    2    0    0 -0.36127328017E+02 -0.15145795979E+02  0.10889726481E+02  0.40659133148E+02  0.00000000000E+00 0.  1.
         11    1    3    3    0    0  0.28441562400E+02 -0.15025347499E+01 -0.41098659563E+01  0.28776224229E+02  0.51100000000E-03 0. -1.
        -11    1    3    3    0    0  0.84741703545E+01  0.74185637635E+01 -0.24440029678E+01  0.11524747385E+02  0.51100000000E-03 0.  1.
         12    1    3    3    0    0 -0.78840473767E+00  0.92297669652E+01 -0.43358575571E+01  0.10227895239E+02  0.00000000000E+00 0. -1.
</event>
<event>
 7    1  0.9978258E-013  0.5052885E+02  0.7816164E-02  0.1300439E+00
        -11   -1    0    0    0    0  0.00000000000E+00  0.00000000000E+00  0.45593999997E+02  0.45594000000E+02  0.51100000000E-03 0.  1.
         11   -1    0    0    0    0 -0.00000000000E+00 -0.00000000000E+00 -0.45593999997E+02  0.45594000000E+02  0.51100000000E-03 0. -1.
    9900012    2    1    2    0    0  0.20894619142E+02  0.10800095387E+02 -0.33165330412E+02  0.50528852065E+02  0.29999976336E+02 0.  0.
        -12    1    1    2    0    0 -0.20894619142E+02 -0.10800095387E+02  0.33165330412E+02  0.40659147935E+02  0.00000000000E+00 0.  1.
         11    1    3    3    0    0  0.71096506053E+01  0.27368368358E+01 -0.25197729692E+02  0.26324190197E+02  0.51100000000E-03 0. -1.
        -11    1    3    3    0    0  0.58070852083E+01  0.32249651639E+01  0.49398853033E+01  0.82779892483E+01  0.51100000000E-03 0.  1.
        -12    1    3    3    0    0  0.79778833281E+01  0.48382933876E+01 -0.12907486023E+02  0.15926672620E+02  0.00000000000E+00 0.  1.
</event>
<event>
 7    1  0.9978258E-013  0.5052887E+02  0.7816164E-02  0.1300439E+00
        -11   -1    0    0    0    0  0.00000000000E+00  0.00000000000E+00  0.45593999997E+02  0.45594000000E+02  0.51100000000E-03 0. -1.
         11   -1    0    0    0    0 -0.00000000000E+00 -0.00000000000E+00 -0.45593999997E+02  0.45594000000E+02  0.51100000000E-03 0.  1.
    9900012    2    1    2    0    0 -0.10781849284E+02  0.36570143091E+02  0.14125901076E+02  0.50528871616E+02  0.30000035765E+02 0.  0.
        -12    1    1    2    0    0  0.10781849284E+02 -0.36570143091E+02 -0.14125901076E+02  0.40659128384E+02  0.00000000000E+00 0.  1.
         11    1    3    3    0    0  0.80438520715E+01  0.61875877124E+01  0.64596741589E+01  0.12029845732E+02  0.51100000000E-03 0. -1.
        -11    1    3    3    0    0 -0.61990103765E+01  0.17599642318E+01  0.13357993056E+01  0.65810002121E+01  0.51100000000E-03 0.  1.
         12    1    3    3    0    0 -0.12626690979E+02  0.28622591147E+02  0.63304276119E+01  0.31918025672E+02  0.00000000000E+00 0. -1.
</event>
<event>
 7    1  0.9978258E-013  0.5052886E+02  0.7816164E-02  0.1300439E+00
        -11   -1    0    0    0    0  0.00000000000E+00  0.00000000000E+00  0.45593999997E+02  0.45594000000E+02  0.51100000000E-03 0.  1.
         11   -1    0    0    0    0 -0.00000000000E+00 -0.00000000000E+00 -0.45593999997E+02  0.45594000000E+02  0.51100000000E-03 0. -1.
    9900012    2    1    2    0    0  0.36415254785E+02 -0.10771531847E+02 -0.14528224118E+02  0.50528856189E+02  0.29999988872E+02 0.  0.
        -12    1    1    2    0    0 -0.36415254785E+02  0.10771531847E+02  0.14528224118E+02  0.40659143811E+02  0.00000000000E+00 0.  1.
         11    1    3    3    0    0  0.11438449339E+02 -0.14622652962E+01 -0.18328148683E+02  0.21654038364E+02  0.51100000000E-03 0. -1.
        -11    1    3    3    0    0  0.24498760310E+02 -0.59700945323E+01  0.28882221300E+01  0.25380565651E+02  0.51100000000E-03 0.  1.
        -12    1    3    3    0    0  0.47804513639E+00 -0.33391720189E+01  0.91170243452E+00  0.34942521737E+01  0.00000000000E+00 0.  1.
</event>
<event>
 7    1  0.9978258E-013  0.5052885E+02  0.7816164E-02  0.1300439E+00
        -11   -1    0    0    0    0  0.00000000000E+00  0.00000000000E+00  0.45593999997E+02  0.45594000000E+02  0.51100000000E-03 0. -1.
         11   -1    0    0    0    0 -0.00000000000E+00 -0.00000000000E+00 -0.45593999997E+02  0.45594000000E+02  0.51100000000E-03 0.  1.
    9900012    2    1    2    0    0  0.24903421274E+02  0.77402219151E+01  0.31194149839E+02  0.50528850837E+02  0.29999972605E+02 0.  0.
        -12    1    1    2    0    0 -0.24903421274E+02 -0.77402219151E+01 -0.31194149839E+02  0.40659149163E+02  0.00000000000E+00 0.  1.
         11    1    3    3    0    0  0.22311390695E+02 -0.19577676828E+01  0.13840533713E+02  0.26328527926E+02  0.51100000000E-03 0. -1.
        -11    1    3    3    0    0  0.34437328026E+01  0.85347726160E+01  0.19529927367E+02  0.21589805521E+02  0.51100000000E-03 0.  1.
        -12    1    3    3    0    0 -0.85170222338E+00  0.11632169818E+01 -0.21763112409E+01  0.26105173896E+01  0.00000000000E+00 0.  1.
</event>
<event>
 7    1  0.9978258E-013  0.5052886E+02  0.7816164E-02  0.1300439E+00
        -11   -1    0    0    0    0  0.00000000000E+00  0.00000000000E+00  0.45593999997E+02  0.45594000000E+02  0.51100000000E-03 0.  1.
         11   -1    0    0    0    0 -0.00000000000E+00 -0.00000000000E+00 -0.45593999997E+02  0.45594000000E+02  0.51100000000E-03 0. -1.
    9900012    2    1    2    0    0  0.11196418396E+02 -0.24342118201E+01 -0.39011290254E+02  0.50528856632E+02  0.29999990220E+02 0.  0.
        -12    1    1    2    0    0 -0.11196418396E+02  0.24342118201E+01  0.39011290254E+02  0.40659143368E+02  0.00000000000E+00 0.  1.
         11    1    3    3    0    0  0.11560261171E+02 -0.15773450250E+01 -0.33254849274E+02  0.35242199934E+02  0.51100000000E-03 0. -1.
        -11    1    3    3    0    0 -0.19614753507E+01  0.64124118451E+01 -0.30546469757E+01  0.73686687827E+01  0.51100000000E-03 0.  1.
         12    1    3    3    0    0  0.15976325748E+01 -0.72692786402E+01 -0.27017940051E+01  0.79179879161E+01  0.00000000000E+00 0. -1.
</event>
<event>
 7    1  0.9978258E-013  0.5052887E+02  0.7816164E-02  0.1300439E+00
        -11   -1    0    0    0    0  0.00000000000E+00  0.00000000000E+00  0.45593999997E+02  0.45594000000E+02  0.51100000000E-03 0.  1.
         11   -1    0    0    0    0 -0.00000000000E+00 -0.00000000000E+00 -0.45593999997E+02  0.45594000000E+02  0.51100000000E-03 0. -1.
    9900012    2    1    2    0    0 -0.23755253308E+02  0.28041387335E+01 -0.32878410048E+02  0.50528866942E+02  0.30000021556E+02 0.  0.
        -12    1    1    2    0    0  0.23755253308E+02 -0.28041387335E+01  0.32878410048E+02  0.40659133058E+02  0.00000000000E+00 0.  1.
         11    1    3    3    0    0 -0.15839807242E+02  0.78519130334E+01 -0.14195812027E+02  0.22673180437E+02  0.51100000000E-03 0. -1.
        -11    1    3    3    0    0  0.22651493835E+00 -0.69392407006E+01  0.46969750580E+00  0.69588064010E+01  0.51100000000E-03 0.  1.
         12    1    3    3    0    0 -0.81419610046E+01  0.18914664007E+01 -0.19152295527E+02  0.20896880104E+02  0.00000000000E+00 0. -1.
</event>
<event>
 7    1  0.9978258E-013  0.5052884E+02  0.7816164E-02  0.1300439E+00
        -11   -1    0    0    0    0  0.00000000000E+00  0.00000000000E+00  0.45593999997E+02  0.45594000000E+02  0.51100000000E-03 0.  1.
         11   -1    0    0    0    0 -0.00000000000E+00 -0.00000000000E+00 -0.45593999997E+02  0.45594000000E+02  0.51100000000E-03 0. -1.
    9900012    2    1    2    0    0  0.95231158981E+01  0.23143584791E+02 -0.32044537378E+02  0.50528835853E+02  0.29999927058E+02 0.  0.
        -12    1    1    2    0    0 -0.95231158981E+01 -0.23143584791E+02  0.32044537378E+02  0.40659164147E+02  0.00000000000E+00 0.  1.
         11    1    3    3    0    0  0.11296076916E+02  0.75046465401E+01 -0.18666530909E+02  0.23072937607E+02  0.51100000000E-03 0. -1.
        -11    1    3    3    0    0 -0.76865756517E+01  0.13887018761E+02 -0.14119710776E+02  0.21243798342E+02  0.51100000000E-03 0.  1.
        -12    1    3    3    0    0  0.59136146341E+01  0.17519194896E+01  0.74170430701E+00  0.62120999041E+01  0.00000000000E+00 0.  1.
</event>
<event>
 7    1  0.9978258E-013  0.5052886E+02  0.7816164E-02  0.1300439E+00
        -11   -1    0    0    0    0  0.00000000000E+00  0.00000000000E+00  0.45593999997E+02  0.45594000000E+02  0.51100000000E-03 0. -1.
         11   -1    0    0    0    0 -0.00000000000E+00 -0.00000000000E+00 -0.45593999997E+02  0.45594000000E+02  0.51100000000E-03 0.  1.
    9900012    2    1    2    0    0  0.24041972379E+02  0.32097466579E+02  0.67008721691E+01  0.50528862227E+02  0.30000007225E+02 0.  0.
        -12    1    1    2    0    0 -0.24041972379E+02 -0.32097466579E+02 -0.67008721691E+01  0.40659137773E+02  0.00000000000E+00 0.  1.
         11    1    3    3    0    0  0.19516086594E+02  0.32165380912E+02  0.12979525653E+02  0.39798962946E+02  0.51100000000E-03 0. -1.
        -11    1    3    3    0    0 -0.19692902285E+01 -0.73583245693E+00 -0.97257648611E+00  0.23163459783E+01  0.51100000000E-03 0.  1.
         12    1    3    3    0    0  0.64951760128E+01  0.66791812370E+00 -0.53060769981E+01  0.84135533020E+01  0.00000000000E+00 0. -1.
</event>
<event>
 7    1  0.9978258E-013  0.5052884E+02  0.7816164E-02  0.1300439E+00
        -11   -1    0    0    0    0  0.00000000000E+00  0.00000000000E+00  0.45593999997E+02  0.45594000000E+02  0.51100000000E-03 0.  1.
         11   -1    0    0    0    0 -0.00000000000E+00 -0.00000000000E+00 -0.45593999997E+02  0.45594000000E+02  0.51100000000E-03 0. -1.
    9900012    2    1    2    0    0  0.24794242886E+02  0.26661935474E+02 -0.18098443273E+02  0.50528844421E+02  0.29999953101E+02 0.  0.
        -12    1    1    2    0    0 -0.24794242886E+02 -0.26661935474E+02  0.18098443273E+02  0.40659155579E+02  0.00000000000E+00 0.  1.
         11    1    3    3    0    0  0.90440156949E+01  0.76378799719E+01  0.18753893462E+01  0.11985345878E+02  0.51100000000E-03 0. -1.
        -11    1    3    3    0    0  0.55069130838E+00 -0.40378508056E+01 -0.68344574486E+01  0.79572174108E+01  0.51100000000E-03 0.  1.
         12    1    3    3    0    0  0.15199535883E+02  0.23061906307E+02 -0.13139375171E+02  0.30586281132E+02  0.00000000000E+00 0. -1.
</event>
<event>
 7    1  0.9978258E-013  0.5052886E+02  0.7816164E-02  0.1300439E+00
        -11   -1    0    0    0    0  0.00000000000E+00  0.00000000000E+00  0.45593999997E+02  0.45594000000E+02  0.51100000000E-03 0.  1.
         11   -1    0    0    0    0 -0.00000000000E+00 -0.00000000000E+00 -0.45593999997E+02  0.45594000000E+02  0.51100000000E-03 0. -1.
    9900012    2    1    2    0    0 -0.39209444695E+02 -0.69674706711E+01  0.81999802542E+01  0.50528857399E+02  0.29999992551E+02 0.  0.
        -12    1    1    2    0    0  0.39209444695E+02  0.69674706711E+01 -0.81999802542E+01  0.40659142601E+02  0.00000000000E+00 0.  1.
         11    1    3    3    0    0 -0.35829813804E+02  0.28591313642E+01  0.34153145688E+01  0.36105602935E+02  0.51100000000E-03 0. -1.
        -11    1    3    3    0    0 -0.11816621780E+01 -0.42324203438E+01  0.67892944200E+01  0.80872879541E+01  0.51100000000E-03 0.  1.
         12    1    3    3    0    0 -0.21979687128E+01 -0.55941816915E+01 -0.20046287346E+01  0.63359665106E+01  0.00000000000E+00 0. -1.
</event>
<event>
 7    1  0.9978258E-013  0.5052886E+02  0.7816164E-02  0.1300439E+00
        -11   -1    0    0    0    0  0.00000000000E+00  0.00000000000E+00  0.45593999997E+02  0.45594000000E+02  0.51100000000E-03 0. -1.
         11   -1    0    0    0    0 -0.00000000000E+00 -0.00000000000E+00 -0.45593999997E+02  0.45594000000E+02  0.51100000000E-03 0.  1.
    9900012    2    1    2    0    0  0.53507993983E+00  0.34884985976E+02  0.20878626891E+02  0.50528860585E+02  0.30000002235E+02 0.  0.
        -12    1    1    2    0    0 -0.53507993983E+00 -0.34884985976E+02 -0.20878626891E+02  0.40659139415E+02  0.00000000000E+00 0.  1.
         11    1    3    3    0    0  0.53375064529E+00 -0.17474212130E+01  0.12254529873E+01  0.22000240754E+01  0.51100000000E-03 0. -1.
        -11    1    3    3    0    0 -0.12100953015E+02  0.22016627125E+02  0.12369619183E+02  0.28003078631E+02  0.51100000000E-03 0.  1.
        -12    1    3    3    0    0  0.12102282310E+02  0.14615780064E+02  0.72835547209E+01  0.20325757879E+02  0.00000000000E+00 0.  1.
</event>
<event>
 7    1  0.9978258E-013  0.5052887E+02  0.7816164E-02  0.1300439E+00
        -11   -1    0    0    0    0  0.00000000000E+00  0.00000000000E+00  0.45593999997E+02  0.45594000000E+02  0.51100000000E-03 0.  1.
         11   -1    0    0    0    0 -0.00000000000E+00 -0.00000000000E+00 -0.45593999997E+02  0.45594000000E+02  0.51100000000E-03 0. -1.
    9900012    2    1    2    0    0  0.39559749611E+02 -0.93256473735E+01 -0.11062388361E+01  0.50528865078E+02  0.30000015892E+02 0.  0.
        -12    1    1    2    0    0 -0.39559749611E+02  0.93256473735E+01  0.11062388361E+01  0.40659134922E+02  0.00000000000E+00 0.  1.
         11    1    3    3    0    0  0.18991677662E+02  0.45524044455E+01 -0.74105442923E+01  0.20888378913E+02  0.51100000000E-03 0. -1.
        -11    1    3    3    0    0  0.20463857297E+02 -0.85740087929E+01  0.86837225784E+01  0.23826248557E+02  0.51100000000E-03 0.  1.
        -12    1    3    3    0    0  0.10421465205E+00 -0.53040430261E+01 -0.23794171221E+01  0.58142376076E+01  0.00000000000E+00 0.  1.
</event>
<event>
 7    1  0.9978258E-013  0.5052886E+02  0.7816164E-02  0.1300439E+00
        -11   -1    0    0    0    0  0.00000000000E+00  0.00000000000E+00  0.45593999997E+02  0.45594000000E+02  0.51100000000E-03 0.  1.
         11   -1    0    0    0    0 -0.00000000000E+00 -0.00000000000E+00 -0.45593999997E+02  0.45594000000E+02  0.51100000000E-03 0. -1.
    9900012    2    1    2    0    0 -0.25784598687E+02  0.98913427357E+00 -0.31421993360E+02  0.50528861018E+02  0.30000003549E+02 0.  0.
        -12    1    1    2    0    0  0.25784598687E+02 -0.98913427357E+00  0.31421993360E+02  0.40659138982E+02  0.00000000000E+00 0.  1.
         11    1    3    3    0    0 -0.11198004756E+02  0.37922960412E+01 -0.99987639832E+00  0.11864930377E+02  0.51100000000E-03 0. -1.
        -11    1    3    3    0    0 -0.80645157857E+01 -0.10674748034E+02 -0.20026824970E+02  0.24084442678E+02  0.51100000000E-03 0.  1.
        -12    1    3    3    0    0 -0.65220781460E+01  0.78715862661E+01 -0.10395291991E+02  0.14579487963E+02  0.00000000000E+00 0.  1.
</event>
<event>
 7    1  0.9978258E-013  0.5052886E+02  0.7816164E-02  0.1300439E+00
        -11   -1    0    0    0    0  0.00000000000E+00  0.00000000000E+00  0.45593999997E+02  0.45594000000E+02  0.51100000000E-03 0.  1.
         11   -1    0    0    0    0 -0.00000000000E+00 -0.00000000000E+00 -0.45593999997E+02  0.45594000000E+02  0.51100000000E-03 0. -1.
    9900012    2    1    2    0    0 -0.13436452797E+02 -0.97894408610E+01 -0.37105182319E+02  0.50528856242E+02  0.29999989034E+02 0.  0.
        -12    1    1    2    0    0  0.13436452797E+02  0.97894408610E+01  0.37105182319E+02  0.40659143758E+02  0.00000000000E+00 0.  1.
         11    1    3    3    0    0 -0.15685064334E+02  0.65429051295E+01 -0.18185467135E+02  0.24890601959E+02  0.51100000000E-03 0. -1.
        -11    1    3    3    0    0  0.28704137757E+01 -0.84543035163E+01 -0.12971836947E+02  0.15747478441E+02  0.51100000000E-03 0.  1.
        -12    1    3    3    0    0 -0.62180223880E+00 -0.78780424743E+01 -0.59478782367E+01  0.98907758426E+01  0.00000000000E+00 0.  1.
</event>
<event>
 7    1  0.9978258E-013  0.5052886E+02  0.7816164E-02  0.1300439E+00
        -11   -1    0    0    0    0  0.00000000000E+00  0.00000000000E+00  0.45593999997E+02  0.45594000000E+02  0.51100000000E-03 0. -1.
         11   -1    0    0    0    0 -0.00000000000E+00 -0.00000000000E+00 -0.45593999997E+02  0.45594000000E+02  0.51100000000E-03 0.  1.
    9900012    2    1    2    0    0 -0.38040489295E+02 -0.14224156834E+02 -0.19391788582E+01  0.50528857386E+02  0.29999992510E+02 0.  0.
        -12    1    1    2    0    0  0.38040489295E+02  0.14224156834E+02  0.19391788582E+01  0.40659142614E+02  0.00000000000E+00 0.  1.
         11    1    3    3    0    0 -0.28057830415E+02 -0.12055365304E+02 -0.30169014794E+01  0.30686729624E+02  0.51100000000E-03 0. -1.
        -11    1    3    3    0    0 -0.30650265079E+01 -0.61431789426E+01  0.70771831119E+01  0.98599977726E+01  0.51100000000E-03 0.  1.
         12    1    3    3    0    0 -0.69176323725E+01  0.39743874127E+01 -0.59994604907E+01  0.99821299895E+01  0.00000000000E+00 0. -1.
</event>
<event>
 7    1  0.9978258E-013  0.5052886E+02  0.7816164E-02  0.1300439E+00
        -11   -1    0    0    0    0  0.00000000000E+00  0.00000000000E+00  0.45593999997E+02  0.45594000000E+02  0.51100000000E-03 0. -1.
         11   -1    0    0    0    0 -0.00000000000E+00 -0.00000000000E+00 -0.45593999997E+02  0.45594000000E+02  0.51100000000E-03 0.  1.
    9900012    2    1    2    0    0 -0.16843705985E+02  0.17372343730E+02  0.32675015772E+02  0.50528863097E+02  0.30000009870E+02 0.  0.
        -12    1    1    2    0    0  0.16843705985E+02 -0.17372343730E+02 -0.32675015772E+02  0.40659136903E+02  0.00000000000E+00 0.  1.
         11    1    3    3    0    0 -0.18845560844E+00  0.79281816481E+00  0.50640166965E+01  0.51291657726E+01  0.51100000000E-03 0. -1.
        -11    1    3    3    0    0  0.44342371217E+01 -0.12587296128E+01 -0.18935960003E+01  0.49832283876E+01  0.51100000000E-03 0.  1.
        -12    1    3    3    0    0 -0.21089487498E+02  0.17838255178E+02  0.29504595076E+02  0.40416468937E+02  0.00000000000E+00 0.  1.
</event>
<event>
 7    1  0.9978258E-013  0.5052891E+02  0.7816164E-02  0.1300439E+00
        -11   -1    0    0    0    0  0.00000000000E+00  0.00000000000E+00  0.45593999997E+02  0.45594000000E+02  0.51100000000E-03 0. -1.
         11   -1    0    0    0    0 -0.00000000000E+00 -0.00000000000E+00 -0.45593999997E+02  0.45594000000E+02  0.51100000000E-03 0.  1.
    9900012    2    1    2    0    0  0.31900032823E+02  0.20202174686E+02  0.15080510996E+02  0.50528907929E+02  0.30000146140E+02 0.  0.
        -12    1    1    2    0    0 -0.31900032823E+02 -0.20202174686E+02 -0.15080510996E+02  0.40659092071E+02  0.00000000000E+00 0.  1.
         11    1    3    3    0    0  0.39983781170E+01  0.11877038848E+02 -0.50943580842E+01  0.13527880984E+02  0.51100000000E-03 0.  1.
        -11    1    3    3    0    0  0.20942670198E+02  0.19779399441E+01  0.17048429564E+02  0.27076865260E+02  0.51100000000E-03 0. -1.
         12    1    3    3    0    0  0.69589845082E+01  0.63471958939E+01  0.31264395156E+01  0.99241616848E+01  0.00000000000E+00 0. -1.
</event>
<event>
 7    1  0.9978258E-013  0.5052885E+02  0.7816164E-02  0.1300439E+00
        -11   -1    0    0    0    0  0.00000000000E+00  0.00000000000E+00  0.45593999997E+02  0.45594000000E+02  0.51100000000E-03 0.  1.
         11   -1    0    0    0    0 -0.00000000000E+00 -0.00000000000E+00 -0.45593999997E+02  0.45594000000E+02  0.51100000000E-03 0. -1.
    9900012    2    1    2    0    0  0.15189437695E+02 -0.33135530893E+02 -0.18013450019E+02  0.50528845967E+02  0.29999957802E+02 0.  0.
        -12    1    1    2    0    0 -0.15189437695E+02  0.33135530893E+02  0.18013450019E+02  0.40659154033E+02  0.00000000000E+00 0.  1.
         11    1    3    3    0    0  0.14105348412E+02 -0.50878848215E+01  0.21725788016E+01  0.15151485890E+02  0.51100000000E-03 0. -1.
        -11    1    3    3    0    0 -0.21154236298E+01 -0.24234884583E+01 -0.25764165236E+01  0.41214361338E+01  0.51100000000E-03 0.  1.
         12    1    3    3    0    0  0.31995129134E+01 -0.25624157613E+02 -0.17609612297E+02  0.31255923943E+02  0.00000000000E+00 0. -1.
</event>
<event>
 7    1  0.9978258E-013  0.5052884E+02  0.7816164E-02  0.1300439E+00
        -11   -1    0    0    0    0  0.00000000000E+00  0.00000000000E+00  0.45593999997E+02  0.45594000000E+02  0.51100000000E-03 0. -1.
         11   -1    0    0    0    0 -0.00000000000E+00 -0.00000000000E+00 -0.45593999997E+02  0.45594000000E+02  0.51100000000E-03 0.  1.
    9900012    2    1    2    0    0  0.77659756044E+01 -0.17353191798E+02  0.35940551987E+02  0.50528844576E+02  0.29999953574E+02 0.  0.
        -12    1    1    2    0    0 -0.77659756044E+01  0.17353191798E+02 -0.35940551987E+02  0.40659155424E+02  0.00000000000E+00 0.  1.
         11    1    3    3    0    0  0.14045953164E+02 -0.72822640755E+01  0.22623376487E+02  0.27606834920E+02  0.51100000000E-03 0. -1.
        -11    1    3    3    0    0 -0.71815730480E-01 -0.26702365311E+01 -0.29645002088E+01  0.39904363646E+01  0.51100000000E-03 0.  1.
        -12    1    3    3    0    0 -0.62081618296E+01 -0.74006911915E+01  0.16281675708E+02  0.18931573291E+02  0.00000000000E+00 0.  1.
</event>
<event>
 7    1  0.9978258E-013  0.5052886E+02  0.7816164E-02  0.1300439E+00
        -11   -1    0    0    0    0  0.00000000000E+00  0.00000000000E+00  0.45593999997E+02  0.45594000000E+02  0.51100000000E-03 0.  1.
         11   -1    0    0    0    0 -0.00000000000E+00 -0.00000000000E+00 -0.45593999997E+02  0.45594000000E+02  0.51100000000E-03 0. -1.
    9900012    2    1    2    0    0  0.25045364116E+02  0.19480006365E+01 -0.31970309831E+02  0.50528859812E+02  0.29999999884E+02 0.  0.
        -12    1    1    2    0    0 -0.25045364116E+02 -0.19480006365E+01  0.31970309831E+02  0.40659140188E+02  0.00000000000E+00 0.  1.
         11    1    3    3    0    0  0.28858197529E+02  0.53689219433E+01 -0.18804289946E+02  0.34860037408E+02  0.51100000000E-03 0. -1.
        -11    1    3    3    0    0 -0.13852085996E+01 -0.17882459095E+01 -0.83882760685E-01  0.22635509439E+01  0.51100000000E-03 0.  1.
         12    1    3    3    0    0 -0.24276248132E+01 -0.16326753974E+01 -0.13082137124E+02  0.13405271460E+02  0.00000000000E+00 0. -1.
</event>
<event>
 7    1  0.9978258E-013  0.5052883E+02  0.7816164E-02  0.1300439E+00
        -11   -1    0    0    0    0  0.00000000000E+00  0.00000000000E+00  0.45593999997E+02  0.45594000000E+02  0.51100000000E-03 0.  1.
         11   -1    0    0    0    0 -0.00000000000E+00 -0.00000000000E+00 -0.45593999997E+02  0.45594000000E+02  0.51100000000E-03 0. -1.
    9900012    2    1    2    0    0 -0.28341404334E+02 -0.64379550651E+01 -0.28433883062E+02  0.50528829189E+02  0.29999906802E+02 0.  0.
        -12    1    1    2    0    0  0.28341404334E+02  0.64379550651E+01  0.28433883062E+02  0.40659170811E+02  0.00000000000E+00 0.  1.
         11    1    3    3    0    0 -0.22521406187E+01 -0.19004439362E+01 -0.11728748329E+02  0.12093277560E+02  0.51100000000E-03 0. -1.
        -11    1    3    3    0    0 -0.25874225657E+02 -0.49687165712E+01 -0.51193315062E+01  0.26839732731E+02  0.51100000000E-03 0.  1.
        -12    1    3    3    0    0 -0.21503805820E+00  0.43120544232E+00 -0.11585803227E+02  0.11595818898E+02  0.00000000000E+00 0.  1.
</event>
<event>
 7    1  0.9978258E-013  0.5052884E+02  0.7816164E-02  0.1300439E+00
        -11   -1    0    0    0    0  0.00000000000E+00  0.00000000000E+00  0.45593999997E+02  0.45594000000E+02  0.51100000000E-03 0. -1.
         11   -1    0    0    0    0 -0.00000000000E+00 -0.00000000000E+00 -0.45593999997E+02  0.45594000000E+02  0.51100000000E-03 0.  1.
    9900012    2    1    2    0    0 -0.38657992595E+02  0.12103116484E+02  0.34987417036E+01  0.50528843422E+02  0.29999950066E+02 0.  0.
        -12    1    1    2    0    0  0.38657992595E+02 -0.12103116484E+02 -0.34987417036E+01  0.40659156578E+02  0.00000000000E+00 0.  1.
         11    1    3    3    0    0 -0.31249725148E+02  0.25918403252E+00 -0.41814711936E+01  0.31529306998E+02  0.51100000000E-03 0. -1.
        -11    1    3    3    0    0 -0.79944888468E+01  0.13447992017E+02  0.66085659015E+01  0.16983329613E+02  0.51100000000E-03 0.  1.
        -12    1    3    3    0    0  0.58622140013E+00 -0.16040595654E+01  0.10716469957E+01  0.20162068105E+01  0.00000000000E+00 0.  1.
</event>
<event>
 7    1  0.9978258E-013  0.5052886E+02  0.7816164E-02  0.1300439E+00
        -11   -1    0    0    0    0  0.00000000000E+00  0.00000000000E+00  0.45593999997E+02  0.45594000000E+02  0.51100000000E-03 0.  1.
         11   -1    0    0    0    0 -0.00000000000E+00 -0.00000000000E+00 -0.45593999997E+02  0.45594000000E+02  0.51100000000E-03 0. -1.
    9900012    2    1    2    0    0  0.33597817449E+02 -0.21143586567E+02 -0.87921042686E+01  0.50528859727E+02  0.29999999627E+02 0.  0.
        -12    1    1    2    0    0 -0.33597817449E+02  0.21143586567E+02  0.87921042686E+01  0.40659140273E+02  0.00000000000E+00 0.  1.
         11    1    3    3    0    0 -0.23978012261E+01 -0.25033567472E+01 -0.59064767049E+01  0.68485555448E+01  0.51100000000E-03 0. -1.
        -11    1    3    3    0    0  0.11305724444E+02 -0.12442267747E+02  0.40578311377E+01  0.17294375551E+02  0.51100000000E-03 0.  1.
        -12    1    3    3    0    0  0.24689894231E+02 -0.61979620724E+01 -0.69434587014E+01  0.26385928632E+02  0.00000000000E+00 0.  1.
</event>
<event>
 7    1  0.9978258E-013  0.5052886E+02  0.7816164E-02  0.1300439E+00
        -11   -1    0    0    0    0  0.00000000000E+00  0.00000000000E+00  0.45593999997E+02  0.45594000000E+02  0.51100000000E-03 0.  1.
         11   -1    0    0    0    0 -0.00000000000E+00 -0.00000000000E+00 -0.45593999997E+02  0.45594000000E+02  0.51100000000E-03 0. -1.
    9900012    2    1    2    0    0  0.29924048998E+02  0.27523883487E+02  0.39088662338E+00  0.50528860031E+02  0.30000000551E+02 0.  0.
        -12    1    1    2    0    0 -0.29924048998E+02 -0.27523883487E+02 -0.39088662338E+00  0.40659139969E+02  0.00000000000E+00 0.  1.
         11    1    3    3    0    0  0.11475177588E+02  0.22693327363E+02  0.32001543953E+01  0.25630212561E+02  0.51100000000E-03 0. -1.
        -11    1    3    3    0    0  0.89148745545E+01  0.23049406408E+01 -0.93034330781E+01  0.13089751983E+02  0.51100000000E-03 0.  1.
         12    1    3    3    0    0  0.95339968553E+01  0.25256154830E+01  0.64941653062E+01  0.11808895487E+02  0.00000000000E+00 0. -1.
</event>
<event>
 7    1  0.9978258E-013  0.5052885E+02  0.7816164E-02  0.1300439E+00
        -11   -1    0    0    0    0  0.00000000000E+00  0.00000000000E+00  0.45593999997E+02  0.45594000000E+02  0.51100000000E-03 0.  1.
         11   -1    0    0    0    0 -0.00000000000E+00 -0.00000000000E+00 -0.45593999997E+02  0.45594000000E+02  0.51100000000E-03 0. -1.
    9900012    2    1    2    0    0  0.24210259788E+02 -0.30867923201E+02 -0.10686477933E+02  0.50528853767E+02  0.29999981511E+02 0.  0.
        -12    1    1    2    0    0 -0.24210259788E+02  0.30867923201E+02  0.10686477933E+02  0.40659146233E+02  0.00000000000E+00 0.  1.
         11    1    3    3    0    0  0.13616289577E+02 -0.92456321813E+01 -0.13509419703E+02  0.21292944307E+02  0.51100000000E-03 0. -1.
        -11    1    3    3    0    0 -0.29139081782E+01 -0.11511791618E+02  0.34045903884E+01  0.12353276614E+02  0.51100000000E-03 0.  1.
         12    1    3    3    0    0  0.13507878389E+02 -0.10110499402E+02 -0.58164861893E+00  0.16882632847E+02  0.00000000000E+00 0. -1.
</event>
<event>
 7    1  0.9978258E-013  0.5052886E+02  0.7816164E-02  0.1300439E+00
        -11   -1    0    0    0    0  0.00000000000E+00  0.00000000000E+00  0.45593999997E+02  0.45594000000E+02  0.51100000000E-03 0.  1.
         11   -1    0    0    0    0 -0.00000000000E+00 -0.00000000000E+00 -0.45593999997E+02  0.45594000000E+02  0.51100000000E-03 0. -1.
    9900012    2    1    2    0    0  0.38742183345E+02  0.24275908932E+01 -0.12096109684E+02  0.50528857887E+02  0.29999994033E+02 0.  0.
        -12    1    1    2    0    0 -0.38742183345E+02 -0.24275908932E+01  0.12096109684E+02  0.40659142113E+02  0.00000000000E+00 0.  1.
         11    1    3    3    0    0  0.10412732616E+02  0.64821494501E+01 -0.14485840029E+02  0.18981117555E+02  0.51100000000E-03 0.  1.
        -11    1    3    3    0    0  0.12943619056E+02 -0.84398466485E+01  0.14919998584E+01  0.15523992706E+02  0.51100000000E-03 0. -1.
         12    1    3    3    0    0  0.15385831674E+02  0.43852880916E+01  0.89773048724E+00  0.16023747626E+02  0.00000000000E+00 0. -1.
</event>
<event>
 7    1  0.9978258E-013  0.5052886E+02  0.7816164E-02  0.1300439E+00
        -11   -1    0    0    0    0  0.00000000000E+00  0.00000000000E+00  0.45593999997E+02  0.45594000000E+02  0.51100000000E-03 0.  1.
         11   -1    0    0    0    0 -0.00000000000E+00 -0.00000000000E+00 -0.45593999997E+02  0.45594000000E+02  0.51100000000E-03 0. -1.
    9900012    2    1    2    0    0  0.23380493741E+02 -0.22439086072E+02 -0.24556170102E+02  0.50528861281E+02  0.30000004351E+02 0.  0.
        -12    1    1    2    0    0 -0.23380493741E+02  0.22439086072E+02  0.24556170102E+02  0.40659138719E+02  0.00000000000E+00 0.  1.
         11    1    3    3    0    0  0.18762717769E+01 -0.14179226113E+01 -0.29628167990E+01  0.37827482018E+01  0.51100000000E-03 0. -1.
        -11    1    3    3    0    0  0.17884899327E+02 -0.25891801606E+02 -0.24629456892E+02  0.39960795305E+02  0.51100000000E-03 0.  1.
        -12    1    3    3    0    0  0.36193226363E+01  0.48706381456E+01  0.30361035898E+01  0.67853177743E+01  0.00000000000E+00 0.  1.
</event>
<event>
 7    1  0.9978258E-013  0.5052888E+02  0.7816164E-02  0.1300439E+00
        -11   -1    0    0    0    0  0.00000000000E+00  0.00000000000E+00  0.45593999997E+02  0.45594000000E+02  0.51100000000E-03 0.  1.
         11   -1    0    0    0    0 -0.00000000000E+00 -0.00000000000E+00 -0.45593999997E+02  0.45594000000E+02  0.51100000000E-03 0. -1.
    9900012    2    1    2    0    0 -0.23699186111E+02 -0.80412293867E+01 -0.32044521468E+02  0.50528878656E+02  0.30000057162E+02 0.  0.
        -12    1    1    2    0    0  0.23699186111E+02  0.80412293867E+01  0.32044521468E+02  0.40659121344E+02  0.00000000000E+00 0.  1.
         11    1    3    3    0    0 -0.21826025701E+02 -0.33432804794E+01 -0.80233037377E+01  0.23493112296E+02  0.51100000000E-03 0. -1.
        -11    1    3    3    0    0  0.21010554041E+01  0.18102042258E+01 -0.12882915801E+01  0.30579353504E+01  0.51100000000E-03 0.  1.
         12    1    3    3    0    0 -0.39742158145E+01 -0.65081531331E+01 -0.22732926150E+02  0.23977831009E+02  0.00000000000E+00 0. -1.
</event>
<event>
 7    1  0.9978258E-013  0.5052885E+02  0.7816164E-02  0.1300439E+00
        -11   -1    0    0    0    0  0.00000000000E+00  0.00000000000E+00  0.45593999997E+02  0.45594000000E+02  0.51100000000E-03 0.  1.
         11   -1    0    0    0    0 -0.00000000000E+00 -0.00000000000E+00 -0.45593999997E+02  0.45594000000E+02  0.51100000000E-03 0. -1.
    9900012    2    1    2    0    0 -0.32053872047E+02  0.17241292927E+02 -0.18123279332E+02  0.50528854058E+02  0.29999982395E+02 0.  0.
        -12    1    1    2    0    0  0.32053872047E+02 -0.17241292927E+02  0.18123279332E+02  0.40659145942E+02  0.00000000000E+00 0.  1.
         11    1    3    3    0    0 -0.13302972989E+02  0.41754454850E+01 -0.43778064507E+01  0.14613987304E+02  0.51100000000E-03 0. -1.
        -11    1    3    3    0    0  0.25279781100E+01  0.58403860508E+01 -0.11739283674E+02  0.13353335313E+02  0.51100000000E-03 0.  1.
        -12    1    3    3    0    0 -0.21278877167E+02  0.72254613913E+01 -0.20061892079E+01  0.22561531441E+02  0.00000000000E+00 0.  1.
</event>
<event>
 7    1  0.9978258E-013  0.5052885E+02  0.7816164E-02  0.1300439E+00
        -11   -1    0    0    0    0  0.00000000000E+00  0.00000000000E+00  0.45593999997E+02  0.45594000000E+02  0.51100000000E-03 0. -1.
         11   -1    0    0    0    0 -0.00000000000E+00 -0.00000000000E+00 -0.45593999997E+02  0.45594000000E+02  0.51100000000E-03 0.  1.
    9900012    2    1    2    0    0 -0.15036685495E+02  0.36370157354E+02  0.10211555185E+02  0.50528854462E+02  0.29999983622E+02 0.  0.
        -12    1    1    2    0    0  0.15036685495E+02 -0.36370157354E+02 -0.10211555185E+02  0.40659145538E+02  0.00000000000E+00 0.  1.
         11    1    3    3    0    0 -0.11842620573E+02  0.22928202374E+02  0.27436299797E+00  0.25807467939E+02  0.51100000000E-03 0. -1.
        -11    1    3    3    0    0  0.74135001963E+01  0.58799321940E+01  0.28026158010E+01  0.98685481888E+01  0.51100000000E-03 0.  1.
         12    1    3    3    0    0 -0.10607565118E+02  0.75620227862E+01  0.71345763863E+01  0.14852838333E+02  0.00000000000E+00 0. -1.
</event>
<event>
 7    1  0.9978258E-013  0.5052885E+02  0.7816164E-02  0.1300439E+00
        -11   -1    0    0    0    0  0.00000000000E+00  0.00000000000E+00  0.45593999997E+02  0.45594000000E+02  0.51100000000E-03 0.  1.
         11   -1    0    0    0    0 -0.00000000000E+00 -0.00000000000E+00 -0.45593999997E+02  0.45594000000E+02  0.51100000000E-03 0. -1.
    9900012    2    1    2    0    0  0.37573368301E+02 -0.12791966511E+02 -0.88189588955E+01  0.50528850370E+02  0.29999971183E+02 0.  0.
        -12    1    1    2    0    0 -0.37573368301E+02  0.12791966511E+02  0.88189588955E+01  0.40659149630E+02  0.00000000000E+00 0.  1.
         11    1    3    3    0    0 -0.22631348726E+01  0.21406078916E+00 -0.43544071870E+01  0.49120732572E+01  0.51100000000E-03 0. -1.
        -11    1    3    3    0    0  0.32479472291E+02 -0.10144883865E+02 -0.10577141500E+02  0.35633000316E+02  0.51100000000E-03 0.  1.
        -12    1    3    3    0    0  0.73570308820E+01 -0.28611434346E+01  0.61125897916E+01  0.99837767960E+01  0.00000000000E+00 0.  1.
</event>
<event>
 7    1  0.9978258E-013  0.5052886E+02  0.7816164E-02  0.1300439E+00
        -11   -1    0    0    0    0  0.00000000000E+00  0.00000000000E+00  0.45593999997E+02  0.45594000000E+02  0.51100000000E-03 0.  1.
         11   -1    0    0    0    0 -0.00000000000E+00 -0.00000000000E+00 -0.45593999997E+02  0.45594000000E+02  0.51100000000E-03 0. -1.
    9900012    2    1    2    0    0 -0.40951558048E+01 -0.84225207858E+01 -0.39565851969E+02  0.50528858352E+02  0.29999995448E+02 0.  0.
        -12    1    1    2    0    0  0.40951558048E+01  0.84225207858E+01  0.39565851969E+02  0.40659141648E+02  0.00000000000E+00 0.  1.
         11    1    3    3    0    0 -0.53107829738E+01 -0.22147253304E+01 -0.19158195640E+02  0.20003646781E+02  0.51100000000E-03 0. -1.
        -11    1    3    3    0    0  0.57981536486E+01 -0.12292916426E+02 -0.74639218200E+01  0.15506273220E+02  0.51100000000E-03 0.  1.
        -12    1    3    3    0    0 -0.45825264795E+01  0.60851209702E+01 -0.12943734509E+02  0.15018938352E+02  0.00000000000E+00 0.  1.
</event>
<event>
 7    1  0.9978258E-013  0.5052896E+02  0.7816164E-02  0.1300438E+00
        -11   -1    0    0    0    0  0.00000000000E+00  0.00000000000E+00  0.45593999997E+02  0.45594000000E+02  0.51100000000E-03 0.  1.
         11   -1    0    0    0    0 -0.00000000000E+00 -0.00000000000E+00 -0.45593999997E+02  0.45594000000E+02  0.51100000000E-03 0. -1.
    9900012    2    1    2    0    0 -0.93771694035E+01 -0.55830886094E+01 -0.39167018502E+02  0.50528960135E+02  0.30000304824E+02 0.  0.
        -12    1    1    2    0    0  0.93771694035E+01  0.55830886094E+01  0.39167018502E+02  0.40659039865E+02  0.00000000000E+00 0.  1.
         11    1    3    3    0    0 -0.31875125100E+01 -0.10787555915E+02 -0.32411980288E+01  0.11706278808E+02  0.51100000000E-03 0. -1.
        -11    1    3    3    0    0 -0.37619361406E+01  0.89746227944E+01 -0.28836772773E+02  0.30434445650E+02  0.51100000000E-03 0.  1.
         12    1    3    3    0    0 -0.24277207529E+01 -0.37701554890E+01 -0.70890477000E+01  0.83882356761E+01  0.00000000000E+00 0. -1.
</event>
<event>
 7    1  0.9978258E-013  0.5052886E+02  0.7816164E-02  0.1300439E+00
        -11   -1    0    0    0    0  0.00000000000E+00  0.00000000000E+00  0.45593999997E+02  0.45594000000E+02  0.51100000000E-03 0.  1.
         11   -1    0    0    0    0 -0.00000000000E+00 -0.00000000000E+00 -0.45593999997E+02  0.45594000000E+02  0.51100000000E-03 0. -1.
    9900012    2    1    2    0    0 -0.19239974216E+01  0.21318656433E+02 -0.34568464030E+02  0.50528861008E+02  0.30000003521E+02 0.  0.
        -12    1    1    2    0    0  0.19239974216E+01 -0.21318656433E+02  0.34568464030E+02  0.40659138992E+02  0.00000000000E+00 0.  1.
         11    1    3    3    0    0 -0.51145577403E+01  0.80523941631E+01 -0.35097440036E+02  0.36370730677E+02  0.51100000000E-03 0. -1.
        -11    1    3    3    0    0  0.23915512916E+01  0.38045392213E+01 -0.81814824286E+00  0.45676474333E+01  0.51100000000E-03 0.  1.
         12    1    3    3    0    0  0.79900902705E+00  0.94617230487E+01  0.13471242492E+01  0.95904828980E+01  0.00000000000E+00 0. -1.
</event>
<event>
 7    1  0.9978258E-013  0.5052882E+02  0.7816164E-02  0.1300439E+00
        -11   -1    0    0    0    0  0.00000000000E+00  0.00000000000E+00  0.45593999997E+02  0.45594000000E+02  0.51100000000E-03 0. -1.
         11   -1    0    0    0    0 -0.00000000000E+00 -0.00000000000E+00 -0.45593999997E+02  0.45594000000E+02  0.51100000000E-03 0.  1.
    9900012    2    1    2    0    0 -0.20485695210E+02 -0.34813723684E+02  0.46378523292E+01  0.50528822202E+02  0.29999885565E+02 0.  0.
        -12    1    1    2    0    0  0.20485695210E+02  0.34813723684E+02 -0.46378523292E+01  0.40659177798E+02  0.00000000000E+00 0.  1.
         11    1    3    3    0    0  0.14621797550E+01  0.72322233000E+00 -0.67893186898E-01  0.16326756936E+01  0.51100000000E-03 0. -1.
        -11    1    3    3    0    0 -0.19201089356E+02 -0.11152008210E+02  0.90450540748E+01  0.23976282511E+02  0.51100000000E-03 0.  1.
        -12    1    3    3    0    0 -0.27467856088E+01 -0.24384937804E+02 -0.43393085586E+01  0.24919863997E+02  0.00000000000E+00 0.  1.
</event>
<event>
 7    1  0.9978258E-013  0.5052886E+02  0.7816164E-02  0.1300439E+00
        -11   -1    0    0    0    0  0.00000000000E+00  0.00000000000E+00  0.45593999997E+02  0.45594000000E+02  0.51100000000E-03 0.  1.
         11   -1    0    0    0    0 -0.00000000000E+00 -0.00000000000E+00 -0.45593999997E+02  0.45594000000E+02  0.51100000000E-03 0. -1.
    9900012    2    1    2    0    0 -0.31631079102E+02  0.15223759449E+02 -0.20515293223E+02  0.50528864828E+02  0.30000015131E+02 0.  0.
        -12    1    1    2    0    0  0.31631079102E+02 -0.15223759449E+02  0.20515293223E+02  0.40659135172E+02  0.00000000000E+00 0.  1.
         11    1    3    3    0    0 -0.14494278787E+02  0.27595131641E+01 -0.12442634708E+02  0.19300730276E+02  0.51100000000E-03 0. -1.
        -11    1    3    3    0    0 -0.49962350148E+01  0.13221683731E+02  0.33671675799E+01  0.14529731683E+02  0.51100000000E-03 0.  1.
        -12    1    3    3    0    0 -0.12140565300E+02 -0.75743744620E+00 -0.11439826095E+02  0.16698402869E+02  0.00000000000E+00 0.  1.
</event>
<event>
 7    1  0.9978258E-013  0.5052891E+02  0.7816164E-02  0.1300439E+00
        -11   -1    0    0    0    0  0.00000000000E+00  0.00000000000E+00  0.45593999997E+02  0.45594000000E+02  0.51100000000E-03 0. -1.
         11   -1    0    0    0    0 -0.00000000000E+00 -0.00000000000E+00 -0.45593999997E+02  0.45594000000E+02  0.51100000000E-03 0.  1.
    9900012    2    1    2    0    0  0.13677582044E+02 -0.21305606307E+02  0.31814407973E+02  0.50528909192E+02  0.30000149980E+02 0.  0.
        -12    1    1    2    0    0 -0.13677582044E+02  0.21305606307E+02 -0.31814407973E+02  0.40659090808E+02  0.00000000000E+00 0.  1.
         11    1    3    3    0    0  0.13213120489E+02 -0.24858570181E+02  0.18918673598E+02  0.33918302957E+02  0.51100000000E-03 0. -1.
        -11    1    3    3    0    0  0.40056208324E+00  0.25011415242E+01 -0.96445872079E+00  0.27104132142E+01  0.51100000000E-03 0.  1.
         12    1    3    3    0    0  0.63899472377E-01  0.10518223500E+01  0.13860193095E+02  0.13900193021E+02  0.00000000000E+00 0. -1.
</event>
<event>
 7    1  0.9978258E-013  0.5052886E+02  0.7816164E-02  0.1300439E+00
        -11   -1    0    0    0    0  0.00000000000E+00  0.00000000000E+00  0.45593999997E+02  0.45594000000E+02  0.51100000000E-03 0.  1.
         11   -1    0    0    0    0 -0.00000000000E+00 -0.00000000000E+00 -0.45593999997E+02  0.45594000000E+02  0.51100000000E-03 0. -1.
    9900012    2    1    2    0    0 -0.13254234412E+02 -0.30712586463E+02  0.23113364821E+02  0.50528864122E+02  0.30000012984E+02 0.  0.
        -12    1    1    2    0    0  0.13254234412E+02  0.30712586463E+02 -0.23113364821E+02  0.40659135878E+02  0.00000000000E+00 0.  1.
         11    1    3    3    0    0 -0.18943408033E+02 -0.10522132484E+02  0.62890226081E+01  0.22563682889E+02  0.51100000000E-03 0. -1.
        -11    1    3    3    0    0  0.54172914847E+01 -0.11073297556E+02  0.57053964125E+01  0.13583685593E+02  0.51100000000E-03 0.  1.
         12    1    3    3    0    0  0.27188213642E+00 -0.91171564227E+01  0.11118945800E+02  0.14381495640E+02  0.00000000000E+00 0. -1.
</event>
<event>
 7    1  0.9978258E-013  0.5052887E+02  0.7816164E-02  0.1300439E+00
        -11   -1    0    0    0    0  0.00000000000E+00  0.00000000000E+00  0.45593999997E+02  0.45594000000E+02  0.51100000000E-03 0.  1.
         11   -1    0    0    0    0 -0.00000000000E+00 -0.00000000000E+00 -0.45593999997E+02  0.45594000000E+02  0.51100000000E-03 0. -1.
    9900012    2    1    2    0    0  0.28719395985E+02 -0.89081145218E+01 -0.27367986094E+02  0.50528869747E+02  0.30000030084E+02 0.  0.
        -12    1    1    2    0    0 -0.28719395985E+02  0.89081145218E+01  0.27367986094E+02  0.40659130253E+02  0.00000000000E+00 0.  1.
         11    1    3    3    0    0  0.36440157991E+01 -0.62648507027E+01 -0.22822865288E+02  0.23945988927E+02  0.51100000000E-03 0. -1.
        -11    1    3    3    0    0  0.12991319962E+02 -0.47255884728E+01 -0.35954144509E+01  0.14283997554E+02  0.51100000000E-03 0.  1.
         12    1    3    3    0    0  0.12084060224E+02  0.20823246538E+01 -0.94970635480E+00  0.12298883267E+02  0.00000000000E+00 0. -1.
</event>
<event>
 7    1  0.9978258E-013  0.5052894E+02  0.7816164E-02  0.1300438E+00
        -11   -1    0    0    0    0  0.00000000000E+00  0.00000000000E+00  0.45593999997E+02  0.45594000000E+02  0.51100000000E-03 0.  1.
         11   -1    0    0    0    0 -0.00000000000E+00 -0.00000000000E+00 -0.45593999997E+02  0.45594000000E+02  0.51100000000E-03 0. -1.
    9900012    2    1    2    0    0 -0.77639501254E+01 -0.79964314955E+01 -0.39101624137E+02  0.50528943834E+02  0.30000255275E+02 0.  0.
        -12    1    1    2    0    0  0.77639501254E+01  0.79964314955E+01  0.39101624137E+02  0.40659056166E+02  0.00000000000E+00 0.  1.
         11    1    3    3    0    0 -0.71236113555E+01 -0.25641670617E+01 -0.14781773827E+02  0.16607878528E+02  0.51100000000E-03 0. -1.
        -11    1    3    3    0    0  0.75480717024E+01  0.37844470466E+01 -0.18399647055E+02  0.20244565638E+02  0.51100000000E-03 0.  1.
        -12    1    3    3    0    0 -0.81884104724E+01 -0.92167114803E+01 -0.59202032550E+01  0.13676499668E+02  0.00000000000E+00 0.  1.
</event>
<event>
 7    1  0.9978258E-013  0.5052887E+02  0.7816164E-02  0.1300439E+00
        -11   -1    0    0    0    0  0.00000000000E+00  0.00000000000E+00  0.45593999997E+02  0.45594000000E+02  0.51100000000E-03 0.  1.
         11   -1    0    0    0    0 -0.00000000000E+00 -0.00000000000E+00 -0.45593999997E+02  0.45594000000E+02  0.51100000000E-03 0. -1.
    9900012    2    1    2    0    0  0.18339549561E+02  0.36287771230E+02  0.15314744979E+00  0.50528869745E+02  0.30000030077E+02 0.  0.
        -12    1    1    2    0    0 -0.18339549561E+02 -0.36287771230E+02 -0.15314744979E+00  0.40659130255E+02  0.00000000000E+00 0.  1.
         11    1    3    3    0    0  0.79450874021E+01  0.13728548012E+02 -0.97708356674E+01  0.18629725555E+02  0.51100000000E-03 0. -1.
        -11    1    3    3    0    0  0.10395689186E+02  0.25365498044E+02  0.97204626671E+01  0.29085498782E+02  0.51100000000E-03 0.  1.
        -12    1    3    3    0    0 -0.12270270591E-02 -0.28062748266E+01  0.20352045013E+00  0.28136454080E+01  0.00000000000E+00 0.  1.
</event>
<event>
 7    1  0.9978258E-013  0.5052886E+02  0.7816164E-02  0.1300439E+00
        -11   -1    0    0    0    0  0.00000000000E+00  0.00000000000E+00  0.45593999997E+02  0.45594000000E+02  0.51100000000E-03 0.  1.
         11   -1    0    0    0    0 -0.00000000000E+00 -0.00000000000E+00 -0.45593999997E+02  0.45594000000E+02  0.51100000000E-03 0. -1.
    9900012    2    1    2    0    0 -0.63195371859E+01  0.26129358058E+02 -0.30503868994E+02  0.50528856793E+02  0.29999990707E+02 0.  0.
        -12    1    1    2    0    0  0.63195371859E+01 -0.26129358058E+02  0.30503868994E+02  0.40659143207E+02  0.00000000000E+00 0.  1.
         11    1    3    3    0    0 -0.38250154763E+01  0.15345334990E+02 -0.10157023496E+01  0.15847450926E+02  0.51100000000E-03 0. -1.
        -11    1    3    3    0    0  0.29525630230E+01 -0.24099433106E+00 -0.16621000128E+02  0.16882930794E+02  0.51100000000E-03 0.  1.
         12    1    3    3    0    0 -0.54470847326E+01  0.11025017400E+02 -0.12867166516E+02  0.17798475072E+02  0.00000000000E+00 0. -1.
</event>
<event>
 7    1  0.9978258E-013  0.5052884E+02  0.7816164E-02  0.1300439E+00
        -11   -1    0    0    0    0  0.00000000000E+00  0.00000000000E+00  0.45593999997E+02  0.45594000000E+02  0.51100000000E-03 0.  1.
         11   -1    0    0    0    0 -0.00000000000E+00 -0.00000000000E+00 -0.45593999997E+02  0.45594000000E+02  0.51100000000E-03 0. -1.
    9900012    2    1    2    0    0  0.97829529312E+01 -0.83819868765E+01 -0.38564274290E+02  0.50528842071E+02  0.29999945958E+02 0.  0.
        -12    1    1    2    0    0 -0.97829529312E+01  0.83819868765E+01  0.38564274290E+02  0.40659157929E+02  0.00000000000E+00 0.  1.
         11    1    3    3    0    0 -0.46658804600E+01 -0.74147507263E+01 -0.75004537109E+01  0.11532812967E+02  0.51100000000E-03 0. -1.
        -11    1    3    3    0    0  0.63560886184E+01  0.65959116277E+01 -0.24415607394E+02  0.26077342606E+02  0.51100000000E-03 0.  1.
        -12    1    3    3    0    0  0.80927447729E+01 -0.75631477778E+01 -0.66482131846E+01  0.12918686497E+02  0.00000000000E+00 0.  1.
</event>
<event>
 7    1  0.9978258E-013  0.5052886E+02  0.7816164E-02  0.1300439E+00
        -11   -1    0    0    0    0  0.00000000000E+00  0.00000000000E+00  0.45593999997E+02  0.45594000000E+02  0.51100000000E-03 0. -1.
         11   -1    0    0    0    0 -0.00000000000E+00 -0.00000000000E+00 -0.45593999997E+02  0.45594000000E+02  0.51100000000E-03 0.  1.
    9900012    2    1    2    0    0  0.37805105382E+01 -0.32545102179E+02 -0.24076745571E+02  0.50528860645E+02  0.30000002417E+02 0.  0.
        -12    1    1    2    0    0 -0.37805105382E+01  0.32545102179E+02  0.24076745571E+02  0.40659139355E+02  0.00000000000E+00 0.  1.
         11    1    3    3    0    0 -0.22906265864E+01 -0.16907876858E+02 -0.58222597652E+01  0.18028365956E+02  0.51100000000E-03 0. -1.
        -11    1    3    3    0    0  0.16112095616E+01  0.22450537081E+01 -0.13064592356E+02  0.13353645048E+02  0.51100000000E-03 0.  1.
        -12    1    3    3    0    0  0.44599275630E+01 -0.17882279029E+02 -0.51898934505E+01  0.19146849641E+02  0.00000000000E+00 0.  1.
</event>
<event>
 7    1  0.9978258E-013  0.5052886E+02  0.7816164E-02  0.1300439E+00
        -11   -1    0    0    0    0  0.00000000000E+00  0.00000000000E+00  0.45593999997E+02  0.45594000000E+02  0.51100000000E-03 0.  1.
         11   -1    0    0    0    0 -0.00000000000E+00 -0.00000000000E+00 -0.45593999997E+02  0.45594000000E+02  0.51100000000E-03 0. -1.
    9900012    2    1    2    0    0 -0.33763476944E+01 -0.22915014419E+01 -0.40453859274E+02  0.50528862862E+02  0.30000009155E+02 0.  0.
        -12    1    1    2    0    0  0.33763476944E+01  0.22915014419E+01  0.40453859274E+02  0.40659137138E+02  0.00000000000E+00 0.  1.
         11    1    3    3    0    0 -0.12401032879E+02 -0.63899135637E+01 -0.88520714460E+01  0.16521978724E+02  0.51100000000E-03 0. -1.
        -11    1    3    3    0    0  0.65523429162E+01  0.28492385769E+01 -0.10358224042E+02  0.12583487741E+02  0.51100000000E-03 0.  1.
         12    1    3    3    0    0  0.24723422682E+01  0.12491735449E+01 -0.21243563786E+02  0.21423396397E+02  0.00000000000E+00 0. -1.
</event>
<event>
 7    1  0.9978258E-013  0.5052886E+02  0.7816164E-02  0.1300439E+00
        -11   -1    0    0    0    0  0.00000000000E+00  0.00000000000E+00  0.45593999997E+02  0.45594000000E+02  0.51100000000E-03 0.  1.
         11   -1    0    0    0    0 -0.00000000000E+00 -0.00000000000E+00 -0.45593999997E+02  0.45594000000E+02  0.51100000000E-03 0. -1.
    9900012    2    1    2    0    0  0.22211722148E+02  0.15864369011E+02 -0.30135147566E+02  0.50528856825E+02  0.29999990805E+02 0.  0.
        -12    1    1    2    0    0 -0.22211722148E+02 -0.15864369011E+02  0.30135147566E+02  0.40659143175E+02  0.00000000000E+00 0.  1.
         11    1    3    3    0    0  0.13310605549E+02  0.20161715108E+02 -0.26089245429E+02  0.35557217319E+02  0.51100000000E-03 0. -1.
        -11    1    3    3    0    0  0.85316456044E+01 -0.28678126586E+01 -0.71757050240E+01  0.11511041179E+02  0.51100000000E-03 0.  1.
         12    1    3    3    0    0  0.36947099502E+00 -0.14295334385E+01  0.31298028870E+01  0.34605983268E+01  0.00000000000E+00 0. -1.
</event>
<event>
 7    1  0.9978258E-013  0.5052886E+02  0.7816164E-02  0.1300439E+00
        -11   -1    0    0    0    0  0.00000000000E+00  0.00000000000E+00  0.45593999997E+02  0.45594000000E+02  0.51100000000E-03 0. -1.
         11   -1    0    0    0    0 -0.00000000000E+00 -0.00000000000E+00 -0.45593999997E+02  0.45594000000E+02  0.51100000000E-03 0.  1.
    9900012    2    1    2    0    0  0.34767878246E+02  0.62183740570E+01  0.20141793025E+02  0.50528863758E+02  0.30000011880E+02 0.  0.
        -12    1    1    2    0    0 -0.34767878246E+02 -0.62183740570E+01 -0.20141793025E+02  0.40659136242E+02  0.00000000000E+00 0.  1.
         11    1    3    3    0    0  0.18480791445E+02 -0.51932806104E+00 -0.31174224222E+01  0.18749071360E+02  0.51100000000E-03 0. -1.
        -11    1    3    3    0    0  0.14796580300E+02  0.95099930675E+01  0.15643578332E+02  0.23539335165E+02  0.51100000000E-03 0.  1.
        -12    1    3    3    0    0  0.14905065018E+01 -0.27722909495E+01  0.76156371153E+01  0.82404572332E+01  0.00000000000E+00 0.  1.
</event>
<event>
 7    1  0.9978258E-013  0.5052885E+02  0.7816164E-02  0.1300439E+00
        -11   -1    0    0    0    0  0.00000000000E+00  0.00000000000E+00  0.45593999997E+02  0.45594000000E+02  0.51100000000E-03 0.  1.
         11   -1    0    0    0    0 -0.00000000000E+00 -0.00000000000E+00 -0.45593999997E+02  0.45594000000E+02  0.51100000000E-03 0. -1.
    9900012    2    1    2    0    0 -0.11064257563E+02  0.28127192933E+02 -0.27195765485E+02  0.50528850500E+02  0.29999971581E+02 0.  0.
        -12    1    1    2    0    0  0.11064257563E+02 -0.28127192933E+02  0.27195765485E+02  0.40659149500E+02  0.00000000000E+00 0.  1.
         11    1    3    3    0    0 -0.34876859246E+01  0.10153846163E+02 -0.94472039743E+01  0.14300846415E+02  0.51100000000E-03 0. -1.
        -11    1    3    3    0    0 -0.14456229264E+02  0.33508330807E+01 -0.11971375364E+02  0.19066317821E+02  0.51100000000E-03 0.  1.
        -12    1    3    3    0    0  0.68796576259E+01  0.14622513690E+02 -0.57771861467E+01  0.17161686264E+02  0.00000000000E+00 0.  1.
</event>
<event>
 7    1  0.9978258E-013  0.5052885E+02  0.7816164E-02  0.1300439E+00
        -11   -1    0    0    0    0  0.00000000000E+00  0.00000000000E+00  0.45593999997E+02  0.45594000000E+02  0.51100000000E-03 0.  1.
         11   -1    0    0    0    0 -0.00000000000E+00 -0.00000000000E+00 -0.45593999997E+02  0.45594000000E+02  0.51100000000E-03 0. -1.
    9900012    2    1    2    0    0  0.22260989451E+02  0.21812390688E+01 -0.33953751459E+02  0.50528847360E+02  0.29999962037E+02 0.  0.
        -12    1    1    2    0    0 -0.22260989451E+02 -0.21812390688E+01  0.33953751459E+02  0.40659152640E+02  0.00000000000E+00 0.  1.
         11    1    3    3    0    0  0.91368979748E+01  0.46208334981E+01 -0.83651133778E+01  0.13221578155E+02  0.51100000000E-03 0. -1.
        -11    1    3    3    0    0  0.12376759524E+01 -0.11768971149E+02 -0.13530175890E+02  0.17975154619E+02  0.51100000000E-03 0.  1.
        -12    1    3    3    0    0  0.11886415524E+02  0.93293767201E+01 -0.12058462191E+02  0.19332114587E+02  0.00000000000E+00 0.  1.
</event>
<event>
 7    1  0.9978258E-013  0.5052885E+02  0.7816164E-02  0.1300439E+00
        -11   -1    0    0    0    0  0.00000000000E+00  0.00000000000E+00  0.45593999997E+02  0.45594000000E+02  0.51100000000E-03 0.  1.
         11   -1    0    0    0    0 -0.00000000000E+00 -0.00000000000E+00 -0.45593999997E+02  0.45594000000E+02  0.51100000000E-03 0. -1.
    9900012    2    1    2    0    0  0.10793436623E+02 -0.27539489124E+02 -0.27897033627E+02  0.50528853176E+02  0.29999979713E+02 0.  0.
        -12    1    1    2    0    0 -0.10793436623E+02  0.27539489124E+02  0.27897033627E+02  0.40659146824E+02  0.00000000000E+00 0.  1.
         11    1    3    3    0    0  0.64833794637E+01  0.35263045916E+00 -0.19926617457E+02  0.20957782351E+02  0.51100000000E-03 0. -1.
        -11    1    3    3    0    0  0.20552094877E+01 -0.18112903283E+02 -0.33997355558E+01  0.18543445028E+02  0.51100000000E-03 0.  1.
         12    1    3    3    0    0  0.22548476714E+01 -0.97792162993E+01 -0.45706806133E+01  0.11027625797E+02  0.00000000000E+00 0. -1.
</event>
<event>
 7    1  0.9978258E-013  0.5052886E+02  0.7816164E-02  0.1300439E+00
        -11   -1    0    0    0    0  0.00000000000E+00  0.00000000000E+00  0.45593999997E+02  0.45594000000E+02  0.51100000000E-03 0. -1.
         11   -1    0    0    0    0 -0.00000000000E+00 -0.00000000000E+00 -0.45593999997E+02  0.45594000000E+02  0.51100000000E-03 0.  1.
    9900012    2    1    2    0    0 -0.39103064123E+02 -0.46016149825E+01  0.10146005938E+02  0.50528856862E+02  0.29999990917E+02 0.  0.
        -12    1    1    2    0    0  0.39103064123E+02  0.46016149825E+01 -0.10146005938E+02  0.40659143138E+02  0.00000000000E+00 0.  1.
         11    1    3    3    0    0 -0.27823688282E+02  0.26187019418E+01  0.18706130171E+02  0.33629370135E+02  0.51100000000E-03 0. -1.
        -11    1    3    3    0    0 -0.60925079726E+01 -0.19586788066E+01 -0.67316933548E+01  0.92882060565E+01  0.51100000000E-03 0.  1.
         12    1    3    3    0    0 -0.51868678684E+01 -0.52616381177E+01 -0.18284308779E+01  0.76112806703E+01  0.00000000000E+00 0. -1.
</event>
<event>
 7    1  0.9978258E-013  0.5052891E+02  0.7816164E-02  0.1300439E+00
        -11   -1    0    0    0    0  0.00000000000E+00  0.00000000000E+00  0.45593999997E+02  0.45594000000E+02  0.51100000000E-03 0. -1.
         11   -1    0    0    0    0 -0.00000000000E+00 -0.00000000000E+00 -0.45593999997E+02  0.45594000000E+02  0.51100000000E-03 0.  1.
    9900012    2    1    2    0    0 -0.35576359982E+02  0.10390828257E+02  0.16718699875E+02  0.50528909664E+02  0.30000151416E+02 0.  0.
        -12    1    1    2    0    0  0.35576359982E+02 -0.10390828257E+02 -0.16718699875E+02  0.40659090336E+02  0.00000000000E+00 0.  1.
         11    1    3    3    0    0 -0.32015225188E+02  0.14009269575E+01  0.65559174116E+01  0.32709590239E+02  0.51100000000E-03 0. -1.
        -11    1    3    3    0    0 -0.49456349943E+01  0.99976829666E+01  0.11208557284E+02  0.15812802625E+02  0.51100000000E-03 0.  1.
         12    1    3    3    0    0  0.13845002010E+01 -0.10077816675E+01 -0.10457748211E+01  0.20065168009E+01  0.00000000000E+00 0. -1.
</event>
<event>
 7    1  0.9978258E-013  0.5052886E+02  0.7816164E-02  0.1300439E+00
        -11   -1    0    0    0    0  0.00000000000E+00  0.00000000000E+00  0.45593999997E+02  0.45594000000E+02  0.51100000000E-03 0.  1.
         11   -1    0    0    0    0 -0.00000000000E+00 -0.00000000000E+00 -0.45593999997E+02  0.45594000000E+02  0.51100000000E-03 0. -1.
    9900012    2    1    2    0    0 -0.28286626404E+02 -0.76556452524E+01 -0.28185522432E+02  0.50528858195E+02  0.29999994969E+02 0.  0.
        -12    1    1    2    0    0  0.28286626404E+02  0.76556452524E+01  0.28185522432E+02  0.40659141805E+02  0.00000000000E+00 0.  1.
         11    1    3    3    0    0 -0.22153460758E+02 -0.34202149158E+01 -0.23416653684E+02  0.32416251536E+02  0.51100000000E-03 0. -1.
        -11    1    3    3    0    0 -0.42368127940E+01 -0.90129260675E+01  0.14285083334E+01  0.10061016612E+02  0.51100000000E-03 0.  1.
        -12    1    3    3    0    0 -0.18963528526E+01  0.47774957309E+01 -0.61973770814E+01  0.80515900473E+01  0.00000000000E+00 0.  1.
</event>
<event>
 7    1  0.9978258E-013  0.5052886E+02  0.7816164E-02  0.1300439E+00
        -11   -1    0    0    0    0  0.00000000000E+00  0.00000000000E+00  0.45593999997E+02  0.45594000000E+02  0.51100000000E-03 0.  1.
         11   -1    0    0    0    0 -0.00000000000E+00 -0.00000000000E+00 -0.45593999997E+02  0.45594000000E+02  0.51100000000E-03 0. -1.
    9900012    2    1    2    0    0  0.17865165507E+02 -0.28704390574E+02 -0.22584490081E+02  0.50528863646E+02  0.30000011539E+02 0.  0.
        -12    1    1    2    0    0 -0.17865165507E+02  0.28704390574E+02  0.22584490081E+02  0.40659136354E+02  0.00000000000E+00 0.  1.
         11    1    3    3    0    0  0.14674594012E+01 -0.15429374103E+02 -0.22817890503E+02  0.27583965443E+02  0.51100000000E-03 0. -1.
        -11    1    3    3    0    0  0.66927763157E+00 -0.39451730480E+01  0.21754477692E+01  0.45546565386E+01  0.51100000000E-03 0.  1.
         12    1    3    3    0    0  0.15728428475E+02 -0.93298434231E+01 -0.19420473469E+01  0.18390241665E+02  0.00000000000E+00 0. -1.
</event>
<event>
 7    1  0.9978258E-013  0.5052886E+02  0.7816164E-02  0.1300439E+00
        -11   -1    0    0    0    0  0.00000000000E+00  0.00000000000E+00  0.45593999997E+02  0.45594000000E+02  0.51100000000E-03 0.  1.
         11   -1    0    0    0    0 -0.00000000000E+00 -0.00000000000E+00 -0.45593999997E+02  0.45594000000E+02  0.51100000000E-03 0. -1.
    9900012    2    1    2    0    0  0.30019687046E+02 -0.22093387318E+02 -0.16243961159E+02  0.50528860220E+02  0.30000001123E+02 0.  0.
        -12    1    1    2    0    0 -0.30019687046E+02  0.22093387318E+02  0.16243961159E+02  0.40659139780E+02  0.00000000000E+00 0.  1.
         11    1    3    3    0    0  0.11038073632E+02 -0.14119053147E+02 -0.10294616384E+02  0.20667991147E+02  0.51100000000E-03 0. -1.
        -11    1    3    3    0    0  0.10148209925E+01  0.55406158423E+00  0.63648536239E+01  0.64690190756E+01  0.51100000000E-03 0.  1.
        -12    1    3    3    0    0  0.17966792422E+02 -0.85283957552E+01 -0.12314198399E+02  0.23391849997E+02  0.00000000000E+00 0.  1.
</event>
<event>
 7    1  0.9978258E-013  0.5052882E+02  0.7816164E-02  0.1300439E+00
        -11   -1    0    0    0    0  0.00000000000E+00  0.00000000000E+00  0.45593999997E+02  0.45594000000E+02  0.51100000000E-03 0.  1.
         11   -1    0    0    0    0 -0.00000000000E+00 -0.00000000000E+00 -0.45593999997E+02  0.45594000000E+02  0.51100000000E-03 0. -1.
    9900012    2    1    2    0    0 -0.22584744921E+02 -0.28433839240E+02 -0.18292483822E+02  0.50528820453E+02  0.29999880248E+02 0.  0.
        -12    1    1    2    0    0  0.22584744921E+02  0.28433839240E+02  0.18292483822E+02  0.40659179547E+02  0.00000000000E+00 0.  1.
         11    1    3    3    0    0 -0.15623332761E+02 -0.33545556464E+02 -0.14863822889E+02  0.39878893116E+02  0.51100000000E-03 0. -1.
        -11    1    3    3    0    0 -0.38125965499E+01  0.46107606534E+01 -0.20599471347E-01  0.59829282843E+01  0.51100000000E-03 0.  1.
         12    1    3    3    0    0 -0.31488156099E+01  0.50095657031E+00 -0.34080614614E+01  0.46669990523E+01  0.00000000000E+00 0. -1.
</event>
<event>
 7    1  0.9978258E-013  0.5052887E+02  0.7816164E-02  0.1300439E+00
        -11   -1    0    0    0    0  0.00000000000E+00  0.00000000000E+00  0.45593999997E+02  0.45594000000E+02  0.51100000000E-03 0.  1.
         11   -1    0    0    0    0 -0.00000000000E+00 -0.00000000000E+00 -0.45593999997E+02  0.45594000000E+02  0.51100000000E-03 0. -1.
    9900012    2    1    2    0    0 -0.35492700638E+02  0.15701000584E+02 -0.12120705195E+02  0.50528871722E+02  0.30000036085E+02 0.  0.
        -12    1    1    2    0    0  0.35492700638E+02 -0.15701000584E+02  0.12120705195E+02  0.40659128278E+02  0.00000000000E+00 0.  1.
         11    1    3    3    0    0 -0.28637784852E+02  0.14138034276E+02  0.24265843652E+01  0.32029596413E+02  0.51100000000E-03 0. -1.
        -11    1    3    3    0    0 -0.37022964040E+01 -0.35382748447E+01 -0.88650760754E+01  0.10237966674E+02  0.51100000000E-03 0.  1.
         12    1    3    3    0    0 -0.31526193823E+01  0.51012411531E+01 -0.56822134848E+01  0.82613086348E+01  0.00000000000E+00 0. -1.
</event>
<event>
 7    1  0.9978258E-013  0.5052883E+02  0.7816164E-02  0.1300439E+00
        -11   -1    0    0    0    0  0.00000000000E+00  0.00000000000E+00  0.45593999997E+02  0.45594000000E+02  0.51100000000E-03 0.  1.
         11   -1    0    0    0    0 -0.00000000000E+00 -0.00000000000E+00 -0.45593999997E+02  0.45594000000E+02  0.51100000000E-03 0. -1.
    9900012    2    1    2    0    0 -0.12319227385E+02  0.25328928839E+01 -0.38665085649E+02  0.50528834269E+02  0.29999922243E+02 0.  0.
        -12    1    1    2    0    0  0.12319227385E+02 -0.25328928839E+01  0.38665085649E+02  0.40659165731E+02  0.00000000000E+00 0.  1.
         11    1    3    3    0    0  0.21024181959E+01  0.10228903792E+00  0.42693169067E-01  0.21053380455E+01  0.51100000000E-03 0. -1.
        -11    1    3    3    0    0 -0.45054294251E+01 -0.13081559522E+01 -0.37460030510E+02  0.37752669474E+02  0.51100000000E-03 0.  1.
        -12    1    3    3    0    0 -0.99162161559E+01  0.37387597982E+01 -0.12477483074E+01  0.10670826750E+02  0.00000000000E+00 0.  1.
</event>
<event>
 7    1  0.9978258E-013  0.5052888E+02  0.7816164E-02  0.1300439E+00
        -11   -1    0    0    0    0  0.00000000000E+00  0.00000000000E+00  0.45593999997E+02  0.45594000000E+02  0.51100000000E-03 0. -1.
         11   -1    0    0    0    0 -0.00000000000E+00 -0.00000000000E+00 -0.45593999997E+02  0.45594000000E+02  0.51100000000E-03 0.  1.
    9900012    2    1    2    0    0 -0.11709671269E+02  0.28670400820E+02  0.26344940648E+02  0.50528878242E+02  0.30000055905E+02 0.  0.
        -12    1    1    2    0    0  0.11709671269E+02 -0.28670400820E+02 -0.26344940648E+02  0.40659121758E+02  0.00000000000E+00 0.  1.
         11    1    3    3    0    0  0.23070198773E+01  0.24915372144E+02  0.11149707306E+02  0.27393686919E+02  0.51100000000E-03 0. -1.
        -11    1    3    3    0    0 -0.68730009831E+01  0.43297018436E+01  0.13524185025E+02  0.15776185896E+02  0.51100000000E-03 0.  1.
         12    1    3    3    0    0 -0.71436901633E+01 -0.57467316780E+00  0.16710483173E+01  0.73590054272E+01  0.00000000000E+00 0. -1.
</event>
<event>
 7    1  0.9978258E-013  0.5052886E+02  0.7816164E-02  0.1300439E+00
        -11   -1    0    0    0    0  0.00000000000E+00  0.00000000000E+00  0.45593999997E+02  0.45594000000E+02  0.51100000000E-03 0. -1.
         11   -1    0    0    0    0 -0.00000000000E+00 -0.00000000000E+00 -0.45593999997E+02  0.45594000000E+02  0.51100000000E-03 0.  1.
    9900012    2    1    2    0    0  0.36019558130E+02 -0.92124511883E+01  0.16458668227E+02  0.50528860995E+02  0.30000003481E+02 0.  0.
        -12    1    1    2    0    0 -0.36019558130E+02  0.92124511883E+01 -0.16458668227E+02  0.40659139005E+02  0.00000000000E+00 0.  1.
         11    1    3    3    0    0  0.41604589696E+01 -0.56103692743E+01  0.13686631646E+02  0.15365856576E+02  0.51100000000E-03 0. -1.
        -11    1    3    3    0    0  0.10538783472E+02  0.22467420195E+01 -0.47970816388E+01  0.11795159994E+02  0.51100000000E-03 0.  1.
         12    1    3    3    0    0  0.21320315689E+02 -0.58488239336E+01  0.75691182201E+01  0.23367844426E+02  0.00000000000E+00 0. -1.
</event>
<event>
 7    1  0.9978258E-013  0.5052886E+02  0.7816164E-02  0.1300439E+00
        -11   -1    0    0    0    0  0.00000000000E+00  0.00000000000E+00  0.45593999997E+02  0.45594000000E+02  0.51100000000E-03 0.  1.
         11   -1    0    0    0    0 -0.00000000000E+00 -0.00000000000E+00 -0.45593999997E+02  0.45594000000E+02  0.51100000000E-03 0. -1.
    9900012    2    1    2    0    0  0.73891753107E+01  0.28905058028E+02 -0.27623601145E+02  0.50528860417E+02  0.30000001723E+02 0.  0.
        -12    1    1    2    0    0 -0.73891753107E+01 -0.28905058028E+02  0.27623601145E+02  0.40659139583E+02  0.00000000000E+00 0.  1.
         11    1    3    3    0    0 -0.14284285951E+01  0.18970777393E+02 -0.25226938276E+02  0.31596348178E+02  0.51100000000E-03 0. -1.
        -11    1    3    3    0    0  0.41389905777E+01  0.11822293923E+02  0.14202537517E+01  0.12606149197E+02  0.51100000000E-03 0.  1.
         12    1    3    3    0    0  0.46786133282E+01 -0.18880132871E+01 -0.38169166206E+01  0.63263630417E+01  0.00000000000E+00 0. -1.
</event>
<event>
 7    1  0.9978258E-013  0.5052886E+02  0.7816164E-02  0.1300439E+00
        -11   -1    0    0    0    0  0.00000000000E+00  0.00000000000E+00  0.45593999997E+02  0.45594000000E+02  0.51100000000E-03 0.  1.
         11   -1    0    0    0    0 -0.00000000000E+00 -0.00000000000E+00 -0.45593999997E+02  0.45594000000E+02  0.51100000000E-03 0. -1.
    9900012    2    1    2    0    0  0.15300847971E+02 -0.31641418730E+02 -0.20441875777E+02  0.50528860644E+02  0.30000002414E+02 0.  0.
        -12    1    1    2    0    0 -0.15300847971E+02  0.31641418730E+02  0.20441875777E+02  0.40659139356E+02  0.00000000000E+00 0.  1.
         11    1    3    3    0    0  0.98356084213E+01 -0.33584769016E+02 -0.16051338213E+02  0.38500926762E+02  0.51100000000E-03 0. -1.
        -11    1    3    3    0    0  0.72247171546E+01  0.34364442402E+01 -0.11992564438E+01  0.80897406175E+01  0.51100000000E-03 0.  1.
        -12    1    3    3    0    0 -0.17594776052E+01 -0.14930939543E+01 -0.31912811201E+01  0.39381932643E+01  0.00000000000E+00 0.  1.
</event>
<event>
 7    1  0.9978258E-013  0.5052885E+02  0.7816164E-02  0.1300439E+00
        -11   -1    0    0    0    0  0.00000000000E+00  0.00000000000E+00  0.45593999997E+02  0.45594000000E+02  0.51100000000E-03 0.  1.
         11   -1    0    0    0    0 -0.00000000000E+00 -0.00000000000E+00 -0.45593999997E+02  0.45594000000E+02  0.51100000000E-03 0. -1.
    9900012    2    1    2    0    0 -0.16849636657E+02 -0.28054411205E+02 -0.24128957405E+02  0.50528845692E+02  0.29999956967E+02 0.  0.
        -12    1    1    2    0    0  0.16849636657E+02  0.28054411205E+02  0.24128957405E+02  0.40659154308E+02  0.00000000000E+00 0.  1.
         11    1    3    3    0    0 -0.23989714844E+02 -0.27338124520E+02 -0.16805177897E+02  0.40066113800E+02  0.51100000000E-03 0. -1.
        -11    1    3    3    0    0  0.38711058891E+01 -0.49448546811E-01 -0.25393441244E+01  0.46299216847E+01  0.51100000000E-03 0.  1.
         12    1    3    3    0    0  0.32689722976E+01 -0.66683813778E+00 -0.47844353836E+01  0.58328102082E+01  0.00000000000E+00 0. -1.
</event>
<event>
 7    1  0.9978258E-013  0.5052886E+02  0.7816164E-02  0.1300439E+00
        -11   -1    0    0    0    0  0.00000000000E+00  0.00000000000E+00  0.45593999997E+02  0.45594000000E+02  0.51100000000E-03 0. -1.
         11   -1    0    0    0    0 -0.00000000000E+00 -0.00000000000E+00 -0.45593999997E+02  0.45594000000E+02  0.51100000000E-03 0.  1.
    9900012    2    1    2    0    0 -0.22845637452E+02  0.23712552434E+02  0.23852823750E+02  0.50528862105E+02  0.30000006854E+02 0.  0.
        -12    1    1    2    0    0  0.22845637452E+02 -0.23712552434E+02 -0.23852823750E+02  0.40659137895E+02  0.00000000000E+00 0.  1.
         11    1    3    3    0    0  0.58239808179E+01  0.77629995311E+01  0.43910289856E+01  0.10651950530E+02  0.51100000000E-03 0. -1.
        -11    1    3    3    0    0 -0.12782792222E+02  0.27584288897E+01  0.12487208294E+02  0.18081456749E+02  0.51100000000E-03 0.  1.
        -12    1    3    3    0    0 -0.15886826048E+02  0.13191124013E+02  0.69745864703E+01  0.21795454825E+02  0.00000000000E+00 0.  1.
</event>
<event>
 7    1  0.9978258E-013  0.5052886E+02  0.7816164E-02  0.1300439E+00
        -11   -1    0    0    0    0  0.00000000000E+00  0.00000000000E+00  0.45593999997E+02  0.45594000000E+02  0.51100000000E-03 0.  1.
         11   -1    0    0    0    0 -0.00000000000E+00 -0.00000000000E+00 -0.45593999997E+02  0.45594000000E+02  0.51100000000E-03 0. -1.
    9900012    2    1    2    0    0  0.25259465686E+02 -0.22666252744E+02 -0.22391210327E+02  0.50528856870E+02  0.29999990942E+02 0.  0.
        -12    1    1    2    0    0 -0.25259465686E+02  0.22666252744E+02  0.22391210327E+02  0.40659143130E+02  0.00000000000E+00 0.  1.
         11    1    3    3    0    0 -0.11847819462E+01 -0.25183576542E+01 -0.92554430652E+01  0.96648362701E+01  0.51100000000E-03 0. -1.
        -11    1    3    3    0    0  0.19508416448E+02 -0.23447009090E+02 -0.13068539007E+02  0.33183237630E+02  0.51100000000E-03 0.  1.
        -12    1    3    3    0    0  0.69358311835E+01  0.32991140001E+01 -0.67228254603E-01  0.76807829699E+01  0.00000000000E+00 0.  1.
</event>
<event>
 7    1  0.9978258E-013  0.5052882E+02  0.7816164E-02  0.1300439E+00
        -11   -1    0    0    0    0  0.00000000000E+00  0.00000000000E+00  0.45593999997E+02  0.45594000000E+02  0.51100000000E-03 0.  1.
         11   -1    0    0    0    0 -0.00000000000E+00 -0.00000000000E+00 -0.45593999997E+02  0.45594000000E+02  0.51100000000E-03 0. -1.
    9900012    2    1    2    0    0  0.16504581859E+02  0.36718986411E+02 -0.56994428906E+01  0.50528821028E+02  0.29999881996E+02 0.  0.
        -12    1    1    2    0    0 -0.16504581859E+02 -0.36718986411E+02  0.56994428906E+01  0.40659178972E+02  0.00000000000E+00 0.  1.
         11    1    3    3    0    0  0.78180223330E+01  0.28150171527E+02 -0.85854925579E+00  0.29228252382E+02  0.51100000000E-03 0. -1.
        -11    1    3    3    0    0  0.10585172602E+02  0.46621289826E+01  0.33392169363E+01  0.12038758062E+02  0.51100000000E-03 0.  1.
         12    1    3    3    0    0 -0.18986130753E+01  0.39066859017E+01 -0.81801105711E+01  0.92618105843E+01  0.00000000000E+00 0. -1.
</event>
<event>
 7    1  0.9978258E-013  0.5052886E+02  0.7816164E-02  0.1300439E+00
        -11   -1    0    0    0    0  0.00000000000E+00  0.00000000000E+00  0.45593999997E+02  0.45594000000E+02  0.51100000000E-03 0.  1.
         11   -1    0    0    0    0 -0.00000000000E+00 -0.00000000000E+00 -0.45593999997E+02  0.45594000000E+02  0.51100000000E-03 0. -1.
    9900012    2    1    2    0    0 -0.62154891250E+01 -0.32542549914E+02 -0.23569379532E+02  0.50528861894E+02  0.30000006213E+02 0.  0.
        -12    1    1    2    0    0  0.62154891250E+01  0.32542549914E+02  0.23569379532E+02  0.40659138106E+02  0.00000000000E+00 0.  1.
         11    1    3    3    0    0  0.36942139784E+01 -0.25371472396E+02 -0.17577796513E+02  0.31085973669E+02  0.51100000000E-03 0. -1.
        -11    1    3    3    0    0 -0.45430743989E+01 -0.28228685357E+01  0.44267433827E+01  0.69429222235E+01  0.51100000000E-03 0.  1.
         12    1    3    3    0    0 -0.53666287044E+01 -0.43482089824E+01 -0.10418326402E+02  0.12499966001E+02  0.00000000000E+00 0. -1.
</event>
<event>
 7    1  0.9978258E-013  0.5052887E+02  0.7816164E-02  0.1300439E+00
        -11   -1    0    0    0    0  0.00000000000E+00  0.00000000000E+00  0.45593999997E+02  0.45594000000E+02  0.51100000000E-03 0.  1.
         11   -1    0    0    0    0 -0.00000000000E+00 -0.00000000000E+00 -0.45593999997E+02  0.45594000000E+02  0.51100000000E-03 0. -1.
    9900012    2    1    2    0    0  0.20952836493E+02 -0.25313939680E+02  0.23944681354E+02  0.50528872312E+02  0.30000037879E+02 0.  0.
        -12    1    1    2    0    0 -0.20952836493E+02  0.25313939680E+02 -0.23944681354E+02  0.40659127688E+02  0.00000000000E+00 0.  1.
         11    1    3    3    0    0 -0.24049806296E-01 -0.14449235338E+02  0.83418571801E+01  0.16684350803E+02  0.51100000000E-03 0. -1.
        -11    1    3    3    0    0  0.20438791477E+02 -0.11210434812E+02  0.58015576490E+01  0.24022408646E+02  0.51100000000E-03 0.  1.
        -12    1    3    3    0    0  0.53809482217E+00  0.34573047035E+00  0.98012665250E+01  0.98221128628E+01  0.00000000000E+00 0.  1.
</event>
<event>
 7    1  0.9978258E-013  0.5052887E+02  0.7816164E-02  0.1300439E+00
        -11   -1    0    0    0    0  0.00000000000E+00  0.00000000000E+00  0.45593999997E+02  0.45594000000E+02  0.51100000000E-03 0. -1.
         11   -1    0    0    0    0 -0.00000000000E+00 -0.00000000000E+00 -0.45593999997E+02  0.45594000000E+02  0.51100000000E-03 0.  1.
    9900012    2    1    2    0    0 -0.51952250524E+00  0.40631139358E+02 -0.14162302009E+01  0.50528866989E+02  0.30000021701E+02 0.  0.
        -12    1    1    2    0    0  0.51952250524E+00 -0.40631139358E+02  0.14162302009E+01  0.40659133011E+02  0.00000000000E+00 0.  1.
         11    1    3    3    0    0  0.10476632632E+02  0.96822175276E+01 -0.22909488823E+01  0.14448308365E+02  0.51100000000E-03 0. -1.
        -11    1    3    3    0    0 -0.13632665131E+02  0.24244208021E+02  0.42283412563E+01  0.28133788425E+02  0.51100000000E-03 0.  1.
        -12    1    3    3    0    0  0.26365099937E+01  0.67047138102E+01 -0.33536225749E+01  0.79467701992E+01  0.00000000000E+00 0.  1.
</event>
<event>
 7    1  0.9978258E-013  0.5052886E+02  0.7816164E-02  0.1300439E+00
        -11   -1    0    0    0    0  0.00000000000E+00  0.00000000000E+00  0.45593999997E+02  0.45594000000E+02  0.51100000000E-03 0.  1.
         11   -1    0    0    0    0 -0.00000000000E+00 -0.00000000000E+00 -0.45593999997E+02  0.45594000000E+02  0.51100000000E-03 0. -1.
    9900012    2    1    2    0    0 -0.33462379600E+02  0.29198697316E+01 -0.22910892828E+02  0.50528862061E+02  0.30000006722E+02 0.  0.
        -12    1    1    2    0    0  0.33462379600E+02 -0.29198697316E+01  0.22910892828E+02  0.40659137939E+02  0.00000000000E+00 0.  1.
         11    1    3    3    0    0 -0.39588945172E+01 -0.71274637941E+00 -0.19424947193E+02  0.19837072035E+02  0.51100000000E-03 0. -1.
        -11    1    3    3    0    0 -0.28937841985E+02  0.23969655426E+01 -0.38339819903E+01  0.29288966535E+02  0.51100000000E-03 0.  1.
         12    1    3    3    0    0 -0.56564309813E+00  0.12356505685E+01  0.34803635579E+00  0.14028234909E+01  0.00000000000E+00 0. -1.
</event>
<event>
 7    1  0.9978258E-013  0.5052886E+02  0.7816164E-02  0.1300439E+00
        -11   -1    0    0    0    0  0.00000000000E+00  0.00000000000E+00  0.45593999997E+02  0.45594000000E+02  0.51100000000E-03 0.  1.
         11   -1    0    0    0    0 -0.00000000000E+00 -0.00000000000E+00 -0.45593999997E+02  0.45594000000E+02  0.51100000000E-03 0. -1.
    9900012    2    1    2    0    0 -0.21482318878E+02  0.15736558860E+02 -0.30725171449E+02  0.50528862408E+02  0.30000007776E+02 0.  0.
        -12    1    1    2    0    0  0.21482318878E+02 -0.15736558860E+02  0.30725171449E+02  0.40659137592E+02  0.00000000000E+00 0.  1.
         11    1    3    3    0    0 -0.10732432179E+02  0.84456974306E+00 -0.77861951838E+01  0.13286204659E+02  0.51100000000E-03 0. -1.
        -11    1    3    3    0    0 -0.79078078235E+01  0.19370062278E+02 -0.23994287417E+02  0.31834864004E+02  0.51100000000E-03 0.  1.
        -12    1    3    3    0    0 -0.28420788758E+01 -0.44780731607E+01  0.10553111521E+01  0.54077937457E+01  0.00000000000E+00 0.  1.
</event>
<event>
 7    1  0.9978258E-013  0.5052882E+02  0.7816164E-02  0.1300439E+00
        -11   -1    0    0    0    0  0.00000000000E+00  0.00000000000E+00  0.45593999997E+02  0.45594000000E+02  0.51100000000E-03 0.  1.
         11   -1    0    0    0    0 -0.00000000000E+00 -0.00000000000E+00 -0.45593999997E+02  0.45594000000E+02  0.51100000000E-03 0. -1.
    9900012    2    1    2    0    0 -0.58008535791E+01  0.40242950026E+02 -0.15369485027E+00  0.50528824515E+02  0.29999892595E+02 0.  0.
        -12    1    1    2    0    0  0.58008535791E+01 -0.40242950026E+02  0.15369485027E+00  0.40659175485E+02  0.00000000000E+00 0.  1.
         11    1    3    3    0    0  0.95949866502E+01  0.75601743456E+01  0.43231102629E+01  0.12957981616E+02  0.51100000000E-03 0. -1.
        -11    1    3    3    0    0 -0.69564891582E+01  0.59484904331E+01  0.16487080293E+00  0.91544777286E+01  0.51100000000E-03 0.  1.
         12    1    3    3    0    0 -0.84393510711E+01  0.26734285247E+02 -0.46416759161E+01  0.28416365170E+02  0.00000000000E+00 0. -1.
</event>
<event>
 7    1  0.9978258E-013  0.5052886E+02  0.7816164E-02  0.1300439E+00
        -11   -1    0    0    0    0  0.00000000000E+00  0.00000000000E+00  0.45593999997E+02  0.45594000000E+02  0.51100000000E-03 0.  1.
         11   -1    0    0    0    0 -0.00000000000E+00 -0.00000000000E+00 -0.45593999997E+02  0.45594000000E+02  0.51100000000E-03 0. -1.
    9900012    2    1    2    0    0  0.23734523861E+02 -0.18313657535E+02 -0.27467215250E+02  0.50528860944E+02  0.30000003325E+02 0.  0.
        -12    1    1    2    0    0 -0.23734523861E+02  0.18313657535E+02  0.27467215250E+02  0.40659139056E+02  0.00000000000E+00 0.  1.
         11    1    3    3    0    0  0.18911293565E+02 -0.63680457740E+01 -0.73201949658E+01  0.21254982613E+02  0.51100000000E-03 0. -1.
        -11    1    3    3    0    0 -0.61313478676E+01 -0.48740252513E+01 -0.10272444088E+02  0.12917919981E+02  0.51100000000E-03 0.  1.
        -12    1    3    3    0    0  0.10954578164E+02 -0.70715865096E+01 -0.98745761961E+01  0.16355958350E+02  0.00000000000E+00 0.  1.
</event>
<event>
 7    1  0.9978258E-013  0.5052887E+02  0.7816164E-02  0.1300439E+00
        -11   -1    0    0    0    0  0.00000000000E+00  0.00000000000E+00  0.45593999997E+02  0.45594000000E+02  0.51100000000E-03 0.  1.
         11   -1    0    0    0    0 -0.00000000000E+00 -0.00000000000E+00 -0.45593999997E+02  0.45594000000E+02  0.51100000000E-03 0. -1.
    9900012    2    1    2    0    0 -0.23503600642E+02  0.31542690834E+02  0.10286126652E+02  0.50528868312E+02  0.30000025720E+02 0.  0.
        -12    1    1    2    0    0  0.23503600642E+02 -0.31542690834E+02 -0.10286126652E+02  0.40659131688E+02  0.00000000000E+00 0.  1.
         11    1    3    3    0    0 -0.21194412335E+02  0.72577334884E+01  0.11144148872E+02  0.25021388130E+02  0.51100000000E-03 0. -1.
        -11    1    3    3    0    0  0.96345843721E+00  0.14577833986E+02  0.22960541392E+01  0.14788960773E+02  0.51100000000E-03 0.  1.
         12    1    3    3    0    0 -0.32726467440E+01  0.97071233594E+01 -0.31540763591E+01  0.10718519408E+02  0.00000000000E+00 0. -1.
</event>
<event>
 7    1  0.1106795E-012  0.5052887E+02  0.7816164E-02  0.1300439E+00
        -11   -1    0    0    0    0  0.00000000000E+00  0.00000000000E+00  0.45593999997E+02  0.45594000000E+02  0.51100000000E-03 0. -1.
         11   -1    0    0    0    0 -0.00000000000E+00 -0.00000000000E+00 -0.45593999997E+02  0.45594000000E+02  0.51100000000E-03 0.  1.
    9900012    2    1    2    0    0 -0.26132297657E+02 -0.27511636371E+02  0.14607458843E+02  0.50528868547E+02  0.30000026436E+02 0.  0.
        -12    1    1    2    0    0  0.26132297657E+02  0.27511636371E+02 -0.14607458843E+02  0.40659131453E+02  0.00000000000E+00 0.  1.
         11    1    3    3    0    0 -0.17423722805E+02 -0.12538749001E+02  0.14040781654E+02  0.25650533964E+02  0.51100000000E-03 0. -1.
        -11    1    3    3    0    0  0.46476329033E+01 -0.63235545834E+00  0.22635828975E+01  0.52080872520E+01  0.51100000000E-03 0.  1.
         12    1    3    3    0    0 -0.13356207755E+02 -0.14340531911E+02 -0.16969057085E+01  0.19670247331E+02  0.00000000000E+00 0. -1.
</event>
<event>
 7    1  0.9978258E-013  0.5052882E+02  0.7816164E-02  0.1300439E+00
        -11   -1    0    0    0    0  0.00000000000E+00  0.00000000000E+00  0.45593999997E+02  0.45594000000E+02  0.51100000000E-03 0.  1.
         11   -1    0    0    0    0 -0.00000000000E+00 -0.00000000000E+00 -0.45593999997E+02  0.45594000000E+02  0.51100000000E-03 0. -1.
    9900012    2    1    2    0    0 -0.12933300154E+02 -0.37898552037E+02 -0.70426325326E+01  0.50528816875E+02  0.29999869374E+02 0.  0.
        -12    1    1    2    0    0  0.12933300154E+02  0.37898552037E+02  0.70426325326E+01  0.40659183125E+02  0.00000000000E+00 0.  1.
         11    1    3    3    0    0 -0.87605732989E+01 -0.16966831507E+02  0.32712145815E+01  0.19373225364E+02  0.51100000000E-03 0. -1.
        -11    1    3    3    0    0 -0.28450759388E+01  0.28911668508E+01 -0.54686109540E+01  0.68087450300E+01  0.51100000000E-03 0.  1.
        -12    1    3    3    0    0 -0.13276509162E+01 -0.23822887381E+02 -0.48452361602E+01  0.24346846481E+02  0.00000000000E+00 0.  1.
</event>
<event>
 7    1  0.9978258E-013  0.5052885E+02  0.7816164E-02  0.1300439E+00
        -11   -1    0    0    0    0  0.00000000000E+00  0.00000000000E+00  0.45593999997E+02  0.45594000000E+02  0.51100000000E-03 0.  1.
         11   -1    0    0    0    0 -0.00000000000E+00 -0.00000000000E+00 -0.45593999997E+02  0.45594000000E+02  0.51100000000E-03 0. -1.
    9900012    2    1    2    0    0 -0.10559686141E+02 -0.21739520678E+01 -0.39203742805E+02  0.50528849874E+02  0.29999969678E+02 0.  0.
        -12    1    1    2    0    0  0.10559686141E+02  0.21739520678E+01  0.39203742805E+02  0.40659150126E+02  0.00000000000E+00 0.  1.
         11    1    3    3    0    0 -0.27271447954E+01 -0.72388311315E+01 -0.91072206850E+01  0.11949036101E+02  0.51100000000E-03 0. -1.
        -11    1    3    3    0    0 -0.46706857765E+01  0.67421267327E+01  0.69480886028E-01  0.82022195995E+01  0.51100000000E-03 0.  1.
        -12    1    3    3    0    0 -0.31618555689E+01 -0.16772476690E+01 -0.30166003006E+02  0.30377594173E+02  0.00000000000E+00 0.  1.
</event>
<event>
 7    1  0.9978258E-013  0.5052886E+02  0.7816164E-02  0.1300439E+00
        -11   -1    0    0    0    0  0.00000000000E+00  0.00000000000E+00  0.45593999997E+02  0.45594000000E+02  0.51100000000E-03 0. -1.
         11   -1    0    0    0    0 -0.00000000000E+00 -0.00000000000E+00 -0.45593999997E+02  0.45594000000E+02  0.51100000000E-03 0.  1.
    9900012    2    1    2    0    0 -0.12172907825E+02  0.37625869008E+02  0.94488029215E+01  0.50528861050E+02  0.30000003647E+02 0.  0.
        -12    1    1    2    0    0  0.12172907825E+02 -0.37625869008E+02 -0.94488029215E+01  0.40659138950E+02  0.00000000000E+00 0.  1.
         11    1    3    3    0    0 -0.55700125869E+01  0.23903998257E+02 -0.70895848579E+01  0.25547766764E+02  0.51100000000E-03 0. -1.
        -11    1    3    3    0    0  0.16023270468E+01 -0.98382519406E+00  0.15414918679E+01  0.24313702756E+01  0.51100000000E-03 0.  1.
         12    1    3    3    0    0 -0.82052222847E+01  0.14705695945E+02  0.14996895912E+02  0.22549724010E+02  0.00000000000E+00 0. -1.
</event>
<event>
 7    1  0.9978258E-013  0.5052886E+02  0.7816164E-02  0.1300439E+00
        -11   -1    0    0    0    0  0.00000000000E+00  0.00000000000E+00  0.45593999997E+02  0.45594000000E+02  0.51100000000E-03 0.  1.
         11   -1    0    0    0    0 -0.00000000000E+00 -0.00000000000E+00 -0.45593999997E+02  0.45594000000E+02  0.51100000000E-03 0. -1.
    9900012    2    1    2    0    0 -0.28372930807E+02  0.28832346457E+02 -0.41034456883E+01  0.50528859930E+02  0.30000000242E+02 0.  0.
        -12    1    1    2    0    0  0.28372930807E+02 -0.28832346457E+02  0.41034456883E+01  0.40659140070E+02  0.00000000000E+00 0.  1.
         11    1    3    3    0    0 -0.14805967592E+02 -0.15765851882E+01 -0.67942476114E+00  0.14905164053E+02  0.51100000000E-03 0. -1.
        -11    1    3    3    0    0 -0.63740397940E+01  0.12011874047E+02  0.45244855513E+01  0.14331241090E+02  0.51100000000E-03 0.  1.
         12    1    3    3    0    0 -0.71929234208E+01  0.18397057598E+02 -0.79485064785E+01  0.21292454787E+02  0.00000000000E+00 0. -1.
</event>
<event>
 7    1  0.9978258E-013  0.5052896E+02  0.7816164E-02  0.1300438E+00
        -11   -1    0    0    0    0  0.00000000000E+00  0.00000000000E+00  0.45593999997E+02  0.45594000000E+02  0.51100000000E-03 0.  1.
         11   -1    0    0    0    0 -0.00000000000E+00 -0.00000000000E+00 -0.45593999997E+02  0.45594000000E+02  0.51100000000E-03 0. -1.
    9900012    2    1    2    0    0  0.13972186263E+02 -0.13928438941E+02 -0.35551856330E+02  0.50528955633E+02  0.30000291142E+02 0.  0.
        -12    1    1    2    0    0 -0.13972186263E+02  0.13928438941E+02  0.35551856330E+02  0.40659044367E+02  0.00000000000E+00 0.  1.
         11    1    3    3    0    0  0.32080544665E+01  0.27854844792E+01  0.34847193043E+01  0.54948890921E+01  0.51100000000E-03 0.  1.
        -11    1    3    3    0    0  0.69453315103E+01 -0.12254072293E+02 -0.16258165724E+02  0.21511110397E+02  0.51100000000E-03 0. -1.
        -12    1    3    3    0    0  0.38188002862E+01 -0.44598511274E+01 -0.22778409911E+02  0.23522956144E+02  0.00000000000E+00 0.  1.
</event>
<event>
 7    1  0.9978258E-013  0.5052886E+02  0.7816164E-02  0.1300439E+00
        -11   -1    0    0    0    0  0.00000000000E+00  0.00000000000E+00  0.45593999997E+02  0.45594000000E+02  0.51100000000E-03 0.  1.
         11   -1    0    0    0    0 -0.00000000000E+00 -0.00000000000E+00 -0.45593999997E+02  0.45594000000E+02  0.51100000000E-03 0. -1.
    9900012    2    1    2    0    0  0.17606113616E+02 -0.25453254003E+02 -0.26368971355E+02  0.50528855563E+02  0.29999986971E+02 0.  0.
        -12    1    1    2    0    0 -0.17606113616E+02  0.25453254003E+02  0.26368971355E+02  0.40659144437E+02  0.00000000000E+00 0.  1.
         11    1    3    3    0    0  0.12306541118E+02 -0.27720210785E+02 -0.17783891449E+02  0.35158609694E+02  0.51100000000E-03 0. -1.
        -11    1    3    3    0    0  0.45821976008E+00  0.58435851493E+01 -0.70306621607E+01  0.91535601503E+01  0.51100000000E-03 0.  1.
        -12    1    3    3    0    0  0.48413527376E+01 -0.35766283671E+01 -0.15544177453E+01  0.62166857194E+01  0.00000000000E+00 0.  1.
</event>
<event>
 7    1  0.9978258E-013  0.5052886E+02  0.7816164E-02  0.1300439E+00
        -11   -1    0    0    0    0  0.00000000000E+00  0.00000000000E+00  0.45593999997E+02  0.45594000000E+02  0.51100000000E-03 0. -1.
         11   -1    0    0    0    0 -0.00000000000E+00 -0.00000000000E+00 -0.45593999997E+02  0.45594000000E+02  0.51100000000E-03 0.  1.
    9900012    2    1    2    0    0  0.30123462193E+02 -0.80400476339E+01  0.26097900367E+02  0.50528859035E+02  0.29999997522E+02 0.  0.
        -12    1    1    2    0    0 -0.30123462193E+02  0.80400476339E+01 -0.26097900367E+02  0.40659140965E+02  0.00000000000E+00 0.  1.
         11    1    3    3    0    0  0.34682735178E+01 -0.73037710559E+01  0.19477169902E+02  0.21088720693E+02  0.51100000000E-03 0. -1.
        -11    1    3    3    0    0  0.93992612355E+01 -0.52370468168E+01  0.13488564886E+01  0.10843993048E+02  0.51100000000E-03 0.  1.
         12    1    3    3    0    0  0.17255927440E+02  0.45007702388E+01  0.52718739765E+01  0.18596145294E+02  0.00000000000E+00 0. -1.
</event>
<event>
 7    1  0.9978258E-013  0.5052887E+02  0.7816164E-02  0.1300439E+00
        -11   -1    0    0    0    0  0.00000000000E+00  0.00000000000E+00  0.45593999997E+02  0.45594000000E+02  0.51100000000E-03 0.  1.
         11   -1    0    0    0    0 -0.00000000000E+00 -0.00000000000E+00 -0.45593999997E+02  0.45594000000E+02  0.51100000000E-03 0. -1.
    9900012    2    1    2    0    0 -0.24265671403E+01 -0.14339914270E+02 -0.37968982520E+02  0.50528868148E+02  0.30000025223E+02 0.  0.
        -12    1    1    2    0    0  0.24265671403E+01  0.14339914270E+02  0.37968982520E+02  0.40659131852E+02  0.00000000000E+00 0.  1.
         11    1    3    3    0    0 -0.75653254327E+01 -0.79224747162E+01 -0.11481513484E+02  0.15868991987E+02  0.51100000000E-03 0. -1.
        -11    1    3    3    0    0  0.12291980628E+02 -0.65765506419E+01 -0.11574889101E+02  0.18119654083E+02  0.51100000000E-03 0.  1.
        -12    1    3    3    0    0 -0.71532223354E+01  0.15911108829E+00 -0.14912579934E+02  0.16540222078E+02  0.00000000000E+00 0.  1.
</event>
<event>
 7    1  0.9978258E-013  0.5052886E+02  0.7816164E-02  0.1300439E+00
        -11   -1    0    0    0    0  0.00000000000E+00  0.00000000000E+00  0.45593999997E+02  0.45594000000E+02  0.51100000000E-03 0.  1.
         11   -1    0    0    0    0 -0.00000000000E+00 -0.00000000000E+00 -0.45593999997E+02  0.45594000000E+02  0.51100000000E-03 0. -1.
    9900012    2    1    2    0    0 -0.20514279679E+01 -0.26080198311E+02 -0.31125242425E+02  0.50528858141E+02  0.29999994806E+02 0.  0.
        -12    1    1    2    0    0  0.20514279679E+01  0.26080198311E+02  0.31125242425E+02  0.40659141859E+02  0.00000000000E+00 0.  1.
         11    1    3    3    0    0  0.73947753228E-01 -0.29673456640E+02 -0.15719971848E+02  0.33580306913E+02  0.51100000000E-03 0. -1.
        -11    1    3    3    0    0 -0.35164046492E+01  0.88686143299E+00 -0.55130821422E+01  0.65989165646E+01  0.51100000000E-03 0.  1.
         12    1    3    3    0    0  0.13910289281E+01  0.27063968956E+01 -0.98921884350E+01  0.10349634664E+02  0.00000000000E+00 0. -1.
</event>
<event>
 7    1  0.9978258E-013  0.5052885E+02  0.7816164E-02  0.1300439E+00
        -11   -1    0    0    0    0  0.00000000000E+00  0.00000000000E+00  0.45593999997E+02  0.45594000000E+02  0.51100000000E-03 0.  1.
         11   -1    0    0    0    0 -0.00000000000E+00 -0.00000000000E+00 -0.45593999997E+02  0.45594000000E+02  0.51100000000E-03 0. -1.
    9900012    2    1    2    0    0  0.47350445487E+01  0.58267405073E+01 -0.39959916589E+02  0.50528849916E+02  0.29999969803E+02 0.  0.
        -12    1    1    2    0    0 -0.47350445487E+01 -0.58267405073E+01  0.39959916589E+02  0.40659150084E+02  0.00000000000E+00 0.  1.
         11    1    3    3    0    0 -0.53445666096E+01 -0.51209288508E+01 -0.14453720127E+02  0.16238790913E+02  0.51100000000E-03 0. -1.
        -11    1    3    3    0    0  0.85891043733E+01  0.15721972932E+02 -0.20097205876E+02  0.26923053896E+02  0.51100000000E-03 0.  1.
        -12    1    3    3    0    0  0.14905067850E+01 -0.47743035736E+01 -0.54089905858E+01  0.73670051070E+01  0.00000000000E+00 0.  1.
</event>
<event>
 7    1  0.9978258E-013  0.5052887E+02  0.7816164E-02  0.1300439E+00
        -11   -1    0    0    0    0  0.00000000000E+00  0.00000000000E+00  0.45593999997E+02  0.45594000000E+02  0.51100000000E-03 0. -1.
         11   -1    0    0    0    0 -0.00000000000E+00 -0.00000000000E+00 -0.45593999997E+02  0.45594000000E+02  0.51100000000E-03 0.  1.
    9900012    2    1    2    0    0  0.21245906594E+02 -0.24564674771E+02  0.24461248635E+02  0.50528874599E+02  0.30000044831E+02 0.  0.
        -12    1    1    2    0    0 -0.21245906594E+02  0.24564674771E+02 -0.24461248635E+02  0.40659125401E+02  0.00000000000E+00 0.  1.
         11    1    3    3    0    0  0.55141449149E+01 -0.15780530521E+02  0.18830798242E+02  0.25179950364E+02  0.51100000000E-03 0. -1.
        -11    1    3    3    0    0  0.77543755625E+01  0.70264647864E+00 -0.48020191594E+01  0.91478653634E+01  0.51100000000E-03 0.  1.
        -12    1    3    3    0    0  0.79773861166E+01 -0.94867907287E+01  0.10432469552E+02  0.16201058871E+02  0.00000000000E+00 0.  1.
</event>
<event>
 7    1  0.9978258E-013  0.5052887E+02  0.7816164E-02  0.1300439E+00
        -11   -1    0    0    0    0  0.00000000000E+00  0.00000000000E+00  0.45593999997E+02  0.45594000000E+02  0.51100000000E-03 0. -1.
         11   -1    0    0    0    0 -0.00000000000E+00 -0.00000000000E+00 -0.45593999997E+02  0.45594000000E+02  0.51100000000E-03 0.  1.
    9900012    2    1    2    0    0 -0.28181183025E+02 -0.29211944181E+02  0.23766565152E+01  0.50528865040E+02  0.30000015774E+02 0.  0.
        -12    1    1    2    0    0  0.28181183025E+02  0.29211944181E+02 -0.23766565152E+01  0.40659134960E+02  0.00000000000E+00 0.  1.
         11    1    3    3    0    0 -0.12428841870E+02 -0.29714537317E+02  0.21127459804E+01  0.32278375642E+02  0.51100000000E-03 0. -1.
        -11    1    3    3    0    0 -0.69671547665E-01  0.12314292761E+01 -0.20388677316E+01  0.23829087424E+01  0.51100000000E-03 0.  1.
         12    1    3    3    0    0 -0.15682669607E+02 -0.72883614018E+00  0.23027782664E+01  0.15867580655E+02  0.00000000000E+00 0. -1.
</event>
<event>
 7    1  0.9978258E-013  0.5052887E+02  0.7816164E-02  0.1300439E+00
        -11   -1    0    0    0    0  0.00000000000E+00  0.00000000000E+00  0.45593999997E+02  0.45594000000E+02  0.51100000000E-03 0.  1.
         11   -1    0    0    0    0 -0.00000000000E+00 -0.00000000000E+00 -0.45593999997E+02  0.45594000000E+02  0.51100000000E-03 0. -1.
    9900012    2    1    2    0    0 -0.84528180419E-01  0.31224051457E+02 -0.26042594258E+02  0.50528865109E+02  0.30000015985E+02 0.  0.
        -12    1    1    2    0    0  0.84528180419E-01 -0.31224051457E+02  0.26042594258E+02  0.40659134891E+02  0.00000000000E+00 0.  1.
         11    1    3    3    0    0  0.57039856996E+01  0.10268530441E+02 -0.11310393239E+02  0.16306537516E+02  0.51100000000E-03 0. -1.
        -11    1    3    3    0    0 -0.36456798530E+01  0.13989915464E+02  0.32513371487E+01  0.14818228969E+02  0.51100000000E-03 0.  1.
        -12    1    3    3    0    0 -0.21428340270E+01  0.69656055526E+01 -0.17983538168E+02  0.19404098624E+02  0.00000000000E+00 0.  1.
</event>
<event>
 7    1  0.9978258E-013  0.5052888E+02  0.7816164E-02  0.1300439E+00
        -11   -1    0    0    0    0  0.00000000000E+00  0.00000000000E+00  0.45593999997E+02  0.45594000000E+02  0.51100000000E-03 0. -1.
         11   -1    0    0    0    0 -0.00000000000E+00 -0.00000000000E+00 -0.45593999997E+02  0.45594000000E+02  0.51100000000E-03 0.  1.
    9900012    2    1    2    0    0  0.97014921022E+01 -0.51888595228E+01  0.39142311075E+02  0.50528883821E+02  0.30000072862E+02 0.  0.
        -12    1    1    2    0    0 -0.97014921022E+01  0.51888595228E+01 -0.39142311075E+02  0.40659116179E+02  0.00000000000E+00 0.  1.
         11    1    3    3    0    0  0.60813048085E+00  0.40736666618E+01 -0.29398137269E+00  0.41292866287E+01  0.51100000000E-03 0. -1.
        -11    1    3    3    0    0  0.14153551302E+02 -0.56092631323E+01  0.36407081822E+02  0.39462164847E+02  0.51100000000E-03 0.  1.
        -12    1    3    3    0    0 -0.50601896806E+01 -0.36532630523E+01  0.30292106260E+01  0.69374323456E+01  0.00000000000E+00 0.  1.
</event>
<event>
 7    1  0.9978258E-013  0.5052886E+02  0.7816164E-02  0.1300439E+00
        -11   -1    0    0    0    0  0.00000000000E+00  0.00000000000E+00  0.45593999997E+02  0.45594000000E+02  0.51100000000E-03 0.  1.
         11   -1    0    0    0    0 -0.00000000000E+00 -0.00000000000E+00 -0.45593999997E+02  0.45594000000E+02  0.51100000000E-03 0. -1.
    9900012    2    1    2    0    0  0.39145217579E+02  0.83109786958E+01 -0.71934285793E+01  0.50528857844E+02  0.29999993902E+02 0.  0.
        -12    1    1    2    0    0 -0.39145217579E+02 -0.83109786958E+01  0.71934285793E+01  0.40659142156E+02  0.00000000000E+00 0.  1.
         11    1    3    3    0    0  0.22629972907E+02  0.12783958884E+02  0.58113882372E+01  0.26633015451E+02  0.51100000000E-03 0. -1.
        -11    1    3    3    0    0 -0.71092529001E+00 -0.25159671647E+01 -0.95868576076E+00  0.27847054047E+01  0.51100000000E-03 0.  1.
         12    1    3    3    0    0  0.17226169961E+02 -0.19570130230E+01 -0.12046131056E+02  0.21111136988E+02  0.00000000000E+00 0. -1.
</event>
<event>
 7    1  0.9978258E-013  0.5052888E+02  0.7816164E-02  0.1300439E+00
        -11   -1    0    0    0    0  0.00000000000E+00  0.00000000000E+00  0.45593999997E+02  0.45594000000E+02  0.51100000000E-03 0. -1.
         11   -1    0    0    0    0 -0.00000000000E+00 -0.00000000000E+00 -0.45593999997E+02  0.45594000000E+02  0.51100000000E-03 0.  1.
    9900012    2    1    2    0    0  0.36511465749E+02 -0.17772454268E+02 -0.20533857372E+01  0.50528884726E+02  0.30000075613E+02 0.  0.
        -12    1    1    2    0    0 -0.36511465749E+02  0.17772454268E+02  0.20533857372E+01  0.40659115274E+02  0.00000000000E+00 0.  1.
         11    1    3    3    0    0  0.77099468623E+00 -0.12998285264E+02  0.28166241358E+01  0.13322283002E+02  0.51100000000E-03 0. -1.
        -11    1    3    3    0    0  0.21686363272E+02 -0.30483315645E+00 -0.57339791779E+01  0.22433675416E+02  0.51100000000E-03 0.  1.
        -12    1    3    3    0    0  0.14054107791E+02 -0.44693358482E+01  0.86396930494E+00  0.14772926308E+02  0.00000000000E+00 0.  1.
</event>
<event>
 7    1  0.9978258E-013  0.5052889E+02  0.7816164E-02  0.1300439E+00
        -11   -1    0    0    0    0  0.00000000000E+00  0.00000000000E+00  0.45593999997E+02  0.45594000000E+02  0.51100000000E-03 0. -1.
         11   -1    0    0    0    0 -0.00000000000E+00 -0.00000000000E+00 -0.45593999997E+02  0.45594000000E+02  0.51100000000E-03 0.  1.
    9900012    2    1    2    0    0 -0.25285454508E+02  0.32485534706E+01  0.31674210273E+02  0.50528893938E+02  0.30000103614E+02 0.  0.
        -12    1    1    2    0    0  0.25285454508E+02 -0.32485534706E+01 -0.31674210273E+02  0.40659106062E+02  0.00000000000E+00 0.  1.
         11    1    3    3    0    0 -0.17860731442E+02  0.13979004103E+02  0.15286615466E+02  0.27351396601E+02  0.51100000000E-03 0. -1.
        -11    1    3    3    0    0 -0.34985502845E+01 -0.60680638126E+01  0.15511402412E+02  0.17019543401E+02  0.51100000000E-03 0.  1.
         12    1    3    3    0    0 -0.39261727808E+01 -0.46623868201E+01  0.87619239512E+00  0.61579539360E+01  0.00000000000E+00 0. -1.
</event>
<event>
 7    1  0.9978258E-013  0.5052886E+02  0.7816164E-02  0.1300439E+00
        -11   -1    0    0    0    0  0.00000000000E+00  0.00000000000E+00  0.45593999997E+02  0.45594000000E+02  0.51100000000E-03 0.  1.
         11   -1    0    0    0    0 -0.00000000000E+00 -0.00000000000E+00 -0.45593999997E+02  0.45594000000E+02  0.51100000000E-03 0. -1.
    9900012    2    1    2    0    0  0.96375942012E+01 -0.39216207015E+02 -0.47298610272E+01  0.50528859577E+02  0.29999999170E+02 0.  0.
        -12    1    1    2    0    0 -0.96375942012E+01  0.39216207015E+02  0.47298610272E+01  0.40659140423E+02  0.00000000000E+00 0.  1.
         11    1    3    3    0    0  0.77397358846E+01 -0.23537904885E+02 -0.12882311073E+02  0.27926518164E+02  0.51100000000E-03 0. -1.
        -11    1    3    3    0    0  0.29767940395E+01 -0.16823517995E+02  0.10292891874E+02  0.19945818706E+02  0.51100000000E-03 0.  1.
         12    1    3    3    0    0 -0.10789357229E+01  0.11452158651E+01 -0.21404418283E+01  0.26565227069E+01  0.00000000000E+00 0. -1.
</event>
<event>
 7    1  0.9978258E-013  0.5052885E+02  0.7816164E-02  0.1300439E+00
        -11   -1    0    0    0    0  0.00000000000E+00  0.00000000000E+00  0.45593999997E+02  0.45594000000E+02  0.51100000000E-03 0.  1.
         11   -1    0    0    0    0 -0.00000000000E+00 -0.00000000000E+00 -0.45593999997E+02  0.45594000000E+02  0.51100000000E-03 0. -1.
    9900012    2    1    2    0    0  0.80510435352E+01  0.36392566348E+02 -0.16245867039E+02  0.50528851174E+02  0.29999973628E+02 0.  0.
        -12    1    1    2    0    0 -0.80510435352E+01 -0.36392566348E+02  0.16245867039E+02  0.40659148826E+02  0.00000000000E+00 0.  1.
         11    1    3    3    0    0  0.78095090169E+01  0.31791112475E+02 -0.24447964065E+02  0.40857878195E+02  0.51100000000E-03 0. -1.
        -11    1    3    3    0    0  0.90133973737E+00  0.63861638424E+00  0.16661734958E+01  0.19990944419E+01  0.51100000000E-03 0.  1.
         12    1    3    3    0    0 -0.65980521901E+00  0.39628374894E+01  0.65359235295E+01  0.76718785365E+01  0.00000000000E+00 0. -1.
</event>
<event>
 7    1  0.9978258E-013  0.5052886E+02  0.7816164E-02  0.1300439E+00
        -11   -1    0    0    0    0  0.00000000000E+00  0.00000000000E+00  0.45593999997E+02  0.45594000000E+02  0.51100000000E-03 0.  1.
         11   -1    0    0    0    0 -0.00000000000E+00 -0.00000000000E+00 -0.45593999997E+02  0.45594000000E+02  0.51100000000E-03 0. -1.
    9900012    2    1    2    0    0 -0.13436362165E+02 -0.11899674685E+02 -0.36483246307E+02  0.50528863918E+02  0.30000012364E+02 0.  0.
        -12    1    1    2    0    0  0.13436362165E+02  0.11899674685E+02  0.36483246307E+02  0.40659136082E+02  0.00000000000E+00 0.  1.
         11    1    3    3    0    0 -0.39444329142E+01  0.47263184872E+01  0.23999739038E+01  0.66073075043E+01  0.51100000000E-03 0. -1.
        -11    1    3    3    0    0  0.24652679539E+00 -0.25300639413E+01 -0.10191838115E+02  0.10504073659E+02  0.51100000000E-03 0.  1.
         12    1    3    3    0    0 -0.97384560463E+01 -0.14095929231E+02 -0.28691382096E+02  0.33417482754E+02  0.00000000000E+00 0. -1.
</event>
<event>
 7    1  0.9978258E-013  0.5052886E+02  0.7816164E-02  0.1300439E+00
        -11   -1    0    0    0    0  0.00000000000E+00  0.00000000000E+00  0.45593999997E+02  0.45594000000E+02  0.51100000000E-03 0.  1.
         11   -1    0    0    0    0 -0.00000000000E+00 -0.00000000000E+00 -0.45593999997E+02  0.45594000000E+02  0.51100000000E-03 0. -1.
    9900012    2    1    2    0    0 -0.36713379780E+02 -0.11600781760E+02 -0.13065816351E+02  0.50528856512E+02  0.29999989852E+02 0.  0.
        -12    1    1    2    0    0  0.36713379780E+02  0.11600781760E+02  0.13065816351E+02  0.40659143488E+02  0.00000000000E+00 0.  1.
         11    1    3    3    0    0 -0.17473380984E+02 -0.15472450226E+01 -0.40848148860E+01  0.18011072236E+02  0.51100000000E-03 0. -1.
        -11    1    3    3    0    0 -0.52276331911E+01 -0.76622900249E+01 -0.14546442231E+02  0.17252183023E+02  0.51100000000E-03 0.  1.
        -12    1    3    3    0    0 -0.14012365604E+02 -0.23912467129E+01  0.55654407666E+01  0.15265601252E+02  0.00000000000E+00 0.  1.
</event>
<event>
 7    1  0.9978258E-013  0.5052886E+02  0.7816164E-02  0.1300439E+00
        -11   -1    0    0    0    0  0.00000000000E+00  0.00000000000E+00  0.45593999997E+02  0.45594000000E+02  0.51100000000E-03 0.  1.
         11   -1    0    0    0    0 -0.00000000000E+00 -0.00000000000E+00 -0.45593999997E+02  0.45594000000E+02  0.51100000000E-03 0. -1.
    9900012    2    1    2    0    0  0.39391059046E+02  0.99349682274E+01 -0.16752233347E+01  0.50528862040E+02  0.30000006656E+02 0.  0.
        -12    1    1    2    0    0 -0.39391059046E+02 -0.99349682274E+01  0.16752233347E+01  0.40659137960E+02  0.00000000000E+00 0.  1.
         11    1    3    3    0    0  0.21473816695E+02  0.55043958004E+01  0.11395929330E+02  0.24925697225E+02  0.51100000000E-03 0. -1.
        -11    1    3    3    0    0  0.34949037682E+01  0.65608984105E+01 -0.42271713383E+01  0.85515330840E+01  0.51100000000E-03 0.  1.
         12    1    3    3    0    0  0.14422338583E+02 -0.21303259835E+01 -0.88439813267E+01  0.17051631731E+02  0.00000000000E+00 0. -1.
</event>
<event>
 7    1  0.9978258E-013  0.5052886E+02  0.7816164E-02  0.1300439E+00
        -11   -1    0    0    0    0  0.00000000000E+00  0.00000000000E+00  0.45593999997E+02  0.45594000000E+02  0.51100000000E-03 0.  1.
         11   -1    0    0    0    0 -0.00000000000E+00 -0.00000000000E+00 -0.45593999997E+02  0.45594000000E+02  0.51100000000E-03 0. -1.
    9900012    2    1    2    0    0  0.82355162967E+01 -0.21833181992E+02 -0.33296454314E+02  0.50528862841E+02  0.30000009093E+02 0.  0.
        -12    1    1    2    0    0 -0.82355162967E+01  0.21833181992E+02  0.33296454314E+02  0.40659137159E+02  0.00000000000E+00 0.  1.
         11    1    3    3    0    0 -0.28564533599E+00  0.38083875519E+01 -0.50752375085E+00  0.38526600709E+01  0.51100000000E-03 0. -1.
        -11    1    3    3    0    0 -0.65062556977E+00 -0.23844262293E+02 -0.22813479712E+02  0.33006469286E+02  0.51100000000E-03 0.  1.
        -12    1    3    3    0    0  0.91717872024E+01 -0.17973072512E+01 -0.99754508517E+01  0.13669733484E+02  0.00000000000E+00 0.  1.
</event>
<event>
 7    1  0.9978258E-013  0.5052886E+02  0.7816164E-02  0.1300439E+00
        -11   -1    0    0    0    0  0.00000000000E+00  0.00000000000E+00  0.45593999997E+02  0.45594000000E+02  0.51100000000E-03 0. -1.
         11   -1    0    0    0    0 -0.00000000000E+00 -0.00000000000E+00 -0.45593999997E+02  0.45594000000E+02  0.51100000000E-03 0.  1.
    9900012    2    1    2    0    0 -0.30438226501E+02 -0.12789854304E+02 -0.23729713296E+02  0.50528864510E+02  0.30000014165E+02 0.  0.
        -12    1    1    2    0    0  0.30438226501E+02  0.12789854304E+02  0.23729713296E+02  0.40659135490E+02  0.00000000000E+00 0.  1.
         11    1    3    3    0    0 -0.24313763849E+02 -0.16459225608E+02 -0.10043786547E+02  0.31031320768E+02  0.51100000000E-03 0. -1.
        -11    1    3    3    0    0 -0.81021179821E+01  0.26684298964E+01 -0.14749875969E+02  0.17038887149E+02  0.51100000000E-03 0.  1.
        -12    1    3    3    0    0  0.19776553297E+01  0.10009414078E+01  0.10639492196E+01  0.24586565939E+01  0.00000000000E+00 0.  1.
</event>
<event>
 7    1  0.9978258E-013  0.5052883E+02  0.7816164E-02  0.1300439E+00
        -11   -1    0    0    0    0  0.00000000000E+00  0.00000000000E+00  0.45593999997E+02  0.45594000000E+02  0.51100000000E-03 0.  1.
         11   -1    0    0    0    0 -0.00000000000E+00 -0.00000000000E+00 -0.45593999997E+02  0.45594000000E+02  0.51100000000E-03 0. -1.
    9900012    2    1    2    0    0 -0.26324815684E+02 -0.11975291002E+02 -0.28579093143E+02  0.50528830305E+02  0.29999910196E+02 0.  0.
        -12    1    1    2    0    0  0.26324815684E+02  0.11975291002E+02  0.28579093143E+02  0.40659169695E+02  0.00000000000E+00 0.  1.
         11    1    3    3    0    0 -0.91000659513E+01  0.89810695630E+01 -0.31852600131E+01  0.13176368712E+02  0.51100000000E-03 0. -1.
        -11    1    3    3    0    0 -0.94138213123E+01 -0.13572314071E+02 -0.17110977288E+02  0.23782625695E+02  0.51100000000E-03 0.  1.
         12    1    3    3    0    0 -0.78109284207E+01 -0.73840464939E+01 -0.82828558424E+01  0.13569835899E+02  0.00000000000E+00 0. -1.
</event>
<event>
 7    1  0.9978258E-013  0.5052886E+02  0.7816164E-02  0.1300439E+00
        -11   -1    0    0    0    0  0.00000000000E+00  0.00000000000E+00  0.45593999997E+02  0.45594000000E+02  0.51100000000E-03 0.  1.
         11   -1    0    0    0    0 -0.00000000000E+00 -0.00000000000E+00 -0.45593999997E+02  0.45594000000E+02  0.51100000000E-03 0. -1.
    9900012    2    1    2    0    0 -0.22282982309E+02  0.10261117737E+02 -0.32424434987E+02  0.50528858076E+02  0.29999994607E+02 0.  0.
        -12    1    1    2    0    0  0.22282982309E+02 -0.10261117737E+02  0.32424434987E+02  0.40659141924E+02  0.00000000000E+00 0.  1.
         11    1    3    3    0    0  0.32357946288E+01  0.14981474087E+01 -0.26509271442E+01  0.44432226506E+01  0.51100000000E-03 0. -1.
        -11    1    3    3    0    0 -0.21589719309E+02 -0.23619863818E+01 -0.25598116572E+02  0.33570203035E+02  0.51100000000E-03 0.  1.
        -12    1    3    3    0    0 -0.39290576295E+01  0.11124956710E+02 -0.41753912706E+01  0.12515432390E+02  0.00000000000E+00 0.  1.
</event>
<event>
 7    1  0.9978258E-013  0.5052895E+02  0.7816164E-02  0.1300438E+00
        -11   -1    0    0    0    0  0.00000000000E+00  0.00000000000E+00  0.45593999997E+02  0.45594000000E+02  0.51100000000E-03 0.  1.
         11   -1    0    0    0    0 -0.00000000000E+00 -0.00000000000E+00 -0.45593999997E+02  0.45594000000E+02  0.51100000000E-03 0. -1.
    9900012    2    1    2    0    0  0.31337634773E+02 -0.32424318611E+01 -0.25702094748E+02  0.50528949445E+02  0.30000272333E+02 0.  0.
        -12    1    1    2    0    0 -0.31337634773E+02  0.32424318611E+01  0.25702094748E+02  0.40659050555E+02  0.00000000000E+00 0.  1.
         11    1    3    3    0    0  0.63153662362E-01  0.39229154957E+00 -0.14155419694E+02  0.14160995305E+02  0.51100000000E-03 0.  1.
        -11    1    3    3    0    0  0.23964868321E+02 -0.54474307689E+01 -0.14199491773E+02  0.28383357492E+02  0.51100000000E-03 0. -1.
         12    1    3    3    0    0  0.73096127899E+01  0.18127073583E+01  0.26528167189E+01  0.79845966491E+01  0.00000000000E+00 0. -1.
</event>
<event>
 7    1  0.9978258E-013  0.5052886E+02  0.7816164E-02  0.1300439E+00
        -11   -1    0    0    0    0  0.00000000000E+00  0.00000000000E+00  0.45593999997E+02  0.45594000000E+02  0.51100000000E-03 0.  1.
         11   -1    0    0    0    0 -0.00000000000E+00 -0.00000000000E+00 -0.45593999997E+02  0.45594000000E+02  0.51100000000E-03 0. -1.
    9900012    2    1    2    0    0  0.62232104004E+01  0.12541014240E+02 -0.38172772601E+02  0.50528856454E+02  0.29999989677E+02 0.  0.
        -12    1    1    2    0    0 -0.62232104004E+01 -0.12541014240E+02  0.38172772601E+02  0.40659143546E+02  0.00000000000E+00 0.  1.
         11    1    3    3    0    0  0.91538514964E+01 -0.21877754977E+01 -0.17379145803E+02  0.19763958813E+02  0.51100000000E-03 0. -1.
        -11    1    3    3    0    0 -0.87290096736E+01  0.10689364417E+02 -0.74931745736E+01  0.15703687051E+02  0.51100000000E-03 0.  1.
        -12    1    3    3    0    0  0.57983685776E+01  0.40394253206E+01 -0.13300452224E+02  0.15061210591E+02  0.00000000000E+00 0.  1.
</event>
<event>
 7    1  0.9978258E-013  0.5052887E+02  0.7816164E-02  0.1300439E+00
        -11   -1    0    0    0    0  0.00000000000E+00  0.00000000000E+00  0.45593999997E+02  0.45594000000E+02  0.51100000000E-03 0. -1.
         11   -1    0    0    0    0 -0.00000000000E+00 -0.00000000000E+00 -0.45593999997E+02  0.45594000000E+02  0.51100000000E-03 0.  1.
    9900012    2    1    2    0    0  0.30981642595E+02  0.26140886523E+02 -0.31554678501E+01  0.50528866912E+02  0.30000021466E+02 0.  0.
        -12    1    1    2    0    0 -0.30981642595E+02 -0.26140886523E+02  0.31554678501E+01  0.40659133088E+02  0.00000000000E+00 0.  1.
         11    1    3    3    0    0  0.26239516890E+00 -0.37309059930E+01 -0.43213529497E+01  0.57151205001E+01  0.51100000000E-03 0.  1.
        -11    1    3    3    0    0  0.23029531554E+02  0.27807727114E+02  0.40793405947E+01  0.36335520236E+02  0.51100000000E-03 0. -1.
        -12    1    3    3    0    0  0.76897158716E+01  0.20640654022E+01 -0.29134554951E+01  0.84782261760E+01  0.00000000000E+00 0.  1.
</event>
<event>
 7    1  0.9978258E-013  0.5052886E+02  0.7816164E-02  0.1300439E+00
        -11   -1    0    0    0    0  0.00000000000E+00  0.00000000000E+00  0.45593999997E+02  0.45594000000E+02  0.51100000000E-03 0. -1.
         11   -1    0    0    0    0 -0.00000000000E+00 -0.00000000000E+00 -0.45593999997E+02  0.45594000000E+02  0.51100000000E-03 0.  1.
    9900012    2    1    2    0    0  0.25037331404E+02 -0.54436757725E+00  0.32031259135E+02  0.50528857588E+02  0.29999993124E+02 0.  0.
        -12    1    1    2    0    0 -0.25037331404E+02  0.54436757725E+00 -0.32031259135E+02  0.40659142412E+02  0.00000000000E+00 0.  1.
         11    1    3    3    0    0 -0.26437531927E+00 -0.27749017483E+01  0.14303059529E+02  0.14572147617E+02  0.51100000000E-03 0. -1.
        -11    1    3    3    0    0  0.12380715169E+02 -0.16243887139E+00 -0.17039917274E+01  0.12498483210E+02  0.51100000000E-03 0.  1.
         12    1    3    3    0    0  0.12920991554E+02  0.23929730424E+01  0.19432191333E+02  0.23458226760E+02  0.00000000000E+00 0. -1.
</event>
<event>
 7    1  0.9978258E-013  0.5052886E+02  0.7816164E-02  0.1300439E+00
        -11   -1    0    0    0    0  0.00000000000E+00  0.00000000000E+00  0.45593999997E+02  0.45594000000E+02  0.51100000000E-03 0.  1.
         11   -1    0    0    0    0 -0.00000000000E+00 -0.00000000000E+00 -0.45593999997E+02  0.45594000000E+02  0.51100000000E-03 0. -1.
    9900012    2    1    2    0    0  0.34637563534E+02  0.18191265040E+01 -0.21215459057E+02  0.50528859185E+02  0.29999997979E+02 0.  0.
        -12    1    1    2    0    0 -0.34637563534E+02 -0.18191265040E+01  0.21215459057E+02  0.40659140815E+02  0.00000000000E+00 0.  1.
         11    1    3    3    0    0  0.24715396271E+02 -0.59320774052E+01 -0.11274271036E+02  0.27805566760E+02  0.51100000000E-03 0. -1.
        -11    1    3    3    0    0  0.11394229042E+01  0.92615065549E+01 -0.10178423827E+02  0.13808479282E+02  0.51100000000E-03 0.  1.
        -12    1    3    3    0    0  0.87827443585E+01 -0.15103026457E+01  0.23723580626E+00  0.89148131431E+01  0.00000000000E+00 0.  1.
</event>
<event>
 7    1  0.9978258E-013  0.5052889E+02  0.7816164E-02  0.1300439E+00
        -11   -1    0    0    0    0  0.00000000000E+00  0.00000000000E+00  0.45593999997E+02  0.45594000000E+02  0.51100000000E-03 0.  1.
         11   -1    0    0    0    0 -0.00000000000E+00 -0.00000000000E+00 -0.45593999997E+02  0.45594000000E+02  0.51100000000E-03 0. -1.
    9900012    2    1    2    0    0  0.31312713667E+02 -0.20443316412E+02 -0.15960825677E+02  0.50528890573E+02  0.30000093385E+02 0.  0.
        -12    1    1    2    0    0 -0.31312713667E+02  0.20443316412E+02  0.15960825677E+02  0.40659109427E+02  0.00000000000E+00 0.  1.
         11    1    3    3    0    0  0.32609737199E+02 -0.74484383797E+01 -0.13395610346E+02  0.36032160236E+02  0.51100000000E-03 0. -1.
        -11    1    3    3    0    0 -0.95488585549E+00 -0.25613614642E+01  0.17008973530E+01  0.32195390375E+01  0.51100000000E-03 0.  1.
         12    1    3    3    0    0 -0.34213767646E+00 -0.10433516568E+02 -0.42661126840E+01  0.11277191299E+02  0.00000000000E+00 0. -1.
</event>
<event>
 7    1  0.9978258E-013  0.5052886E+02  0.7816164E-02  0.1300439E+00
        -11   -1    0    0    0    0  0.00000000000E+00  0.00000000000E+00  0.45593999997E+02  0.45594000000E+02  0.51100000000E-03 0. -1.
         11   -1    0    0    0    0 -0.00000000000E+00 -0.00000000000E+00 -0.45593999997E+02  0.45594000000E+02  0.51100000000E-03 0.  1.
    9900012    2    1    2    0    0  0.34784515666E+02  0.22883765056E+01  0.20927642645E+02  0.50528862973E+02  0.30000009491E+02 0.  0.
        -12    1    1    2    0    0 -0.34784515666E+02 -0.22883765056E+01 -0.20927642645E+02  0.40659137027E+02  0.00000000000E+00 0.  1.
         11    1    3    3    0    0  0.24628081331E+01 -0.58344360442E+01  0.12835685811E+02  0.14312962599E+02  0.51100000000E-03 0. -1.
        -11    1    3    3    0    0  0.83214430581E+01  0.70181995546E+01  0.68992637371E-01  0.10886059884E+02  0.51100000000E-03 0.  1.
         12    1    3    3    0    0  0.24000264475E+02  0.11046129952E+01  0.80229641962E+01  0.25329840490E+02  0.00000000000E+00 0. -1.
</event>
<event>
 7    1  0.9978258E-013  0.5052885E+02  0.7816164E-02  0.1300439E+00
        -11   -1    0    0    0    0  0.00000000000E+00  0.00000000000E+00  0.45593999997E+02  0.45594000000E+02  0.51100000000E-03 0.  1.
         11   -1    0    0    0    0 -0.00000000000E+00 -0.00000000000E+00 -0.45593999997E+02  0.45594000000E+02  0.51100000000E-03 0. -1.
    9900012    2    1    2    0    0  0.25850495680E+01 -0.17857525379E+02 -0.36436141386E+02  0.50528854743E+02  0.29999984477E+02 0.  0.
        -12    1    1    2    0    0 -0.25850495680E+01  0.17857525379E+02  0.36436141386E+02  0.40659145257E+02  0.00000000000E+00 0.  1.
         11    1    3    3    0    0 -0.56397641123E+01 -0.14130161921E+02 -0.34839536951E+02  0.38016598354E+02  0.51100000000E-03 0. -1.
        -11    1    3    3    0    0  0.61907249912E+01  0.13978804108E+01  0.98698868110E+00  0.64228726032E+01  0.51100000000E-03 0.  1.
        -12    1    3    3    0    0  0.20340886892E+01 -0.51252438686E+01 -0.25835931158E+01  0.60893837862E+01  0.00000000000E+00 0.  1.
</event>
<event>
 7    1  0.9978258E-013  0.5052886E+02  0.7816164E-02  0.1300439E+00
        -11   -1    0    0    0    0  0.00000000000E+00  0.00000000000E+00  0.45593999997E+02  0.45594000000E+02  0.51100000000E-03 0.  1.
         11   -1    0    0    0    0 -0.00000000000E+00 -0.00000000000E+00 -0.45593999997E+02  0.45594000000E+02  0.51100000000E-03 0. -1.
    9900012    2    1    2    0    0 -0.32129790443E+01  0.40005040289E+02 -0.65145299298E+01  0.50528861014E+02  0.30000003540E+02 0.  0.
        -12    1    1    2    0    0  0.32129790443E+01 -0.40005040289E+02  0.65145299298E+01  0.40659138986E+02  0.00000000000E+00 0.  1.
         11    1    3    3    0    0  0.71900573654E+01  0.13020376890E+02 -0.13754275676E+02  0.20258510284E+02  0.51100000000E-03 0. -1.
        -11    1    3    3    0    0 -0.86073907600E+01  0.15493886465E+02  0.36227972673E+01  0.18090670352E+02  0.51100000000E-03 0.  1.
         12    1    3    3    0    0 -0.17956456497E+01  0.11490776933E+02  0.36169484788E+01  0.12179680379E+02  0.00000000000E+00 0. -1.
</event>
<event>
 7    1  0.9978258E-013  0.5052888E+02  0.7816164E-02  0.1300439E+00
        -11   -1    0    0    0    0  0.00000000000E+00  0.00000000000E+00  0.45593999997E+02  0.45594000000E+02  0.51100000000E-03 0.  1.
         11   -1    0    0    0    0 -0.00000000000E+00 -0.00000000000E+00 -0.45593999997E+02  0.45594000000E+02  0.51100000000E-03 0. -1.
    9900012    2    1    2    0    0  0.46981415677E+01 -0.37945262809E+02 -0.13829269396E+02  0.50528878073E+02  0.30000055391E+02 0.  0.
        -12    1    1    2    0    0 -0.46981415677E+01  0.37945262809E+02  0.13829269396E+02  0.40659121927E+02  0.00000000000E+00 0.  1.
         11    1    3    3    0    0  0.51730107086E+01 -0.37435362771E+01 -0.66456827037E+01  0.92162466605E+01  0.51100000000E-03 0. -1.
        -11    1    3    3    0    0 -0.78002281482E+01 -0.58710850733E+01  0.31824496026E+01  0.10268455816E+02  0.51100000000E-03 0.  1.
        -12    1    3    3    0    0  0.73253590074E+01 -0.28330641458E+02 -0.10366036295E+02  0.31044175597E+02  0.00000000000E+00 0.  1.
</event>
<event>
 7    1  0.9978258E-013  0.5052885E+02  0.7816164E-02  0.1300439E+00
        -11   -1    0    0    0    0  0.00000000000E+00  0.00000000000E+00  0.45593999997E+02  0.45594000000E+02  0.51100000000E-03 0. -1.
         11   -1    0    0    0    0 -0.00000000000E+00 -0.00000000000E+00 -0.45593999997E+02  0.45594000000E+02  0.51100000000E-03 0.  1.
    9900012    2    1    2    0    0  0.16123373840E+02 -0.30118792351E+02  0.22046797845E+02  0.50528854265E+02  0.29999983024E+02 0.  0.
        -12    1    1    2    0    0 -0.16123373840E+02  0.30118792351E+02 -0.22046797845E+02  0.40659145735E+02  0.00000000000E+00 0.  1.
         11    1    3    3    0    0  0.14923606562E+02 -0.31033384401E+02  0.20290787566E+02  0.39968750799E+02  0.51100000000E-03 0. -1.
        -11    1    3    3    0    0 -0.40321326344E+01  0.12291308117E+01  0.29991259245E+01  0.51733560390E+01  0.51100000000E-03 0.  1.
         12    1    3    3    0    0  0.52318999128E+01 -0.31453876220E+00 -0.12431156450E+01  0.53867474266E+01  0.00000000000E+00 0. -1.
</event>
<event>
 7    1  0.9978258E-013  0.5052887E+02  0.7816164E-02  0.1300439E+00
        -11   -1    0    0    0    0  0.00000000000E+00  0.00000000000E+00  0.45593999997E+02  0.45594000000E+02  0.51100000000E-03 0. -1.
         11   -1    0    0    0    0 -0.00000000000E+00 -0.00000000000E+00 -0.45593999997E+02  0.45594000000E+02  0.51100000000E-03 0.  1.
    9900012    2    1    2    0    0  0.30054035623E+02  0.25558580168E+02 -0.98325427858E+01  0.50528868491E+02  0.30000026266E+02 0.  0.
        -12    1    1    2    0    0 -0.30054035623E+02 -0.25558580168E+02  0.98325427858E+01  0.40659131509E+02  0.00000000000E+00 0.  1.
         11    1    3    3    0    0  0.23648713315E+02  0.11524684692E+02 -0.19793947042E+01  0.26381774057E+02  0.51100000000E-03 0. -1.
        -11    1    3    3    0    0 -0.16756095760E+01  0.24001174974E+01 -0.94494759449E+01  0.98924631587E+01  0.51100000000E-03 0.  1.
         12    1    3    3    0    0  0.80809318833E+01  0.11633777978E+02  0.15963278632E+01  0.14254631276E+02  0.00000000000E+00 0. -1.
</event>
<event>
 7    1  0.9978258E-013  0.5052886E+02  0.7816164E-02  0.1300439E+00
        -11   -1    0    0    0    0  0.00000000000E+00  0.00000000000E+00  0.45593999997E+02  0.45594000000E+02  0.51100000000E-03 0.  1.
         11   -1    0    0    0    0 -0.00000000000E+00 -0.00000000000E+00 -0.45593999997E+02  0.45594000000E+02  0.51100000000E-03 0. -1.
    9900012    2    1    2    0    0 -0.15952407334E+02 -0.60798099167E+01 -0.36901517342E+02  0.50528863628E+02  0.30000011482E+02 0.  0.
        -12    1    1    2    0    0  0.15952407334E+02  0.60798099167E+01  0.36901517342E+02  0.40659136372E+02  0.00000000000E+00 0.  1.
         11    1    3    3    0    0 -0.14116100015E+02 -0.11516849106E+02 -0.32004201690E+02  0.36826227325E+02  0.51100000000E-03 0. -1.
        -11    1    3    3    0    0 -0.54979790417E+01  0.55787856877E+01 -0.60103212146E+01  0.98729217892E+01  0.51100000000E-03 0.  1.
         12    1    3    3    0    0  0.36616717219E+01 -0.14174649832E+00  0.11130055623E+01  0.38297145129E+01  0.00000000000E+00 0. -1.
</event>
<event>
 7    1  0.9978258E-013  0.5052886E+02  0.7816164E-02  0.1300439E+00
        -11   -1    0    0    0    0  0.00000000000E+00  0.00000000000E+00  0.45593999997E+02  0.45594000000E+02  0.51100000000E-03 0. -1.
         11   -1    0    0    0    0 -0.00000000000E+00 -0.00000000000E+00 -0.45593999997E+02  0.45594000000E+02  0.51100000000E-03 0.  1.
    9900012    2    1    2    0    0 -0.12167287189E+02 -0.24945741101E+02  0.29712499942E+02  0.50528861674E+02  0.30000005543E+02 0.  0.
        -12    1    1    2    0    0  0.12167287189E+02  0.24945741101E+02 -0.29712499942E+02  0.40659138326E+02  0.00000000000E+00 0.  1.
         11    1    3    3    0    0 -0.68524520538E+01 -0.28793766317E+02  0.21660174950E+02  0.36676971753E+02  0.51100000000E-03 0. -1.
        -11    1    3    3    0    0 -0.56820056390E+01 -0.56075311200E+00  0.14269404594E+01  0.58852180478E+01  0.51100000000E-03 0.  1.
         12    1    3    3    0    0  0.36717050414E+00  0.44087783275E+01  0.66253845330E+01  0.79666718729E+01  0.00000000000E+00 0. -1.
</event>
<event>
 7    1  0.9978258E-013  0.5052886E+02  0.7816164E-02  0.1300439E+00
        -11   -1    0    0    0    0  0.00000000000E+00  0.00000000000E+00  0.45593999997E+02  0.45594000000E+02  0.51100000000E-03 0.  1.
         11   -1    0    0    0    0 -0.00000000000E+00 -0.00000000000E+00 -0.45593999997E+02  0.45594000000E+02  0.51100000000E-03 0. -1.
    9900012    2    1    2    0    0 -0.54284526867E+01  0.86019775150E+01 -0.39366274380E+02  0.50528859892E+02  0.30000000128E+02 0.  0.
        -12    1    1    2    0    0  0.54284526867E+01 -0.86019775150E+01  0.39366274380E+02  0.40659140108E+02  0.00000000000E+00 0.  1.
         11    1    3    3    0    0 -0.86772826849E+01  0.13622702867E+00 -0.38768534617E+02  0.39727988487E+02  0.51100000000E-03 0. -1.
        -11    1    3    3    0    0 -0.24894479855E+00  0.69656356098E+01 -0.18337760259E+00  0.69724945728E+01  0.51100000000E-03 0.  1.
         12    1    3    3    0    0  0.34977747967E+01  0.15001148765E+01 -0.41436216044E+00  0.38283768325E+01  0.00000000000E+00 0. -1.
</event>
<event>
 7    1  0.9978258E-013  0.5052887E+02  0.7816164E-02  0.1300439E+00
        -11   -1    0    0    0    0  0.00000000000E+00  0.00000000000E+00  0.45593999997E+02  0.45594000000E+02  0.51100000000E-03 0.  1.
         11   -1    0    0    0    0 -0.00000000000E+00 -0.00000000000E+00 -0.45593999997E+02  0.45594000000E+02  0.51100000000E-03 0. -1.
    9900012    2    1    2    0    0  0.49035000514E+01  0.29476282072E+01 -0.40254585329E+02  0.50528874766E+02  0.30000045337E+02 0.  0.
        -12    1    1    2    0    0 -0.49035000514E+01 -0.29476282072E+01  0.40254585329E+02  0.40659125234E+02  0.00000000000E+00 0.  1.
         11    1    3    3    0    0  0.10840038204E+02  0.31741676274E+00 -0.11011078523E+02  0.15454806119E+02  0.51100000000E-03 0. -1.
        -11    1    3    3    0    0 -0.86670429625E+01  0.88263163453E+01 -0.16255272074E+02  0.20426829524E+02  0.51100000000E-03 0.  1.
        -12    1    3    3    0    0  0.27305048096E+01 -0.61961049009E+01 -0.12988234732E+02  0.14647239122E+02  0.00000000000E+00 0.  1.
</event>
<event>
 7    1  0.9978258E-013  0.5052886E+02  0.7816164E-02  0.1300439E+00
        -11   -1    0    0    0    0  0.00000000000E+00  0.00000000000E+00  0.45593999997E+02  0.45594000000E+02  0.51100000000E-03 0.  1.
         11   -1    0    0    0    0 -0.00000000000E+00 -0.00000000000E+00 -0.45593999997E+02  0.45594000000E+02  0.51100000000E-03 0. -1.
    9900012    2    1    2    0    0 -0.11955104051E+02 -0.33650160297E+02 -0.19439849458E+02  0.50528861447E+02  0.30000004855E+02 0.  0.
        -12    1    1    2    0    0  0.11955104051E+02  0.33650160297E+02  0.19439849458E+02  0.40659138553E+02  0.00000000000E+00 0.  1.
         11    1    3    3    0    0 -0.98283774448E+01 -0.32709908630E+02 -0.86228658183E+01  0.35226253575E+02  0.51100000000E-03 0. -1.
        -11    1    3    3    0    0 -0.37724017419E+01  0.40660092796E+01 -0.58384487693E+01  0.80530075535E+01  0.51100000000E-03 0.  1.
        -12    1    3    3    0    0  0.16456751362E+01 -0.50062609474E+01 -0.49785348704E+01  0.72496003188E+01  0.00000000000E+00 0.  1.
</event>
<event>
 7    1  0.9978258E-013  0.5052886E+02  0.7816164E-02  0.1300439E+00
        -11   -1    0    0    0    0  0.00000000000E+00  0.00000000000E+00  0.45593999997E+02  0.45594000000E+02  0.51100000000E-03 0.  1.
         11   -1    0    0    0    0 -0.00000000000E+00 -0.00000000000E+00 -0.45593999997E+02  0.45594000000E+02  0.51100000000E-03 0. -1.
    9900012    2    1    2    0    0  0.32518248045E+02 -0.85751264640E+01 -0.22851608548E+02  0.50528864950E+02  0.30000015501E+02 0.  0.
        -12    1    1    2    0    0 -0.32518248045E+02  0.85751264640E+01  0.22851608548E+02  0.40659135050E+02  0.00000000000E+00 0.  1.
         11    1    3    3    0    0  0.19871335342E+02  0.18592139750E+01 -0.41133633400E+01  0.20377595617E+02  0.51100000000E-03 0. -1.
        -11    1    3    3    0    0  0.32268982967E+01 -0.13367566258E+02 -0.11179418497E+02  0.17722417963E+02  0.51100000000E-03 0.  1.
         12    1    3    3    0    0  0.94200144063E+01  0.29332258189E+01 -0.75588267107E+01  0.12428851369E+02  0.00000000000E+00 0. -1.
</event>
<event>
 7    1  0.9978258E-013  0.5052885E+02  0.7816164E-02  0.1300439E+00
        -11   -1    0    0    0    0  0.00000000000E+00  0.00000000000E+00  0.45593999997E+02  0.45594000000E+02  0.51100000000E-03 0.  1.
         11   -1    0    0    0    0 -0.00000000000E+00 -0.00000000000E+00 -0.45593999997E+02  0.45594000000E+02  0.51100000000E-03 0. -1.
    9900012    2    1    2    0    0  0.19615009314E+02  0.10857355587E+02 -0.33919544670E+02  0.50528852550E+02  0.29999977810E+02 0.  0.
        -12    1    1    2    0    0 -0.19615009314E+02 -0.10857355587E+02  0.33919544670E+02  0.40659147450E+02  0.00000000000E+00 0.  1.
         11    1    3    3    0    0  0.16081466350E+02  0.17223275709E+02 -0.30513741152E+02  0.38553121604E+02  0.51100000000E-03 0. -1.
        -11    1    3    3    0    0  0.28168565923E+01 -0.64487047047E+01  0.13500982798E+01  0.71654196706E+01  0.51100000000E-03 0.  1.
         12    1    3    3    0    0  0.71668637230E+00  0.82784582244E-01 -0.47559017984E+01  0.48103112746E+01  0.00000000000E+00 0. -1.
</event>
<event>
 7    1  0.9978258E-013  0.5052886E+02  0.7816164E-02  0.1300439E+00
        -11   -1    0    0    0    0  0.00000000000E+00  0.00000000000E+00  0.45593999997E+02  0.45594000000E+02  0.51100000000E-03 0. -1.
         11   -1    0    0    0    0 -0.00000000000E+00 -0.00000000000E+00 -0.45593999997E+02  0.45594000000E+02  0.51100000000E-03 0.  1.
    9900012    2    1    2    0    0 -0.10901686068E+01  0.11583036920E+02  0.38959085512E+02  0.50528861350E+02  0.30000004559E+02 0.  0.
        -12    1    1    2    0    0  0.10901686068E+01 -0.11583036920E+02 -0.38959085512E+02  0.40659138650E+02  0.00000000000E+00 0.  1.
         11    1    3    3    0    0  0.34148430674E+01 -0.67550158963E+01  0.68074706598E+01  0.10180031924E+02  0.51100000000E-03 0. -1.
        -11    1    3    3    0    0 -0.36550326932E+01  0.56789362082E+01  0.11490366503E+01  0.68505376380E+01  0.51100000000E-03 0.  1.
         12    1    3    3    0    0 -0.84997898096E+00  0.12659116608E+02  0.31002578201E+02  0.33498291788E+02  0.00000000000E+00 0. -1.
</event>
<event>
 7    1  0.9978258E-013  0.5052885E+02  0.7816164E-02  0.1300439E+00
        -11   -1    0    0    0    0  0.00000000000E+00  0.00000000000E+00  0.45593999997E+02  0.45594000000E+02  0.51100000000E-03 0.  1.
         11   -1    0    0    0    0 -0.00000000000E+00 -0.00000000000E+00 -0.45593999997E+02  0.45594000000E+02  0.51100000000E-03 0. -1.
    9900012    2    1    2    0    0  0.64478577085E+01 -0.12511517750E+02 -0.38145167319E+02  0.50528846845E+02  0.29999960471E+02 0.  0.
        -12    1    1    2    0    0 -0.64478577085E+01  0.12511517750E+02  0.38145167319E+02  0.40659153155E+02  0.00000000000E+00 0.  1.
         11    1    3    3    0    0  0.69018902759E+00  0.96306942652E+00 -0.41008236444E+01  0.42685616357E+01  0.51100000000E-03 0. -1.
        -11    1    3    3    0    0 -0.58474998328E+01  0.35662530665E+01 -0.47553653991E+00  0.68656791718E+01  0.51100000000E-03 0.  1.
        -12    1    3    3    0    0  0.11605168514E+02 -0.17040840243E+02 -0.33568807135E+02  0.39394606038E+02  0.00000000000E+00 0.  1.
</event>
<event>
 7    1  0.9978258E-013  0.5052886E+02  0.7816164E-02  0.1300439E+00
        -11   -1    0    0    0    0  0.00000000000E+00  0.00000000000E+00  0.45593999997E+02  0.45594000000E+02  0.51100000000E-03 0. -1.
         11   -1    0    0    0    0 -0.00000000000E+00 -0.00000000000E+00 -0.45593999997E+02  0.45594000000E+02  0.51100000000E-03 0.  1.
    9900012    2    1    2    0    0 -0.67800029868E+01 -0.13084015085E+02  0.37894666870E+02  0.50528859964E+02  0.30000000348E+02 0.  0.
        -12    1    1    2    0    0  0.67800029868E+01  0.13084015085E+02 -0.37894666870E+02  0.40659140036E+02  0.00000000000E+00 0.  1.
         11    1    3    3    0    0 -0.16299614588E+01 -0.60547453169E+01  0.11134201838E+02  0.12778386676E+02  0.51100000000E-03 0. -1.
        -11    1    3    3    0    0 -0.62623253643E+01 -0.43436366382E+01 -0.27462088822E+01  0.81009605418E+01  0.51100000000E-03 0.  1.
        -12    1    3    3    0    0  0.11122838363E+01 -0.26856331299E+01  0.29506673914E+02  0.29649512747E+02  0.00000000000E+00 0.  1.
</event>
<event>
 7    1  0.9978258E-013  0.5052885E+02  0.7816164E-02  0.1300439E+00
        -11   -1    0    0    0    0  0.00000000000E+00  0.00000000000E+00  0.45593999997E+02  0.45594000000E+02  0.51100000000E-03 0.  1.
         11   -1    0    0    0    0 -0.00000000000E+00 -0.00000000000E+00 -0.45593999997E+02  0.45594000000E+02  0.51100000000E-03 0. -1.
    9900012    2    1    2    0    0 -0.16522189647E+02  0.32233703593E+02  0.18470849961E+02  0.50528847324E+02  0.29999961926E+02 0.  0.
        -12    1    1    2    0    0  0.16522189647E+02 -0.32233703593E+02 -0.18470849961E+02  0.40659152676E+02  0.00000000000E+00 0.  1.
         11    1    3    3    0    0 -0.24693679991E+02  0.22109035487E+02  0.14801341508E+02  0.36299683089E+02  0.51100000000E-03 0. -1.
        -11    1    3    3    0    0  0.50247809037E+01  0.91555835845E+01  0.25398109964E+01  0.10748198643E+02  0.51100000000E-03 0.  1.
         12    1    3    3    0    0  0.31467094404E+01  0.96908452167E+00  0.11296974566E+01  0.34809655924E+01  0.00000000000E+00 0. -1.
</event>
<event>
 7    1  0.9978258E-013  0.5052886E+02  0.7816164E-02  0.1300439E+00
        -11   -1    0    0    0    0  0.00000000000E+00  0.00000000000E+00  0.45593999997E+02  0.45594000000E+02  0.51100000000E-03 0.  1.
         11   -1    0    0    0    0 -0.00000000000E+00 -0.00000000000E+00 -0.45593999997E+02  0.45594000000E+02  0.51100000000E-03 0. -1.
    9900012    2    1    2    0    0  0.12704414867E+02 -0.33390048472E+02 -0.19413095882E+02  0.50528858521E+02  0.29999995960E+02 0.  0.
        -12    1    1    2    0    0 -0.12704414867E+02  0.33390048472E+02  0.19413095882E+02  0.40659141479E+02  0.00000000000E+00 0.  1.
         11    1    3    3    0    0 -0.59521721667E+01 -0.31362505178E+01 -0.30597356920E+01  0.73909677024E+01  0.51100000000E-03 0. -1.
        -11    1    3    3    0    0  0.17324825131E+02 -0.12095252662E+02 -0.51083977568E+01  0.21737995093E+02  0.51100000000E-03 0.  1.
         12    1    3    3    0    0  0.13317619024E+01 -0.18158545293E+02 -0.11244962433E+02  0.21399895725E+02  0.00000000000E+00 0. -1.
</event>
<event>
 7    1  0.9978258E-013  0.5052886E+02  0.7816164E-02  0.1300439E+00
        -11   -1    0    0    0    0  0.00000000000E+00  0.00000000000E+00  0.45593999997E+02  0.45594000000E+02  0.51100000000E-03 0. -1.
         11   -1    0    0    0    0 -0.00000000000E+00 -0.00000000000E+00 -0.45593999997E+02  0.45594000000E+02  0.51100000000E-03 0.  1.
    9900012    2    1    2    0    0  0.29268326914E+02  0.40516385231E+01  0.27930536811E+02  0.50528860540E+02  0.30000002096E+02 0.  0.
        -12    1    1    2    0    0 -0.29268326914E+02 -0.40516385231E+01 -0.27930536811E+02  0.40659139460E+02  0.00000000000E+00 0.  1.
         11    1    3    3    0    0  0.16709037444E+02 -0.15149207683E+01  0.25703178955E+02  0.30694304454E+02  0.51100000000E-03 0. -1.
        -11    1    3    3    0    0  0.92546805153E+01  0.94610539818E+01  0.48468413851E+01  0.14094414694E+02  0.51100000000E-03 0.  1.
         12    1    3    3    0    0  0.33046089549E+01 -0.38944946904E+01 -0.26194835292E+01  0.57401413918E+01  0.00000000000E+00 0. -1.
</event>
<event>
 7    1  0.9978258E-013  0.5052894E+02  0.7816164E-02  0.1300439E+00
        -11   -1    0    0    0    0  0.00000000000E+00  0.00000000000E+00  0.45593999997E+02  0.45594000000E+02  0.51100000000E-03 0.  1.
         11   -1    0    0    0    0 -0.00000000000E+00 -0.00000000000E+00 -0.45593999997E+02  0.45594000000E+02  0.51100000000E-03 0. -1.
    9900012    2    1    2    0    0  0.13690452724E+02  0.26261556468E+02 -0.27857875705E+02  0.50528940951E+02  0.30000246515E+02 0.  0.
        -12    1    1    2    0    0 -0.13690452724E+02 -0.26261556468E+02  0.27857875705E+02  0.40659059049E+02  0.00000000000E+00 0.  1.
         11    1    3    3    0    0  0.12496762466E+02  0.18959232954E+02 -0.27748287737E+02  0.35855112033E+02  0.51100000000E-03 0. -1.
        -11    1    3    3    0    0  0.49829060942E+01  0.88212741378E+01  0.15834737853E+01  0.10254346398E+02  0.51100000000E-03 0.  1.
        -12    1    3    3    0    0 -0.37892158356E+01 -0.15189506239E+01 -0.16930617533E+01  0.44194825203E+01  0.00000000000E+00 0.  1.
</event>
<event>
 7    1  0.9978258E-013  0.5052886E+02  0.7816164E-02  0.1300439E+00
        -11   -1    0    0    0    0  0.00000000000E+00  0.00000000000E+00  0.45593999997E+02  0.45594000000E+02  0.51100000000E-03 0.  1.
         11   -1    0    0    0    0 -0.00000000000E+00 -0.00000000000E+00 -0.45593999997E+02  0.45594000000E+02  0.51100000000E-03 0. -1.
    9900012    2    1    2    0    0 -0.16168390096E+02  0.13040327432E+02 -0.34952803977E+02  0.50528862236E+02  0.30000007253E+02 0.  0.
        -12    1    1    2    0    0  0.16168390096E+02 -0.13040327432E+02  0.34952803977E+02  0.40659137764E+02  0.00000000000E+00 0.  1.
         11    1    3    3    0    0 -0.21110188146E+02  0.91240077483E+01 -0.35416815966E+02  0.42228407670E+02  0.51100000000E-03 0. -1.
        -11    1    3    3    0    0  0.41743412258E+01  0.17874586047E+01 -0.19939253316E+01  0.49594224887E+01  0.51100000000E-03 0.  1.
         12    1    3    3    0    0  0.76745682407E+00  0.21288610790E+01  0.24579373203E+01  0.33410320772E+01  0.00000000000E+00 0. -1.
</event>
<event>
 7    1  0.9978258E-013  0.5052887E+02  0.7816164E-02  0.1300439E+00
        -11   -1    0    0    0    0  0.00000000000E+00  0.00000000000E+00  0.45593999997E+02  0.45594000000E+02  0.51100000000E-03 0.  1.
         11   -1    0    0    0    0 -0.00000000000E+00 -0.00000000000E+00 -0.45593999997E+02  0.45594000000E+02  0.51100000000E-03 0. -1.
    9900012    2    1    2    0    0  0.19915021559E+02 -0.31888422495E+02 -0.15481780131E+02  0.50528867091E+02  0.30000022009E+02 0.  0.
        -12    1    1    2    0    0 -0.19915021559E+02  0.31888422495E+02  0.15481780131E+02  0.40659132909E+02  0.00000000000E+00 0.  1.
         11    1    3    3    0    0  0.98766882182E+01 -0.28624045899E+02 -0.66321212477E+01  0.30997903257E+02  0.51100000000E-03 0. -1.
        -11    1    3    3    0    0 -0.36436912519E+00 -0.20186998679E+01 -0.88184556296E+01  0.90538982747E+01  0.51100000000E-03 0.  1.
         12    1    3    3    0    0  0.10402702466E+02 -0.12456767276E+01 -0.31203254196E-01  0.10477065560E+02  0.00000000000E+00 0. -1.
</event>
<event>
 7    1  0.9978258E-013  0.5052885E+02  0.7816164E-02  0.1300439E+00
        -11   -1    0    0    0    0  0.00000000000E+00  0.00000000000E+00  0.45593999997E+02  0.45594000000E+02  0.51100000000E-03 0. -1.
         11   -1    0    0    0    0 -0.00000000000E+00 -0.00000000000E+00 -0.45593999997E+02  0.45594000000E+02  0.51100000000E-03 0.  1.
    9900012    2    1    2    0    0 -0.10749554744E+02  0.11239467958E+02  0.37567113345E+02  0.50528848850E+02  0.29999966565E+02 0.  0.
        -12    1    1    2    0    0  0.10749554744E+02 -0.11239467958E+02 -0.37567113345E+02  0.40659151150E+02  0.00000000000E+00 0.  1.
         11    1    3    3    0    0 -0.63809154078E+01  0.21030817632E+02  0.22493698529E+02  0.31448018149E+02  0.51100000000E-03 0. -1.
        -11    1    3    3    0    0 -0.29837136030E+01 -0.67618077448E+01  0.63536392787E+01  0.97464518256E+01  0.51100000000E-03 0.  1.
         12    1    3    3    0    0 -0.13849257330E+01 -0.30295419288E+01  0.87197755368E+01  0.93343788758E+01  0.00000000000E+00 0. -1.
</event>
<event>
 7    1  0.9978258E-013  0.5052887E+02  0.7816164E-02  0.1300439E+00
        -11   -1    0    0    0    0  0.00000000000E+00  0.00000000000E+00  0.45593999997E+02  0.45594000000E+02  0.51100000000E-03 0.  1.
         11   -1    0    0    0    0 -0.00000000000E+00 -0.00000000000E+00 -0.45593999997E+02  0.45594000000E+02  0.51100000000E-03 0. -1.
    9900012    2    1    2    0    0 -0.13381456413E+02  0.36068836215E+02 -0.13158282557E+02  0.50528871610E+02  0.30000035745E+02 0.  0.
        -12    1    1    2    0    0  0.13381456413E+02 -0.36068836215E+02  0.13158282557E+02  0.40659128390E+02  0.00000000000E+00 0.  1.
         11    1    3    3    0    0 -0.17518580196E+02  0.20023561327E+02 -0.14061484459E+02  0.30092673622E+02  0.51100000000E-03 0. -1.
        -11    1    3    3    0    0 -0.11089479100E+01  0.15029274142E+02  0.80866456708E+00  0.15091811864E+02  0.51100000000E-03 0.  1.
         12    1    3    3    0    0  0.52460716931E+01  0.10160007457E+01  0.94537334743E-01  0.53443861230E+01  0.00000000000E+00 0. -1.
</event>
<event>
 7    1  0.9978258E-013  0.5052876E+02  0.7816164E-02  0.1300439E+00
        -11   -1    0    0    0    0  0.00000000000E+00  0.00000000000E+00  0.45593999997E+02  0.45594000000E+02  0.51100000000E-03 0.  1.
         11   -1    0    0    0    0 -0.00000000000E+00 -0.00000000000E+00 -0.45593999997E+02  0.45594000000E+02  0.51100000000E-03 0. -1.
    9900012    2    1    2    0    0 -0.27496083262E+01  0.32872075054E+02 -0.23770576851E+02  0.50528757654E+02  0.29999689364E+02 0.  0.
        -12    1    1    2    0    0  0.27496083262E+01 -0.32872075054E+02  0.23770576851E+02  0.40659242346E+02  0.00000000000E+00 0.  1.
         11    1    3    3    0    0 -0.46792783018E+01  0.17815611460E+02 -0.20641081920E+02  0.27664886051E+02  0.51100000000E-03 0. -1.
        -11    1    3    3    0    0  0.76044085540E+01  0.80074565224E+01  0.35686709690E+01  0.11605248906E+02  0.51100000000E-03 0.  1.
        -12    1    3    3    0    0 -0.56747385784E+01  0.70490070714E+01 -0.66981659001E+01  0.11258622698E+02  0.00000000000E+00 0.  1.
</event>
<event>
 7    1  0.9978258E-013  0.5052885E+02  0.7816164E-02  0.1300439E+00
        -11   -1    0    0    0    0  0.00000000000E+00  0.00000000000E+00  0.45593999997E+02  0.45594000000E+02  0.51100000000E-03 0.  1.
         11   -1    0    0    0    0 -0.00000000000E+00 -0.00000000000E+00 -0.45593999997E+02  0.45594000000E+02  0.51100000000E-03 0. -1.
    9900012    2    1    2    0    0  0.27288423368E+02 -0.30014766784E+02  0.27607629762E+01  0.50528854814E+02  0.29999984694E+02 0.  0.
        -12    1    1    2    0    0 -0.27288423368E+02  0.30014766784E+02 -0.27607629762E+01  0.40659145186E+02  0.00000000000E+00 0.  1.
         11    1    3    3    0    0  0.11433092963E+02 -0.33293081536E+01  0.67401035365E+01  0.13683161310E+02  0.51100000000E-03 0. -1.
        -11    1    3    3    0    0  0.18509910060E+02 -0.25232266380E+02  0.66708169877E+00  0.31300623562E+02  0.51100000000E-03 0.  1.
        -12    1    3    3    0    0 -0.26545796551E+01 -0.14531922507E+01 -0.46464222591E+01  0.55450699430E+01  0.00000000000E+00 0.  1.
</event>
<event>
 7    1  0.9978258E-013  0.5052887E+02  0.7816164E-02  0.1300439E+00
        -11   -1    0    0    0    0  0.00000000000E+00  0.00000000000E+00  0.45593999997E+02  0.45594000000E+02  0.51100000000E-03 0.  1.
         11   -1    0    0    0    0 -0.00000000000E+00 -0.00000000000E+00 -0.45593999997E+02  0.45594000000E+02  0.51100000000E-03 0. -1.
    9900012    2    1    2    0    0  0.47883504097E+00 -0.40607111733E+02 -0.19996095383E+01  0.50528865177E+02  0.30000016192E+02 0.  0.
        -12    1    1    2    0    0 -0.47883504097E+00  0.40607111733E+02  0.19996095383E+01  0.40659134823E+02  0.00000000000E+00 0.  1.
         11    1    3    3    0    0 -0.11481867866E+02 -0.23560354826E+02 -0.14712039601E+01  0.26250486674E+02  0.51100000000E-03 0. -1.
        -11    1    3    3    0    0  0.54127259403E+01 -0.14909475068E+02  0.35767747374E+01  0.16259869824E+02  0.51100000000E-03 0.  1.
         12    1    3    3    0    0  0.65479769670E+01 -0.21372818380E+01 -0.41051803157E+01  0.80185086793E+01  0.00000000000E+00 0. -1.
</event>
<event>
 7    1  0.9978258E-013  0.5052888E+02  0.7816164E-02  0.1300439E+00
        -11   -1    0    0    0    0  0.00000000000E+00  0.00000000000E+00  0.45593999997E+02  0.45594000000E+02  0.51100000000E-03 0. -1.
         11   -1    0    0    0    0 -0.00000000000E+00 -0.00000000000E+00 -0.45593999997E+02  0.45594000000E+02  0.51100000000E-03 0.  1.
    9900012    2    1    2    0    0 -0.34086338671E+02 -0.19025105566E+02  0.11372358664E+02  0.50528884572E+02  0.30000075145E+02 0.  0.
        -12    1    1    2    0    0  0.34086338671E+02  0.19025105566E+02 -0.11372358664E+02  0.40659115428E+02  0.00000000000E+00 0.  1.
         11    1    3    3    0    0 -0.13997441947E+02 -0.63210091709E+01  0.13048601039E+02  0.20153151797E+02  0.51100000000E-03 0. -1.
        -11    1    3    3    0    0 -0.23552949813E+02 -0.11450543387E+02 -0.32109027539E+01  0.26384963246E+02  0.51100000000E-03 0.  1.
        -12    1    3    3    0    0  0.34640530895E+01 -0.12535530088E+01  0.15346603788E+01  0.39907695287E+01  0.00000000000E+00 0.  1.
</event>
<event>
 7    1  0.9978258E-013  0.5052886E+02  0.7816164E-02  0.1300439E+00
        -11   -1    0    0    0    0  0.00000000000E+00  0.00000000000E+00  0.45593999997E+02  0.45594000000E+02  0.51100000000E-03 0.  1.
         11   -1    0    0    0    0 -0.00000000000E+00 -0.00000000000E+00 -0.45593999997E+02  0.45594000000E+02  0.51100000000E-03 0. -1.
    9900012    2    1    2    0    0 -0.35541030622E+02 -0.26335680776E+01 -0.19572046028E+02  0.50528861738E+02  0.30000005738E+02 0.  0.
        -12    1    1    2    0    0  0.35541030622E+02  0.26335680776E+01  0.19572046028E+02  0.40659138262E+02  0.00000000000E+00 0.  1.
         11    1    3    3    0    0 -0.28170444684E+02 -0.75115372078E+01 -0.16715147853E+02  0.33606447491E+02  0.51100000000E-03 0. -1.
        -11    1    3    3    0    0 -0.10455814747E+02  0.72037083195E+01 -0.13247254594E+01  0.12766063347E+02  0.51100000000E-03 0.  1.
         12    1    3    3    0    0  0.30852288087E+01 -0.23257391894E+01 -0.15321727156E+01  0.41563509007E+01  0.00000000000E+00 0. -1.
</event>
<event>
 7    1  0.9978258E-013  0.5052886E+02  0.7816164E-02  0.1300439E+00
        -11   -1    0    0    0    0  0.00000000000E+00  0.00000000000E+00  0.45593999997E+02  0.45594000000E+02  0.51100000000E-03 0.  1.
         11   -1    0    0    0    0 -0.00000000000E+00 -0.00000000000E+00 -0.45593999997E+02  0.45594000000E+02  0.51100000000E-03 0. -1.
    9900012    2    1    2    0    0 -0.32137924655E+01 -0.42908707048E+01 -0.40304163510E+02  0.50528860441E+02  0.30000001798E+02 0.  0.
        -12    1    1    2    0    0  0.32137924655E+01  0.42908707048E+01  0.40304163510E+02  0.40659139559E+02  0.00000000000E+00 0.  1.
         11    1    3    3    0    0 -0.12179072399E+02 -0.39199715719E+01 -0.14035320073E+02  0.18991740085E+02  0.51100000000E-03 0. -1.
        -11    1    3    3    0    0  0.29706206931E+01  0.45346369125E+01 -0.15576988009E+01  0.56403851860E+01  0.51100000000E-03 0.  1.
         12    1    3    3    0    0  0.59946592402E+01 -0.49055360454E+01 -0.24711144636E+02  0.25896735171E+02  0.00000000000E+00 0. -1.
</event>
<event>
 7    1  0.9978258E-013  0.5052886E+02  0.7816164E-02  0.1300439E+00
        -11   -1    0    0    0    0  0.00000000000E+00  0.00000000000E+00  0.45593999997E+02  0.45594000000E+02  0.51100000000E-03 0. -1.
         11   -1    0    0    0    0 -0.00000000000E+00 -0.00000000000E+00 -0.45593999997E+02  0.45594000000E+02  0.51100000000E-03 0.  1.
    9900012    2    1    2    0    0  0.13479105469E+02  0.36991857805E+02 -0.10152928397E+02  0.50528858554E+02  0.29999996060E+02 0.  0.
        -12    1    1    2    0    0 -0.13479105469E+02 -0.36991857805E+02  0.10152928397E+02  0.40659141446E+02  0.00000000000E+00 0.  1.
         11    1    3    3    0    0  0.46635563639E+01  0.34767777230E+02 -0.11242718791E+02  0.36836745480E+02  0.51100000000E-03 0. -1.
        -11    1    3    3    0    0  0.10167624573E+02  0.26051060064E+01  0.33614714388E+01  0.11021191281E+02  0.51100000000E-03 0.  1.
         12    1    3    3    0    0 -0.13520754681E+01 -0.38102543152E+00 -0.22716810447E+01  0.26709217921E+01  0.00000000000E+00 0. -1.
</event>
<event>
 7    1  0.9978258E-013  0.5052876E+02  0.7816164E-02  0.1300439E+00
        -11   -1    0    0    0    0  0.00000000000E+00  0.00000000000E+00  0.45593999997E+02  0.45594000000E+02  0.51100000000E-03 0.  1.
         11   -1    0    0    0    0 -0.00000000000E+00 -0.00000000000E+00 -0.45593999997E+02  0.45594000000E+02  0.51100000000E-03 0. -1.
    9900012    2    1    2    0    0  0.31976611378E+02  0.15834517097E+02 -0.19491996657E+02  0.50528763157E+02  0.29999706092E+02 0.  0.
        -12    1    1    2    0    0 -0.31976611378E+02 -0.15834517097E+02  0.19491996657E+02  0.40659236843E+02  0.00000000000E+00 0.  1.
         11    1    3    3    0    0  0.12524005625E+02  0.74194700362E+01 -0.12120437339E+02  0.18942129079E+02  0.51100000000E-03 0. -1.
        -11    1    3    3    0    0  0.33216365803E+00 -0.55975654885E+01  0.21976789784E+01  0.60226958454E+01  0.51100000000E-03 0.  1.
        -12    1    3    3    0    0  0.19120442095E+02  0.14012612549E+02 -0.95692382967E+01  0.25563938232E+02  0.00000000000E+00 0.  1.
</event>
<event>
 7    1  0.9978258E-013  0.5052886E+02  0.7816164E-02  0.1300439E+00
        -11   -1    0    0    0    0  0.00000000000E+00  0.00000000000E+00  0.45593999997E+02  0.45594000000E+02  0.51100000000E-03 0. -1.
         11   -1    0    0    0    0 -0.00000000000E+00 -0.00000000000E+00 -0.45593999997E+02  0.45594000000E+02  0.51100000000E-03 0.  1.
    9900012    2    1    2    0    0 -0.37471349033E+02 -0.22541992238E+01  0.15619932368E+02  0.50528859581E+02  0.29999999181E+02 0.  0.
        -12    1    1    2    0    0  0.37471349033E+02  0.22541992238E+01 -0.15619932368E+02  0.40659140419E+02  0.00000000000E+00 0.  1.
         11    1    3    3    0    0 -0.14514631668E+02 -0.64099000913E+01  0.20273627563E+02  0.25744539741E+02  0.51100000000E-03 0. -1.
        -11    1    3    3    0    0 -0.14367317084E+02  0.12168724569E+01  0.34098273384E+00  0.14422789198E+02  0.51100000000E-03 0.  1.
         12    1    3    3    0    0 -0.85894002813E+01  0.29388284107E+01 -0.49946779295E+01  0.10361530642E+02  0.00000000000E+00 0. -1.
</event>
<event>
 7    1  0.9978258E-013  0.5052886E+02  0.7816164E-02  0.1300439E+00
        -11   -1    0    0    0    0  0.00000000000E+00  0.00000000000E+00  0.45593999997E+02  0.45594000000E+02  0.51100000000E-03 0.  1.
         11   -1    0    0    0    0 -0.00000000000E+00 -0.00000000000E+00 -0.45593999997E+02  0.45594000000E+02  0.51100000000E-03 0. -1.
    9900012    2    1    2    0    0 -0.30456261808E+02  0.25251859910E+02 -0.93768456934E+01  0.50528861453E+02  0.30000004874E+02 0.  0.
        -12    1    1    2    0    0  0.30456261808E+02 -0.25251859910E+02  0.93768456934E+01  0.40659138547E+02  0.00000000000E+00 0.  1.
         11    1    3    3    0    0 -0.15769492422E+02 -0.27523874847E+00 -0.64067240764E+01  0.17023476768E+02  0.51100000000E-03 0. -1.
        -11    1    3    3    0    0 -0.15675752367E+02  0.21157586366E+02 -0.72476561369E+01  0.27311191714E+02  0.51100000000E-03 0.  1.
         12    1    3    3    0    0  0.98898298031E+00  0.43695122925E+01  0.42775345199E+01  0.61941929723E+01  0.00000000000E+00 0. -1.
</event>
<event>
 7    1  0.9978258E-013  0.5052886E+02  0.7816164E-02  0.1300439E+00
        -11   -1    0    0    0    0  0.00000000000E+00  0.00000000000E+00  0.45593999997E+02  0.45594000000E+02  0.51100000000E-03 0.  1.
         11   -1    0    0    0    0 -0.00000000000E+00 -0.00000000000E+00 -0.45593999997E+02  0.45594000000E+02  0.51100000000E-03 0. -1.
    9900012    2    1    2    0    0 -0.25416172058E+02  0.73167204032E+01 -0.30881215420E+02  0.50528860003E+02  0.30000000464E+02 0.  0.
        -12    1    1    2    0    0  0.25416172058E+02 -0.73167204032E+01  0.30881215420E+02  0.40659139997E+02  0.00000000000E+00 0.  1.
         11    1    3    3    0    0 -0.17168343784E+02  0.31552434263E+01 -0.26346610388E+02  0.31604611508E+02  0.51100000000E-03 0. -1.
        -11    1    3    3    0    0 -0.78658427122E+01  0.90751827232E+01  0.30964989067E+00  0.12013588404E+02  0.51100000000E-03 0.  1.
         12    1    3    3    0    0 -0.38198556120E+00 -0.49137057463E+01 -0.48442549229E+01  0.69106600906E+01  0.00000000000E+00 0. -1.
</event>
<event>
 7    1  0.9978258E-013  0.5052886E+02  0.7816164E-02  0.1300439E+00
        -11   -1    0    0    0    0  0.00000000000E+00  0.00000000000E+00  0.45593999997E+02  0.45594000000E+02  0.51100000000E-03 0. -1.
         11   -1    0    0    0    0 -0.00000000000E+00 -0.00000000000E+00 -0.45593999997E+02  0.45594000000E+02  0.51100000000E-03 0.  1.
    9900012    2    1    2    0    0  0.79389289137E+01  0.92398313747E+01  0.38791296426E+02  0.50528858905E+02  0.29999997129E+02 0.  0.
        -12    1    1    2    0    0 -0.79389289137E+01 -0.92398313747E+01 -0.38791296426E+02  0.40659141095E+02  0.00000000000E+00 0.  1.
         11    1    3    3    0    0  0.11375549887E+02  0.65881774419E+00  0.24746602439E+02  0.27243926086E+02  0.51100000000E-03 0. -1.
        -11    1    3    3    0    0 -0.76221555667E+01  0.10931726485E+02  0.79175723927E+01  0.15501220993E+02  0.51100000000E-03 0.  1.
        -12    1    3    3    0    0  0.41855345939E+01 -0.23507128545E+01  0.61271215942E+01  0.77837118260E+01  0.00000000000E+00 0.  1.
</event>
<event>
 7    1  0.9978258E-013  0.5052887E+02  0.7816164E-02  0.1300439E+00
        -11   -1    0    0    0    0  0.00000000000E+00  0.00000000000E+00  0.45593999997E+02  0.45594000000E+02  0.51100000000E-03 0.  1.
         11   -1    0    0    0    0 -0.00000000000E+00 -0.00000000000E+00 -0.45593999997E+02  0.45594000000E+02  0.51100000000E-03 0. -1.
    9900012    2    1    2    0    0 -0.35662972560E+01 -0.11451233736E+02 -0.38849906388E+02  0.50528874867E+02  0.30000045647E+02 0.  0.
        -12    1    1    2    0    0  0.35662972560E+01  0.11451233736E+02  0.38849906388E+02  0.40659125133E+02  0.00000000000E+00 0.  1.
         11    1    3    3    0    0 -0.37789747900E+01 -0.19031591161E+02 -0.22082388216E+02  0.29395815726E+02  0.51100000000E-03 0. -1.
        -11    1    3    3    0    0  0.49253739700E+01  0.62659382588E+01 -0.10308638681E+02  0.13030323201E+02  0.51100000000E-03 0.  1.
         12    1    3    3    0    0 -0.47126964360E+01  0.13144191663E+01 -0.64588794911E+01  0.81027359406E+01  0.00000000000E+00 0. -1.
</event>
<event>
 7    1  0.9978258E-013  0.5052886E+02  0.7816164E-02  0.1300439E+00
        -11   -1    0    0    0    0  0.00000000000E+00  0.00000000000E+00  0.45593999997E+02  0.45594000000E+02  0.51100000000E-03 0.  1.
         11   -1    0    0    0    0 -0.00000000000E+00 -0.00000000000E+00 -0.45593999997E+02  0.45594000000E+02  0.51100000000E-03 0. -1.
    9900012    2    1    2    0    0 -0.14746072531E+01  0.80808468100E+01 -0.39820738222E+02  0.50528859032E+02  0.29999997514E+02 0.  0.
        -12    1    1    2    0    0  0.14746072531E+01 -0.80808468100E+01  0.39820738222E+02  0.40659140968E+02  0.00000000000E+00 0.  1.
         11    1    3    3    0    0 -0.43501300668E+01  0.13562903147E+02 -0.15885050369E+02  0.21335669637E+02  0.51100000000E-03 0.  1.
        -11    1    3    3    0    0  0.90338739197E+01 -0.98887855204E+00 -0.13237912640E+02  0.16057119609E+02  0.51100000000E-03 0. -1.
        -12    1    3    3    0    0 -0.61583511060E+01 -0.44931777846E+01 -0.10697775212E+02  0.13136069787E+02  0.00000000000E+00 0.  1.
</event>
<event>
 7    1  0.9978258E-013  0.5052886E+02  0.7816164E-02  0.1300439E+00
        -11   -1    0    0    0    0  0.00000000000E+00  0.00000000000E+00  0.45593999997E+02  0.45594000000E+02  0.51100000000E-03 0.  1.
         11   -1    0    0    0    0 -0.00000000000E+00 -0.00000000000E+00 -0.45593999997E+02  0.45594000000E+02  0.51100000000E-03 0. -1.
    9900012    2    1    2    0    0 -0.37375782789E+01  0.40486796899E+02 -0.12434854634E+00  0.50528859858E+02  0.30000000024E+02 0.  0.
        -12    1    1    2    0    0  0.37375782789E+01 -0.40486796899E+02  0.12434854634E+00  0.40659140142E+02  0.00000000000E+00 0.  1.
         11    1    3    3    0    0 -0.26510962300E+01  0.38845301204E+02  0.40596379445E+00  0.38937777847E+02  0.51100000000E-03 0. -1.
        -11    1    3    3    0    0  0.20251600675E-01  0.30722007916E+01  0.49467001029E+01  0.58231151458E+01  0.51100000000E-03 0.  1.
         12    1    3    3    0    0 -0.11067336496E+01 -0.14307050962E+01 -0.54770124437E+01  0.57679668647E+01  0.00000000000E+00 0. -1.
</event>
<event>
 7    1  0.9978258E-013  0.5052884E+02  0.7816164E-02  0.1300439E+00
        -11   -1    0    0    0    0  0.00000000000E+00  0.00000000000E+00  0.45593999997E+02  0.45594000000E+02  0.51100000000E-03 0.  1.
         11   -1    0    0    0    0 -0.00000000000E+00 -0.00000000000E+00 -0.45593999997E+02  0.45594000000E+02  0.51100000000E-03 0. -1.
    9900012    2    1    2    0    0 -0.15686136021E+02  0.34672835632E+02  0.14314573262E+02  0.50528838650E+02  0.29999935561E+02 0.  0.
        -12    1    1    2    0    0  0.15686136021E+02 -0.34672835632E+02 -0.14314573262E+02  0.40659161350E+02  0.00000000000E+00 0.  1.
         11    1    3    3    0    0 -0.14600747188E+01 -0.12589067613E+01  0.86219822592E+01  0.88348878180E+01  0.51100000000E-03 0.  1.
        -11    1    3    3    0    0 -0.89247169202E+01  0.11119325697E+02 -0.35452557762E+01  0.14692134455E+02  0.51100000000E-03 0. -1.
         12    1    3    3    0    0 -0.53013443819E+01  0.24812416696E+02  0.92378467789E+01  0.27001816377E+02  0.00000000000E+00 0. -1.
</event>
<event>
 7    1  0.9978258E-013  0.5052885E+02  0.7816164E-02  0.1300439E+00
        -11   -1    0    0    0    0  0.00000000000E+00  0.00000000000E+00  0.45593999997E+02  0.45594000000E+02  0.51100000000E-03 0. -1.
         11   -1    0    0    0    0 -0.00000000000E+00 -0.00000000000E+00 -0.45593999997E+02  0.45594000000E+02  0.51100000000E-03 0.  1.
    9900012    2    1    2    0    0 -0.16396488773E+02  0.24409461785E+02  0.28080245596E+02  0.50528845294E+02  0.29999955755E+02 0.  0.
        -12    1    1    2    0    0  0.16396488773E+02 -0.24409461785E+02 -0.28080245596E+02  0.40659154706E+02  0.00000000000E+00 0.  1.
         11    1    3    3    0    0 -0.11869271333E+02  0.29671550781E+02  0.21201421757E+02  0.38350760260E+02  0.51100000000E-03 0. -1.
        -11    1    3    3    0    0 -0.42539656056E+01 -0.68083094035E+01  0.41684333827E+01  0.90457248154E+01  0.51100000000E-03 0.  1.
        -12    1    3    3    0    0 -0.27325183362E+00  0.15462204078E+01  0.27103904562E+01  0.31323602186E+01  0.00000000000E+00 0.  1.
</event>
<event>
 7    1  0.9978258E-013  0.5052887E+02  0.7816164E-02  0.1300439E+00
        -11   -1    0    0    0    0  0.00000000000E+00  0.00000000000E+00  0.45593999997E+02  0.45594000000E+02  0.51100000000E-03 0.  1.
         11   -1    0    0    0    0 -0.00000000000E+00 -0.00000000000E+00 -0.45593999997E+02  0.45594000000E+02  0.51100000000E-03 0. -1.
    9900012    2    1    2    0    0 -0.27934723163E+02  0.27574973124E+02 -0.10603625165E+02  0.50528871042E+02  0.30000034020E+02 0.  0.
        -12    1    1    2    0    0  0.27934723163E+02 -0.27574973124E+02  0.10603625165E+02  0.40659128958E+02  0.00000000000E+00 0.  1.
         11    1    3    3    0    0 -0.11106894367E+02  0.12053094309E+02 -0.93579212284E+00  0.16416939180E+02  0.51100000000E-03 0. -1.
        -11    1    3    3    0    0 -0.85669505542E+01  0.12478003081E+02 -0.16922726857E+02  0.22704005974E+02  0.51100000000E-03 0.  1.
        -12    1    3    3    0    0 -0.82608782415E+01  0.30438757338E+01  0.72548938148E+01  0.11407925888E+02  0.00000000000E+00 0.  1.
</event>
<event>
 7    1  0.9978258E-013  0.5052887E+02  0.7816164E-02  0.1300439E+00
        -11   -1    0    0    0    0  0.00000000000E+00  0.00000000000E+00  0.45593999997E+02  0.45594000000E+02  0.51100000000E-03 0.  1.
         11   -1    0    0    0    0 -0.00000000000E+00 -0.00000000000E+00 -0.45593999997E+02  0.45594000000E+02  0.51100000000E-03 0. -1.
    9900012    2    1    2    0    0  0.15422900062E+02 -0.17014448284E+01 -0.37581967421E+02  0.50528867741E+02  0.30000023986E+02 0.  0.
        -12    1    1    2    0    0 -0.15422900062E+02  0.17014448284E+01  0.37581967421E+02  0.40659132259E+02  0.00000000000E+00 0.  1.
         11    1    3    3    0    0  0.81761889202E+01  0.82086382117E+01 -0.91564068435E+01  0.14767247309E+02  0.51100000000E-03 0. -1.
        -11    1    3    3    0    0 -0.30463827592E+01 -0.68752212768E+01 -0.22009405346E+02  0.23258612157E+02  0.51100000000E-03 0.  1.
         12    1    3    3    0    0  0.10293093901E+02 -0.30348617632E+01 -0.64161552315E+01  0.12503008275E+02  0.00000000000E+00 0. -1.
</event>
<event>
 7    1  0.9978258E-013  0.5052885E+02  0.7816164E-02  0.1300439E+00
        -11   -1    0    0    0    0  0.00000000000E+00  0.00000000000E+00  0.45593999997E+02  0.45594000000E+02  0.51100000000E-03 0. -1.
         11   -1    0    0    0    0 -0.00000000000E+00 -0.00000000000E+00 -0.45593999997E+02  0.45594000000E+02  0.51100000000E-03 0.  1.
    9900012    2    1    2    0    0  0.33958878980E+02 -0.13714875285E+02  0.17659645819E+02  0.50528851508E+02  0.29999974642E+02 0.  0.
        -12    1    1    2    0    0 -0.33958878980E+02  0.13714875285E+02 -0.17659645819E+02  0.40659148492E+02  0.00000000000E+00 0.  1.
         11    1    3    3    0    0  0.15407538810E+02  0.26854466797E+00  0.19553807411E+02  0.24896099152E+02  0.51100000000E-03 0. -1.
        -11    1    3    3    0    0  0.19205686956E+02 -0.10398665598E+02 -0.23243886854E+01  0.21963456939E+02  0.51100000000E-03 0.  1.
         12    1    3    3    0    0 -0.65434678657E+00 -0.35847543556E+01  0.43022709325E+00  0.36692954172E+01  0.00000000000E+00 0. -1.
</event>
<event>
 7    1  0.9978258E-013  0.5052886E+02  0.7816164E-02  0.1300439E+00
        -11   -1    0    0    0    0  0.00000000000E+00  0.00000000000E+00  0.45593999997E+02  0.45594000000E+02  0.51100000000E-03 0.  1.
         11   -1    0    0    0    0 -0.00000000000E+00 -0.00000000000E+00 -0.45593999997E+02  0.45594000000E+02  0.51100000000E-03 0. -1.
    9900012    2    1    2    0    0 -0.64788284214E+01 -0.26554799785E+02 -0.30100377246E+02  0.50528864253E+02  0.30000013384E+02 0.  0.
        -12    1    1    2    0    0  0.64788284214E+01  0.26554799785E+02  0.30100377246E+02  0.40659135747E+02  0.00000000000E+00 0.  1.
         11    1    3    3    0    0  0.55597732962E+01 -0.24873306939E+02 -0.16253042102E+02  0.30228361766E+02  0.51100000000E-03 0.  1.
        -11    1    3    3    0    0 -0.13185515559E+02 -0.23625400842E+01 -0.13241389862E+02  0.18835440583E+02  0.51100000000E-03 0. -1.
        -12    1    3    3    0    0  0.11469138414E+01  0.68104723827E+00 -0.60594528159E+00  0.14650619047E+01  0.00000000000E+00 0.  1.
</event>
<event>
 7    1  0.9978258E-013  0.5052886E+02  0.7816164E-02  0.1300439E+00
        -11   -1    0    0    0    0  0.00000000000E+00  0.00000000000E+00  0.45593999997E+02  0.45594000000E+02  0.51100000000E-03 0. -1.
         11   -1    0    0    0    0 -0.00000000000E+00 -0.00000000000E+00 -0.45593999997E+02  0.45594000000E+02  0.51100000000E-03 0.  1.
    9900012    2    1    2    0    0  0.27824171112E+02  0.97985176144E+01  0.27981598855E+02  0.50528864250E+02  0.30000013374E+02 0.  0.
        -12    1    1    2    0    0 -0.27824171112E+02 -0.97985176144E+01 -0.27981598855E+02  0.40659135750E+02  0.00000000000E+00 0.  1.
         11    1    3    3    0    0  0.77507124259E+01 -0.67411976483E+01 -0.11850752370E+01  0.10340294600E+02  0.51100000000E-03 0. -1.
        -11    1    3    3    0    0  0.16314239940E+01  0.28811583481E+01  0.31954102409E+00  0.33263680497E+01  0.51100000000E-03 0.  1.
         12    1    3    3    0    0  0.18442034692E+02  0.13658556915E+02  0.28847133068E+02  0.36862201600E+02  0.00000000000E+00 0. -1.
</event>
<event>
 7    1  0.9978258E-013  0.5052888E+02  0.7816164E-02  0.1300439E+00
        -11   -1    0    0    0    0  0.00000000000E+00  0.00000000000E+00  0.45593999997E+02  0.45594000000E+02  0.51100000000E-03 0. -1.
         11   -1    0    0    0    0 -0.00000000000E+00 -0.00000000000E+00 -0.45593999997E+02  0.45594000000E+02  0.51100000000E-03 0.  1.
    9900012    2    1    2    0    0 -0.44498879653E+01  0.69482209184E+01  0.39813125222E+02  0.50528877816E+02  0.30000054609E+02 0.  0.
        -12    1    1    2    0    0  0.44498879653E+01 -0.69482209184E+01 -0.39813125222E+02  0.40659122184E+02  0.00000000000E+00 0.  1.
         11    1    3    3    0    0  0.32832964542E+01 -0.26257523608E+00  0.20047054546E+02  0.20315840558E+02  0.51100000000E-03 0. -1.
        -11    1    3    3    0    0 -0.13718451789E+02  0.91720271722E+01  0.15176707210E+02  0.22419956377E+02  0.51100000000E-03 0.  1.
        -12    1    3    3    0    0  0.59852673695E+01 -0.19612310176E+01  0.45893634663E+01  0.77930808808E+01  0.00000000000E+00 0.  1.
</event>
<event>
 7    1  0.9978258E-013  0.5052889E+02  0.7816164E-02  0.1300439E+00
        -11   -1    0    0    0    0  0.00000000000E+00  0.00000000000E+00  0.45593999997E+02  0.45594000000E+02  0.51100000000E-03 0.  1.
         11   -1    0    0    0    0 -0.00000000000E+00 -0.00000000000E+00 -0.45593999997E+02  0.45594000000E+02  0.51100000000E-03 0. -1.
    9900012    2    1    2    0    0 -0.97828653385E+01 -0.33283973087E+02 -0.21204625267E+02  0.50528887228E+02  0.30000083219E+02 0.  0.
        -12    1    1    2    0    0  0.97828653385E+01  0.33283973087E+02  0.21204625267E+02  0.40659112772E+02  0.00000000000E+00 0.  1.
         11    1    3    3    0    0  0.33767686848E+01 -0.10826947437E+01 -0.86718652423E+01  0.93688868977E+01  0.51100000000E-03 0. -1.
        -11    1    3    3    0    0 -0.11319041128E+02 -0.27487459656E+02 -0.17141941393E+02  0.34315117447E+02  0.51100000000E-03 0.  1.
        -12    1    3    3    0    0 -0.18405928957E+01 -0.47138186864E+01  0.46091813676E+01  0.68448828840E+01  0.00000000000E+00 0.  1.
</event>
<event>
 7    1  0.1495063E-012  0.5052886E+02  0.7816164E-02  0.1300439E+00
        -11   -1    0    0    0    0  0.00000000000E+00  0.00000000000E+00  0.45593999997E+02  0.45594000000E+02  0.51100000000E-03 0.  1.
         11   -1    0    0    0    0 -0.00000000000E+00 -0.00000000000E+00 -0.45593999997E+02  0.45594000000E+02  0.51100000000E-03 0. -1.
    9900012    2    1    2    0    0 -0.24958093760E+02 -0.32097600662E+02  0.58333557073E-01  0.50528858159E+02  0.29999994862E+02 0.  0.
        -12    1    1    2    0    0  0.24958093760E+02  0.32097600662E+02 -0.58333557073E-01  0.40659141841E+02  0.00000000000E+00 0.  1.
         11    1    3    3    0    0 -0.16404964432E+02 -0.20375774576E+02  0.61720068926E+01  0.26877289985E+02  0.51100000000E-03 0. -1.
        -11    1    3    3    0    0 -0.94573573842E+00  0.45818223413E+01 -0.91601534618E-01  0.46793058413E+01  0.51100000000E-03 0.  1.
         12    1    3    3    0    0 -0.76073935900E+01 -0.16303648427E+02 -0.60220718009E+01  0.18972262334E+02  0.00000000000E+00 0. -1.
</event>
<event>
 7    1  0.9978258E-013  0.5052886E+02  0.7816164E-02  0.1300439E+00
        -11   -1    0    0    0    0  0.00000000000E+00  0.00000000000E+00  0.45593999997E+02  0.45594000000E+02  0.51100000000E-03 0.  1.
         11   -1    0    0    0    0 -0.00000000000E+00 -0.00000000000E+00 -0.45593999997E+02  0.45594000000E+02  0.51100000000E-03 0. -1.
    9900012    2    1    2    0    0  0.27850958441E+02 -0.15853846318E+02 -0.25022891127E+02  0.50528863149E+02  0.30000010027E+02 0.  0.
        -12    1    1    2    0    0 -0.27850958441E+02  0.15853846318E+02  0.25022891127E+02  0.40659136851E+02  0.00000000000E+00 0.  1.
         11    1    3    3    0    0  0.19163803543E+02 -0.16357873500E+02 -0.40605423168E+01  0.25520959932E+02  0.51100000000E-03 0. -1.
        -11    1    3    3    0    0  0.65311365321E+01 -0.37553096181E+01 -0.17669254593E+02  0.19208348520E+02  0.51100000000E-03 0.  1.
         12    1    3    3    0    0  0.21560183658E+01  0.42593367994E+01 -0.32930942170E+01  0.57995546973E+01  0.00000000000E+00 0. -1.
</event>
<event>
 7    1  0.9978258E-013  0.5052887E+02  0.7816164E-02  0.1300439E+00
        -11   -1    0    0    0    0  0.00000000000E+00  0.00000000000E+00  0.45593999997E+02  0.45594000000E+02  0.51100000000E-03 0.  1.
         11   -1    0    0    0    0 -0.00000000000E+00 -0.00000000000E+00 -0.45593999997E+02  0.45594000000E+02  0.51100000000E-03 0. -1.
    9900012    2    1    2    0    0 -0.29466592007E+02  0.29066269059E+01 -0.27864607159E+02  0.50528869948E+02  0.30000030694E+02 0.  0.
        -12    1    1    2    0    0  0.29466592007E+02 -0.29066269059E+01  0.27864607159E+02  0.40659130052E+02  0.00000000000E+00 0.  1.
         11    1    3    3    0    0 -0.31906637509E+01 -0.16798848203E+01 -0.20262887551E+02  0.20581228348E+02  0.51100000000E-03 0. -1.
        -11    1    3    3    0    0 -0.23204830466E+02  0.67625917237E+01 -0.35705787883E+01  0.24432475047E+02  0.51100000000E-03 0.  1.
        -12    1    3    3    0    0 -0.30710977903E+01 -0.21760799975E+01 -0.40311408196E+01  0.55151665524E+01  0.00000000000E+00 0.  1.
</event>
<event>
 7    1  0.9978258E-013  0.5052885E+02  0.7816164E-02  0.1300439E+00
        -11   -1    0    0    0    0  0.00000000000E+00  0.00000000000E+00  0.45593999997E+02  0.45594000000E+02  0.51100000000E-03 0.  1.
         11   -1    0    0    0    0 -0.00000000000E+00 -0.00000000000E+00 -0.45593999997E+02  0.45594000000E+02  0.51100000000E-03 0. -1.
    9900012    2    1    2    0    0 -0.32127834128E+02  0.23118242368E+02 -0.93013576524E+01  0.50528854532E+02  0.29999983837E+02 0.  0.
        -12    1    1    2    0    0  0.32127834128E+02 -0.23118242368E+02  0.93013576524E+01  0.40659145468E+02  0.00000000000E+00 0.  1.
         11    1    3    3    0    0 -0.11268072699E+02  0.76458412693E+01 -0.24211162874E+01  0.13830768431E+02  0.51100000000E-03 0. -1.
        -11    1    3    3    0    0  0.38157645363E+01  0.67730402499E+01  0.35314693096E+01  0.85384664296E+01  0.51100000000E-03 0.  1.
        -12    1    3    3    0    0 -0.24675525966E+02  0.86993608492E+01 -0.10411710675E+02  0.28159619672E+02  0.00000000000E+00 0.  1.
</event>
<event>
 7    1  0.9978258E-013  0.5052885E+02  0.7816164E-02  0.1300439E+00
        -11   -1    0    0    0    0  0.00000000000E+00  0.00000000000E+00  0.45593999997E+02  0.45594000000E+02  0.51100000000E-03 0.  1.
         11   -1    0    0    0    0 -0.00000000000E+00 -0.00000000000E+00 -0.45593999997E+02  0.45594000000E+02  0.51100000000E-03 0. -1.
    9900012    2    1    2    0    0 -0.55658245069E+00  0.29858674008E+02 -0.27591960560E+02  0.50528849922E+02  0.29999969822E+02 0.  0.
        -12    1    1    2    0    0  0.55658245069E+00 -0.29858674008E+02  0.27591960560E+02  0.40659150078E+02  0.00000000000E+00 0.  1.
         11    1    3    3    0    0  0.14021290380E+01  0.26524632544E+02 -0.10577295412E+02  0.28590230428E+02  0.51100000000E-03 0. -1.
        -11    1    3    3    0    0  0.52749418944E+00 -0.45865848874E+01 -0.25848079827E+01  0.52911476655E+01  0.51100000000E-03 0.  1.
         12    1    3    3    0    0 -0.24862056781E+01  0.79206263512E+01 -0.14429857165E+02  0.16647471828E+02  0.00000000000E+00 0. -1.
</event>
<event>
 7    1  0.9978258E-013  0.5052888E+02  0.7816164E-02  0.1300439E+00
        -11   -1    0    0    0    0  0.00000000000E+00  0.00000000000E+00  0.45593999997E+02  0.45594000000E+02  0.51100000000E-03 0.  1.
         11   -1    0    0    0    0 -0.00000000000E+00 -0.00000000000E+00 -0.45593999997E+02  0.45594000000E+02  0.51100000000E-03 0. -1.
    9900012    2    1    2    0    0 -0.20039746549E+02  0.20684696287E+02 -0.28700456117E+02  0.50528876994E+02  0.30000052112E+02 0.  0.
        -12    1    1    2    0    0  0.20039746549E+02 -0.20684696287E+02  0.28700456117E+02  0.40659123006E+02  0.00000000000E+00 0.  1.
         11    1    3    3    0    0 -0.25185809510E+01  0.61364413121E+00 -0.16803696141E+02  0.17002470802E+02  0.51100000000E-03 0. -1.
        -11    1    3    3    0    0 -0.20554622723E+02  0.15137373188E+02 -0.10220042196E+02  0.27496942467E+02  0.51100000000E-03 0.  1.
        -12    1    3    3    0    0  0.30334571247E+01  0.49336789686E+01 -0.16767177798E+01  0.60294637245E+01  0.00000000000E+00 0.  1.
</event>
<event>
 7    1  0.9978258E-013  0.5052886E+02  0.7816164E-02  0.1300439E+00
        -11   -1    0    0    0    0  0.00000000000E+00  0.00000000000E+00  0.45593999997E+02  0.45594000000E+02  0.51100000000E-03 0.  1.
         11   -1    0    0    0    0 -0.00000000000E+00 -0.00000000000E+00 -0.45593999997E+02  0.45594000000E+02  0.51100000000E-03 0. -1.
    9900012    2    1    2    0    0 -0.39702109093E+02 -0.87433942626E+01 -0.67892439113E+00  0.50528863905E+02  0.30000012327E+02 0.  0.
        -12    1    1    2    0    0  0.39702109093E+02  0.87433942626E+01  0.67892439113E+00  0.40659136095E+02  0.00000000000E+00 0.  1.
         11    1    3    3    0    0 -0.13837838192E+02  0.72411035003E+01  0.16411956639E+01  0.15703912545E+02  0.51100000000E-03 0. -1.
        -11    1    3    3    0    0 -0.25840350529E+02 -0.10794543460E+02 -0.57704137804E+01  0.28592718643E+02  0.51100000000E-03 0.  1.
         12    1    3    3    0    0 -0.23920371601E-01 -0.51899543032E+01  0.34502937254E+01  0.62322327175E+01  0.00000000000E+00 0. -1.
</event>
<event>
 7    1  0.9978258E-013  0.5052886E+02  0.7816164E-02  0.1300439E+00
        -11   -1    0    0    0    0  0.00000000000E+00  0.00000000000E+00  0.45593999997E+02  0.45594000000E+02  0.51100000000E-03 0.  1.
         11   -1    0    0    0    0 -0.00000000000E+00 -0.00000000000E+00 -0.45593999997E+02  0.45594000000E+02  0.51100000000E-03 0. -1.
    9900012    2    1    2    0    0 -0.75154859705E+01  0.11431767445E+02 -0.38288348574E+02  0.50528862370E+02  0.30000007660E+02 0.  0.
        -12    1    1    2    0    0  0.75154859705E+01 -0.11431767445E+02  0.38288348574E+02  0.40659137630E+02  0.00000000000E+00 0.  1.
         11    1    3    3    0    0 -0.27874428399E+00 -0.56063861963E+01 -0.70137948348E+01  0.89834616270E+01  0.51100000000E-03 0. -1.
        -11    1    3    3    0    0 -0.12471856968E+02  0.14874134505E+02 -0.15677093517E+02  0.24951119312E+02  0.51100000000E-03 0.  1.
         12    1    3    3    0    0  0.52351152815E+01  0.21640191362E+01 -0.15597460222E+02  0.16594281431E+02  0.00000000000E+00 0. -1.
</event>
<event>
 7    1  0.9978258E-013  0.5052885E+02  0.7816164E-02  0.1300439E+00
        -11   -1    0    0    0    0  0.00000000000E+00  0.00000000000E+00  0.45593999997E+02  0.45594000000E+02  0.51100000000E-03 0.  1.
         11   -1    0    0    0    0 -0.00000000000E+00 -0.00000000000E+00 -0.45593999997E+02  0.45594000000E+02  0.51100000000E-03 0. -1.
    9900012    2    1    2    0    0  0.24147584215E+02 -0.14596591694E+02 -0.29274562160E+02  0.50528852171E+02  0.29999976660E+02 0.  0.
        -12    1    1    2    0    0 -0.24147584215E+02  0.14596591694E+02  0.29274562160E+02  0.40659147829E+02  0.00000000000E+00 0.  1.
         11    1    3    3    0    0  0.20087507034E+02 -0.32922660049E+01 -0.12037935684E+02  0.23648654297E+02  0.51100000000E-03 0. -1.
        -11    1    3    3    0    0 -0.19928015067E+01  0.20596254980E+01 -0.10226730530E+02  0.10620703019E+02  0.51100000000E-03 0.  1.
         12    1    3    3    0    0  0.60528786877E+01 -0.13363951187E+02 -0.70098959463E+01  0.16259494855E+02  0.00000000000E+00 0. -1.
</event>
<event>
 7    1  0.9978258E-013  0.5052883E+02  0.7816164E-02  0.1300439E+00
        -11   -1    0    0    0    0  0.00000000000E+00  0.00000000000E+00  0.45593999997E+02  0.45594000000E+02  0.51100000000E-03 0.  1.
         11   -1    0    0    0    0 -0.00000000000E+00 -0.00000000000E+00 -0.45593999997E+02  0.45594000000E+02  0.51100000000E-03 0. -1.
    9900012    2    1    2    0    0  0.26834840997E+02  0.18170587172E+02 -0.24553809162E+02  0.50528825465E+02  0.29999895485E+02 0.  0.
        -12    1    1    2    0    0 -0.26834840997E+02 -0.18170587172E+02  0.24553809162E+02  0.40659174535E+02  0.00000000000E+00 0.  1.
         11    1    3    3    0    0  0.18191580469E+02  0.12515332802E+02 -0.26514788381E+02  0.34505088875E+02  0.51100000000E-03 0. -1.
        -11    1    3    3    0    0  0.71572565513E+01 -0.23340364909E+01  0.23547284696E+01  0.78878890781E+01  0.51100000000E-03 0.  1.
        -12    1    3    3    0    0  0.14860039762E+01  0.79892908607E+01 -0.39374925013E+00  0.81358475124E+01  0.00000000000E+00 0.  1.
</event>
<event>
 7    1  0.9978258E-013  0.5052886E+02  0.7816164E-02  0.1300439E+00
        -11   -1    0    0    0    0  0.00000000000E+00  0.00000000000E+00  0.45593999997E+02  0.45594000000E+02  0.51100000000E-03 0. -1.
         11   -1    0    0    0    0 -0.00000000000E+00 -0.00000000000E+00 -0.45593999997E+02  0.45594000000E+02  0.51100000000E-03 0.  1.
    9900012    2    1    2    0    0 -0.21165191141E+02  0.11200413946E+02  0.32859564499E+02  0.50528861203E+02  0.30000004113E+02 0.  0.
        -12    1    1    2    0    0  0.21165191141E+02 -0.11200413946E+02 -0.32859564499E+02  0.40659138797E+02  0.00000000000E+00 0.  1.
         11    1    3    3    0    0 -0.66845544161E+01  0.27963901925E+01  0.25017807363E+02  0.26045993000E+02  0.51100000000E-03 0. -1.
        -11    1    3    3    0    0 -0.17074007716E+02  0.64898322245E+01  0.27716420648E+01  0.18474892741E+02  0.51100000000E-03 0.  1.
         12    1    3    3    0    0  0.25933709912E+01  0.19141915293E+01  0.50701150716E+01  0.60079754617E+01  0.00000000000E+00 0. -1.
</event>
<event>
 7    1  0.9978258E-013  0.5052886E+02  0.7816164E-02  0.1300439E+00
        -11   -1    0    0    0    0  0.00000000000E+00  0.00000000000E+00  0.45593999997E+02  0.45594000000E+02  0.51100000000E-03 0. -1.
         11   -1    0    0    0    0 -0.00000000000E+00 -0.00000000000E+00 -0.45593999997E+02  0.45594000000E+02  0.51100000000E-03 0.  1.
    9900012    2    1    2    0    0  0.37891453691E+02 -0.85765469247E+01  0.11993580846E+02  0.50528863248E+02  0.30000010327E+02 0.  0.
        -12    1    1    2    0    0 -0.37891453691E+02  0.85765469247E+01 -0.11993580846E+02  0.40659136752E+02  0.00000000000E+00 0.  1.
         11    1    3    3    0    0  0.18499643952E+02 -0.54896676287E+01  0.57971711803E+01  0.20148957069E+02  0.51100000000E-03 0. -1.
        -11    1    3    3    0    0 -0.30407736923E+01 -0.60764407477E+01 -0.40194938816E+00  0.68066879156E+01  0.51100000000E-03 0.  1.
        -12    1    3    3    0    0  0.22432583431E+02  0.29895614517E+01  0.65983590538E+01  0.23573218263E+02  0.00000000000E+00 0.  1.
</event>
<event>
 7    1  0.9978258E-013  0.5052886E+02  0.7816164E-02  0.1300439E+00
        -11   -1    0    0    0    0  0.00000000000E+00  0.00000000000E+00  0.45593999997E+02  0.45594000000E+02  0.51100000000E-03 0.  1.
         11   -1    0    0    0    0 -0.00000000000E+00 -0.00000000000E+00 -0.45593999997E+02  0.45594000000E+02  0.51100000000E-03 0. -1.
    9900012    2    1    2    0    0 -0.18775592950E+02 -0.86161859567E+01 -0.35020048773E+02  0.50528863669E+02  0.30000011610E+02 0.  0.
        -12    1    1    2    0    0  0.18775592950E+02  0.86161859567E+01  0.35020048773E+02  0.40659136331E+02  0.00000000000E+00 0.  1.
         11    1    3    3    0    0 -0.11150687010E+02  0.50322923697E+00 -0.10488245052E+02  0.15316472995E+02  0.51100000000E-03 0. -1.
        -11    1    3    3    0    0 -0.33270125357E+01 -0.16190419136E+02 -0.19352985166E+02  0.25450672276E+02  0.51100000000E-03 0.  1.
        -12    1    3    3    0    0 -0.42978934042E+01  0.70710039423E+01 -0.51788185551E+01  0.97617183986E+01  0.00000000000E+00 0.  1.
</event>
<event>
 7    1  0.9978258E-013  0.5052886E+02  0.7816164E-02  0.1300439E+00
        -11   -1    0    0    0    0  0.00000000000E+00  0.00000000000E+00  0.45593999997E+02  0.45594000000E+02  0.51100000000E-03 0.  1.
         11   -1    0    0    0    0 -0.00000000000E+00 -0.00000000000E+00 -0.45593999997E+02  0.45594000000E+02  0.51100000000E-03 0. -1.
    9900012    2    1    2    0    0 -0.26042355006E+02  0.29878123180E+02 -0.90696721953E+01  0.50528862617E+02  0.30000008410E+02 0.  0.
        -12    1    1    2    0    0  0.26042355006E+02 -0.29878123180E+02  0.90696721953E+01  0.40659137383E+02  0.00000000000E+00 0.  1.
         11    1    3    3    0    0 -0.54226743446E+01  0.24535336068E+02 -0.72810980162E+01  0.26161087546E+02  0.51100000000E-03 0. -1.
        -11    1    3    3    0    0 -0.17017599812E+02 -0.55866753659E+00 -0.31643537037E+01  0.17318312487E+02  0.51100000000E-03 0.  1.
        -12    1    3    3    0    0 -0.36020808495E+01  0.59014546487E+01  0.13757795246E+01  0.70494625835E+01  0.00000000000E+00 0.  1.
</event>
<event>
 7    1  0.9978258E-013  0.5052887E+02  0.7816164E-02  0.1300439E+00
        -11   -1    0    0    0    0  0.00000000000E+00  0.00000000000E+00  0.45593999997E+02  0.45594000000E+02  0.51100000000E-03 0. -1.
         11   -1    0    0    0    0 -0.00000000000E+00 -0.00000000000E+00 -0.45593999997E+02  0.45594000000E+02  0.51100000000E-03 0.  1.
    9900012    2    1    2    0    0 -0.17626400496E+02 -0.26542876933E+02  0.25257684165E+02  0.50528869172E+02  0.30000028336E+02 0.  0.
        -12    1    1    2    0    0  0.17626400496E+02  0.26542876933E+02 -0.25257684165E+02  0.40659130828E+02  0.00000000000E+00 0.  1.
         11    1    3    3    0    0 -0.24195748705E+02 -0.24678122532E+02  0.17923008758E+02  0.38931712399E+02  0.51100000000E-03 0. -1.
        -11    1    3    3    0    0  0.63932543474E+01 -0.33330124460E+01  0.47965140449E+01  0.86596316526E+01  0.51100000000E-03 0.  1.
         12    1    3    3    0    0  0.17609386162E+00  0.14682580456E+01  0.25381613620E+01  0.29375251209E+01  0.00000000000E+00 0. -1.
</event>
<event>
 7    1  0.9978258E-013  0.5052886E+02  0.7816164E-02  0.1300439E+00
        -11   -1    0    0    0    0  0.00000000000E+00  0.00000000000E+00  0.45593999997E+02  0.45594000000E+02  0.51100000000E-03 0.  1.
         11   -1    0    0    0    0 -0.00000000000E+00 -0.00000000000E+00 -0.45593999997E+02  0.45594000000E+02  0.51100000000E-03 0. -1.
    9900012    2    1    2    0    0  0.12245808964E+02  0.14079118488E+02 -0.36124566153E+02  0.50528859646E+02  0.29999999381E+02 0.  0.
        -12    1    1    2    0    0 -0.12245808964E+02 -0.14079118488E+02  0.36124566153E+02  0.40659140354E+02  0.00000000000E+00 0.  1.
         11    1    3    3    0    0  0.78932400150E+01  0.29770103694E+01 -0.17381431571E+01  0.86131858548E+01  0.51100000000E-03 0. -1.
        -11    1    3    3    0    0  0.55456900268E+00 -0.42108729059E+01 -0.20381922927E+02  0.20819744952E+02  0.51100000000E-03 0.  1.
        -12    1    3    3    0    0  0.37979999459E+01  0.15312981024E+02 -0.14004500069E+02  0.21095928840E+02  0.00000000000E+00 0.  1.
</event>
<event>
 7    1  0.9978258E-013  0.5052886E+02  0.7816164E-02  0.1300439E+00
        -11   -1    0    0    0    0  0.00000000000E+00  0.00000000000E+00  0.45593999997E+02  0.45594000000E+02  0.51100000000E-03 0. -1.
         11   -1    0    0    0    0 -0.00000000000E+00 -0.00000000000E+00 -0.45593999997E+02  0.45594000000E+02  0.51100000000E-03 0.  1.
    9900012    2    1    2    0    0 -0.15537473594E+02 -0.18709876994E+02  0.32583629937E+02  0.50528861757E+02  0.30000005797E+02 0.  0.
        -12    1    1    2    0    0  0.15537473594E+02  0.18709876994E+02 -0.32583629937E+02  0.40659138243E+02  0.00000000000E+00 0.  1.
         11    1    3    3    0    0 -0.55603586170E+01 -0.19091455992E+02  0.12501072395E+02  0.23487828575E+02  0.51100000000E-03 0. -1.
        -11    1    3    3    0    0 -0.34469507441E+01  0.44184150814E+01  0.18328450497E+02  0.19166010517E+02  0.51100000000E-03 0.  1.
        -12    1    3    3    0    0 -0.65301642326E+01 -0.40368360829E+01  0.17541070446E+01  0.78750226659E+01  0.00000000000E+00 0.  1.
</event>
<event>
 7    1  0.9978258E-013  0.5052886E+02  0.7816164E-02  0.1300439E+00
        -11   -1    0    0    0    0  0.00000000000E+00  0.00000000000E+00  0.45593999997E+02  0.45594000000E+02  0.51100000000E-03 0.  1.
         11   -1    0    0    0    0 -0.00000000000E+00 -0.00000000000E+00 -0.45593999997E+02  0.45594000000E+02  0.51100000000E-03 0. -1.
    9900012    2    1    2    0    0 -0.18581950376E+02  0.34431482240E+01 -0.36000302856E+02  0.50528856438E+02  0.29999989629E+02 0.  0.
        -12    1    1    2    0    0  0.18581950376E+02 -0.34431482240E+01  0.36000302856E+02  0.40659143562E+02  0.00000000000E+00 0.  1.
         11    1    3    3    0    0 -0.22872354421E+02  0.57168497835E+01 -0.17391342075E+02  0.29296514258E+02  0.51100000000E-03 0. -1.
        -11    1    3    3    0    0  0.52793354426E+01  0.16843238169E+01 -0.14109490482E+02  0.15158695569E+02  0.51100000000E-03 0.  1.
         12    1    3    3    0    0 -0.98893139704E+00 -0.39580253763E+01 -0.44994702989E+01  0.60736466112E+01  0.00000000000E+00 0. -1.
</event>
<event>
 7    1  0.9978258E-013  0.5052886E+02  0.7816164E-02  0.1300439E+00
        -11   -1    0    0    0    0  0.00000000000E+00  0.00000000000E+00  0.45593999997E+02  0.45594000000E+02  0.51100000000E-03 0.  1.
         11   -1    0    0    0    0 -0.00000000000E+00 -0.00000000000E+00 -0.45593999997E+02  0.45594000000E+02  0.51100000000E-03 0. -1.
    9900012    2    1    2    0    0  0.40117353361E+01 -0.10341825156E+02 -0.39116721626E+02  0.50528864757E+02  0.30000014915E+02 0.  0.
        -12    1    1    2    0    0 -0.40117353361E+01  0.10341825156E+02  0.39116721626E+02  0.40659135243E+02  0.00000000000E+00 0.  1.
         11    1    3    3    0    0  0.52557212978E+01 -0.13729869410E+02 -0.42897872986E+01  0.15314509320E+02  0.51100000000E-03 0. -1.
        -11    1    3    3    0    0 -0.22710169834E+01  0.31178913223E+01 -0.31125135787E+02  0.31363240305E+02  0.51100000000E-03 0.  1.
         12    1    3    3    0    0  0.10270310216E+01  0.27015293134E+00 -0.37017985403E+01  0.38511151319E+01  0.00000000000E+00 0. -1.
</event>
<event>
 7    1  0.9978258E-013  0.5052882E+02  0.7816164E-02  0.1300439E+00
        -11   -1    0    0    0    0  0.00000000000E+00  0.00000000000E+00  0.45593999997E+02  0.45594000000E+02  0.51100000000E-03 0.  1.
         11   -1    0    0    0    0 -0.00000000000E+00 -0.00000000000E+00 -0.45593999997E+02  0.45594000000E+02  0.51100000000E-03 0. -1.
    9900012    2    1    2    0    0  0.20638563593E+00  0.30941971584E+02 -0.26376517250E+02  0.50528820682E+02  0.29999880946E+02 0.  0.
        -12    1    1    2    0    0 -0.20638563593E+00 -0.30941971584E+02  0.26376517250E+02  0.40659179318E+02  0.00000000000E+00 0.  1.
         11    1    3    3    0    0  0.15905951718E+01  0.12801838312E+02 -0.23019858162E+02  0.26388083053E+02  0.51100000000E-03 0. -1.
        -11    1    3    3    0    0  0.44352505458E+00 -0.21452619041E+01  0.21212765219E+01  0.30493732889E+01  0.51100000000E-03 0.  1.
        -12    1    3    3    0    0 -0.18277345905E+01  0.20285395176E+02 -0.54779356099E+01  0.21091364340E+02  0.00000000000E+00 0.  1.
</event>
<event>
 7    1  0.9978258E-013  0.5052886E+02  0.7816164E-02  0.1300439E+00
        -11   -1    0    0    0    0  0.00000000000E+00  0.00000000000E+00  0.45593999997E+02  0.45594000000E+02  0.51100000000E-03 0. -1.
         11   -1    0    0    0    0 -0.00000000000E+00 -0.00000000000E+00 -0.45593999997E+02  0.45594000000E+02  0.51100000000E-03 0.  1.
    9900012    2    1    2    0    0  0.14022488721E+02 -0.32180244832E+02 -0.20517491330E+02  0.50528858373E+02  0.29999995511E+02 0.  0.
        -12    1    1    2    0    0 -0.14022488721E+02  0.32180244832E+02  0.20517491330E+02  0.40659141627E+02  0.00000000000E+00 0.  1.
         11    1    3    3    0    0  0.10077757168E+02 -0.15835862434E+02 -0.22896804236E+02  0.29607420912E+02  0.51100000000E-03 0. -1.
        -11    1    3    3    0    0 -0.44166343563E+01 -0.64419175045E+01  0.12770141674E+01  0.79142735368E+01  0.51100000000E-03 0.  1.
         12    1    3    3    0    0  0.83613659098E+01 -0.99024648931E+01  0.11022987392E+01  0.13007163924E+02  0.00000000000E+00 0. -1.
</event>
<event>
 7    1  0.9978258E-013  0.5052881E+02  0.7816164E-02  0.1300439E+00
        -11   -1    0    0    0    0  0.00000000000E+00  0.00000000000E+00  0.45593999997E+02  0.45594000000E+02  0.51100000000E-03 0. -1.
         11   -1    0    0    0    0 -0.00000000000E+00 -0.00000000000E+00 -0.45593999997E+02  0.45594000000E+02  0.51100000000E-03 0.  1.
    9900012    2    1    2    0    0  0.17017316201E+02 -0.34811888760E+02  0.12317176926E+02  0.50528812881E+02  0.29999857233E+02 0.  0.
        -12    1    1    2    0    0 -0.17017316201E+02  0.34811888760E+02 -0.12317176926E+02  0.40659187119E+02  0.00000000000E+00 0.  1.
         11    1    3    3    0    0 -0.11324775120E+01 -0.25484243313E+02  0.11704743229E+01  0.25536232552E+02  0.51100000000E-03 0. -1.
        -11    1    3    3    0    0  0.10012751490E+02 -0.84050189852E+01  0.29408967595E+01  0.13399567551E+02  0.51100000000E-03 0.  1.
         12    1    3    3    0    0  0.81370422231E+01 -0.92262646201E+00  0.82058058435E+01  0.11593012778E+02  0.00000000000E+00 0. -1.
</event>
<event>
 7    1  0.9978258E-013  0.5052882E+02  0.7816164E-02  0.1300439E+00
        -11   -1    0    0    0    0  0.00000000000E+00  0.00000000000E+00  0.45593999997E+02  0.45594000000E+02  0.51100000000E-03 0.  1.
         11   -1    0    0    0    0 -0.00000000000E+00 -0.00000000000E+00 -0.45593999997E+02  0.45594000000E+02  0.51100000000E-03 0. -1.
    9900012    2    1    2    0    0 -0.31063540351E+02  0.19263917715E+02 -0.17808061566E+02  0.50528817499E+02  0.29999871271E+02 0.  0.
        -12    1    1    2    0    0  0.31063540351E+02 -0.19263917715E+02  0.17808061566E+02  0.40659182501E+02  0.00000000000E+00 0.  1.
         11    1    3    3    0    0  0.18546691240E+00  0.53175295026E+01 -0.53362237299E+01  0.75356354704E+01  0.51100000000E-03 0. -1.
        -11    1    3    3    0    0 -0.33180404617E+02  0.86822299038E+01 -0.14206991980E+02  0.37123563784E+02  0.51100000000E-03 0.  1.
        -12    1    3    3    0    0  0.19313973534E+01  0.52641583087E+01  0.17351541441E+01  0.58696182448E+01  0.00000000000E+00 0.  1.
</event>
<event>
 7    1  0.9978258E-013  0.5052885E+02  0.7816164E-02  0.1300439E+00
        -11   -1    0    0    0    0  0.00000000000E+00  0.00000000000E+00  0.45593999997E+02  0.45594000000E+02  0.51100000000E-03 0.  1.
         11   -1    0    0    0    0 -0.00000000000E+00 -0.00000000000E+00 -0.45593999997E+02  0.45594000000E+02  0.51100000000E-03 0. -1.
    9900012    2    1    2    0    0  0.84617663856E+01  0.31457006865E+02 -0.24331497900E+02  0.50528848984E+02  0.29999966972E+02 0.  0.
        -12    1    1    2    0    0 -0.84617663856E+01 -0.31457006865E+02  0.24331497900E+02  0.40659151016E+02  0.00000000000E+00 0.  1.
         11    1    3    3    0    0  0.14341617156E+02  0.79771014686E+01 -0.19572467599E+02  0.25542075457E+02  0.51100000000E-03 0. -1.
        -11    1    3    3    0    0 -0.41603532839E+01  0.91960521988E+01 -0.11864069681E+01  0.10162847890E+02  0.51100000000E-03 0.  1.
         12    1    3    3    0    0 -0.17194974867E+01  0.14283853198E+02 -0.35726233329E+01  0.14823925636E+02  0.00000000000E+00 0. -1.
</event>
<event>
 7    1  0.9978258E-013  0.5052886E+02  0.7816164E-02  0.1300439E+00
        -11   -1    0    0    0    0  0.00000000000E+00  0.00000000000E+00  0.45593999997E+02  0.45594000000E+02  0.51100000000E-03 0.  1.
         11   -1    0    0    0    0 -0.00000000000E+00 -0.00000000000E+00 -0.45593999997E+02  0.45594000000E+02  0.51100000000E-03 0. -1.
    9900012    2    1    2    0    0  0.25073462733E+02  0.68933644245E+01 -0.31256497565E+02  0.50528860234E+02  0.30000001166E+02 0.  0.
        -12    1    1    2    0    0 -0.25073462733E+02 -0.68933644245E+01  0.31256497565E+02  0.40659139766E+02  0.00000000000E+00 0.  1.
         11    1    3    3    0    0  0.90590160998E+01  0.84226069027E+01 -0.14597138197E+00  0.12370423907E+02  0.51100000000E-03 0. -1.
        -11    1    3    3    0    0 -0.11379647492E+01 -0.45154695002E+01 -0.58010007681E+01  0.74388197149E+01  0.51100000000E-03 0.  1.
         12    1    3    3    0    0  0.17152411382E+02  0.29862270220E+01 -0.25309525415E+02  0.30719616612E+02  0.00000000000E+00 0. -1.
</event>
<event>
 7    1  0.9978258E-013  0.5052885E+02  0.7816164E-02  0.1300439E+00
        -11   -1    0    0    0    0  0.00000000000E+00  0.00000000000E+00  0.45593999997E+02  0.45594000000E+02  0.51100000000E-03 0.  1.
         11   -1    0    0    0    0 -0.00000000000E+00 -0.00000000000E+00 -0.45593999997E+02  0.45594000000E+02  0.51100000000E-03 0. -1.
    9900012    2    1    2    0    0 -0.35910055858E+01 -0.21672758969E+02 -0.34213489535E+02  0.50528847665E+02  0.29999962962E+02 0.  0.
        -12    1    1    2    0    0  0.35910055858E+01  0.21672758969E+02  0.34213489535E+02  0.40659152335E+02  0.00000000000E+00 0.  1.
         11    1    3    3    0    0 -0.43779191085E+01 -0.64052035880E+01 -0.58618961540E+01  0.97239207887E+01  0.51100000000E-03 0. -1.
        -11    1    3    3    0    0  0.51548183690E+01 -0.11033398749E+02 -0.31630724371E+02  0.33894111065E+02  0.51100000000E-03 0.  1.
        -12    1    3    3    0    0 -0.43679048464E+01 -0.42341566321E+01  0.32791309899E+01  0.69108158115E+01  0.00000000000E+00 0.  1.
</event>
<event>
 7    1  0.9978258E-013  0.5052888E+02  0.7816164E-02  0.1300439E+00
        -11   -1    0    0    0    0  0.00000000000E+00  0.00000000000E+00  0.45593999997E+02  0.45594000000E+02  0.51100000000E-03 0.  1.
         11   -1    0    0    0    0 -0.00000000000E+00 -0.00000000000E+00 -0.45593999997E+02  0.45594000000E+02  0.51100000000E-03 0. -1.
    9900012    2    1    2    0    0  0.19633918730E+02 -0.15376952870E+02 -0.32112655161E+02  0.50528879673E+02  0.30000060254E+02 0.  0.
        -12    1    1    2    0    0 -0.19633918730E+02  0.15376952870E+02  0.32112655161E+02  0.40659120327E+02  0.00000000000E+00 0.  1.
         11    1    3    3    0    0  0.19488454566E+02  0.20865630268E+01 -0.24181777825E+02  0.31127351087E+02  0.51100000000E-03 0. -1.
        -11    1    3    3    0    0 -0.12229335272E+01 -0.53356419405E+01 -0.19588514123E+01  0.58139264225E+01  0.51100000000E-03 0.  1.
         12    1    3    3    0    0  0.13683976916E+01 -0.12127873956E+02 -0.59720259238E+01  0.13587602164E+02  0.00000000000E+00 0. -1.
</event>
<event>
 7    1  0.9978258E-013  0.5052886E+02  0.7816164E-02  0.1300439E+00
        -11   -1    0    0    0    0  0.00000000000E+00  0.00000000000E+00  0.45593999997E+02  0.45594000000E+02  0.51100000000E-03 0.  1.
         11   -1    0    0    0    0 -0.00000000000E+00 -0.00000000000E+00 -0.45593999997E+02  0.45594000000E+02  0.51100000000E-03 0. -1.
    9900012    2    1    2    0    0 -0.28259561757E+02  0.29134306146E+02 -0.23988899048E+01  0.50528864519E+02  0.30000014193E+02 0.  0.
        -12    1    1    2    0    0  0.28259561757E+02 -0.29134306146E+02  0.23988899048E+01  0.40659135481E+02  0.00000000000E+00 0.  1.
         11    1    3    3    0    0 -0.74873536103E+01  0.16499747775E+02  0.22236773835E+01  0.18255050865E+02  0.51100000000E-03 0. -1.
        -11    1    3    3    0    0  0.99486841644E+00 -0.37357726747E+01  0.18402896018E+01  0.42816383222E+01  0.51100000000E-03 0.  1.
        -12    1    3    3    0    0 -0.21767076563E+02  0.16370331045E+02 -0.64628568901E+01  0.27992175332E+02  0.00000000000E+00 0.  1.
</event>
<event>
 7    1  0.9978258E-013  0.5052881E+02  0.7816164E-02  0.1300439E+00
        -11   -1    0    0    0    0  0.00000000000E+00  0.00000000000E+00  0.45593999997E+02  0.45594000000E+02  0.51100000000E-03 0. -1.
         11   -1    0    0    0    0 -0.00000000000E+00 -0.00000000000E+00 -0.45593999997E+02  0.45594000000E+02  0.51100000000E-03 0.  1.
    9900012    2    1    2    0    0  0.37990554807E+02  0.11857924837E+02 -0.83232816989E+01  0.50528810950E+02  0.29999851362E+02 0.  0.
        -12    1    1    2    0    0 -0.37990554807E+02 -0.11857924837E+02  0.83232816989E+01  0.40659189050E+02  0.00000000000E+00 0.  1.
         11    1    3    3    0    0  0.96006586158E+01  0.27115465557E+01  0.68241960678E+01  0.12086967478E+02  0.51100000000E-03 0. -1.
        -11    1    3    3    0    0  0.58693912807E+01  0.90678190035E+01 -0.11232477668E+02  0.15583441542E+02  0.51100000000E-03 0.  1.
        -12    1    3    3    0    0  0.22520504911E+02  0.78559277944E-01 -0.39150000988E+01  0.22858401929E+02  0.00000000000E+00 0.  1.
</event>
<event>
 7    1  0.9978258E-013  0.5052886E+02  0.7816164E-02  0.1300439E+00
        -11   -1    0    0    0    0  0.00000000000E+00  0.00000000000E+00  0.45593999997E+02  0.45594000000E+02  0.51100000000E-03 0. -1.
         11   -1    0    0    0    0 -0.00000000000E+00 -0.00000000000E+00 -0.45593999997E+02  0.45594000000E+02  0.51100000000E-03 0.  1.
    9900012    2    1    2    0    0  0.26539750819E+02 -0.45789507515E+00 -0.30799308273E+02  0.50528862878E+02  0.30000009203E+02 0.  0.
        -12    1    1    2    0    0 -0.26539750819E+02  0.45789507515E+00  0.30799308273E+02  0.40659137122E+02  0.00000000000E+00 0.  1.
         11    1    3    3    0    0  0.91489135836E+00 -0.62017719555E+01  0.49336724825E+00  0.62882758438E+01  0.51100000000E-03 0. -1.
        -11    1    3    3    0    0  0.27681629816E+02  0.62722350304E+01 -0.31105237913E+02  0.42108780408E+02  0.51100000000E-03 0.  1.
        -12    1    3    3    0    0 -0.20567703559E+01 -0.52835815002E+00 -0.18743760826E+00  0.21318066255E+01  0.00000000000E+00 0.  1.
</event>
<event>
 7    1  0.9978258E-013  0.5052886E+02  0.7816164E-02  0.1300439E+00
        -11   -1    0    0    0    0  0.00000000000E+00  0.00000000000E+00  0.45593999997E+02  0.45594000000E+02  0.51100000000E-03 0.  1.
         11   -1    0    0    0    0 -0.00000000000E+00 -0.00000000000E+00 -0.45593999997E+02  0.45594000000E+02  0.51100000000E-03 0. -1.
    9900012    2    1    2    0    0  0.40180544431E+01  0.19483228969E+02 -0.35460180510E+02  0.50528863581E+02  0.30000011340E+02 0.  0.
        -12    1    1    2    0    0 -0.40180544431E+01 -0.19483228969E+02  0.35460180510E+02  0.40659136419E+02  0.00000000000E+00 0.  1.
         11    1    3    3    0    0 -0.57106614753E+01  0.18722223398E+02 -0.31013444720E+02  0.36673792511E+02  0.51100000000E-03 0. -1.
        -11    1    3    3    0    0  0.31422624751E+01  0.44542466512E+01 -0.27926197477E+01  0.61247736292E+01  0.51100000000E-03 0.  1.
         12    1    3    3    0    0  0.65864534432E+01 -0.36932410804E+01 -0.16541160420E+01  0.77302974405E+01  0.00000000000E+00 0. -1.
</event>
<event>
 7    1  0.9978258E-013  0.5052887E+02  0.7816164E-02  0.1300439E+00
        -11   -1    0    0    0    0  0.00000000000E+00  0.00000000000E+00  0.45593999997E+02  0.45594000000E+02  0.51100000000E-03 0. -1.
         11   -1    0    0    0    0 -0.00000000000E+00 -0.00000000000E+00 -0.45593999997E+02  0.45594000000E+02  0.51100000000E-03 0.  1.
    9900012    2    1    2    0    0  0.33239164386E+02  0.35730197461E+01  0.23142097265E+02  0.50528865909E+02  0.30000018416E+02 0.  0.
        -12    1    1    2    0    0 -0.33239164386E+02 -0.35730197461E+01 -0.23142097265E+02  0.40659134091E+02  0.00000000000E+00 0.  1.
         11    1    3    3    0    0  0.34962794837E+02  0.24463135167E+01  0.24678283494E+02  0.42864894134E+02  0.51100000000E-03 0. -1.
        -11    1    3    3    0    0 -0.24553723560E+01 -0.21047680478E+00  0.24018461069E+01  0.34412234561E+01  0.51100000000E-03 0.  1.
         12    1    3    3    0    0  0.73174190543E+00  0.13371830342E+01 -0.39380323360E+01  0.42227483186E+01  0.00000000000E+00 0. -1.
</event>
<event>
 7    1  0.9978258E-013  0.5052887E+02  0.7816164E-02  0.1300439E+00
        -11   -1    0    0    0    0  0.00000000000E+00  0.00000000000E+00  0.45593999997E+02  0.45594000000E+02  0.51100000000E-03 0. -1.
         11   -1    0    0    0    0 -0.00000000000E+00 -0.00000000000E+00 -0.45593999997E+02  0.45594000000E+02  0.51100000000E-03 0.  1.
    9900012    2    1    2    0    0  0.40340943071E+02  0.32931998013E+01  0.38636734119E+01  0.50528870336E+02  0.30000031873E+02 0.  0.
        -12    1    1    2    0    0 -0.40340943071E+02 -0.32931998013E+01 -0.38636734119E+01  0.40659129664E+02  0.00000000000E+00 0.  1.
         11    1    3    3    0    0  0.21584543089E+02  0.35370136549E+01  0.11125109187E+02  0.24539173185E+02  0.51100000000E-03 0. -1.
        -11    1    3    3    0    0  0.11106463023E+02 -0.54135271680E+01 -0.10490529237E+02  0.16208362077E+02  0.51100000000E-03 0.  1.
        -12    1    3    3    0    0  0.76499369591E+01  0.51697133144E+01  0.32290934619E+01  0.97813350734E+01  0.00000000000E+00 0.  1.
</event>
<event>
 7    1  0.9978258E-013  0.5052878E+02  0.7816164E-02  0.1300439E+00
        -11   -1    0    0    0    0  0.00000000000E+00  0.00000000000E+00  0.45593999997E+02  0.45594000000E+02  0.51100000000E-03 0. -1.
         11   -1    0    0    0    0 -0.00000000000E+00 -0.00000000000E+00 -0.45593999997E+02  0.45594000000E+02  0.51100000000E-03 0.  1.
    9900012    2    1    2    0    0 -0.33598329490E+02 -0.32855509104E+01  0.22661193618E+02  0.50528778592E+02  0.29999753008E+02 0.  0.
        -12    1    1    2    0    0  0.33598329490E+02  0.32855509104E+01 -0.22661193618E+02  0.40659221408E+02  0.00000000000E+00 0.  1.
         11    1    3    3    0    0 -0.16389099482E+02 -0.91522817768E+01  0.10209143211E+01  0.18799178436E+02  0.51100000000E-03 0.  1.
        -11    1    3    3    0    0  0.18476809870E+01  0.13109607794E+01  0.67493412725E+01  0.71194206976E+01  0.51100000000E-03 0. -1.
         12    1    3    3    0    0 -0.19056910995E+02  0.45557700870E+01  0.14890938024E+02  0.24610179459E+02  0.00000000000E+00 0. -1.
</event>
<event>
 7    1  0.9978258E-013  0.5052879E+02  0.7816164E-02  0.1300439E+00
        -11   -1    0    0    0    0  0.00000000000E+00  0.00000000000E+00  0.45593999997E+02  0.45594000000E+02  0.51100000000E-03 0. -1.
         11   -1    0    0    0    0 -0.00000000000E+00 -0.00000000000E+00 -0.45593999997E+02  0.45594000000E+02  0.51100000000E-03 0.  1.
    9900012    2    1    2    0    0 -0.39200930944E+02  0.97515846829E+01  0.46222652152E+01  0.50528785468E+02  0.29999773907E+02 0.  0.
        -12    1    1    2    0    0  0.39200930944E+02 -0.97515846829E+01 -0.46222652152E+01  0.40659214532E+02  0.00000000000E+00 0.  1.
         11    1    3    3    0    0 -0.18008363555E+02 -0.46824736984E+01  0.16234473980E+01  0.18677855861E+02  0.51100000000E-03 0. -1.
        -11    1    3    3    0    0  0.15302660357E+01 -0.10683261031E+01 -0.31531731663E+01  0.36640873462E+01  0.51100000000E-03 0.  1.
         12    1    3    3    0    0 -0.22722833424E+02  0.15502384484E+02  0.61519909835E+01  0.28186842260E+02  0.00000000000E+00 0. -1.
</event>
<event>
 7    1  0.9978258E-013  0.5052885E+02  0.7816164E-02  0.1300439E+00
        -11   -1    0    0    0    0  0.00000000000E+00  0.00000000000E+00  0.45593999997E+02  0.45594000000E+02  0.51100000000E-03 0.  1.
         11   -1    0    0    0    0 -0.00000000000E+00 -0.00000000000E+00 -0.45593999997E+02  0.45594000000E+02  0.51100000000E-03 0. -1.
    9900012    2    1    2    0    0  0.13695372449E+02  0.16347648370E+02 -0.34617297662E+02  0.50528854274E+02  0.29999983051E+02 0.  0.
        -12    1    1    2    0    0 -0.13695372449E+02 -0.16347648370E+02  0.34617297662E+02  0.40659145726E+02  0.00000000000E+00 0.  1.
         11    1    3    3    0    0  0.78366885862E+01  0.15176885602E+02 -0.20068771072E+02  0.26353502939E+02  0.51100000000E-03 0. -1.
        -11    1    3    3    0    0  0.11100573043E+02 -0.24681417873E+01 -0.44120378793E+01  0.12197562226E+02  0.51100000000E-03 0.  1.
        -12    1    3    3    0    0 -0.52418891800E+01  0.36389045557E+01 -0.10136488711E+02  0.11977789108E+02  0.00000000000E+00 0.  1.
</event>
<event>
 7    1  0.9978258E-013  0.5052886E+02  0.7816164E-02  0.1300439E+00
        -11   -1    0    0    0    0  0.00000000000E+00  0.00000000000E+00  0.45593999997E+02  0.45594000000E+02  0.51100000000E-03 0.  1.
         11   -1    0    0    0    0 -0.00000000000E+00 -0.00000000000E+00 -0.45593999997E+02  0.45594000000E+02  0.51100000000E-03 0. -1.
    9900012    2    1    2    0    0  0.32433219300E+01  0.10444726575E+02 -0.39160623758E+02  0.50528857074E+02  0.29999991561E+02 0.  0.
        -12    1    1    2    0    0 -0.32433219300E+01 -0.10444726575E+02  0.39160623758E+02  0.40659142926E+02  0.00000000000E+00 0.  1.
         11    1    3    3    0    0 -0.75513744783E+01  0.26666413439E+01 -0.26956292184E+02  0.28120738275E+02  0.51100000000E-03 0. -1.
        -11    1    3    3    0    0  0.77665897756E+01  0.14451595163E+01  0.47624833239E+00  0.79142413095E+01  0.51100000000E-03 0.  1.
        -12    1    3    3    0    0  0.30281066327E+01  0.63329257151E+01 -0.12680579907E+02  0.14493877489E+02  0.00000000000E+00 0.  1.
</event>
<event>
 7    1  0.9978258E-013  0.5052888E+02  0.7816164E-02  0.1300439E+00
        -11   -1    0    0    0    0  0.00000000000E+00  0.00000000000E+00  0.45593999997E+02  0.45594000000E+02  0.51100000000E-03 0.  1.
         11   -1    0    0    0    0 -0.00000000000E+00 -0.00000000000E+00 -0.45593999997E+02  0.45594000000E+02  0.51100000000E-03 0. -1.
    9900012    2    1    2    0    0 -0.22278646815E+02 -0.84105033191E+01 -0.32955870592E+02  0.50528879542E+02  0.30000059855E+02 0.  0.
        -12    1    1    2    0    0  0.22278646815E+02  0.84105033191E+01  0.32955870592E+02  0.40659120458E+02  0.00000000000E+00 0.  1.
         11    1    3    3    0    0 -0.25872591607E+00  0.56341624803E+00 -0.92158057322E+01  0.92366364291E+01  0.51100000000E-03 0. -1.
        -11    1    3    3    0    0 -0.26180117975E+02 -0.72574583976E+01 -0.13999581754E+02  0.30562355425E+02  0.51100000000E-03 0.  1.
        -12    1    3    3    0    0  0.41601970763E+01 -0.17164611695E+01 -0.97404831054E+01  0.10729887688E+02  0.00000000000E+00 0.  1.
</event>
<event>
 7    1  0.9978258E-013  0.5052885E+02  0.7816164E-02  0.1300439E+00
        -11   -1    0    0    0    0  0.00000000000E+00  0.00000000000E+00  0.45593999997E+02  0.45594000000E+02  0.51100000000E-03 0. -1.
         11   -1    0    0    0    0 -0.00000000000E+00 -0.00000000000E+00 -0.45593999997E+02  0.45594000000E+02  0.51100000000E-03 0.  1.
    9900012    2    1    2    0    0 -0.38280702069E+02 -0.49502599508E+01 -0.12776904855E+02  0.50528849466E+02  0.29999968436E+02 0.  0.
        -12    1    1    2    0    0  0.38280702069E+02  0.49502599508E+01  0.12776904855E+02  0.40659150534E+02  0.00000000000E+00 0.  1.
         11    1    3    3    0    0 -0.59174003268E+01 -0.10903605638E+02 -0.19571697511E+01  0.12559249828E+02  0.51100000000E-03 0.  1.
        -11    1    3    3    0    0 -0.10343121813E+02  0.47265933404E+01  0.32281544632E+01  0.11821245068E+02  0.51100000000E-03 0. -1.
         12    1    3    3    0    0 -0.22020179929E+02  0.12267523471E+01 -0.14047889568E+02  0.26148354570E+02  0.00000000000E+00 0. -1.
</event>
<event>
 7    1  0.9978258E-013  0.5052886E+02  0.7816164E-02  0.1300439E+00
        -11   -1    0    0    0    0  0.00000000000E+00  0.00000000000E+00  0.45593999997E+02  0.45594000000E+02  0.51100000000E-03 0.  1.
         11   -1    0    0    0    0 -0.00000000000E+00 -0.00000000000E+00 -0.45593999997E+02  0.45594000000E+02  0.51100000000E-03 0. -1.
    9900012    2    1    2    0    0  0.48287093751E+01 -0.39443605911E+02 -0.86053013306E+01  0.50528859668E+02  0.29999999448E+02 0.  0.
        -12    1    1    2    0    0 -0.48287093751E+01  0.39443605911E+02  0.86053013306E+01  0.40659140332E+02  0.00000000000E+00 0.  1.
         11    1    3    3    0    0  0.49772798598E+01 -0.18510860276E+02 -0.10943142808E+02  0.22072100891E+02  0.51100000000E-03 0. -1.
        -11    1    3    3    0    0  0.67558932018E+01 -0.63673596486E+01  0.70567947963E+01  0.11661205551E+02  0.51100000000E-03 0.  1.
        -12    1    3    3    0    0 -0.69044636865E+01 -0.14565385987E+02 -0.47189533190E+01  0.16795553226E+02  0.00000000000E+00 0.  1.
</event>
<event>
 7    1  0.9978258E-013  0.5052887E+02  0.7816164E-02  0.1300439E+00
        -11   -1    0    0    0    0  0.00000000000E+00  0.00000000000E+00  0.45593999997E+02  0.45594000000E+02  0.51100000000E-03 0.  1.
         11   -1    0    0    0    0 -0.00000000000E+00 -0.00000000000E+00 -0.45593999997E+02  0.45594000000E+02  0.51100000000E-03 0. -1.
    9900012    2    1    2    0    0  0.38266638422E+01  0.26328902454E+02 -0.30745897845E+02  0.50528871937E+02  0.30000036738E+02 0.  0.
        -12    1    1    2    0    0 -0.38266638422E+01 -0.26328902454E+02  0.30745897845E+02  0.40659128063E+02  0.00000000000E+00 0.  1.
         11    1    3    3    0    0  0.22536049611E+01  0.26190398960E+01 -0.44791588783E+00  0.34840686275E+01  0.51100000000E-03 0. -1.
        -11    1    3    3    0    0  0.66720803218E+01  0.25536072158E+02 -0.14012735241E+02  0.29882509705E+02  0.51100000000E-03 0.  1.
        -12    1    3    3    0    0 -0.50990214407E+01 -0.18262095995E+01 -0.16285246716E+02  0.17162293604E+02  0.00000000000E+00 0.  1.
</event>
<event>
 7    1  0.9978258E-013  0.5052885E+02  0.7816164E-02  0.1300439E+00
        -11   -1    0    0    0    0  0.00000000000E+00  0.00000000000E+00  0.45593999997E+02  0.45594000000E+02  0.51100000000E-03 0. -1.
         11   -1    0    0    0    0 -0.00000000000E+00 -0.00000000000E+00 -0.45593999997E+02  0.45594000000E+02  0.51100000000E-03 0.  1.
    9900012    2    1    2    0    0 -0.38274178477E+02 -0.13506205430E+02  0.24157910708E+01  0.50528851341E+02  0.29999974136E+02 0.  0.
        -12    1    1    2    0    0  0.38274178477E+02  0.13506205430E+02 -0.24157910708E+01  0.40659148659E+02  0.00000000000E+00 0.  1.
         11    1    3    3    0    0 -0.14523921805E+02 -0.88831060070E+00  0.10745771843E+02  0.18088809057E+02  0.51100000000E-03 0. -1.
        -11    1    3    3    0    0 -0.15905328623E+02 -0.16033885019E+02 -0.76973005198E+01  0.23860288829E+02  0.51100000000E-03 0.  1.
        -12    1    3    3    0    0 -0.78449280477E+01  0.34159901902E+01 -0.63268025261E+00  0.85797534554E+01  0.00000000000E+00 0.  1.
</event>
<event>
 7    1  0.9978258E-013  0.5052886E+02  0.7816164E-02  0.1300439E+00
        -11   -1    0    0    0    0  0.00000000000E+00  0.00000000000E+00  0.45593999997E+02  0.45594000000E+02  0.51100000000E-03 0.  1.
         11   -1    0    0    0    0 -0.00000000000E+00 -0.00000000000E+00 -0.45593999997E+02  0.45594000000E+02  0.51100000000E-03 0. -1.
    9900012    2    1    2    0    0  0.36495276702E+02  0.36253766450E+01  0.17553258092E+02  0.50528862688E+02  0.30000008626E+02 0.  0.
        -12    1    1    2    0    0 -0.36495276702E+02 -0.36253766450E+01 -0.17553258092E+02  0.40659137312E+02  0.00000000000E+00 0.  1.
         11    1    3    3    0    0  0.13087349181E+02  0.14817194493E+02  0.53272408878E+01  0.20474556332E+02  0.51100000000E-03 0. -1.
        -11    1    3    3    0    0  0.18573867622E+02 -0.85001102673E+01  0.13358361809E+02  0.24406684812E+02  0.51100000000E-03 0.  1.
         12    1    3    3    0    0  0.48340598980E+01 -0.26917075811E+01 -0.11323446056E+01  0.56476215441E+01  0.00000000000E+00 0. -1.
</event>
<event>
 7    1  0.9978258E-013  0.5052889E+02  0.7816164E-02  0.1300439E+00
        -11   -1    0    0    0    0  0.00000000000E+00  0.00000000000E+00  0.45593999997E+02  0.45594000000E+02  0.51100000000E-03 0.  1.
         11   -1    0    0    0    0 -0.00000000000E+00 -0.00000000000E+00 -0.45593999997E+02  0.45594000000E+02  0.51100000000E-03 0. -1.
    9900012    2    1    2    0    0  0.35340365616E+02  0.18120016439E+01 -0.20023456725E+02  0.50528885265E+02  0.30000077252E+02 0.  0.
        -12    1    1    2    0    0 -0.35340365616E+02 -0.18120016439E+01  0.20023456725E+02  0.40659114735E+02  0.00000000000E+00 0.  1.
         11    1    3    3    0    0  0.95358807841E+01  0.39418687174E+01 -0.21920212979E+02  0.24227403670E+02  0.51100000000E-03 0. -1.
        -11    1    3    3    0    0  0.15141031311E+02 -0.31532797994E+01  0.28549505454E+00  0.15468532909E+02  0.51100000000E-03 0.  1.
         12    1    3    3    0    0  0.10663453520E+02  0.10234127258E+01  0.16112611993E+01  0.10832948686E+02  0.00000000000E+00 0. -1.
</event>
<event>
 7    1  0.9978258E-013  0.5052887E+02  0.7816164E-02  0.1300439E+00
        -11   -1    0    0    0    0  0.00000000000E+00  0.00000000000E+00  0.45593999997E+02  0.45594000000E+02  0.51100000000E-03 0.  1.
         11   -1    0    0    0    0 -0.00000000000E+00 -0.00000000000E+00 -0.45593999997E+02  0.45594000000E+02  0.51100000000E-03 0. -1.
    9900012    2    1    2    0    0 -0.39957484985E+02  0.12050736276E+01  0.74237711439E+01  0.50528865888E+02  0.30000018353E+02 0.  0.
        -12    1    1    2    0    0  0.39957484985E+02 -0.12050736276E+01 -0.74237711439E+01  0.40659134112E+02  0.00000000000E+00 0.  1.
         11    1    3    3    0    0  0.50424761697E+00  0.28988796083E+01 -0.49915246301E+01  0.57942287698E+01  0.51100000000E-03 0. -1.
        -11    1    3    3    0    0 -0.35691197897E+02  0.35248177230E+01  0.96290280108E+01  0.37134944836E+02  0.51100000000E-03 0.  1.
        -12    1    3    3    0    0 -0.47705347047E+01 -0.52186237037E+01  0.27862677632E+01  0.75996922818E+01  0.00000000000E+00 0.  1.
</event>
<event>
 7    1  0.9978258E-013  0.5052886E+02  0.7816164E-02  0.1300439E+00
        -11   -1    0    0    0    0  0.00000000000E+00  0.00000000000E+00  0.45593999997E+02  0.45594000000E+02  0.51100000000E-03 0.  1.
         11   -1    0    0    0    0 -0.00000000000E+00 -0.00000000000E+00 -0.45593999997E+02  0.45594000000E+02  0.51100000000E-03 0. -1.
    9900012    2    1    2    0    0  0.22161773069E+02  0.29139676094E+02 -0.17688999341E+02  0.50528860731E+02  0.30000002677E+02 0.  0.
        -12    1    1    2    0    0 -0.22161773069E+02 -0.29139676094E+02  0.17688999341E+02  0.40659139269E+02  0.00000000000E+00 0.  1.
         11    1    3    3    0    0  0.16731153767E+02  0.23899796287E+02 -0.20953260308E+02  0.35918948853E+02  0.51100000000E-03 0. -1.
        -11    1    3    3    0    0  0.64160350922E+01  0.83446821807E+01  0.40171289360E+01  0.11266612275E+02  0.51100000000E-03 0.  1.
         12    1    3    3    0    0 -0.98541578947E+00 -0.31048023734E+01 -0.75286796877E+00  0.33432996028E+01  0.00000000000E+00 0. -1.
</event>
<event>
 7    1  0.9978258E-013  0.5052886E+02  0.7816164E-02  0.1300439E+00
        -11   -1    0    0    0    0  0.00000000000E+00  0.00000000000E+00  0.45593999997E+02  0.45594000000E+02  0.51100000000E-03 0.  1.
         11   -1    0    0    0    0 -0.00000000000E+00 -0.00000000000E+00 -0.45593999997E+02  0.45594000000E+02  0.51100000000E-03 0. -1.
    9900012    2    1    2    0    0  0.84955273767E+01  0.29646314784E+02 -0.26496936818E+02  0.50528860481E+02  0.30000001919E+02 0.  0.
        -12    1    1    2    0    0 -0.84955273767E+01 -0.29646314784E+02  0.26496936818E+02  0.40659139519E+02  0.00000000000E+00 0.  1.
         11    1    3    3    0    0  0.86231521547E+01  0.17593277564E+02 -0.20944092238E+02  0.28679908794E+02  0.51100000000E-03 0. -1.
        -11    1    3    3    0    0 -0.86025327866E+01  0.70035073860E+01 -0.43309231309E+01  0.11908382824E+02  0.51100000000E-03 0.  1.
        -12    1    3    3    0    0  0.84749080086E+01  0.50495298342E+01 -0.12219214493E+01  0.99405688634E+01  0.00000000000E+00 0.  1.
</event>
<event>
 7    1  0.9978258E-013  0.5052886E+02  0.7816164E-02  0.1300439E+00
        -11   -1    0    0    0    0  0.00000000000E+00  0.00000000000E+00  0.45593999997E+02  0.45594000000E+02  0.51100000000E-03 0. -1.
         11   -1    0    0    0    0 -0.00000000000E+00 -0.00000000000E+00 -0.45593999997E+02  0.45594000000E+02  0.51100000000E-03 0.  1.
    9900012    2    1    2    0    0 -0.33857523085E+02 -0.18238950098E+02  0.13197521664E+02  0.50528858983E+02  0.29999997365E+02 0.  0.
        -12    1    1    2    0    0  0.33857523085E+02  0.18238950098E+02 -0.13197521664E+02  0.40659141017E+02  0.00000000000E+00 0.  1.
         11    1    3    3    0    0 -0.21396088289E+02 -0.16170015344E+02  0.14971291938E+02  0.30714842876E+02  0.51100000000E-03 0. -1.
        -11    1    3    3    0    0 -0.25320474323E+01  0.61890797456E+01 -0.16978054592E+01  0.68991677712E+01  0.51100000000E-03 0.  1.
        -12    1    3    3    0    0 -0.99293873637E+01 -0.82580144996E+01 -0.75964815492E-01  0.12914848336E+02  0.00000000000E+00 0.  1.
</event>
<event>
 7    1  0.1110359E-012  0.5052886E+02  0.7816164E-02  0.1300439E+00
        -11   -1    0    0    0    0  0.00000000000E+00  0.00000000000E+00  0.45593999997E+02  0.45594000000E+02  0.51100000000E-03 0.  1.
         11   -1    0    0    0    0 -0.00000000000E+00 -0.00000000000E+00 -0.45593999997E+02  0.45594000000E+02  0.51100000000E-03 0. -1.
    9900012    2    1    2    0    0 -0.29828155689E+02 -0.27531645307E+02 -0.23357133017E+01  0.50528856849E+02  0.29999990878E+02 0.  0.
        -12    1    1    2    0    0  0.29828155689E+02  0.27531645307E+02  0.23357133017E+01  0.40659143151E+02  0.00000000000E+00 0.  1.
         11    1    3    3    0    0 -0.11138252560E+02 -0.36846205471E+01 -0.94051951921E+01  0.15036448900E+02  0.51100000000E-03 0. -1.
        -11    1    3    3    0    0 -0.19309988531E+01 -0.14825876808E+02  0.68816833108E+01  0.16458825752E+02  0.51100000000E-03 0.  1.
         12    1    3    3    0    0 -0.16758904276E+02 -0.90211479520E+01  0.18779857957E+00  0.19033582196E+02  0.00000000000E+00 0. -1.
</event>
<event>
 7    1  0.9978258E-013  0.5052887E+02  0.7816164E-02  0.1300439E+00
        -11   -1    0    0    0    0  0.00000000000E+00  0.00000000000E+00  0.45593999997E+02  0.45594000000E+02  0.51100000000E-03 0.  1.
         11   -1    0    0    0    0 -0.00000000000E+00 -0.00000000000E+00 -0.45593999997E+02  0.45594000000E+02  0.51100000000E-03 0. -1.
    9900012    2    1    2    0    0 -0.26387320327E+02 -0.16442640648E+02 -0.26201407497E+02  0.50528869902E+02  0.30000030554E+02 0.  0.
        -12    1    1    2    0    0  0.26387320327E+02  0.16442640648E+02  0.26201407497E+02  0.40659130098E+02  0.00000000000E+00 0.  1.
         11    1    3    3    0    0 -0.18188261072E+02 -0.79078212590E+01 -0.26505162616E+01  0.20009290707E+02  0.51100000000E-03 0. -1.
        -11    1    3    3    0    0  0.23646569362E+01 -0.52597604221E+01 -0.16312088199E+02  0.17301471145E+02  0.51100000000E-03 0.  1.
        -12    1    3    3    0    0 -0.10563716191E+02 -0.32750589668E+01 -0.72388030363E+01  0.13218108049E+02  0.00000000000E+00 0.  1.
</event>
<event>
 7    1  0.9978258E-013  0.5052879E+02  0.7816164E-02  0.1300439E+00
        -11   -1    0    0    0    0  0.00000000000E+00  0.00000000000E+00  0.45593999997E+02  0.45594000000E+02  0.51100000000E-03 0.  1.
         11   -1    0    0    0    0 -0.00000000000E+00 -0.00000000000E+00 -0.45593999997E+02  0.45594000000E+02  0.51100000000E-03 0. -1.
    9900012    2    1    2    0    0 -0.35538222736E+02 -0.80813798946E+01 -0.18024900338E+02  0.50528794296E+02  0.29999800742E+02 0.  0.
        -12    1    1    2    0    0  0.35538222736E+02  0.80813798946E+01  0.18024900338E+02  0.40659205704E+02  0.00000000000E+00 0.  1.
         11    1    3    3    0    0 -0.30230379662E+02 -0.75900757605E+00 -0.45438590015E+01  0.30579381973E+02  0.51100000000E-03 0. -1.
        -11    1    3    3    0    0 -0.87476418314E+01 -0.65134142923E+01 -0.84271634019E+01  0.13782702442E+02  0.51100000000E-03 0.  1.
         12    1    3    3    0    0  0.34397987565E+01 -0.80895802625E+00 -0.50538779346E+01  0.61667098805E+01  0.00000000000E+00 0. -1.
</event>
<event>
 7    1  0.9978258E-013  0.5052886E+02  0.7816164E-02  0.1300439E+00
        -11   -1    0    0    0    0  0.00000000000E+00  0.00000000000E+00  0.45593999997E+02  0.45594000000E+02  0.51100000000E-03 0.  1.
         11   -1    0    0    0    0 -0.00000000000E+00 -0.00000000000E+00 -0.45593999997E+02  0.45594000000E+02  0.51100000000E-03 0. -1.
    9900012    2    1    2    0    0  0.69140095383E+01  0.32423676806E+02 -0.23538640680E+02  0.50528856494E+02  0.29999989800E+02 0.  0.
        -12    1    1    2    0    0 -0.69140095383E+01 -0.32423676806E+02  0.23538640680E+02  0.40659143506E+02  0.00000000000E+00 0.  1.
         11    1    3    3    0    0 -0.28542265164E+01  0.27253076250E+00 -0.71503540760E+01  0.77037942403E+01  0.51100000000E-03 0. -1.
        -11    1    3    3    0    0  0.14232723184E+02  0.24539526506E+02 -0.18349365492E+02  0.33785470022E+02  0.51100000000E-03 0.  1.
        -12    1    3    3    0    0 -0.44644871296E+01  0.76116195378E+01  0.19610788877E+01  0.90395922321E+01  0.00000000000E+00 0.  1.
</event>
<event>
 7    1  0.9978258E-013  0.5052876E+02  0.7816164E-02  0.1300439E+00
        -11   -1    0    0    0    0  0.00000000000E+00  0.00000000000E+00  0.45593999997E+02  0.45594000000E+02  0.51100000000E-03 0.  1.
         11   -1    0    0    0    0 -0.00000000000E+00 -0.00000000000E+00 -0.45593999997E+02  0.45594000000E+02  0.51100000000E-03 0. -1.
    9900012    2    1    2    0    0 -0.15279683382E+02  0.23859788006E+02 -0.29161885712E+02  0.50528760137E+02  0.29999696912E+02 0.  0.
        -12    1    1    2    0    0  0.15279683382E+02 -0.23859788006E+02  0.29161885712E+02  0.40659239863E+02  0.00000000000E+00 0.  1.
         11    1    3    3    0    0 -0.37770417503E+01  0.13344109856E+01  0.17106303719E+01  0.43557954030E+01  0.51100000000E-03 0. -1.
        -11    1    3    3    0    0 -0.46784990909E+01  0.18072956256E+02 -0.32853702926E+02  0.37787377493E+02  0.51100000000E-03 0.  1.
        -12    1    3    3    0    0 -0.68241425411E+01  0.44524207644E+01  0.19811868422E+01  0.83855872417E+01  0.00000000000E+00 0.  1.
</event>
<event>
 7    1  0.1181511E-012  0.5052886E+02  0.7816164E-02  0.1300439E+00
        -11   -1    0    0    0    0  0.00000000000E+00  0.00000000000E+00  0.45593999997E+02  0.45594000000E+02  0.51100000000E-03 0. -1.
         11   -1    0    0    0    0 -0.00000000000E+00 -0.00000000000E+00 -0.45593999997E+02  0.45594000000E+02  0.51100000000E-03 0.  1.
    9900012    2    1    2    0    0  0.31789926092E+02 -0.95919137081E+01  0.23464041886E+02  0.50528862391E+02  0.30000007724E+02 0.  0.
        -12    1    1    2    0    0 -0.31789926092E+02  0.95919137081E+01 -0.23464041886E+02  0.40659137609E+02  0.00000000000E+00 0.  1.
         11    1    3    3    0    0  0.32713348597E+02 -0.78027916577E+01  0.15994135627E+02  0.37240557310E+02  0.51100000000E-03 0. -1.
        -11    1    3    3    0    0 -0.15277455915E+01  0.10927933526E+01 -0.23660786856E+01  0.30210151458E+01  0.51100000000E-03 0.  1.
         12    1    3    3    0    0  0.60432308633E+00 -0.28819154030E+01  0.98359849445E+01  0.10267289935E+02  0.00000000000E+00 0. -1.
</event>
<event>
 7    1  0.9978258E-013  0.5052886E+02  0.7816164E-02  0.1300439E+00
        -11   -1    0    0    0    0  0.00000000000E+00  0.00000000000E+00  0.45593999997E+02  0.45594000000E+02  0.51100000000E-03 0.  1.
         11   -1    0    0    0    0 -0.00000000000E+00 -0.00000000000E+00 -0.45593999997E+02  0.45594000000E+02  0.51100000000E-03 0. -1.
    9900012    2    1    2    0    0  0.14455408905E+02  0.78284639066E+01 -0.37187654309E+02  0.50528864166E+02  0.30000013119E+02 0.  0.
        -12    1    1    2    0    0 -0.14455408905E+02 -0.78284639066E+01  0.37187654309E+02  0.40659135834E+02  0.00000000000E+00 0.  1.
         11    1    3    3    0    0  0.11800719166E+02 -0.96810767006E+00 -0.21877545486E+02  0.24876117102E+02  0.51100000000E-03 0. -1.
        -11    1    3    3    0    0 -0.42538601871E+01  0.51142817891E+00  0.24036767754E+01  0.49126924975E+01  0.51100000000E-03 0.  1.
        -12    1    3    3    0    0  0.69085499268E+01  0.82851433978E+01 -0.17713785598E+02  0.20740054567E+02  0.00000000000E+00 0.  1.
</event>
<event>
 7    1  0.9978258E-013  0.5052886E+02  0.7816164E-02  0.1300439E+00
        -11   -1    0    0    0    0  0.00000000000E+00  0.00000000000E+00  0.45593999997E+02  0.45594000000E+02  0.51100000000E-03 0.  1.
         11   -1    0    0    0    0 -0.00000000000E+00 -0.00000000000E+00 -0.45593999997E+02  0.45594000000E+02  0.51100000000E-03 0. -1.
    9900012    2    1    2    0    0  0.17957113774E+02 -0.17227234439E+02 -0.32154786378E+02  0.50528857996E+02  0.29999994366E+02 0.  0.
        -12    1    1    2    0    0 -0.17957113774E+02  0.17227234439E+02  0.32154786378E+02  0.40659142004E+02  0.00000000000E+00 0.  1.
         11    1    3    3    0    0  0.19732638893E+02 -0.96875417539E+01 -0.79401513342E+01  0.23372451869E+02  0.51100000000E-03 0. -1.
        -11    1    3    3    0    0 -0.52676237334E+01 -0.62063099580E+01 -0.13031562071E+02  0.15365147359E+02  0.51100000000E-03 0.  1.
         12    1    3    3    0    0  0.34920986139E+01 -0.13333827269E+01 -0.11183072972E+02  0.11791258768E+02  0.00000000000E+00 0. -1.
</event>
<event>
 7    1  0.9978258E-013  0.5052885E+02  0.7816164E-02  0.1300439E+00
        -11   -1    0    0    0    0  0.00000000000E+00  0.00000000000E+00  0.45593999997E+02  0.45594000000E+02  0.51100000000E-03 0. -1.
         11   -1    0    0    0    0 -0.00000000000E+00 -0.00000000000E+00 -0.45593999997E+02  0.45594000000E+02  0.51100000000E-03 0.  1.
    9900012    2    1    2    0    0 -0.19490187934E+02  0.26797229326E+02  0.23562835852E+02  0.50528853936E+02  0.29999982023E+02 0.  0.
        -12    1    1    2    0    0  0.19490187934E+02 -0.26797229326E+02 -0.23562835852E+02  0.40659146064E+02  0.00000000000E+00 0.  1.
         11    1    3    3    0    0 -0.14047291150E+02  0.21481842917E+02  0.10388265762E+02  0.27689565355E+02  0.51100000000E-03 0. -1.
        -11    1    3    3    0    0  0.21389013998E+01  0.27975993048E+01  0.14339754909E+02  0.14765840044E+02  0.51100000000E-03 0.  1.
        -12    1    3    3    0    0 -0.75817981846E+01  0.25177871043E+01 -0.11651848197E+01  0.80734485370E+01  0.00000000000E+00 0.  1.
</event>
<event>
 7    1  0.9978258E-013  0.5052886E+02  0.7816164E-02  0.1300439E+00
        -11   -1    0    0    0    0  0.00000000000E+00  0.00000000000E+00  0.45593999997E+02  0.45594000000E+02  0.51100000000E-03 0.  1.
         11   -1    0    0    0    0 -0.00000000000E+00 -0.00000000000E+00 -0.45593999997E+02  0.45594000000E+02  0.51100000000E-03 0. -1.
    9900012    2    1    2    0    0 -0.27578061072E+01 -0.10323797381E+02 -0.39229827117E+02  0.50528860529E+02  0.30000002064E+02 0.  0.
        -12    1    1    2    0    0  0.27578061072E+01  0.10323797381E+02  0.39229827117E+02  0.40659139471E+02  0.00000000000E+00 0.  1.
         11    1    3    3    0    0  0.97698415371E+01 -0.72025541612E+01 -0.21442235163E+02  0.24639318967E+02  0.51100000000E-03 0. -1.
        -11    1    3    3    0    0 -0.44704415786E+01  0.49582347196E+01 -0.10186425302E+02  0.12179170749E+02  0.51100000000E-03 0.  1.
         12    1    3    3    0    0 -0.80572060657E+01 -0.80794779393E+01 -0.76011666518E+01  0.13710370813E+02  0.00000000000E+00 0. -1.
</event>
<event>
 7    1  0.9978258E-013  0.5052885E+02  0.7816164E-02  0.1300439E+00
        -11   -1    0    0    0    0  0.00000000000E+00  0.00000000000E+00  0.45593999997E+02  0.45594000000E+02  0.51100000000E-03 0. -1.
         11   -1    0    0    0    0 -0.00000000000E+00 -0.00000000000E+00 -0.45593999997E+02  0.45594000000E+02  0.51100000000E-03 0.  1.
    9900012    2    1    2    0    0 -0.28932665062E+02 -0.18516568288E+02  0.21753256468E+02  0.50528848808E+02  0.29999966436E+02 0.  0.
        -12    1    1    2    0    0  0.28932665062E+02  0.18516568288E+02 -0.21753256468E+02  0.40659151192E+02  0.00000000000E+00 0.  1.
         11    1    3    3    0    0 -0.62852300500E+01 -0.19245798157E+02  0.63315819211E+01  0.21213057143E+02  0.51100000000E-03 0. -1.
        -11    1    3    3    0    0 -0.78594623511E+01  0.81255506779E+00 -0.66229631261E-01  0.79016315284E+01  0.51100000000E-03 0.  1.
         12    1    3    3    0    0 -0.14787972661E+02 -0.83325198803E-01  0.15487904178E+02  0.21414160136E+02  0.00000000000E+00 0. -1.
</event>
<event>
 7    1  0.9978258E-013  0.5052886E+02  0.7816164E-02  0.1300439E+00
        -11   -1    0    0    0    0  0.00000000000E+00  0.00000000000E+00  0.45593999997E+02  0.45594000000E+02  0.51100000000E-03 0.  1.
         11   -1    0    0    0    0 -0.00000000000E+00 -0.00000000000E+00 -0.45593999997E+02  0.45594000000E+02  0.51100000000E-03 0. -1.
    9900012    2    1    2    0    0 -0.25014039572E+02 -0.30119463200E+02 -0.10967293770E+02  0.50528858693E+02  0.29999996482E+02 0.  0.
        -12    1    1    2    0    0  0.25014039572E+02  0.30119463200E+02  0.10967293770E+02  0.40659141307E+02  0.00000000000E+00 0.  1.
         11    1    3    3    0    0 -0.55492689781E+01 -0.14392892177E+02 -0.99052134798E+01  0.18332020777E+02  0.51100000000E-03 0. -1.
        -11    1    3    3    0    0  0.20166484628E+01 -0.35567167353E+01  0.53069952081E+01  0.66993509654E+01  0.51100000000E-03 0.  1.
        -12    1    3    3    0    0 -0.21481419057E+02 -0.12169854288E+02 -0.63690754988E+01  0.25497486951E+02  0.00000000000E+00 0.  1.
</event>
<event>
 7    1  0.9978258E-013  0.5052885E+02  0.7816164E-02  0.1300439E+00
        -11   -1    0    0    0    0  0.00000000000E+00  0.00000000000E+00  0.45593999997E+02  0.45594000000E+02  0.51100000000E-03 0.  1.
         11   -1    0    0    0    0 -0.00000000000E+00 -0.00000000000E+00 -0.45593999997E+02  0.45594000000E+02  0.51100000000E-03 0. -1.
    9900012    2    1    2    0    0  0.29234896848E+02  0.27652093223E+02  0.58179660559E+01  0.50528853645E+02  0.29999981138E+02 0.  0.
        -12    1    1    2    0    0 -0.29234896848E+02 -0.27652093223E+02 -0.58179660559E+01  0.40659146355E+02  0.00000000000E+00 0.  1.
         11    1    3    3    0    0  0.38333116144E+01  0.26073655749E+01 -0.65845712243E+01  0.80529008216E+01  0.51100000000E-03 0. -1.
        -11    1    3    3    0    0  0.26139367385E+02  0.25175587966E+02  0.69236823996E+01  0.36946097696E+02  0.51100000000E-03 0.  1.
        -12    1    3    3    0    0 -0.73778215116E+00 -0.13086031800E+00  0.54788548806E+01  0.55298551273E+01  0.00000000000E+00 0.  1.
</event>
<event>
 7    1  0.9978258E-013  0.5052887E+02  0.7816164E-02  0.1300439E+00
        -11   -1    0    0    0    0  0.00000000000E+00  0.00000000000E+00  0.45593999997E+02  0.45594000000E+02  0.51100000000E-03 0. -1.
         11   -1    0    0    0    0 -0.00000000000E+00 -0.00000000000E+00 -0.45593999997E+02  0.45594000000E+02  0.51100000000E-03 0.  1.
    9900012    2    1    2    0    0 -0.27667908558E+02  0.20202453045E+02  0.21897784310E+02  0.50528865347E+02  0.30000016709E+02 0.  0.
        -12    1    1    2    0    0  0.27667908558E+02 -0.20202453045E+02 -0.21897784310E+02  0.40659134653E+02  0.00000000000E+00 0.  1.
         11    1    3    3    0    0  0.30502692685E+01  0.87204980756E+01  0.45184240062E+01  0.10284327156E+02  0.51100000000E-03 0.  1.
        -11    1    3    3    0    0 -0.18460355381E+02  0.10989898830E+02  0.17902970239E+02  0.27965674330E+02  0.51100000000E-03 0. -1.
         12    1    3    3    0    0 -0.12257822446E+02  0.49205613946E+00 -0.52360993468E+00  0.12278863861E+02  0.00000000000E+00 0. -1.
</event>
<event>
 7    1  0.9978258E-013  0.5052886E+02  0.7816164E-02  0.1300439E+00
        -11   -1    0    0    0    0  0.00000000000E+00  0.00000000000E+00  0.45593999997E+02  0.45594000000E+02  0.51100000000E-03 0. -1.
         11   -1    0    0    0    0 -0.00000000000E+00 -0.00000000000E+00 -0.45593999997E+02  0.45594000000E+02  0.51100000000E-03 0.  1.
    9900012    2    1    2    0    0  0.80400054246E+01  0.39839385609E+02 -0.11608545102E+01  0.50528856919E+02  0.29999991091E+02 0.  0.
        -12    1    1    2    0    0 -0.80400054246E+01 -0.39839385609E+02  0.11608545102E+01  0.40659143081E+02  0.00000000000E+00 0.  1.
         11    1    3    3    0    0  0.29862541572E+01  0.23398226430E+02 -0.27000508130E+01  0.23742051062E+02  0.51100000000E-03 0. -1.
        -11    1    3    3    0    0  0.10816838815E+02  0.30591906347E+01 -0.27992875054E+01  0.11584414534E+02  0.51100000000E-03 0.  1.
        -12    1    3    3    0    0 -0.57630875478E+01  0.13381968544E+02  0.43384838082E+01  0.15202391323E+02  0.00000000000E+00 0.  1.
</event>
<event>
 7    1  0.9978258E-013  0.5052882E+02  0.7816164E-02  0.1300439E+00
        -11   -1    0    0    0    0  0.00000000000E+00  0.00000000000E+00  0.45593999997E+02  0.45594000000E+02  0.51100000000E-03 0. -1.
         11   -1    0    0    0    0 -0.00000000000E+00 -0.00000000000E+00 -0.45593999997E+02  0.45594000000E+02  0.51100000000E-03 0.  1.
    9900012    2    1    2    0    0 -0.15422653793E+02  0.67505297728E+01  0.37010009495E+02  0.50528822622E+02  0.29999886841E+02 0.  0.
        -12    1    1    2    0    0  0.15422653793E+02 -0.67505297728E+01 -0.37010009495E+02  0.40659177378E+02  0.00000000000E+00 0.  1.
         11    1    3    3    0    0 -0.17909237903E+02  0.86533734002E+01  0.22821296229E+02  0.30272648303E+02  0.51100000000E-03 0. -1.
        -11    1    3    3    0    0  0.75992269264E+01 -0.70617291942E+00  0.12668372879E+02  0.14789678892E+02  0.51100000000E-03 0.  1.
         12    1    3    3    0    0 -0.51126428166E+01 -0.11966707080E+01  0.15203403881E+01  0.54664954266E+01  0.00000000000E+00 0. -1.
</event>
<event>
 7    1  0.9978258E-013  0.5052886E+02  0.7816164E-02  0.1300439E+00
        -11   -1    0    0    0    0  0.00000000000E+00  0.00000000000E+00  0.45593999997E+02  0.45594000000E+02  0.51100000000E-03 0. -1.
         11   -1    0    0    0    0 -0.00000000000E+00 -0.00000000000E+00 -0.45593999997E+02  0.45594000000E+02  0.51100000000E-03 0.  1.
    9900012    2    1    2    0    0 -0.28496464904E+02  0.13789627238E+02  0.25513982059E+02  0.50528860659E+02  0.30000002460E+02 0.  0.
        -12    1    1    2    0    0  0.28496464904E+02 -0.13789627238E+02 -0.25513982059E+02  0.40659139341E+02  0.00000000000E+00 0.  1.
         11    1    3    3    0    0 -0.42027242467E+01  0.69158589630E+01  0.21587652032E+02  0.23054689692E+02  0.51100000000E-03 0. -1.
        -11    1    3    3    0    0 -0.20414801638E+01  0.26975242617E+01 -0.21798733006E+01  0.40244411127E+01  0.51100000000E-03 0.  1.
         12    1    3    3    0    0 -0.22252260494E+02  0.41762440133E+01  0.61062033278E+01  0.23449729854E+02  0.00000000000E+00 0. -1.
</event>
<event>
 7    1  0.9978258E-013  0.5052885E+02  0.7816164E-02  0.1300439E+00
        -11   -1    0    0    0    0  0.00000000000E+00  0.00000000000E+00  0.45593999997E+02  0.45594000000E+02  0.51100000000E-03 0.  1.
         11   -1    0    0    0    0 -0.00000000000E+00 -0.00000000000E+00 -0.45593999997E+02  0.45594000000E+02  0.51100000000E-03 0. -1.
    9900012    2    1    2    0    0 -0.12717082862E+02 -0.37887776614E+02 -0.74805322925E+01  0.50528853715E+02  0.29999981351E+02 0.  0.
        -12    1    1    2    0    0  0.12717082862E+02  0.37887776614E+02  0.74805322925E+01  0.40659146285E+02  0.00000000000E+00 0.  1.
         11    1    3    3    0    0 -0.14119841094E+02 -0.23272501112E+02  0.64536364531E+01  0.27975500787E+02  0.51100000000E-03 0. -1.
        -11    1    3    3    0    0  0.33388949100E-01 -0.72176338853E+00  0.15467335523E+01  0.17071737328E+01  0.51100000000E-03 0.  1.
         12    1    3    3    0    0  0.13693692832E+01 -0.13893512114E+02 -0.15480902298E+02  0.20846179195E+02  0.00000000000E+00 0. -1.
</event>
<event>
 7    1  0.9978258E-013  0.5052886E+02  0.7816164E-02  0.1300439E+00
        -11   -1    0    0    0    0  0.00000000000E+00  0.00000000000E+00  0.45593999997E+02  0.45594000000E+02  0.51100000000E-03 0.  1.
         11   -1    0    0    0    0 -0.00000000000E+00 -0.00000000000E+00 -0.45593999997E+02  0.45594000000E+02  0.51100000000E-03 0. -1.
    9900012    2    1    2    0    0 -0.34523531265E+01  0.26558922827E+02 -0.30591997998E+02  0.50528862462E+02  0.30000007938E+02 0.  0.
        -12    1    1    2    0    0  0.34523531265E+01 -0.26558922827E+02  0.30591997998E+02  0.40659137538E+02  0.00000000000E+00 0.  1.
         11    1    3    3    0    0  0.25224666555E+01 -0.13302640649E+01 -0.16710939601E+02  0.16952520258E+02  0.51100000000E-03 0. -1.
        -11    1    3    3    0    0 -0.18123793368E+01  0.84714998415E+01  0.10555978048E+01  0.87272742258E+01  0.51100000000E-03 0.  1.
         12    1    3    3    0    0 -0.41624404452E+01  0.19417687050E+02 -0.14936656202E+02  0.24849067977E+02  0.00000000000E+00 0. -1.
</event>
<event>
 7    1  0.9978258E-013  0.5052886E+02  0.7816164E-02  0.1300439E+00
        -11   -1    0    0    0    0  0.00000000000E+00  0.00000000000E+00  0.45593999997E+02  0.45594000000E+02  0.51100000000E-03 0. -1.
         11   -1    0    0    0    0 -0.00000000000E+00 -0.00000000000E+00 -0.45593999997E+02  0.45594000000E+02  0.51100000000E-03 0.  1.
    9900012    2    1    2    0    0 -0.17885532879E+02 -0.21782903581E+02  0.29304924401E+02  0.50528858729E+02  0.29999996591E+02 0.  0.
        -12    1    1    2    0    0  0.17885532879E+02  0.21782903581E+02 -0.29304924401E+02  0.40659141271E+02  0.00000000000E+00 0.  1.
         11    1    3    3    0    0 -0.18272136514E+02 -0.17301773920E+02  0.16318323416E+02  0.29991832771E+02  0.51100000000E-03 0. -1.
        -11    1    3    3    0    0  0.73393367270E+01 -0.48565740811E+01  0.58573016685E+01  0.10571667725E+02  0.51100000000E-03 0.  1.
        -12    1    3    3    0    0 -0.69527330923E+01  0.37544442006E+00  0.71292993160E+01  0.99653582325E+01  0.00000000000E+00 0.  1.
</event>
<event>
 7    1  0.9978258E-013  0.5052885E+02  0.7816164E-02  0.1300439E+00
        -11   -1    0    0    0    0  0.00000000000E+00  0.00000000000E+00  0.45593999997E+02  0.45594000000E+02  0.51100000000E-03 0.  1.
         11   -1    0    0    0    0 -0.00000000000E+00 -0.00000000000E+00 -0.45593999997E+02  0.45594000000E+02  0.51100000000E-03 0. -1.
    9900012    2    1    2    0    0  0.25545458541E+02  0.18782743660E+02 -0.25452008128E+02  0.50528848149E+02  0.29999964433E+02 0.  0.
        -12    1    1    2    0    0 -0.25545458541E+02 -0.18782743660E+02  0.25452008128E+02  0.40659151851E+02  0.00000000000E+00 0.  1.
         11    1    3    3    0    0  0.26159148971E+02  0.15091678655E+02 -0.79279992622E+01  0.31223597040E+02  0.51100000000E-03 0. -1.
        -11    1    3    3    0    0  0.23953398442E+01 -0.86349334290E+00 -0.70197577171E+01  0.74672801200E+01  0.51100000000E-03 0.  1.
         12    1    3    3    0    0 -0.30090302745E+01  0.45545583482E+01 -0.10504251149E+02  0.11837970989E+02  0.00000000000E+00 0. -1.
</event>
<event>
 7    1  0.9978258E-013  0.5052886E+02  0.7816164E-02  0.1300439E+00
        -11   -1    0    0    0    0  0.00000000000E+00  0.00000000000E+00  0.45593999997E+02  0.45594000000E+02  0.51100000000E-03 0.  1.
         11   -1    0    0    0    0 -0.00000000000E+00 -0.00000000000E+00 -0.45593999997E+02  0.45594000000E+02  0.51100000000E-03 0. -1.
    9900012    2    1    2    0    0 -0.17187015057E+02 -0.14009393208E+01 -0.36821316887E+02  0.50528862099E+02  0.30000006835E+02 0.  0.
        -12    1    1    2    0    0  0.17187015057E+02  0.14009393208E+01  0.36821316887E+02  0.40659137901E+02  0.00000000000E+00 0.  1.
         11    1    3    3    0    0 -0.11083270579E+02  0.40085623249E+00 -0.28344465665E+02  0.30436956262E+02  0.51100000000E-03 0. -1.
        -11    1    3    3    0    0 -0.17483391180E+01  0.21990066040E+01  0.47976103572E+01  0.55596209508E+01  0.51100000000E-03 0.  1.
         12    1    3    3    0    0 -0.43554053605E+01 -0.40008021573E+01 -0.13274461580E+02  0.14532284886E+02  0.00000000000E+00 0. -1.
</event>
<event>
 7    1  0.9978258E-013  0.5052885E+02  0.7816164E-02  0.1300439E+00
        -11   -1    0    0    0    0  0.00000000000E+00  0.00000000000E+00  0.45593999997E+02  0.45594000000E+02  0.51100000000E-03 0.  1.
         11   -1    0    0    0    0 -0.00000000000E+00 -0.00000000000E+00 -0.45593999997E+02  0.45594000000E+02  0.51100000000E-03 0. -1.
    9900012    2    1    2    0    0 -0.58437787074E-01 -0.40092945681E+02 -0.67615667928E+01  0.50528849814E+02  0.29999969495E+02 0.  0.
        -12    1    1    2    0    0  0.58437787074E-01  0.40092945681E+02  0.67615667928E+01  0.40659150186E+02  0.00000000000E+00 0.  1.
         11    1    3    3    0    0 -0.14924784897E+01 -0.74841041911E+01  0.82414245474E+01  0.11232114067E+02  0.51100000000E-03 0. -1.
        -11    1    3    3    0    0  0.93818211800E-01 -0.52388558272E+01 -0.10212715833E+02  0.11478413531E+02  0.51100000000E-03 0.  1.
         12    1    3    3    0    0  0.13402224908E+01 -0.27369985663E+02 -0.47902755071E+01  0.27818322216E+02  0.00000000000E+00 0. -1.
</event>
<event>
 7    1  0.9978258E-013  0.5052886E+02  0.7816164E-02  0.1300439E+00
        -11   -1    0    0    0    0  0.00000000000E+00  0.00000000000E+00  0.45593999997E+02  0.45594000000E+02  0.51100000000E-03 0. -1.
         11   -1    0    0    0    0 -0.00000000000E+00 -0.00000000000E+00 -0.45593999997E+02  0.45594000000E+02  0.51100000000E-03 0.  1.
    9900012    2    1    2    0    0 -0.35232806257E+02  0.12542108851E+02  0.15953382415E+02  0.50528861524E+02  0.30000005088E+02 0.  0.
        -12    1    1    2    0    0  0.35232806257E+02 -0.12542108851E+02 -0.15953382415E+02  0.40659138476E+02  0.00000000000E+00 0.  1.
         11    1    3    3    0    0 -0.57090684524E+01 -0.43608205331E+01  0.12502528911E+02  0.14419550886E+02  0.51100000000E-03 0. -1.
        -11    1    3    3    0    0 -0.72559421064E+01  0.65724029950E+01  0.59155655328E+01  0.11438491719E+02  0.51100000000E-03 0.  1.
         12    1    3    3    0    0 -0.22267795698E+02  0.10330526389E+02 -0.24647120296E+01  0.24670818918E+02  0.00000000000E+00 0. -1.
</event>
<event>
 7    1  0.9978258E-013  0.5052885E+02  0.7816164E-02  0.1300439E+00
        -11   -1    0    0    0    0  0.00000000000E+00  0.00000000000E+00  0.45593999997E+02  0.45594000000E+02  0.51100000000E-03 0.  1.
         11   -1    0    0    0    0 -0.00000000000E+00 -0.00000000000E+00 -0.45593999997E+02  0.45594000000E+02  0.51100000000E-03 0. -1.
    9900012    2    1    2    0    0  0.26153637281E+01 -0.52964763745E+01 -0.40227771873E+02  0.50528850731E+02  0.29999972281E+02 0.  0.
        -12    1    1    2    0    0 -0.26153637281E+01  0.52964763745E+01  0.40227771873E+02  0.40659149269E+02  0.00000000000E+00 0.  1.
         11    1    3    3    0    0  0.67247884478E+01  0.66529606245E+01 -0.34965144733E+01  0.10085151385E+02  0.51100000000E-03 0.  1.
        -11    1    3    3    0    0 -0.43729633860E+01 -0.13661792301E+02 -0.35582035177E+02  0.38364679137E+02  0.51100000000E-03 0. -1.
         12    1    3    3    0    0  0.26353866631E+00  0.17123553024E+01 -0.11492222225E+01  0.20790202084E+01  0.00000000000E+00 0. -1.
</event>
<event>
 7    1  0.9978258E-013  0.5052886E+02  0.7816164E-02  0.1300439E+00
        -11   -1    0    0    0    0  0.00000000000E+00  0.00000000000E+00  0.45593999997E+02  0.45594000000E+02  0.51100000000E-03 0. -1.
         11   -1    0    0    0    0 -0.00000000000E+00 -0.00000000000E+00 -0.45593999997E+02  0.45594000000E+02  0.51100000000E-03 0.  1.
    9900012    2    1    2    0    0 -0.34902029043E+02  0.51419405677E+01  0.20213223820E+02  0.50528860790E+02  0.30000002857E+02 0.  0.
        -12    1    1    2    0    0  0.34902029043E+02 -0.51419405677E+01 -0.20213223820E+02  0.40659139210E+02  0.00000000000E+00 0.  1.
         11    1    3    3    0    0 -0.97123158587E+01  0.36190389257E+01  0.34228258491E+00  0.10370326886E+02  0.51100000000E-03 0. -1.
        -11    1    3    3    0    0 -0.66512726010E+01 -0.10576389462E+02  0.95904733582E+01  0.15750448272E+02  0.51100000000E-03 0.  1.
        -12    1    3    3    0    0 -0.18538440583E+02  0.12099291104E+02  0.10280467877E+02  0.24408085632E+02  0.00000000000E+00 0.  1.
</event>
<event>
 7    1  0.9978258E-013  0.5052886E+02  0.7816164E-02  0.1300439E+00
        -11   -1    0    0    0    0  0.00000000000E+00  0.00000000000E+00  0.45593999997E+02  0.45594000000E+02  0.51100000000E-03 0.  1.
         11   -1    0    0    0    0 -0.00000000000E+00 -0.00000000000E+00 -0.45593999997E+02  0.45594000000E+02  0.51100000000E-03 0. -1.
    9900012    2    1    2    0    0 -0.69773423848E+01  0.54038204029E+00 -0.40052342878E+02  0.50528862164E+02  0.30000007035E+02 0.  0.
        -12    1    1    2    0    0  0.69773423848E+01 -0.54038204029E+00  0.40052342878E+02  0.40659137836E+02  0.00000000000E+00 0.  1.
         11    1    3    3    0    0  0.76100736580E+01  0.64226990997E+01 -0.93645591519E+01  0.13669647149E+02  0.51100000000E-03 0. -1.
        -11    1    3    3    0    0 -0.16395071361E+02 -0.35051068103E+01 -0.21918631678E+02  0.27595480673E+02  0.51100000000E-03 0.  1.
        -12    1    3    3    0    0  0.18076553185E+01 -0.23772102491E+01 -0.87691520484E+01  0.92637343424E+01  0.00000000000E+00 0.  1.
</event>
<event>
 7    1  0.9978258E-013  0.5052886E+02  0.7816164E-02  0.1300439E+00
        -11   -1    0    0    0    0  0.00000000000E+00  0.00000000000E+00  0.45593999997E+02  0.45594000000E+02  0.51100000000E-03 0.  1.
         11   -1    0    0    0    0 -0.00000000000E+00 -0.00000000000E+00 -0.45593999997E+02  0.45594000000E+02  0.51100000000E-03 0. -1.
    9900012    2    1    2    0    0 -0.61556678076E+01  0.33271374007E+02 -0.22545269989E+02  0.50528858674E+02  0.29999996427E+02 0.  0.
        -12    1    1    2    0    0  0.61556678076E+01 -0.33271374007E+02  0.22545269989E+02  0.40659141326E+02  0.00000000000E+00 0.  1.
         11    1    3    3    0    0 -0.69367647187E+01  0.57575225938E+01 -0.59209059527E+01  0.10785402113E+02  0.51100000000E-03 0. -1.
        -11    1    3    3    0    0  0.87602945924E+01  0.20338291415E+02 -0.29182772804E+01  0.22336185923E+02  0.51100000000E-03 0.  1.
        -12    1    3    3    0    0 -0.79791976813E+01  0.71755599977E+01 -0.13706086756E+02  0.17407270639E+02  0.00000000000E+00 0.  1.
</event>
<event>
 7    1  0.9978258E-013  0.5052886E+02  0.7816164E-02  0.1300439E+00
        -11   -1    0    0    0    0  0.00000000000E+00  0.00000000000E+00  0.45593999997E+02  0.45594000000E+02  0.51100000000E-03 0.  1.
         11   -1    0    0    0    0 -0.00000000000E+00 -0.00000000000E+00 -0.45593999997E+02  0.45594000000E+02  0.51100000000E-03 0. -1.
    9900012    2    1    2    0    0 -0.24905557319E+02  0.32043564174E+02 -0.24675993419E+01  0.50528857894E+02  0.29999994053E+02 0.  0.
        -12    1    1    2    0    0  0.24905557319E+02 -0.32043564174E+02  0.24675993419E+01  0.40659142106E+02  0.00000000000E+00 0.  1.
         11    1    3    3    0    0 -0.14789400623E+02  0.26740205402E+02 -0.62509200018E+01  0.31190366411E+02  0.51100000000E-03 0. -1.
        -11    1    3    3    0    0  0.28978517292E+01 -0.20649693192E+01 -0.89411020157E+00  0.36689339388E+01  0.51100000000E-03 0.  1.
        -12    1    3    3    0    0 -0.13014008425E+02  0.73683280905E+01  0.46774308614E+01  0.15669557543E+02  0.00000000000E+00 0.  1.
</event>
<event>
 7    1  0.9978258E-013  0.5052886E+02  0.7816164E-02  0.1300439E+00
        -11   -1    0    0    0    0  0.00000000000E+00  0.00000000000E+00  0.45593999997E+02  0.45594000000E+02  0.51100000000E-03 0.  1.
         11   -1    0    0    0    0 -0.00000000000E+00 -0.00000000000E+00 -0.45593999997E+02  0.45594000000E+02  0.51100000000E-03 0. -1.
    9900012    2    1    2    0    0 -0.12694604162E+02  0.22935649034E+02 -0.31080040689E+02  0.50528857109E+02  0.29999991667E+02 0.  0.
        -12    1    1    2    0    0  0.12694604162E+02 -0.22935649034E+02  0.31080040689E+02  0.40659142891E+02  0.00000000000E+00 0.  1.
         11    1    3    3    0    0  0.10814773593E+01  0.57130618112E+01 -0.25894146567E+02  0.26538942994E+02  0.51100000000E-03 0. -1.
        -11    1    3    3    0    0 -0.10475568534E+02  0.16900841440E+02 -0.55754654605E+01  0.20650951379E+02  0.51100000000E-03 0.  1.
         12    1    3    3    0    0 -0.33005129869E+01  0.32174578283E+00  0.38957133812E+00  0.33389627361E+01  0.00000000000E+00 0. -1.
</event>
<event>
 7    1  0.9978258E-013  0.5052886E+02  0.7816164E-02  0.1300439E+00
        -11   -1    0    0    0    0  0.00000000000E+00  0.00000000000E+00  0.45593999997E+02  0.45594000000E+02  0.51100000000E-03 0.  1.
         11   -1    0    0    0    0 -0.00000000000E+00 -0.00000000000E+00 -0.45593999997E+02  0.45594000000E+02  0.51100000000E-03 0. -1.
    9900012    2    1    2    0    0  0.38915422439E+02  0.11682692019E+02  0.15067654583E+01  0.50528859102E+02  0.29999997727E+02 0.  0.
        -12    1    1    2    0    0 -0.38915422439E+02 -0.11682692019E+02 -0.15067654583E+01  0.40659140898E+02  0.00000000000E+00 0.  1.
         11    1    3    3    0    0  0.91039023484E+01  0.11455744292E+02 -0.50281406589E+01  0.15472469551E+02  0.51100000000E-03 0. -1.
        -11    1    3    3    0    0  0.18965357407E+02  0.12895119684E+01  0.12384617149E+02  0.22687581732E+02  0.51100000000E-03 0.  1.
        -12    1    3    3    0    0  0.10846162684E+02 -0.10625642408E+01 -0.58497110314E+01  0.12368807819E+02  0.00000000000E+00 0.  1.
</event>
<event>
 7    1  0.9978258E-013  0.5052893E+02  0.7816164E-02  0.1300439E+00
        -11   -1    0    0    0    0  0.00000000000E+00  0.00000000000E+00  0.45593999997E+02  0.45594000000E+02  0.51100000000E-03 0.  1.
         11   -1    0    0    0    0 -0.00000000000E+00 -0.00000000000E+00 -0.45593999997E+02  0.45594000000E+02  0.51100000000E-03 0. -1.
    9900012    2    1    2    0    0  0.28480369992E+02 -0.28515856865E+02 -0.53734672159E+01  0.50528933145E+02  0.30000222788E+02 0.  0.
        -12    1    1    2    0    0 -0.28480369992E+02  0.28515856865E+02  0.53734672159E+01  0.40659066855E+02  0.00000000000E+00 0.  1.
         11    1    3    3    0    0  0.22067592654E+02 -0.17936418381E+02 -0.11964112595E+02  0.30851802871E+02  0.51100000000E-03 0. -1.
        -11    1    3    3    0    0  0.49844729829E+00  0.24770676794E+01 -0.17685120820E+01  0.30841448155E+01  0.51100000000E-03 0.  1.
         12    1    3    3    0    0  0.59143300390E+01 -0.13056506163E+02  0.83591574615E+01  0.16592985459E+02  0.00000000000E+00 0. -1.
</event>
<event>
 7    1  0.9978258E-013  0.5052886E+02  0.7816164E-02  0.1300439E+00
        -11   -1    0    0    0    0  0.00000000000E+00  0.00000000000E+00  0.45593999997E+02  0.45594000000E+02  0.51100000000E-03 0.  1.
         11   -1    0    0    0    0 -0.00000000000E+00 -0.00000000000E+00 -0.45593999997E+02  0.45594000000E+02  0.51100000000E-03 0. -1.
    9900012    2    1    2    0    0  0.38003209418E+02  0.65501050540E+01 -0.12884783573E+02  0.50528862651E+02  0.30000008513E+02 0.  0.
        -12    1    1    2    0    0 -0.38003209418E+02 -0.65501050540E+01  0.12884783573E+02  0.40659137349E+02  0.00000000000E+00 0.  1.
         11    1    3    3    0    0  0.92263195218E+01  0.68202442563E+01  0.27220378375E+01  0.11791954625E+02  0.51100000000E-03 0. -1.
        -11    1    3    3    0    0  0.10230971689E+02 -0.94394825234E+01 -0.22239052054E+01  0.14096892091E+02  0.51100000000E-03 0.  1.
        -12    1    3    3    0    0  0.18545918207E+02  0.91693433211E+01 -0.13382916205E+02  0.24640015934E+02  0.00000000000E+00 0.  1.
</event>
<event>
 7    1  0.9978258E-013  0.5052886E+02  0.7816164E-02  0.1300439E+00
        -11   -1    0    0    0    0  0.00000000000E+00  0.00000000000E+00  0.45593999997E+02  0.45594000000E+02  0.51100000000E-03 0. -1.
         11   -1    0    0    0    0 -0.00000000000E+00 -0.00000000000E+00 -0.45593999997E+02  0.45594000000E+02  0.51100000000E-03 0.  1.
    9900012    2    1    2    0    0 -0.41402228699E+01  0.38685678531E+02  0.11808584617E+02  0.50528857861E+02  0.29999993954E+02 0.  0.
        -12    1    1    2    0    0  0.41402228699E+01 -0.38685678531E+02 -0.11808584617E+02  0.40659142139E+02  0.00000000000E+00 0.  1.
         11    1    3    3    0    0 -0.74748503639E+01  0.37516243356E+02  0.61945315204E+01  0.38751956396E+02  0.51100000000E-03 0.  1.
        -11    1    3    3    0    0  0.53084392137E+01  0.24491063634E+01  0.69419045604E+01  0.90756646066E+01  0.51100000000E-03 0. -1.
        -12    1    3    3    0    0 -0.19738117197E+01 -0.12796711884E+01 -0.13278514636E+01  0.27012368583E+01  0.00000000000E+00 0.  1.
</event>
<event>
 7    1  0.9978258E-013  0.5052886E+02  0.7816164E-02  0.1300439E+00
        -11   -1    0    0    0    0  0.00000000000E+00  0.00000000000E+00  0.45593999997E+02  0.45594000000E+02  0.51100000000E-03 0. -1.
         11   -1    0    0    0    0 -0.00000000000E+00 -0.00000000000E+00 -0.45593999997E+02  0.45594000000E+02  0.51100000000E-03 0.  1.
    9900012    2    1    2    0    0 -0.81670958144E+00  0.26511491624E+02  0.30816216186E+02  0.50528863479E+02  0.30000011030E+02 0.  0.
        -12    1    1    2    0    0  0.81670958144E+00 -0.26511491624E+02 -0.30816216186E+02  0.40659136521E+02  0.00000000000E+00 0.  1.
         11    1    3    3    0    0 -0.15887949953E+01  0.12048055836E+02  0.10785097204E+02  0.16248022678E+02  0.51100000000E-03 0. -1.
        -11    1    3    3    0    0  0.11147157837E+02  0.15719082788E+01  0.86502427792E+01  0.14197067440E+02  0.51100000000E-03 0.  1.
        -12    1    3    3    0    0 -0.10375072423E+02  0.12891527509E+02  0.11380876202E+02  0.20083773361E+02  0.00000000000E+00 0.  1.
</event>
<event>
 7    1  0.9978258E-013  0.5052885E+02  0.7816164E-02  0.1300439E+00
        -11   -1    0    0    0    0  0.00000000000E+00  0.00000000000E+00  0.45593999997E+02  0.45594000000E+02  0.51100000000E-03 0.  1.
         11   -1    0    0    0    0 -0.00000000000E+00 -0.00000000000E+00 -0.45593999997E+02  0.45594000000E+02  0.51100000000E-03 0. -1.
    9900012    2    1    2    0    0  0.13510621746E+02 -0.15396116047E+02 -0.35122484359E+02  0.50528853466E+02  0.29999980597E+02 0.  0.
        -12    1    1    2    0    0 -0.13510621746E+02  0.15396116047E+02  0.35122484359E+02  0.40659146534E+02  0.00000000000E+00 0.  1.
         11    1    3    3    0    0  0.12766439813E+02 -0.13340305096E+02 -0.27037847144E+02  0.32741272180E+02  0.51100000000E-03 0. -1.
        -11    1    3    3    0    0 -0.73410684902E+01 -0.69611443117E-01 -0.51175046320E+01  0.89490215248E+01  0.51100000000E-03 0.  1.
        -12    1    3    3    0    0  0.80852504233E+01 -0.19861995081E+01 -0.29671325830E+01  0.88385597615E+01  0.00000000000E+00 0.  1.
</event>
<event>
 7    1  0.9978258E-013  0.5052887E+02  0.7816164E-02  0.1300439E+00
        -11   -1    0    0    0    0  0.00000000000E+00  0.00000000000E+00  0.45593999997E+02  0.45594000000E+02  0.51100000000E-03 0.  1.
         11   -1    0    0    0    0 -0.00000000000E+00 -0.00000000000E+00 -0.45593999997E+02  0.45594000000E+02  0.51100000000E-03 0. -1.
    9900012    2    1    2    0    0 -0.39966199043E+01  0.36836083054E+02 -0.16742001768E+02  0.50528872998E+02  0.30000039963E+02 0.  0.
        -12    1    1    2    0    0  0.39966199043E+01 -0.36836083054E+02  0.16742001768E+02  0.40659127002E+02  0.00000000000E+00 0.  1.
         11    1    3    3    0    0 -0.12158183590E+02  0.20812860618E+02 -0.19318418853E+02  0.30890093923E+02  0.51100000000E-03 0. -1.
        -11    1    3    3    0    0  0.75420317335E+01  0.94702516550E+01 -0.99993592374E+00  0.12147747988E+02  0.51100000000E-03 0.  1.
         12    1    3    3    0    0  0.61953195200E+00  0.65529707806E+01  0.35763530088E+01  0.74910310862E+01  0.00000000000E+00 0. -1.
</event>
<event>
 7    1  0.9978258E-013  0.5052886E+02  0.7816164E-02  0.1300439E+00
        -11   -1    0    0    0    0  0.00000000000E+00  0.00000000000E+00  0.45593999997E+02  0.45594000000E+02  0.51100000000E-03 0. -1.
         11   -1    0    0    0    0 -0.00000000000E+00 -0.00000000000E+00 -0.45593999997E+02  0.45594000000E+02  0.51100000000E-03 0.  1.
    9900012    2    1    2    0    0 -0.34566698209E+02  0.84137634302E+01  0.19685458157E+02  0.50528864458E+02  0.30000014007E+02 0.  0.
        -12    1    1    2    0    0  0.34566698209E+02 -0.84137634302E+01 -0.19685458157E+02  0.40659135542E+02  0.00000000000E+00 0.  1.
         11    1    3    3    0    0 -0.82881481012E+01  0.10597682308E+02  0.39270714246E+01  0.14015211717E+02  0.51100000000E-03 0.  1.
        -11    1    3    3    0    0 -0.15787715786E+02 -0.17854427738E+01  0.19692042319E+02  0.25302496055E+02  0.51100000000E-03 0. -1.
        -12    1    3    3    0    0 -0.10490834322E+02 -0.39847610349E+00 -0.39336555866E+01  0.11211156686E+02  0.00000000000E+00 0.  1.
</event>
<event>
 7    1  0.9978258E-013  0.5052886E+02  0.7816164E-02  0.1300439E+00
        -11   -1    0    0    0    0  0.00000000000E+00  0.00000000000E+00  0.45593999997E+02  0.45594000000E+02  0.51100000000E-03 0.  1.
         11   -1    0    0    0    0 -0.00000000000E+00 -0.00000000000E+00 -0.45593999997E+02  0.45594000000E+02  0.51100000000E-03 0. -1.
    9900012    2    1    2    0    0  0.11383367773E+02 -0.22160320178E+01 -0.38970162899E+02  0.50528862575E+02  0.30000008284E+02 0.  0.
        -12    1    1    2    0    0 -0.11383367773E+02  0.22160320178E+01  0.38970162899E+02  0.40659137425E+02  0.00000000000E+00 0.  1.
         11    1    3    3    0    0 -0.24361769321E+01  0.91746343066E+01 -0.17506320873E+02  0.19914320061E+02  0.51100000000E-03 0. -1.
        -11    1    3    3    0    0  0.10765927197E+02 -0.29380689532E+01 -0.58527054047E+01  0.12601253842E+02  0.51100000000E-03 0.  1.
         12    1    3    3    0    0  0.30536175086E+01 -0.84525973712E+01 -0.15611136621E+02  0.18013288673E+02  0.00000000000E+00 0. -1.
</event>
<event>
 7    1  0.9978258E-013  0.5052886E+02  0.7816164E-02  0.1300439E+00
        -11   -1    0    0    0    0  0.00000000000E+00  0.00000000000E+00  0.45593999997E+02  0.45594000000E+02  0.51100000000E-03 0.  1.
         11   -1    0    0    0    0 -0.00000000000E+00 -0.00000000000E+00 -0.45593999997E+02  0.45594000000E+02  0.51100000000E-03 0. -1.
    9900012    2    1    2    0    0 -0.24775454229E+02 -0.25790622181E+02 -0.19343903107E+02  0.50528856967E+02  0.29999991237E+02 0.  0.
        -12    1    1    2    0    0  0.24775454229E+02  0.25790622181E+02  0.19343903107E+02  0.40659143033E+02  0.00000000000E+00 0.  1.
         11    1    3    3    0    0 -0.56482394778E+01 -0.20665234451E+02 -0.33287271830E+01  0.21680289413E+02  0.51100000000E-03 0. -1.
        -11    1    3    3    0    0 -0.20000864025E+02 -0.69967368684E+01 -0.16340070565E+02  0.26757929570E+02  0.51100000000E-03 0.  1.
         12    1    3    3    0    0  0.87364927350E+00  0.18713491384E+01  0.32489464134E+00  0.20906379837E+01  0.00000000000E+00 0. -1.
</event>
<event>
 7    1  0.9978258E-013  0.5052887E+02  0.7816164E-02  0.1300439E+00
        -11   -1    0    0    0    0  0.00000000000E+00  0.00000000000E+00  0.45593999997E+02  0.45594000000E+02  0.51100000000E-03 0.  1.
         11   -1    0    0    0    0 -0.00000000000E+00 -0.00000000000E+00 -0.45593999997E+02  0.45594000000E+02  0.51100000000E-03 0. -1.
    9900012    2    1    2    0    0  0.21994215034E+02  0.38098694701E+01 -0.33983885211E+02  0.50528867515E+02  0.30000023300E+02 0.  0.
        -12    1    1    2    0    0 -0.21994215034E+02 -0.38098694701E+01  0.33983885211E+02  0.40659132485E+02  0.00000000000E+00 0.  1.
         11    1    3    3    0    0  0.10553199110E+02 -0.43926815285E+01  0.69475841913E+00  0.11452002095E+02  0.51100000000E-03 0. -1.
        -11    1    3    3    0    0  0.17713934422E+01  0.74549565158E+01 -0.10282043258E+02  0.12823206510E+02  0.51100000000E-03 0.  1.
         12    1    3    3    0    0  0.96696224822E+01  0.74759448283E+00 -0.24396600372E+02  0.26253658910E+02  0.00000000000E+00 0. -1.
</event>
<event>
 7    1  0.9978258E-013  0.5052892E+02  0.7816164E-02  0.1300439E+00
        -11   -1    0    0    0    0  0.00000000000E+00  0.00000000000E+00  0.45593999997E+02  0.45594000000E+02  0.51100000000E-03 0.  1.
         11   -1    0    0    0    0 -0.00000000000E+00 -0.00000000000E+00 -0.45593999997E+02  0.45594000000E+02  0.51100000000E-03 0. -1.
    9900012    2    1    2    0    0 -0.17031263672E+02  0.12400266779E+02 -0.34775428113E+02  0.50528917879E+02  0.30000176385E+02 0.  0.
        -12    1    1    2    0    0  0.17031263672E+02 -0.12400266779E+02  0.34775428113E+02  0.40659082121E+02  0.00000000000E+00 0.  1.
         11    1    3    3    0    0 -0.60054643394E+01  0.13372949596E+02 -0.15031889351E+02  0.20996644507E+02  0.51100000000E-03 0. -1.
        -11    1    3    3    0    0 -0.91506619822E+01 -0.22060705188E+01  0.24706383343E+00  0.94160715081E+01  0.51100000000E-03 0.  1.
        -12    1    3    3    0    0 -0.18751373508E+01  0.12333877021E+01 -0.19990602595E+02  0.20116201864E+02  0.00000000000E+00 0.  1.
</event>
<event>
 7    1  0.9978258E-013  0.5052884E+02  0.7816164E-02  0.1300439E+00
        -11   -1    0    0    0    0  0.00000000000E+00  0.00000000000E+00  0.45593999997E+02  0.45594000000E+02  0.51100000000E-03 0. -1.
         11   -1    0    0    0    0 -0.00000000000E+00 -0.00000000000E+00 -0.45593999997E+02  0.45594000000E+02  0.51100000000E-03 0.  1.
    9900012    2    1    2    0    0  0.16993876542E+02 -0.36067810703E+02  0.79679748308E+01  0.50528838280E+02  0.29999934436E+02 0.  0.
        -12    1    1    2    0    0 -0.16993876542E+02  0.36067810703E+02 -0.79679748308E+01  0.40659161720E+02  0.00000000000E+00 0.  1.
         11    1    3    3    0    0  0.14917957481E+02 -0.84188268088E+01 -0.43428109265E+01  0.17671505517E+02  0.51100000000E-03 0. -1.
        -11    1    3    3    0    0 -0.32673147797E+01 -0.12511654186E+02  0.10587078048E+02  0.16712362436E+02  0.51100000000E-03 0.  1.
        -12    1    3    3    0    0  0.53432338414E+01 -0.15137329709E+02  0.17237077092E+01  0.16144970327E+02  0.00000000000E+00 0.  1.
</event>
<event>
 7    1  0.9978258E-013  0.5052886E+02  0.7816164E-02  0.1300439E+00
        -11   -1    0    0    0    0  0.00000000000E+00  0.00000000000E+00  0.45593999997E+02  0.45594000000E+02  0.51100000000E-03 0.  1.
         11   -1    0    0    0    0 -0.00000000000E+00 -0.00000000000E+00 -0.45593999997E+02  0.45594000000E+02  0.51100000000E-03 0. -1.
    9900012    2    1    2    0    0  0.77682116224E+00  0.36288141517E+02 -0.18323016443E+02  0.50528860837E+02  0.30000003000E+02 0.  0.
        -12    1    1    2    0    0 -0.77682116224E+00 -0.36288141517E+02  0.18323016443E+02  0.40659139163E+02  0.00000000000E+00 0.  1.
         11    1    3    3    0    0 -0.45977453203E+01  0.34963713486E+02 -0.11628455824E+02  0.37132485884E+02  0.51100000000E-03 0. -1.
        -11    1    3    3    0    0 -0.25763873151E+01 -0.93528990751E+00  0.29409076857E-01  0.27410589128E+01  0.51100000000E-03 0.  1.
         12    1    3    3    0    0  0.79509537977E+01  0.22597179385E+01 -0.67239696958E+01  0.10655316041E+02  0.00000000000E+00 0. -1.
</event>
<event>
 7    1  0.9978258E-013  0.5052887E+02  0.7816164E-02  0.1300439E+00
        -11   -1    0    0    0    0  0.00000000000E+00  0.00000000000E+00  0.45593999997E+02  0.45594000000E+02  0.51100000000E-03 0.  1.
         11   -1    0    0    0    0 -0.00000000000E+00 -0.00000000000E+00 -0.45593999997E+02  0.45594000000E+02  0.51100000000E-03 0. -1.
    9900012    2    1    2    0    0  0.31204365445E+02  0.19463256693E+02 -0.17338813730E+02  0.50528865166E+02  0.30000016158E+02 0.  0.
        -12    1    1    2    0    0 -0.31204365445E+02 -0.19463256693E+02  0.17338813730E+02  0.40659134834E+02  0.00000000000E+00 0.  1.
         11    1    3    3    0    0  0.10328974866E+02  0.69357711159E+01 -0.13101170993E+02  0.18067465910E+02  0.51100000000E-03 0. -1.
        -11    1    3    3    0    0  0.13196556087E+02 -0.29759917532E+01  0.27465029044E+01  0.13803945013E+02  0.51100000000E-03 0.  1.
        -12    1    3    3    0    0  0.76788344919E+01  0.15503477330E+02 -0.69841456411E+01  0.18657454242E+02  0.00000000000E+00 0.  1.
</event>
<event>
 7    1  0.9978258E-013  0.5052882E+02  0.7816164E-02  0.1300439E+00
        -11   -1    0    0    0    0  0.00000000000E+00  0.00000000000E+00  0.45593999997E+02  0.45594000000E+02  0.51100000000E-03 0. -1.
         11   -1    0    0    0    0 -0.00000000000E+00 -0.00000000000E+00 -0.45593999997E+02  0.45594000000E+02  0.51100000000E-03 0.  1.
    9900012    2    1    2    0    0 -0.67048322110E+01 -0.38092152130E+02  0.12538025619E+02  0.50528820036E+02  0.29999878981E+02 0.  0.
        -12    1    1    2    0    0  0.67048322110E+01  0.38092152130E+02 -0.12538025619E+02  0.40659179964E+02  0.00000000000E+00 0.  1.
         11    1    3    3    0    0 -0.99998272523E+00  0.67561831788E+00  0.72780792547E+01  0.73774564357E+01  0.51100000000E-03 0. -1.
        -11    1    3    3    0    0  0.59718145166E+01 -0.18445418445E+02  0.21071760222E+01  0.19502210677E+02  0.51100000000E-03 0.  1.
         12    1    3    3    0    0 -0.11676664002E+02 -0.20322352003E+02  0.31527703426E+01  0.23649152923E+02  0.00000000000E+00 0. -1.
</event>
<event>
 7    1  0.9978258E-013  0.5052887E+02  0.7816164E-02  0.1300439E+00
        -11   -1    0    0    0    0  0.00000000000E+00  0.00000000000E+00  0.45593999997E+02  0.45594000000E+02  0.51100000000E-03 0. -1.
         11   -1    0    0    0    0 -0.00000000000E+00 -0.00000000000E+00 -0.45593999997E+02  0.45594000000E+02  0.51100000000E-03 0.  1.
    9900012    2    1    2    0    0 -0.25627085542E+02 -0.30910065413E+02 -0.64019487635E+01  0.50528873039E+02  0.30000040090E+02 0.  0.
        -12    1    1    2    0    0  0.25627085542E+02  0.30910065413E+02  0.64019487635E+01  0.40659126961E+02  0.00000000000E+00 0.  1.
         11    1    3    3    0    0 -0.23320204386E+02 -0.33031282891E+02 -0.10484126621E+02  0.41770976686E+02  0.51100000000E-03 0. -1.
        -11    1    3    3    0    0 -0.73144528308E+00  0.10034920434E+01 -0.20123085351E+01  0.23646129461E+01  0.51100000000E-03 0.  1.
         12    1    3    3    0    0 -0.15754358730E+01  0.11177254345E+01  0.60944863925E+01  0.63932834073E+01  0.00000000000E+00 0. -1.
</event>
<event>
 7    1  0.9978258E-013  0.5052885E+02  0.7816164E-02  0.1300439E+00
        -11   -1    0    0    0    0  0.00000000000E+00  0.00000000000E+00  0.45593999997E+02  0.45594000000E+02  0.51100000000E-03 0. -1.
         11   -1    0    0    0    0 -0.00000000000E+00 -0.00000000000E+00 -0.45593999997E+02  0.45594000000E+02  0.51100000000E-03 0.  1.
    9900012    2    1    2    0    0  0.16804029964E+02 -0.36293573113E+02  0.73190050078E+01  0.50528847197E+02  0.29999961539E+02 0.  0.
        -12    1    1    2    0    0 -0.16804029964E+02  0.36293573113E+02 -0.73190050078E+01  0.40659152803E+02  0.00000000000E+00 0.  1.
         11    1    3    3    0    0  0.12146976386E+02 -0.23450537544E+02 -0.15483389582E+01  0.26455133721E+02  0.51100000000E-03 0. -1.
        -11    1    3    3    0    0  0.92370701100E+00 -0.89946204860E+00  0.11259985472E+02  0.11333558123E+02  0.51100000000E-03 0.  1.
        -12    1    3    3    0    0  0.37333465668E+01 -0.11943573521E+02 -0.23926415063E+01  0.12740155353E+02  0.00000000000E+00 0.  1.
</event>
<event>
 7    1  0.9978258E-013  0.5052885E+02  0.7816164E-02  0.1300439E+00
        -11   -1    0    0    0    0  0.00000000000E+00  0.00000000000E+00  0.45593999997E+02  0.45594000000E+02  0.51100000000E-03 0. -1.
         11   -1    0    0    0    0 -0.00000000000E+00 -0.00000000000E+00 -0.45593999997E+02  0.45594000000E+02  0.51100000000E-03 0.  1.
    9900012    2    1    2    0    0 -0.35374573688E+02  0.38563587772E+01  0.19670642295E+02  0.50528854228E+02  0.29999982911E+02 0.  0.
        -12    1    1    2    0    0  0.35374573688E+02 -0.38563587772E+01 -0.19670642295E+02  0.40659145772E+02  0.00000000000E+00 0.  1.
         11    1    3    3    0    0 -0.82644486854E+01  0.12004862569E+01  0.14149015795E+01  0.84701963417E+01  0.51100000000E-03 0. -1.
        -11    1    3    3    0    0 -0.13274734136E+01 -0.54196715069E+01 -0.41541882504E+01  0.69564578046E+01  0.51100000000E-03 0.  1.
        -12    1    3    3    0    0 -0.25782651589E+02  0.80755440271E+01  0.22409928966E+02  0.35102200081E+02  0.00000000000E+00 0.  1.
</event>
<event>
 7    1  0.9978258E-013  0.5052885E+02  0.7816164E-02  0.1300439E+00
        -11   -1    0    0    0    0  0.00000000000E+00  0.00000000000E+00  0.45593999997E+02  0.45594000000E+02  0.51100000000E-03 0. -1.
         11   -1    0    0    0    0 -0.00000000000E+00 -0.00000000000E+00 -0.45593999997E+02  0.45594000000E+02  0.51100000000E-03 0.  1.
    9900012    2    1    2    0    0 -0.28946493545E+02 -0.27647065187E+02 -0.71349094038E+01  0.50528848088E+02  0.29999964248E+02 0.  0.
        -12    1    1    2    0    0  0.28946493545E+02  0.27647065187E+02  0.71349094038E+01  0.40659151912E+02  0.00000000000E+00 0.  1.
         11    1    3    3    0    0 -0.16124774365E+02 -0.25935074935E+02  0.33337343811E+01  0.30720518312E+02  0.51100000000E-03 0. -1.
        -11    1    3    3    0    0 -0.11242257395E+02 -0.30610092565E+01 -0.12369268923E+02  0.16992849760E+02  0.51100000000E-03 0.  1.
         12    1    3    3    0    0 -0.15794617845E+01  0.13490190041E+01  0.19006251385E+01  0.28154800157E+01  0.00000000000E+00 0. -1.
</event>
<event>
 7    1  0.9978258E-013  0.5052887E+02  0.7816164E-02  0.1300439E+00
        -11   -1    0    0    0    0  0.00000000000E+00  0.00000000000E+00  0.45593999997E+02  0.45594000000E+02  0.51100000000E-03 0. -1.
         11   -1    0    0    0    0 -0.00000000000E+00 -0.00000000000E+00 -0.45593999997E+02  0.45594000000E+02  0.51100000000E-03 0.  1.
    9900012    2    1    2    0    0  0.53368578236E+01 -0.34651290725E+00  0.40305868573E+02  0.50528866167E+02  0.30000019200E+02 0.  0.
        -12    1    1    2    0    0 -0.53368578236E+01  0.34651290725E+00 -0.40305868573E+02  0.40659133833E+02  0.00000000000E+00 0.  1.
         11    1    3    3    0    0  0.19836916312E+01  0.77391682525E+01  0.21674090623E+02  0.23099696153E+02  0.51100000000E-03 0. -1.
        -11    1    3    3    0    0 -0.16697759701E+01 -0.11963628564E+02  0.64502317344E+01  0.13693869062E+02  0.51100000000E-03 0.  1.
         12    1    3    3    0    0  0.50229421625E+01  0.38779474041E+01  0.12181546216E+02  0.13735300952E+02  0.00000000000E+00 0. -1.
</event>
<event>
 7    1  0.9978258E-013  0.5052890E+02  0.7816164E-02  0.1300439E+00
        -11   -1    0    0    0    0  0.00000000000E+00  0.00000000000E+00  0.45593999997E+02  0.45594000000E+02  0.51100000000E-03 0.  1.
         11   -1    0    0    0    0 -0.00000000000E+00 -0.00000000000E+00 -0.45593999997E+02  0.45594000000E+02  0.51100000000E-03 0. -1.
    9900012    2    1    2    0    0  0.29360179276E+02 -0.87575305721E+01 -0.26729160788E+02  0.50528898863E+02  0.30000118585E+02 0.  0.
        -12    1    1    2    0    0 -0.29360179276E+02  0.87575305721E+01  0.26729160788E+02  0.40659101137E+02  0.00000000000E+00 0.  1.
         11    1    3    3    0    0 -0.72461635031E+00  0.51801281583E+01  0.73999388760E+00  0.52826496956E+01  0.51100000000E-03 0.  1.
        -11    1    3    3    0    0  0.29932489343E+02 -0.15824964360E+02 -0.24780537240E+02  0.41957817405E+02  0.51100000000E-03 0. -1.
         12    1    3    3    0    0  0.15230628335E+00  0.18873056297E+01 -0.26886174357E+01  0.32884317630E+01  0.00000000000E+00 0. -1.
</event>
<event>
 7    1  0.9978258E-013  0.5052890E+02  0.7816164E-02  0.1300439E+00
        -11   -1    0    0    0    0  0.00000000000E+00  0.00000000000E+00  0.45593999997E+02  0.45594000000E+02  0.51100000000E-03 0.  1.
         11   -1    0    0    0    0 -0.00000000000E+00 -0.00000000000E+00 -0.45593999997E+02  0.45594000000E+02  0.51100000000E-03 0. -1.
    9900012    2    1    2    0    0 -0.10456536637E+02  0.21918450360E+02 -0.32609892423E+02  0.50528896364E+02  0.30000110989E+02 0.  0.
        -12    1    1    2    0    0  0.10456536637E+02 -0.21918450360E+02  0.32609892423E+02  0.40659103636E+02  0.00000000000E+00 0.  1.
         11    1    3    3    0    0 -0.63312303835E+01  0.11286817333E+02 -0.23150904700E+02  0.26522464297E+02  0.51100000000E-03 0. -1.
        -11    1    3    3    0    0 -0.20131984731E+01 -0.54473148146E+01 -0.31381240732E+01  0.66010627737E+01  0.51100000000E-03 0.  1.
        -12    1    3    3    0    0 -0.21121077808E+01  0.16078947842E+02 -0.63208636494E+01  0.17405369294E+02  0.00000000000E+00 0.  1.
</event>
<event>
 7    1  0.9978258E-013  0.5052886E+02  0.7816164E-02  0.1300439E+00
        -11   -1    0    0    0    0  0.00000000000E+00  0.00000000000E+00  0.45593999997E+02  0.45594000000E+02  0.51100000000E-03 0.  1.
         11   -1    0    0    0    0 -0.00000000000E+00 -0.00000000000E+00 -0.45593999997E+02  0.45594000000E+02  0.51100000000E-03 0. -1.
    9900012    2    1    2    0    0 -0.10889790806E+02  0.29093891056E+02 -0.26232111469E+02  0.50528859420E+02  0.29999998693E+02 0.  0.
        -12    1    1    2    0    0  0.10889790806E+02 -0.29093891056E+02  0.26232111469E+02  0.40659140580E+02  0.00000000000E+00 0.  1.
         11    1    3    3    0    0  0.54074764193E+01  0.12632305347E+02 -0.20228720795E+02  0.24454387845E+02  0.51100000000E-03 0. -1.
        -11    1    3    3    0    0 -0.15106031236E+02  0.10313006637E+02 -0.72738791639E+01  0.19683993598E+02  0.51100000000E-03 0.  1.
        -12    1    3    3    0    0 -0.11912359893E+01  0.61485790714E+01  0.12704884892E+01  0.63904779775E+01  0.00000000000E+00 0.  1.
</event>
<event>
 7    1  0.9978258E-013  0.5052886E+02  0.7816164E-02  0.1300439E+00
        -11   -1    0    0    0    0  0.00000000000E+00  0.00000000000E+00  0.45593999997E+02  0.45594000000E+02  0.51100000000E-03 0. -1.
         11   -1    0    0    0    0 -0.00000000000E+00 -0.00000000000E+00 -0.45593999997E+02  0.45594000000E+02  0.51100000000E-03 0.  1.
    9900012    2    1    2    0    0  0.39617483651E+01  0.39294217399E+02  0.96661808714E+01  0.50528855595E+02  0.29999987067E+02 0.  0.
        -12    1    1    2    0    0 -0.39617483651E+01 -0.39294217399E+02 -0.96661808714E+01  0.40659144405E+02  0.00000000000E+00 0.  1.
         11    1    3    3    0    0 -0.51534494613E+01  0.27539453294E+02  0.54891429222E+01  0.28550135190E+02  0.51100000000E-03 0. -1.
        -11    1    3    3    0    0  0.78904661317E+01  0.31305180105E+01  0.87071904720E+01  0.12160376843E+02  0.51100000000E-03 0.  1.
         12    1    3    3    0    0  0.12247316948E+01  0.86242460943E+01 -0.45301525228E+01  0.98183435619E+01  0.00000000000E+00 0. -1.
</event>
<event>
 7    1  0.9978258E-013  0.5052886E+02  0.7816164E-02  0.1300439E+00
        -11   -1    0    0    0    0  0.00000000000E+00  0.00000000000E+00  0.45593999997E+02  0.45594000000E+02  0.51100000000E-03 0.  1.
         11   -1    0    0    0    0 -0.00000000000E+00 -0.00000000000E+00 -0.45593999997E+02  0.45594000000E+02  0.51100000000E-03 0. -1.
    9900012    2    1    2    0    0 -0.16813428485E+02 -0.18740003337E+02 -0.31926264237E+02  0.50528862643E+02  0.30000008489E+02 0.  0.
        -12    1    1    2    0    0  0.16813428485E+02  0.18740003337E+02  0.31926264237E+02  0.40659137357E+02  0.00000000000E+00 0.  1.
         11    1    3    3    0    0 -0.35174456540E+00 -0.52485707011E+01 -0.21280066376E+02  0.21920594058E+02  0.51100000000E-03 0. -1.
        -11    1    3    3    0    0 -0.17409673131E+02 -0.14940044091E+02 -0.60923394507E+01  0.23736432677E+02  0.51100000000E-03 0.  1.
        -12    1    3    3    0    0  0.94798921169E+00  0.14486114547E+01 -0.45538584106E+01  0.48718359081E+01  0.00000000000E+00 0.  1.
</event>
<event>
 7    1  0.9978258E-013  0.5052886E+02  0.7816164E-02  0.1300439E+00
        -11   -1    0    0    0    0  0.00000000000E+00  0.00000000000E+00  0.45593999997E+02  0.45594000000E+02  0.51100000000E-03 0.  1.
         11   -1    0    0    0    0 -0.00000000000E+00 -0.00000000000E+00 -0.45593999997E+02  0.45594000000E+02  0.51100000000E-03 0. -1.
    9900012    2    1    2    0    0 -0.37907119981E+01 -0.25573692294E+02 -0.31381249315E+02  0.50528855351E+02  0.29999986324E+02 0.  0.
        -12    1    1    2    0    0  0.37907119981E+01  0.25573692294E+02  0.31381249315E+02  0.40659144649E+02  0.00000000000E+00 0.  1.
         11    1    3    3    0    0 -0.83881126308E+01 -0.53755360872E+01 -0.27197373297E+02  0.28964701556E+02  0.51100000000E-03 0. -1.
        -11    1    3    3    0    0  0.19786338172E+01 -0.64596451969E+01  0.60064377920E+00  0.67825350027E+01  0.51100000000E-03 0.  1.
         12    1    3    3    0    0  0.26187668156E+01 -0.13738511010E+02 -0.47845197976E+01  0.14781618792E+02  0.00000000000E+00 0. -1.
</event>
<event>
 7    1  0.9978258E-013  0.5052898E+02  0.7816164E-02  0.1300438E+00
        -11   -1    0    0    0    0  0.00000000000E+00  0.00000000000E+00  0.45593999997E+02  0.45594000000E+02  0.51100000000E-03 0. -1.
         11   -1    0    0    0    0 -0.00000000000E+00 -0.00000000000E+00 -0.45593999997E+02  0.45594000000E+02  0.51100000000E-03 0.  1.
    9900012    2    1    2    0    0 -0.25624357528E+02  0.17693459918E+02  0.26143636209E+02  0.50528979637E+02  0.30000364104E+02 0.  0.
        -12    1    1    2    0    0  0.25624357528E+02 -0.17693459918E+02 -0.26143636209E+02  0.40659020363E+02  0.00000000000E+00 0.  1.
         11    1    3    3    0    0 -0.28941414749E+02  0.59740114876E+01  0.23730163679E+02  0.37900065559E+02  0.51100000000E-03 0. -1.
        -11    1    3    3    0    0  0.13168769013E+01  0.49133618375E+01 -0.14199716816E+00  0.50887574884E+01  0.51100000000E-03 0.  1.
         12    1    3    3    0    0  0.20001803189E+01  0.68060865930E+01  0.25554696981E+01  0.75401565897E+01  0.00000000000E+00 0. -1.
</event>
<event>
 7    1  0.9978258E-013  0.5052886E+02  0.7816164E-02  0.1300439E+00
        -11   -1    0    0    0    0  0.00000000000E+00  0.00000000000E+00  0.45593999997E+02  0.45594000000E+02  0.51100000000E-03 0.  1.
         11   -1    0    0    0    0 -0.00000000000E+00 -0.00000000000E+00 -0.45593999997E+02  0.45594000000E+02  0.51100000000E-03 0. -1.
    9900012    2    1    2    0    0 -0.28504401046E+02 -0.31921600598E+01 -0.28817959402E+02  0.50528861434E+02  0.30000004815E+02 0.  0.
        -12    1    1    2    0    0  0.28504401046E+02  0.31921600598E+01  0.28817959402E+02  0.40659138566E+02  0.00000000000E+00 0.  1.
         11    1    3    3    0    0 -0.94181029536E+01 -0.26620891845E+01 -0.16745413928E+02  0.19395779694E+02  0.51100000000E-03 0. -1.
        -11    1    3    3    0    0 -0.20443884047E+02  0.56489523021E+01 -0.52934133603E+01  0.21860541674E+02  0.51100000000E-03 0.  1.
        -12    1    3    3    0    0  0.13575859544E+01 -0.61790231774E+01 -0.67791321141E+01  0.92725400658E+01  0.00000000000E+00 0.  1.
</event>
<event>
 7    1  0.9978258E-013  0.5052887E+02  0.7816164E-02  0.1300439E+00
        -11   -1    0    0    0    0  0.00000000000E+00  0.00000000000E+00  0.45593999997E+02  0.45594000000E+02  0.51100000000E-03 0.  1.
         11   -1    0    0    0    0 -0.00000000000E+00 -0.00000000000E+00 -0.45593999997E+02  0.45594000000E+02  0.51100000000E-03 0. -1.
    9900012    2    1    2    0    0  0.40508665995E+02  0.97533938787E+00  0.33558311207E+01  0.50528869289E+02  0.30000028692E+02 0.  0.
        -12    1    1    2    0    0 -0.40508665995E+02 -0.97533938787E+00 -0.33558311207E+01  0.40659130711E+02  0.00000000000E+00 0.  1.
         11    1    3    3    0    0  0.14371534396E+02  0.13216018621E+02  0.68670946546E+01  0.20696887166E+02  0.51100000000E-03 0. -1.
        -11    1    3    3    0    0  0.16795217104E+02 -0.56408974971E+01  0.46279722383E+00  0.17723239650E+02  0.51100000000E-03 0.  1.
         12    1    3    3    0    0  0.93419144952E+01 -0.65997817362E+01 -0.39740607577E+01  0.12108742474E+02  0.00000000000E+00 0. -1.
</event>
<event>
 7    1  0.9978258E-013  0.5052886E+02  0.7816164E-02  0.1300439E+00
        -11   -1    0    0    0    0  0.00000000000E+00  0.00000000000E+00  0.45593999997E+02  0.45594000000E+02  0.51100000000E-03 0. -1.
         11   -1    0    0    0    0 -0.00000000000E+00 -0.00000000000E+00 -0.45593999997E+02  0.45594000000E+02  0.51100000000E-03 0.  1.
    9900012    2    1    2    0    0 -0.27558365586E+02  0.78612768624E+01  0.28842715757E+02  0.50528862774E+02  0.30000008888E+02 0.  0.
        -12    1    1    2    0    0  0.27558365586E+02 -0.78612768624E+01 -0.28842715757E+02  0.40659137226E+02  0.00000000000E+00 0.  1.
         11    1    3    3    0    0 -0.47831450305E+01 -0.23168525921E+01 -0.23263087787E+01  0.58015510953E+01  0.51100000000E-03 0. -1.
        -11    1    3    3    0    0 -0.93379139356E+01 -0.68797683502E+00  0.24457890591E+02  0.26188897671E+02  0.51100000000E-03 0.  1.
         12    1    3    3    0    0 -0.13437306620E+02  0.10866106290E+02  0.67111339451E+01  0.18538414008E+02  0.00000000000E+00 0. -1.
</event>
<event>
 7    1  0.9978258E-013  0.5052886E+02  0.7816164E-02  0.1300439E+00
        -11   -1    0    0    0    0  0.00000000000E+00  0.00000000000E+00  0.45593999997E+02  0.45594000000E+02  0.51100000000E-03 0.  1.
         11   -1    0    0    0    0 -0.00000000000E+00 -0.00000000000E+00 -0.45593999997E+02  0.45594000000E+02  0.51100000000E-03 0. -1.
    9900012    2    1    2    0    0  0.26279962946E+02  0.30158901944E+02  0.72780453761E+01  0.50528858796E+02  0.29999996797E+02 0.  0.
        -12    1    1    2    0    0 -0.26279962946E+02 -0.30158901944E+02 -0.72780453761E+01  0.40659141204E+02  0.00000000000E+00 0.  1.
         11    1    3    3    0    0  0.27175460997E+02  0.22507135259E+02 -0.28515752598E+01  0.35400682192E+02  0.51100000000E-03 0. -1.
        -11    1    3    3    0    0 -0.26557318870E+01  0.46635417722E+01  0.11313042216E+01  0.54846497810E+01  0.51100000000E-03 0.  1.
         12    1    3    3    0    0  0.17602338361E+01  0.29882249133E+01  0.89983164144E+01  0.96435268228E+01  0.00000000000E+00 0. -1.
</event>
<event>
 7    1  0.9978258E-013  0.5052887E+02  0.7816164E-02  0.1300439E+00
        -11   -1    0    0    0    0  0.00000000000E+00  0.00000000000E+00  0.45593999997E+02  0.45594000000E+02  0.51100000000E-03 0.  1.
         11   -1    0    0    0    0 -0.00000000000E+00 -0.00000000000E+00 -0.45593999997E+02  0.45594000000E+02  0.51100000000E-03 0. -1.
    9900012    2    1    2    0    0 -0.32470112660E+02  0.10515428125E+01 -0.24448948768E+02  0.50528867516E+02  0.30000023303E+02 0.  0.
        -12    1    1    2    0    0  0.32470112660E+02 -0.10515428125E+01  0.24448948768E+02  0.40659132484E+02  0.00000000000E+00 0.  1.
         11    1    3    3    0    0 -0.41196015527E+00 -0.13471294577E+00  0.47584743739E+01  0.47781730165E+01  0.51100000000E-03 0.  1.
        -11    1    3    3    0    0 -0.31627075749E+02  0.43141927794E+01 -0.25322711510E+02  0.40744618028E+02  0.51100000000E-03 0. -1.
        -12    1    3    3    0    0 -0.43107675574E+00 -0.31279370211E+01 -0.38847116325E+01  0.50060764722E+01  0.00000000000E+00 0.  1.
</event>
<event>
 7    1  0.9978258E-013  0.5052886E+02  0.7816164E-02  0.1300439E+00
        -11   -1    0    0    0    0  0.00000000000E+00  0.00000000000E+00  0.45593999997E+02  0.45594000000E+02  0.51100000000E-03 0.  1.
         11   -1    0    0    0    0 -0.00000000000E+00 -0.00000000000E+00 -0.45593999997E+02  0.45594000000E+02  0.51100000000E-03 0. -1.
    9900012    2    1    2    0    0 -0.39623929647E+02 -0.19793301828E+01 -0.88990132575E+01  0.50528856064E+02  0.29999988491E+02 0.  0.
        -12    1    1    2    0    0  0.39623929647E+02  0.19793301828E+01  0.88990132575E+01  0.40659143936E+02  0.00000000000E+00 0.  1.
         11    1    3    3    0    0 -0.73185536140E+01 -0.21096782939E+00 -0.68942554421E+01  0.10056664098E+02  0.51100000000E-03 0. -1.
        -11    1    3    3    0    0 -0.34996004589E+02  0.84790874281E+00  0.18981128257E+01  0.35057697001E+02  0.51100000000E-03 0.  1.
        -12    1    3    3    0    0  0.26906285560E+01 -0.26162710962E+01 -0.39028706411E+01  0.54144949641E+01  0.00000000000E+00 0.  1.
</event>
<event>
 7    1  0.9978258E-013  0.5052889E+02  0.7816164E-02  0.1300439E+00
        -11   -1    0    0    0    0  0.00000000000E+00  0.00000000000E+00  0.45593999997E+02  0.45594000000E+02  0.51100000000E-03 0.  1.
         11   -1    0    0    0    0 -0.00000000000E+00 -0.00000000000E+00 -0.45593999997E+02  0.45594000000E+02  0.51100000000E-03 0. -1.
    9900012    2    1    2    0    0 -0.34776265367E+02 -0.18482031340E+02  0.10108845930E+02  0.50528894238E+02  0.30000104525E+02 0.  0.
        -12    1    1    2    0    0  0.34776265367E+02  0.18482031340E+02 -0.10108845930E+02  0.40659105762E+02  0.00000000000E+00 0.  1.
         11    1    3    3    0    0 -0.30223539274E+02 -0.21696481771E+02  0.90259794725E+01  0.38284043062E+02  0.51100000000E-03 0. -1.
        -11    1    3    3    0    0  0.11392925870E+01  0.57964662993E+01  0.10167573191E+01  0.59942309652E+01  0.51100000000E-03 0.  1.
         12    1    3    3    0    0 -0.56920186795E+01 -0.25820158687E+01  0.66109138656E-01  0.62506202102E+01  0.00000000000E+00 0. -1.
</event>
<event>
 7    1  0.9978258E-013  0.5052886E+02  0.7816164E-02  0.1300439E+00
        -11   -1    0    0    0    0  0.00000000000E+00  0.00000000000E+00  0.45593999997E+02  0.45594000000E+02  0.51100000000E-03 0.  1.
         11   -1    0    0    0    0 -0.00000000000E+00 -0.00000000000E+00 -0.45593999997E+02  0.45594000000E+02  0.51100000000E-03 0. -1.
    9900012    2    1    2    0    0 -0.33721641719E+02  0.21200208317E+02  0.81589033848E+01  0.50528860100E+02  0.30000000761E+02 0.  0.
        -12    1    1    2    0    0  0.33721641719E+02 -0.21200208317E+02 -0.81589033848E+01  0.40659139900E+02  0.00000000000E+00 0.  1.
         11    1    3    3    0    0 -0.24261588702E+02  0.27915063062E+01  0.13449592326E+02  0.27880256954E+02  0.51100000000E-03 0. -1.
        -11    1    3    3    0    0  0.91496412751E+00  0.38878775540E+01  0.13271558476E+00  0.39962938977E+01  0.51100000000E-03 0.  1.
         12    1    3    3    0    0 -0.10375017144E+02  0.14520824457E+02 -0.54234045259E+01  0.18652309249E+02  0.00000000000E+00 0. -1.
</event>
<event>
 7    1  0.9978258E-013  0.5052886E+02  0.7816164E-02  0.1300439E+00
        -11   -1    0    0    0    0  0.00000000000E+00  0.00000000000E+00  0.45593999997E+02  0.45594000000E+02  0.51100000000E-03 0.  1.
         11   -1    0    0    0    0 -0.00000000000E+00 -0.00000000000E+00 -0.45593999997E+02  0.45594000000E+02  0.51100000000E-03 0. -1.
    9900012    2    1    2    0    0 -0.14626444788E+02  0.35510422726E+02 -0.13350756116E+02  0.50528859599E+02  0.29999999237E+02 0.  0.
        -12    1    1    2    0    0  0.14626444788E+02 -0.35510422726E+02  0.13350756116E+02  0.40659140401E+02  0.00000000000E+00 0.  1.
         11    1    3    3    0    0 -0.66313023273E+01  0.23820270103E+02 -0.21473415612E+02  0.32748847562E+02  0.51100000000E-03 0. -1.
        -11    1    3    3    0    0 -0.70479662380E+01  0.41019124195E+01  0.45695852870E+01  0.93477603492E+01  0.51100000000E-03 0.  1.
        -12    1    3    3    0    0 -0.94717622240E+00  0.75882402037E+01  0.35530742098E+01  0.84322516878E+01  0.00000000000E+00 0.  1.
</event>
<event>
 7    1  0.9978258E-013  0.5052886E+02  0.7816164E-02  0.1300439E+00
        -11   -1    0    0    0    0  0.00000000000E+00  0.00000000000E+00  0.45593999997E+02  0.45594000000E+02  0.51100000000E-03 0.  1.
         11   -1    0    0    0    0 -0.00000000000E+00 -0.00000000000E+00 -0.45593999997E+02  0.45594000000E+02  0.51100000000E-03 0. -1.
    9900012    2    1    2    0    0  0.88176833544E+01  0.20765444199E+02 -0.33826181619E+02  0.50528858648E+02  0.29999996348E+02 0.  0.
        -12    1    1    2    0    0 -0.88176833544E+01 -0.20765444199E+02  0.33826181619E+02  0.40659141352E+02  0.00000000000E+00 0.  1.
         11    1    3    3    0    0 -0.53302985503E+01  0.86027938811E+01 -0.27928462196E+02  0.29705540664E+02  0.51100000000E-03 0. -1.
        -11    1    3    3    0    0  0.94075557292E+01  0.35145202392E+01 -0.38206344893E+01  0.10744822263E+02  0.51100000000E-03 0.  1.
         12    1    3    3    0    0  0.47404261754E+01  0.86481300790E+01 -0.20770849330E+01  0.10078495721E+02  0.00000000000E+00 0. -1.
</event>
<event>
 7    1  0.9978258E-013  0.5052887E+02  0.7816164E-02  0.1300439E+00
        -11   -1    0    0    0    0  0.00000000000E+00  0.00000000000E+00  0.45593999997E+02  0.45594000000E+02  0.51100000000E-03 0.  1.
         11   -1    0    0    0    0 -0.00000000000E+00 -0.00000000000E+00 -0.45593999997E+02  0.45594000000E+02  0.51100000000E-03 0. -1.
    9900012    2    1    2    0    0 -0.21705885590E+02  0.16392527687E+01 -0.34341405798E+02  0.50528871000E+02  0.30000033892E+02 0.  0.
        -12    1    1    2    0    0  0.21705885590E+02 -0.16392527687E+01  0.34341405798E+02  0.40659129000E+02  0.00000000000E+00 0.  1.
         11    1    3    3    0    0  0.64627632736E+01  0.46047799198E+01 -0.76850678239E+01  0.11046790256E+02  0.51100000000E-03 0. -1.
        -11    1    3    3    0    0 -0.16696844250E+02 -0.24493840528E+01 -0.11310290957E+02  0.20315185747E+02  0.51100000000E-03 0.  1.
         12    1    3    3    0    0 -0.11471804614E+02 -0.51614309825E+00 -0.15346047017E+02  0.19166894997E+02  0.00000000000E+00 0. -1.
</event>
<event>
 7    1  0.9978258E-013  0.5052885E+02  0.7816164E-02  0.1300439E+00
        -11   -1    0    0    0    0  0.00000000000E+00  0.00000000000E+00  0.45593999997E+02  0.45594000000E+02  0.51100000000E-03 0.  1.
         11   -1    0    0    0    0 -0.00000000000E+00 -0.00000000000E+00 -0.45593999997E+02  0.45594000000E+02  0.51100000000E-03 0. -1.
    9900012    2    1    2    0    0  0.33686048006E+02 -0.98067914790E+01 -0.20548563843E+02  0.50528850164E+02  0.29999970558E+02 0.  0.
        -12    1    1    2    0    0 -0.33686048006E+02  0.98067914790E+01  0.20548563843E+02  0.40659149836E+02  0.00000000000E+00 0.  1.
         11    1    3    3    0    0  0.58056585659E+01 -0.53953636466E+01 -0.73849920182E+01  0.10832992552E+02  0.51100000000E-03 0. -1.
        -11    1    3    3    0    0  0.21238967216E+01  0.79401689275E+01 -0.61967926224E+01  0.10293563958E+02  0.51100000000E-03 0.  1.
        -12    1    3    3    0    0  0.25756492719E+02 -0.12351596760E+02 -0.69667792023E+01  0.29402293654E+02  0.00000000000E+00 0.  1.
</event>
<event>
 7    1  0.9978258E-013  0.5052886E+02  0.7816164E-02  0.1300439E+00
        -11   -1    0    0    0    0  0.00000000000E+00  0.00000000000E+00  0.45593999997E+02  0.45594000000E+02  0.51100000000E-03 0.  1.
         11   -1    0    0    0    0 -0.00000000000E+00 -0.00000000000E+00 -0.45593999997E+02  0.45594000000E+02  0.51100000000E-03 0. -1.
    9900012    2    1    2    0    0 -0.36873801128E+01 -0.18012236283E+02 -0.36264698633E+02  0.50528858409E+02  0.29999995620E+02 0.  0.
        -12    1    1    2    0    0  0.36873801128E+01  0.18012236283E+02  0.36264698633E+02  0.40659141591E+02  0.00000000000E+00 0.  1.
         11    1    3    3    0    0  0.11457475868E+02 -0.30813945198E+01 -0.16806237797E+02  0.20572271985E+02  0.51100000000E-03 0. -1.
        -11    1    3    3    0    0 -0.12781282008E+02 -0.15726813165E+02 -0.17675105420E+02  0.26890577792E+02  0.51100000000E-03 0.  1.
         12    1    3    3    0    0 -0.23635739726E+01  0.79597140210E+00 -0.17833554148E+01  0.30660086321E+01  0.00000000000E+00 0. -1.
</event>
<event>
 7    1  0.9978258E-013  0.5052886E+02  0.7816164E-02  0.1300439E+00
        -11   -1    0    0    0    0  0.00000000000E+00  0.00000000000E+00  0.45593999997E+02  0.45594000000E+02  0.51100000000E-03 0.  1.
         11   -1    0    0    0    0 -0.00000000000E+00 -0.00000000000E+00 -0.45593999997E+02  0.45594000000E+02  0.51100000000E-03 0. -1.
    9900012    2    1    2    0    0 -0.29347229373E+02  0.12624247669E+02 -0.25150232392E+02  0.50528859693E+02  0.29999999524E+02 0.  0.
        -12    1    1    2    0    0  0.29347229373E+02 -0.12624247669E+02  0.25150232392E+02  0.40659140307E+02  0.00000000000E+00 0.  1.
         11    1    3    3    0    0 -0.11240466354E+02  0.15393327685E+02 -0.25849817692E+02  0.32117218062E+02  0.51100000000E-03 0. -1.
        -11    1    3    3    0    0 -0.59781727609E+01 -0.20696485436E+00  0.63354297836E+00  0.60152108007E+01  0.51100000000E-03 0.  1.
         12    1    3    3    0    0 -0.12128590258E+02 -0.25621151608E+01  0.66042321836E-01  0.12396430831E+02  0.00000000000E+00 0. -1.
</event>
<event>
 7    1  0.9978258E-013  0.5052886E+02  0.7816164E-02  0.1300439E+00
        -11   -1    0    0    0    0  0.00000000000E+00  0.00000000000E+00  0.45593999997E+02  0.45594000000E+02  0.51100000000E-03 0. -1.
         11   -1    0    0    0    0 -0.00000000000E+00 -0.00000000000E+00 -0.45593999997E+02  0.45594000000E+02  0.51100000000E-03 0.  1.
    9900012    2    1    2    0    0 -0.10887586121E+02 -0.31863632521E+01  0.39044506943E+02  0.50528856321E+02  0.29999989272E+02 0.  0.
        -12    1    1    2    0    0  0.10887586121E+02  0.31863632521E+01 -0.39044506943E+02  0.40659143679E+02  0.00000000000E+00 0.  1.
         11    1    3    3    0    0 -0.16276940996E+00 -0.17024861734E+01  0.22331257008E+02  0.22396651376E+02  0.51100000000E-03 0. -1.
        -11    1    3    3    0    0 -0.49599011449E+01 -0.57069699834E+01 -0.22322569952E+01  0.78837235690E+01  0.51100000000E-03 0.  1.
        -12    1    3    3    0    0 -0.57649155665E+01  0.42230929047E+01  0.18945506931E+02  0.20248481376E+02  0.00000000000E+00 0.  1.
</event>
<event>
 7    1  0.9978258E-013  0.5052886E+02  0.7816164E-02  0.1300439E+00
        -11   -1    0    0    0    0  0.00000000000E+00  0.00000000000E+00  0.45593999997E+02  0.45594000000E+02  0.51100000000E-03 0.  1.
         11   -1    0    0    0    0 -0.00000000000E+00 -0.00000000000E+00 -0.45593999997E+02  0.45594000000E+02  0.51100000000E-03 0. -1.
    9900012    2    1    2    0    0  0.35892777738E+02 -0.12683616755E+02 -0.14282859053E+02  0.50528859693E+02  0.29999999524E+02 0.  0.
        -12    1    1    2    0    0 -0.35892777738E+02  0.12683616755E+02  0.14282859053E+02  0.40659140307E+02  0.00000000000E+00 0.  1.
         11    1    3    3    0    0  0.20513942953E+02  0.19900768396E+01 -0.73642929242E+01  0.21886412951E+02  0.51100000000E-03 0. -1.
        -11    1    3    3    0    0 -0.31061073457E+01 -0.46346418779E+01 -0.50486273447E+01  0.75243901086E+01  0.51100000000E-03 0.  1.
        -12    1    3    3    0    0  0.18484942130E+02 -0.10039051717E+02 -0.18699387838E+01  0.21118056634E+02  0.00000000000E+00 0.  1.
</event>
<event>
 7    1  0.9978258E-013  0.5052886E+02  0.7816164E-02  0.1300439E+00
        -11   -1    0    0    0    0  0.00000000000E+00  0.00000000000E+00  0.45593999997E+02  0.45594000000E+02  0.51100000000E-03 0. -1.
         11   -1    0    0    0    0 -0.00000000000E+00 -0.00000000000E+00 -0.45593999997E+02  0.45594000000E+02  0.51100000000E-03 0.  1.
    9900012    2    1    2    0    0  0.46568766227E+01  0.38106745672E+02  0.13392351908E+02  0.50528860127E+02  0.30000000843E+02 0.  0.
        -12    1    1    2    0    0 -0.46568766227E+01 -0.38106745672E+02 -0.13392351908E+02  0.40659139873E+02  0.00000000000E+00 0.  1.
         11    1    3    3    0    0 -0.62615633726E+01  0.41530378455E+01 -0.28798371503E+01  0.80466366569E+01  0.51100000000E-03 0. -1.
        -11    1    3    3    0    0  0.82781380443E+01  0.46616902147E+01  0.64153588932E+01  0.11463671102E+02  0.51100000000E-03 0.  1.
         12    1    3    3    0    0  0.26403019510E+01  0.29292017612E+02  0.98568301648E+01  0.31018552369E+02  0.00000000000E+00 0. -1.
</event>
<event>
 7    1  0.9978258E-013  0.5052886E+02  0.7816164E-02  0.1300439E+00
        -11   -1    0    0    0    0  0.00000000000E+00  0.00000000000E+00  0.45593999997E+02  0.45594000000E+02  0.51100000000E-03 0.  1.
         11   -1    0    0    0    0 -0.00000000000E+00 -0.00000000000E+00 -0.45593999997E+02  0.45594000000E+02  0.51100000000E-03 0. -1.
    9900012    2    1    2    0    0  0.15337928943E+02  0.32002719066E+02 -0.19842877022E+02  0.50528857604E+02  0.29999993173E+02 0.  0.
        -12    1    1    2    0    0 -0.15337928943E+02 -0.32002719066E+02  0.19842877022E+02  0.40659142396E+02  0.00000000000E+00 0.  1.
         11    1    3    3    0    0  0.10661518101E+02  0.24917674325E+02 -0.26656721692E+02  0.38014987487E+02  0.51100000000E-03 0. -1.
        -11    1    3    3    0    0  0.35172931043E+01  0.10321474714E+01  0.51505974930E+00  0.37016166725E+01  0.51100000000E-03 0.  1.
         12    1    3    3    0    0  0.11591177379E+01  0.60528972698E+01  0.62987849212E+01  0.88122534446E+01  0.00000000000E+00 0. -1.
</event>
<event>
 7    1  0.9978258E-013  0.5052886E+02  0.7816164E-02  0.1300439E+00
        -11   -1    0    0    0    0  0.00000000000E+00  0.00000000000E+00  0.45593999997E+02  0.45594000000E+02  0.51100000000E-03 0.  1.
         11   -1    0    0    0    0 -0.00000000000E+00 -0.00000000000E+00 -0.45593999997E+02  0.45594000000E+02  0.51100000000E-03 0. -1.
    9900012    2    1    2    0    0  0.24419027355E+01  0.38786484749E+02 -0.11950367685E+02  0.50528861102E+02  0.30000003806E+02 0.  0.
        -12    1    1    2    0    0 -0.24419027355E+01 -0.38786484749E+02  0.11950367685E+02  0.40659138898E+02  0.00000000000E+00 0.  1.
         11    1    3    3    0    0  0.98978713394E+01  0.17281451835E+02 -0.12995477483E+02  0.23780220139E+02  0.51100000000E-03 0. -1.
        -11    1    3    3    0    0 -0.65339194290E+01  0.15222120715E+01 -0.12899893896E+00  0.67101321658E+01  0.51100000000E-03 0.  1.
        -12    1    3    3    0    0 -0.92204917492E+00  0.19982820843E+02  0.11741087373E+01  0.20038508798E+02  0.00000000000E+00 0.  1.
</event>
<event>
 7    1  0.1036898E-012  0.5052886E+02  0.7816164E-02  0.1300439E+00
        -11   -1    0    0    0    0  0.00000000000E+00  0.00000000000E+00  0.45593999997E+02  0.45594000000E+02  0.51100000000E-03 0.  1.
         11   -1    0    0    0    0 -0.00000000000E+00 -0.00000000000E+00 -0.45593999997E+02  0.45594000000E+02  0.51100000000E-03 0. -1.
    9900012    2    1    2    0    0 -0.79084437553E+01  0.26868676715E+02 -0.29473656945E+02  0.50528859271E+02  0.29999998242E+02 0.  0.
        -12    1    1    2    0    0  0.79084437553E+01 -0.26868676715E+02  0.29473656945E+02  0.40659140729E+02  0.00000000000E+00 0.  1.
         11    1    3    3    0    0 -0.10429641188E+02  0.11555364411E+02 -0.23288808506E+02  0.28012005710E+02  0.51100000000E-03 0. -1.
        -11    1    3    3    0    0  0.27254600919E+01 -0.14946494555E+01  0.21254400694E+01  0.37655816890E+01  0.51100000000E-03 0.  1.
         12    1    3    3    0    0 -0.20426265878E+00  0.16807961759E+02 -0.83102885084E+01  0.18751271872E+02  0.00000000000E+00 0. -1.
</event>
<event>
 7    1  0.9978258E-013  0.5052884E+02  0.7816164E-02  0.1300439E+00
        -11   -1    0    0    0    0  0.00000000000E+00  0.00000000000E+00  0.45593999997E+02  0.45594000000E+02  0.51100000000E-03 0. -1.
         11   -1    0    0    0    0 -0.00000000000E+00 -0.00000000000E+00 -0.45593999997E+02  0.45594000000E+02  0.51100000000E-03 0.  1.
    9900012    2    1    2    0    0 -0.21743767806E+02  0.26423756801E+02  0.21958159984E+02  0.50528841723E+02  0.29999944902E+02 0.  0.
        -12    1    1    2    0    0  0.21743767806E+02 -0.26423756801E+02 -0.21958159984E+02  0.40659158277E+02  0.00000000000E+00 0.  1.
         11    1    3    3    0    0 -0.20829851950E+02  0.63979676328E+01  0.16144146041E+02  0.27119184607E+02  0.51100000000E-03 0. -1.
        -11    1    3    3    0    0  0.77002995322E+00  0.18236770265E+01 -0.26152255075E+01  0.32799616982E+01  0.51100000000E-03 0.  1.
         12    1    3    3    0    0 -0.16839458092E+01  0.18202112142E+02  0.84292394506E+01  0.20129695418E+02  0.00000000000E+00 0. -1.
</event>
<event>
 7    1  0.9978258E-013  0.5052886E+02  0.7816164E-02  0.1300439E+00
        -11   -1    0    0    0    0  0.00000000000E+00  0.00000000000E+00  0.45593999997E+02  0.45594000000E+02  0.51100000000E-03 0. -1.
         11   -1    0    0    0    0 -0.00000000000E+00 -0.00000000000E+00 -0.45593999997E+02  0.45594000000E+02  0.51100000000E-03 0.  1.
    9900012    2    1    2    0    0  0.25759997326E+02 -0.24106360331E+02  0.20210683562E+02  0.50528858338E+02  0.29999995405E+02 0.  0.
        -12    1    1    2    0    0 -0.25759997326E+02  0.24106360331E+02 -0.20210683562E+02  0.40659141662E+02  0.00000000000E+00 0.  1.
         11    1    3    3    0    0  0.23971793780E+02 -0.24025732216E+02  0.17009646793E+02  0.37963282127E+02  0.51100000000E-03 0. -1.
        -11    1    3    3    0    0  0.14491452651E+01  0.31907559857E+01  0.68247365436E+01  0.76718951316E+01  0.51100000000E-03 0.  1.
        -12    1    3    3    0    0  0.33905828103E+00 -0.32713841004E+01 -0.36236997752E+01  0.48936810798E+01  0.00000000000E+00 0.  1.
</event>
<event>
 7    1  0.9978258E-013  0.5052885E+02  0.7816164E-02  0.1300439E+00
        -11   -1    0    0    0    0  0.00000000000E+00  0.00000000000E+00  0.45593999997E+02  0.45594000000E+02  0.51100000000E-03 0.  1.
         11   -1    0    0    0    0 -0.00000000000E+00 -0.00000000000E+00 -0.45593999997E+02  0.45594000000E+02  0.51100000000E-03 0. -1.
    9900012    2    1    2    0    0 -0.28951907226E+01  0.29228727600E+02 -0.28115217990E+02  0.50528854300E+02  0.29999983131E+02 0.  0.
        -12    1    1    2    0    0  0.28951907226E+01 -0.29228727600E+02  0.28115217990E+02  0.40659145700E+02  0.00000000000E+00 0.  1.
         11    1    3    3    0    0  0.20629818473E+00  0.36760826143E+01 -0.39453437900E+01  0.53964692356E+01  0.51100000000E-03 0. -1.
        -11    1    3    3    0    0  0.96967697536E+01  0.18296584940E+02 -0.22083117467E+02  0.30273031586E+02  0.51100000000E-03 0.  1.
        -12    1    3    3    0    0 -0.12798258661E+02  0.72560600451E+01 -0.20867567332E+01  0.14859353478E+02  0.00000000000E+00 0.  1.
</event>
<event>
 7    1  0.9978258E-013  0.5052886E+02  0.7816164E-02  0.1300439E+00
        -11   -1    0    0    0    0  0.00000000000E+00  0.00000000000E+00  0.45593999997E+02  0.45594000000E+02  0.51100000000E-03 0. -1.
         11   -1    0    0    0    0 -0.00000000000E+00 -0.00000000000E+00 -0.45593999997E+02  0.45594000000E+02  0.51100000000E-03 0.  1.
    9900012    2    1    2    0    0  0.38937305421E+02  0.45982539971E+01  0.10766053602E+02  0.50528860764E+02  0.30000002777E+02 0.  0.
        -12    1    1    2    0    0 -0.38937305421E+02 -0.45982539971E+01 -0.10766053602E+02  0.40659139236E+02  0.00000000000E+00 0.  1.
         11    1    3    3    0    0  0.17120646259E+02  0.15421117642E+01  0.60792221958E+00  0.17200703669E+02  0.51100000000E-03 0. -1.
        -11    1    3    3    0    0 -0.44815964991E+01  0.30222310185E+01  0.23592077649E+01  0.58978342677E+01  0.51100000000E-03 0.  1.
        -12    1    3    3    0    0  0.26298255661E+02  0.33911214494E-01  0.77989236175E+01  0.27430322827E+02  0.00000000000E+00 0.  1.
</event>
<event>
 7    1  0.9978258E-013  0.5052886E+02  0.7816164E-02  0.1300439E+00
        -11   -1    0    0    0    0  0.00000000000E+00  0.00000000000E+00  0.45593999997E+02  0.45594000000E+02  0.51100000000E-03 0.  1.
         11   -1    0    0    0    0 -0.00000000000E+00 -0.00000000000E+00 -0.45593999997E+02  0.45594000000E+02  0.51100000000E-03 0. -1.
    9900012    2    1    2    0    0  0.23525938250E+02 -0.24982511601E+02 -0.21807560321E+02  0.50528863959E+02  0.30000012490E+02 0.  0.
        -12    1    1    2    0    0 -0.23525938250E+02  0.24982511601E+02  0.21807560321E+02  0.40659136041E+02  0.00000000000E+00 0.  1.
         11    1    3    3    0    0  0.79639269070E+01  0.26023780950E-01 -0.12820594262E+02  0.15092794523E+02  0.51100000000E-03 0. -1.
        -11    1    3    3    0    0  0.28350056516E+01 -0.89133328038E+01  0.49974835659E+01  0.10604697118E+02  0.51100000000E-03 0.  1.
         12    1    3    3    0    0  0.12727005692E+02 -0.16095202578E+02 -0.13984449625E+02  0.24831372318E+02  0.00000000000E+00 0. -1.
</event>
<event>
 7    1  0.9978258E-013  0.5052886E+02  0.7816164E-02  0.1300439E+00
        -11   -1    0    0    0    0  0.00000000000E+00  0.00000000000E+00  0.45593999997E+02  0.45594000000E+02  0.51100000000E-03 0.  1.
         11   -1    0    0    0    0 -0.00000000000E+00 -0.00000000000E+00 -0.45593999997E+02  0.45594000000E+02  0.51100000000E-03 0. -1.
    9900012    2    1    2    0    0  0.27846017279E+02  0.29586473013E+02 -0.15510899461E+01  0.50528856579E+02  0.29999990059E+02 0.  0.
        -12    1    1    2    0    0 -0.27846017279E+02 -0.29586473013E+02  0.15510899461E+01  0.40659143421E+02  0.00000000000E+00 0.  1.
         11    1    3    3    0    0  0.14334412499E+02  0.15788444326E+02 -0.17813693693E+01  0.21399150288E+02  0.51100000000E-03 0. -1.
        -11    1    3    3    0    0  0.78743894153E+01 -0.51124060503E+01 -0.23629389950E+00  0.93914077408E+01  0.51100000000E-03 0.  1.
        -12    1    3    3    0    0  0.56372153650E+01  0.18910434737E+02  0.46657332272E+00  0.19738298551E+02  0.00000000000E+00 0.  1.
</event>
<event>
 7    1  0.9978258E-013  0.5052886E+02  0.7816164E-02  0.1300439E+00
        -11   -1    0    0    0    0  0.00000000000E+00  0.00000000000E+00  0.45593999997E+02  0.45594000000E+02  0.51100000000E-03 0.  1.
         11   -1    0    0    0    0 -0.00000000000E+00 -0.00000000000E+00 -0.45593999997E+02  0.45594000000E+02  0.51100000000E-03 0. -1.
    9900012    2    1    2    0    0 -0.24431095813E+01 -0.39272177835E+02 -0.10241726213E+02  0.50528859673E+02  0.29999999463E+02 0.  0.
        -12    1    1    2    0    0  0.24431095813E+01  0.39272177835E+02  0.10241726213E+02  0.40659140327E+02  0.00000000000E+00 0.  1.
         11    1    3    3    0    0  0.41280161492E+01 -0.38801821535E+02 -0.12204807645E+01  0.39039869945E+02  0.51100000000E-03 0. -1.
        -11    1    3    3    0    0 -0.40109743151E+01 -0.57954248235E+00 -0.74561909801E+01  0.84863754711E+01  0.51100000000E-03 0.  1.
         12    1    3    3    0    0 -0.25601514154E+01  0.10918618241E+00 -0.15650544680E+01  0.30026142576E+01  0.00000000000E+00 0. -1.
</event>
<event>
 7    1  0.9978258E-013  0.5052886E+02  0.7816164E-02  0.1300439E+00
        -11   -1    0    0    0    0  0.00000000000E+00  0.00000000000E+00  0.45593999997E+02  0.45594000000E+02  0.51100000000E-03 0. -1.
         11   -1    0    0    0    0 -0.00000000000E+00 -0.00000000000E+00 -0.45593999997E+02  0.45594000000E+02  0.51100000000E-03 0.  1.
    9900012    2    1    2    0    0 -0.99094891396E+01  0.25476283505E+02  0.30098619284E+02  0.50528857375E+02  0.29999992476E+02 0.  0.
        -12    1    1    2    0    0  0.99094891396E+01 -0.25476283505E+02 -0.30098619284E+02  0.40659142625E+02  0.00000000000E+00 0.  1.
         11    1    3    3    0    0 -0.52985405380E+01  0.29130968768E+02  0.21143465822E+02  0.36383155724E+02  0.51100000000E-03 0. -1.
        -11    1    3    3    0    0  0.22552318025E+01 -0.19595941663E+01  0.35136501939E+00  0.30082449065E+01  0.51100000000E-03 0.  1.
         12    1    3    3    0    0 -0.68661804041E+01 -0.16950910969E+01  0.86037884423E+01  0.11137456744E+02  0.00000000000E+00 0. -1.
</event>
<event>
 7    1  0.9978258E-013  0.5052885E+02  0.7816164E-02  0.1300439E+00
        -11   -1    0    0    0    0  0.00000000000E+00  0.00000000000E+00  0.45593999997E+02  0.45594000000E+02  0.51100000000E-03 0. -1.
         11   -1    0    0    0    0 -0.00000000000E+00 -0.00000000000E+00 -0.45593999997E+02  0.45594000000E+02  0.51100000000E-03 0.  1.
    9900012    2    1    2    0    0 -0.79588350967E+00 -0.29090765895E+02  0.28394723654E+02  0.50528850694E+02  0.29999972169E+02 0.  0.
        -12    1    1    2    0    0  0.79588350967E+00  0.29090765895E+02 -0.28394723654E+02  0.40659149306E+02  0.00000000000E+00 0.  1.
         11    1    3    3    0    0 -0.16880560487E+01  0.54982287790E+01  0.17263306441E+01  0.60050204566E+01  0.51100000000E-03 0. -1.
        -11    1    3    3    0    0 -0.12751795615E+01 -0.96088794373E+01  0.32744391701E+01  0.10231255988E+02  0.51100000000E-03 0.  1.
         12    1    3    3    0    0  0.21673521005E+01 -0.24980115237E+02  0.23393953839E+02  0.34292574249E+02  0.00000000000E+00 0. -1.
</event>
<event>
 7    1  0.9978258E-013  0.5052886E+02  0.7816164E-02  0.1300439E+00
        -11   -1    0    0    0    0  0.00000000000E+00  0.00000000000E+00  0.45593999997E+02  0.45594000000E+02  0.51100000000E-03 0.  1.
         11   -1    0    0    0    0 -0.00000000000E+00 -0.00000000000E+00 -0.45593999997E+02  0.45594000000E+02  0.51100000000E-03 0. -1.
    9900012    2    1    2    0    0 -0.36086899105E+02 -0.16336570674E+02 -0.91661339020E+01  0.50528857866E+02  0.29999993969E+02 0.  0.
        -12    1    1    2    0    0  0.36086899105E+02  0.16336570674E+02  0.91661339020E+01  0.40659142134E+02  0.00000000000E+00 0.  1.
         11    1    3    3    0    0 -0.19379101337E+02 -0.66955763046E+01 -0.13500897120E+02  0.24549023076E+02  0.51100000000E-03 0. -1.
        -11    1    3    3    0    0 -0.22325960578E+01 -0.10823243706E+02  0.26031660966E+01  0.11353570516E+02  0.51100000000E-03 0.  1.
        -12    1    3    3    0    0 -0.14475201710E+02  0.11822493361E+01  0.17315971210E+01  0.14626264274E+02  0.00000000000E+00 0.  1.
</event>
<event>
 7    1  0.9978258E-013  0.5052886E+02  0.7816164E-02  0.1300439E+00
        -11   -1    0    0    0    0  0.00000000000E+00  0.00000000000E+00  0.45593999997E+02  0.45594000000E+02  0.51100000000E-03 0.  1.
         11   -1    0    0    0    0 -0.00000000000E+00 -0.00000000000E+00 -0.45593999997E+02  0.45594000000E+02  0.51100000000E-03 0. -1.
    9900012    2    1    2    0    0  0.63063117752E+01 -0.12437213950E+02 -0.38193080820E+02  0.50528864721E+02  0.30000014807E+02 0.  0.
        -12    1    1    2    0    0 -0.63063117752E+01  0.12437213950E+02  0.38193080820E+02  0.40659135279E+02  0.00000000000E+00 0.  1.
         11    1    3    3    0    0 -0.22426365726E+01  0.12915064226E+01  0.18111062266E-01  0.25879984366E+01  0.51100000000E-03 0. -1.
        -11    1    3    3    0    0  0.47151953234E+01 -0.20110174160E+02 -0.22430142690E+02  0.30492023105E+02  0.51100000000E-03 0.  1.
        -12    1    3    3    0    0  0.38337530244E+01  0.63814537870E+01 -0.15781049193E+02  0.17448843180E+02  0.00000000000E+00 0.  1.
</event>
<event>
 7    1  0.9978258E-013  0.5052881E+02  0.7816164E-02  0.1300439E+00
        -11   -1    0    0    0    0  0.00000000000E+00  0.00000000000E+00  0.45593999997E+02  0.45594000000E+02  0.51100000000E-03 0. -1.
         11   -1    0    0    0    0 -0.00000000000E+00 -0.00000000000E+00 -0.45593999997E+02  0.45594000000E+02  0.51100000000E-03 0.  1.
    9900012    2    1    2    0    0 -0.32975028615E+02  0.24221793408E+01  0.23663263149E+02  0.50528812996E+02  0.29999857584E+02 0.  0.
        -12    1    1    2    0    0  0.32975028615E+02 -0.24221793408E+01 -0.23663263149E+02  0.40659187004E+02  0.00000000000E+00 0.  1.
         11    1    3    3    0    0 -0.70058013612E+01 -0.59799093813E+01  0.17509898445E+01  0.93758484745E+01  0.51100000000E-03 0. -1.
        -11    1    3    3    0    0 -0.29648738525E+02  0.88405755180E+01  0.20812793854E+02  0.37287744098E+02  0.51100000000E-03 0.  1.
        -12    1    3    3    0    0  0.36795112712E+01 -0.43848679584E+00  0.10994794498E+01  0.38652204239E+01  0.00000000000E+00 0.  1.
</event>
<event>
 7    1  0.9978258E-013  0.5052885E+02  0.7816164E-02  0.1300439E+00
        -11   -1    0    0    0    0  0.00000000000E+00  0.00000000000E+00  0.45593999997E+02  0.45594000000E+02  0.51100000000E-03 0. -1.
         11   -1    0    0    0    0 -0.00000000000E+00 -0.00000000000E+00 -0.45593999997E+02  0.45594000000E+02  0.51100000000E-03 0.  1.
    9900012    2    1    2    0    0  0.28987140738E+02 -0.10466806440E+02  0.26520896277E+02  0.50528852142E+02  0.29999976571E+02 0.  0.
        -12    1    1    2    0    0 -0.28987140738E+02  0.10466806440E+02 -0.26520896277E+02  0.40659147858E+02  0.00000000000E+00 0.  1.
         11    1    3    3    0    0  0.13774317903E+02 -0.14770192819E+02  0.22737575943E+02  0.30411967868E+02  0.51100000000E-03 0. -1.
        -11    1    3    3    0    0  0.16643789998E+02  0.50137348181E+01  0.50241105467E+01  0.18094058952E+02  0.51100000000E-03 0.  1.
         12    1    3    3    0    0 -0.14309671629E+01 -0.71034843957E+00 -0.12407902132E+01  0.20228253212E+01  0.00000000000E+00 0. -1.
</event>
<event>
 7    1  0.9978258E-013  0.5052887E+02  0.7816164E-02  0.1300439E+00
        -11   -1    0    0    0    0  0.00000000000E+00  0.00000000000E+00  0.45593999997E+02  0.45594000000E+02  0.51100000000E-03 0. -1.
         11   -1    0    0    0    0 -0.00000000000E+00 -0.00000000000E+00 -0.45593999997E+02  0.45594000000E+02  0.51100000000E-03 0.  1.
    9900012    2    1    2    0    0  0.70393738478E+01 -0.39940700993E+02 -0.28901243301E+01  0.50528865742E+02  0.30000017910E+02 0.  0.
        -12    1    1    2    0    0 -0.70393738478E+01  0.39940700993E+02  0.28901243301E+01  0.40659134258E+02  0.00000000000E+00 0.  1.
         11    1    3    3    0    0  0.75335493021E+01 -0.52538783132E+00  0.44785103348E+01  0.87799460443E+01  0.51100000000E-03 0. -1.
        -11    1    3    3    0    0 -0.12373824958E+01 -0.24895105238E+02  0.10505807263E+01  0.24947967860E+02  0.51100000000E-03 0.  1.
         12    1    3    3    0    0  0.74320704155E+00 -0.14520207924E+02 -0.84192153911E+01  0.16800951838E+02  0.00000000000E+00 0. -1.
</event>
<event>
 7    1  0.9978258E-013  0.5052886E+02  0.7816164E-02  0.1300439E+00
        -11   -1    0    0    0    0  0.00000000000E+00  0.00000000000E+00  0.45593999997E+02  0.45594000000E+02  0.51100000000E-03 0. -1.
         11   -1    0    0    0    0 -0.00000000000E+00 -0.00000000000E+00 -0.45593999997E+02  0.45594000000E+02  0.51100000000E-03 0.  1.
    9900012    2    1    2    0    0 -0.52154581753E+01 -0.32890072328E+02  0.23328266367E+02  0.50528857444E+02  0.29999992687E+02 0.  0.
        -12    1    1    2    0    0  0.52154581753E+01  0.32890072328E+02 -0.23328266367E+02  0.40659142556E+02  0.00000000000E+00 0.  1.
         11    1    3    3    0    0 -0.10568349296E+02 -0.19179077454E+02  0.89883660313E+00  0.21916544580E+02  0.51100000000E-03 0. -1.
        -11    1    3    3    0    0  0.79620021238E+01 -0.81687552346E+01  0.16705329555E+02  0.20228447190E+02  0.51100000000E-03 0.  1.
         12    1    3    3    0    0 -0.26091110034E+01 -0.55422396389E+01  0.57241002081E+01  0.83838656738E+01  0.00000000000E+00 0. -1.
</event>
<event>
 7    1  0.9978258E-013  0.5052886E+02  0.7816164E-02  0.1300439E+00
        -11   -1    0    0    0    0  0.00000000000E+00  0.00000000000E+00  0.45593999997E+02  0.45594000000E+02  0.51100000000E-03 0.  1.
         11   -1    0    0    0    0 -0.00000000000E+00 -0.00000000000E+00 -0.45593999997E+02  0.45594000000E+02  0.51100000000E-03 0. -1.
    9900012    2    1    2    0    0  0.26612383922E+02 -0.29532415136E+01 -0.30597795227E+02  0.50528859746E+02  0.29999999685E+02 0.  0.
        -12    1    1    2    0    0 -0.26612383922E+02  0.29532415136E+01  0.30597795227E+02  0.40659140254E+02  0.00000000000E+00 0.  1.
         11    1    3    3    0    0  0.84216533493E+01 -0.14128983265E+00 -0.18407456162E+01  0.86216328290E+01  0.51100000000E-03 0. -1.
        -11    1    3    3    0    0  0.71380649069E+01  0.17306459648E+01 -0.29039677801E+02  0.29954131486E+02  0.51100000000E-03 0.  1.
        -12    1    3    3    0    0  0.11052665666E+02 -0.45425976458E+01  0.28262819031E+00  0.11953095431E+02  0.00000000000E+00 0.  1.
</event>
<event>
 7    1  0.9978258E-013  0.5052886E+02  0.7816164E-02  0.1300439E+00
        -11   -1    0    0    0    0  0.00000000000E+00  0.00000000000E+00  0.45593999997E+02  0.45594000000E+02  0.51100000000E-03 0.  1.
         11   -1    0    0    0    0 -0.00000000000E+00 -0.00000000000E+00 -0.45593999997E+02  0.45594000000E+02  0.51100000000E-03 0. -1.
    9900012    2    1    2    0    0 -0.65212855251E+01  0.23758034657E+02 -0.32344929194E+02  0.50528858098E+02  0.29999994674E+02 0.  0.
        -12    1    1    2    0    0  0.65212855251E+01 -0.23758034657E+02  0.32344929194E+02  0.40659141902E+02  0.00000000000E+00 0.  1.
         11    1    3    3    0    0 -0.11275835024E+02  0.21546875144E+02 -0.96987587521E+01  0.26181638711E+02  0.51100000000E-03 0. -1.
        -11    1    3    3    0    0  0.66910053824E+01  0.20347503496E+01 -0.17966120962E+02  0.19279296270E+02  0.51100000000E-03 0.  1.
        -12    1    3    3    0    0 -0.19364558833E+01  0.17640916292E+00 -0.46800494802E+01  0.50679231168E+01  0.00000000000E+00 0.  1.
</event>
<event>
 7    1  0.9978258E-013  0.5052887E+02  0.7816164E-02  0.1300439E+00
        -11   -1    0    0    0    0  0.00000000000E+00  0.00000000000E+00  0.45593999997E+02  0.45594000000E+02  0.51100000000E-03 0.  1.
         11   -1    0    0    0    0 -0.00000000000E+00 -0.00000000000E+00 -0.45593999997E+02  0.45594000000E+02  0.51100000000E-03 0. -1.
    9900012    2    1    2    0    0  0.12238168077E+02 -0.19767183969E+02 -0.33356413444E+02  0.50528872639E+02  0.30000038873E+02 0.  0.
        -12    1    1    2    0    0 -0.12238168077E+02  0.19767183969E+02  0.33356413444E+02  0.40659127361E+02  0.00000000000E+00 0.  1.
         11    1    3    3    0    0  0.69850870774E+01 -0.22762419869E+02 -0.33335272139E+02  0.40965345948E+02  0.51100000000E-03 0. -1.
        -11    1    3    3    0    0 -0.34762755087E+00 -0.27967018586E-01  0.26415148255E+01  0.26644376335E+01  0.51100000000E-03 0.  1.
         12    1    3    3    0    0  0.56007085502E+01  0.30232029189E+01 -0.26626561300E+01  0.68990890573E+01  0.00000000000E+00 0. -1.
</event>
<event>
 7    1  0.9978258E-013  0.5052891E+02  0.7816164E-02  0.1300439E+00
        -11   -1    0    0    0    0  0.00000000000E+00  0.00000000000E+00  0.45593999997E+02  0.45594000000E+02  0.51100000000E-03 0. -1.
         11   -1    0    0    0    0 -0.00000000000E+00 -0.00000000000E+00 -0.45593999997E+02  0.45594000000E+02  0.51100000000E-03 0.  1.
    9900012    2    1    2    0    0  0.30759528119E+01  0.24279482878E+02  0.32468554952E+02  0.50528907103E+02  0.30000143630E+02 0.  0.
        -12    1    1    2    0    0 -0.30759528119E+01 -0.24279482878E+02 -0.32468554952E+02  0.40659092897E+02  0.00000000000E+00 0.  1.
         11    1    3    3    0    0  0.13054159271E+02  0.14706977414E+02  0.13573812766E+02  0.23894657398E+02  0.51100000000E-03 0. -1.
        -11    1    3    3    0    0 -0.66804385348E+01  0.10914606472E+02  0.19185856534E+02  0.23061959688E+02  0.51100000000E-03 0.  1.
         12    1    3    3    0    0 -0.32977679244E+01 -0.13421010078E+01 -0.29111434779E+00  0.35722900165E+01  0.00000000000E+00 0. -1.
</event>
<event>
 7    1  0.9978258E-013  0.5052886E+02  0.7816164E-02  0.1300439E+00
        -11   -1    0    0    0    0  0.00000000000E+00  0.00000000000E+00  0.45593999997E+02  0.45594000000E+02  0.51100000000E-03 0.  1.
         11   -1    0    0    0    0 -0.00000000000E+00 -0.00000000000E+00 -0.45593999997E+02  0.45594000000E+02  0.51100000000E-03 0. -1.
    9900012    2    1    2    0    0  0.23122232420E+02 -0.26135765376E+02 -0.20867428785E+02  0.50528862675E+02  0.30000008588E+02 0.  0.
        -12    1    1    2    0    0 -0.23122232420E+02  0.26135765376E+02  0.20867428785E+02  0.40659137325E+02  0.00000000000E+00 0.  1.
         11    1    3    3    0    0  0.23963174935E+02 -0.28121499687E+02 -0.20435253343E+02  0.42221464649E+02  0.51100000000E-03 0. -1.
        -11    1    3    3    0    0  0.27275448147E+01  0.75822830696E-01  0.21780226165E+01  0.34912795071E+01  0.51100000000E-03 0.  1.
         12    1    3    3    0    0 -0.35684873300E+01  0.19099114807E+01 -0.26101980587E+01  0.48161185195E+01  0.00000000000E+00 0. -1.
</event>
<event>
 7    1  0.1029766E-012  0.5052887E+02  0.7816164E-02  0.1300439E+00
        -11   -1    0    0    0    0  0.00000000000E+00  0.00000000000E+00  0.45593999997E+02  0.45594000000E+02  0.51100000000E-03 0. -1.
         11   -1    0    0    0    0 -0.00000000000E+00 -0.00000000000E+00 -0.45593999997E+02  0.45594000000E+02  0.51100000000E-03 0.  1.
    9900012    2    1    2    0    0  0.19904667032E+02 -0.59141522954E+01  0.34957004965E+02  0.50528866179E+02  0.30000019236E+02 0.  0.
        -12    1    1    2    0    0 -0.19904667032E+02  0.59141522954E+01 -0.34957004965E+02  0.40659133821E+02  0.00000000000E+00 0.  1.
         11    1    3    3    0    0  0.34053349054E+00 -0.94553803232E+01  0.23672327467E+02  0.25493121976E+02  0.51100000000E-03 0. -1.
        -11    1    3    3    0    0  0.50796639606E+01 -0.15968521722E+01 -0.92853261921E+00  0.54050990646E+01  0.51100000000E-03 0.  1.
         12    1    3    3    0    0  0.14484469581E+02  0.51380802001E+01  0.12213210117E+02  0.19630645138E+02  0.00000000000E+00 0. -1.
</event>
<event>
 7    1  0.9978258E-013  0.5052885E+02  0.7816164E-02  0.1300439E+00
        -11   -1    0    0    0    0  0.00000000000E+00  0.00000000000E+00  0.45593999997E+02  0.45594000000E+02  0.51100000000E-03 0.  1.
         11   -1    0    0    0    0 -0.00000000000E+00 -0.00000000000E+00 -0.45593999997E+02  0.45594000000E+02  0.51100000000E-03 0. -1.
    9900012    2    1    2    0    0 -0.77227357885E+01  0.26621227335E+02 -0.29746190944E+02  0.50528852584E+02  0.29999977916E+02 0.  0.
        -12    1    1    2    0    0  0.77227357885E+01 -0.26621227335E+02  0.29746190944E+02  0.40659147416E+02  0.00000000000E+00 0.  1.
         11    1    3    3    0    0 -0.54216950466E+01  0.27373572801E+02 -0.28988086283E+02  0.40237003016E+02  0.51100000000E-03 0. -1.
        -11    1    3    3    0    0 -0.31616694590E+01  0.11039727739E+00 -0.49787307148E+01  0.58988220110E+01  0.51100000000E-03 0.  1.
         12    1    3    3    0    0  0.86062871706E+00 -0.86274274356E+00  0.42206260542E+01  0.43930275573E+01  0.00000000000E+00 0. -1.
</event>
<event>
 7    1  0.9978258E-013  0.5052886E+02  0.7816164E-02  0.1300439E+00
        -11   -1    0    0    0    0  0.00000000000E+00  0.00000000000E+00  0.45593999997E+02  0.45594000000E+02  0.51100000000E-03 0. -1.
         11   -1    0    0    0    0 -0.00000000000E+00 -0.00000000000E+00 -0.45593999997E+02  0.45594000000E+02  0.51100000000E-03 0.  1.
    9900012    2    1    2    0    0  0.47716879888E+01  0.40355073004E+02  0.13655614811E+01  0.50528859803E+02  0.29999999856E+02 0.  0.
        -12    1    1    2    0    0 -0.47716879888E+01 -0.40355073004E+02 -0.13655614811E+01  0.40659140197E+02  0.00000000000E+00 0.  1.
         11    1    3    3    0    0 -0.11560480888E+02  0.21467023885E+02  0.11486676949E+01  0.24408958818E+02  0.51100000000E-03 0. -1.
        -11    1    3    3    0    0  0.73631252138E+01  0.42850126278E+01  0.23826749247E+01  0.88461339687E+01  0.51100000000E-03 0.  1.
         12    1    3    3    0    0  0.89690436626E+01  0.14603036491E+02 -0.21657811385E+01  0.17273767016E+02  0.00000000000E+00 0. -1.
</event>
<event>
 7    1  0.9978258E-013  0.5052888E+02  0.7816164E-02  0.1300439E+00
        -11   -1    0    0    0    0  0.00000000000E+00  0.00000000000E+00  0.45593999997E+02  0.45594000000E+02  0.51100000000E-03 0.  1.
         11   -1    0    0    0    0 -0.00000000000E+00 -0.00000000000E+00 -0.45593999997E+02  0.45594000000E+02  0.51100000000E-03 0. -1.
    9900012    2    1    2    0    0 -0.15191936661E+02  0.21985376661E+02 -0.30643302698E+02  0.50528883843E+02  0.30000072930E+02 0.  0.
        -12    1    1    2    0    0  0.15191936661E+02 -0.21985376661E+02  0.30643302698E+02  0.40659116157E+02  0.00000000000E+00 0.  1.
         11    1    3    3    0    0  0.24883329967E+01  0.15414323273E+02 -0.50371556189E+01  0.16406282335E+02  0.51100000000E-03 0. -1.
        -11    1    3    3    0    0 -0.17185925095E+02  0.12881491866E+01 -0.19064493444E+02  0.25699615955E+02  0.51100000000E-03 0.  1.
        -12    1    3    3    0    0 -0.49434456221E+00  0.52829042011E+01 -0.65416536351E+01  0.84229855530E+01  0.00000000000E+00 0.  1.
</event>
<event>
 7    1  0.9978258E-013  0.5052886E+02  0.7816164E-02  0.1300439E+00
        -11   -1    0    0    0    0  0.00000000000E+00  0.00000000000E+00  0.45593999997E+02  0.45594000000E+02  0.51100000000E-03 0.  1.
         11   -1    0    0    0    0 -0.00000000000E+00 -0.00000000000E+00 -0.45593999997E+02  0.45594000000E+02  0.51100000000E-03 0. -1.
    9900012    2    1    2    0    0  0.91702586464E+00  0.87120842547E+01 -0.39704211117E+02  0.50528859220E+02  0.29999998087E+02 0.  0.
        -12    1    1    2    0    0 -0.91702586464E+00 -0.87120842547E+01  0.39704211117E+02  0.40659140780E+02  0.00000000000E+00 0.  1.
         11    1    3    3    0    0  0.46220200085E+01  0.61110493591E+01 -0.20149696528E+02  0.21557325058E+02  0.51100000000E-03 0. -1.
        -11    1    3    3    0    0 -0.44308948826E+01 -0.24298237616E+01  0.29828601662E+01  0.58680770278E+01  0.51100000000E-03 0.  1.
        -12    1    3    3    0    0  0.72590073869E+00  0.50308586572E+01 -0.22537374755E+02  0.23103457134E+02  0.00000000000E+00 0.  1.
</event>
<event>
 7    1  0.9978258E-013  0.5052887E+02  0.7816164E-02  0.1300439E+00
        -11   -1    0    0    0    0  0.00000000000E+00  0.00000000000E+00  0.45593999997E+02  0.45594000000E+02  0.51100000000E-03 0. -1.
         11   -1    0    0    0    0 -0.00000000000E+00 -0.00000000000E+00 -0.45593999997E+02  0.45594000000E+02  0.51100000000E-03 0.  1.
    9900012    2    1    2    0    0  0.46292018520E+01 -0.71310301347E+01  0.39760327795E+02  0.50528871051E+02  0.30000034045E+02 0.  0.
        -12    1    1    2    0    0 -0.46292018520E+01  0.71310301347E+01 -0.39760327795E+02  0.40659128949E+02  0.00000000000E+00 0.  1.
         11    1    3    3    0    0  0.19184990275E+01  0.43805625260E+01  0.17702863708E+02  0.18337430308E+02  0.51100000000E-03 0. -1.
        -11    1    3    3    0    0 -0.84454368471E+01 -0.33974936411E+01  0.54814239372E+01  0.10626117599E+02  0.51100000000E-03 0.  1.
         12    1    3    3    0    0  0.11156139671E+02 -0.81140990196E+01  0.16576040150E+02  0.21565323144E+02  0.00000000000E+00 0. -1.
</event>
<event>
 7    1  0.9978258E-013  0.5052881E+02  0.7816164E-02  0.1300439E+00
        -11   -1    0    0    0    0  0.00000000000E+00  0.00000000000E+00  0.45593999997E+02  0.45594000000E+02  0.51100000000E-03 0. -1.
         11   -1    0    0    0    0 -0.00000000000E+00 -0.00000000000E+00 -0.45593999997E+02  0.45594000000E+02  0.51100000000E-03 0.  1.
    9900012    2    1    2    0    0 -0.30293434455E+02  0.24302649544E+02 -0.12035743514E+02  0.50528805863E+02  0.29999835899E+02 0.  0.
        -12    1    1    2    0    0  0.30293434455E+02 -0.24302649544E+02  0.12035743514E+02  0.40659194137E+02  0.00000000000E+00 0.  1.
         11    1    3    3    0    0 -0.17409820096E+02  0.18968057778E+02 -0.92638925903E+01  0.27362542971E+02  0.51100000000E-03 0. -1.
        -11    1    3    3    0    0  0.47170534716E+01  0.47799582903E+00 -0.61097180481E+00  0.47804142367E+01  0.51100000000E-03 0.  1.
         12    1    3    3    0    0 -0.17600667831E+02  0.48565959370E+01 -0.21608791190E+01  0.18385848655E+02  0.00000000000E+00 0. -1.
</event>
<event>
 7    1  0.9978258E-013  0.5052887E+02  0.7816164E-02  0.1300439E+00
        -11   -1    0    0    0    0  0.00000000000E+00  0.00000000000E+00  0.45593999997E+02  0.45594000000E+02  0.51100000000E-03 0.  1.
         11   -1    0    0    0    0 -0.00000000000E+00 -0.00000000000E+00 -0.45593999997E+02  0.45594000000E+02  0.51100000000E-03 0. -1.
    9900012    2    1    2    0    0 -0.29260568998E+02 -0.16479369386E+02 -0.22921914116E+02  0.50528872363E+02  0.30000038034E+02 0.  0.
        -12    1    1    2    0    0  0.29260568998E+02  0.16479369386E+02  0.22921914116E+02  0.40659127637E+02  0.00000000000E+00 0.  1.
         11    1    3    3    0    0 -0.19211571413E+02 -0.20490820239E+02 -0.15029576211E+02  0.31856653176E+02  0.51100000000E-03 0. -1.
        -11    1    3    3    0    0  0.13951024023E+01  0.51891499671E+01 -0.18909124934E+01  0.56964145225E+01  0.51100000000E-03 0.  1.
        -12    1    3    3    0    0 -0.11444099987E+02 -0.11776991147E+01 -0.60014254111E+01  0.12975804665E+02  0.00000000000E+00 0.  1.
</event>
<event>
 7    1  0.9978258E-013  0.5052889E+02  0.7816164E-02  0.1300439E+00
        -11   -1    0    0    0    0  0.00000000000E+00  0.00000000000E+00  0.45593999997E+02  0.45594000000E+02  0.51100000000E-03 0.  1.
         11   -1    0    0    0    0 -0.00000000000E+00 -0.00000000000E+00 -0.45593999997E+02  0.45594000000E+02  0.51100000000E-03 0. -1.
    9900012    2    1    2    0    0  0.13007583309E+02  0.99409308308E+01 -0.37217523275E+02  0.50528888253E+02  0.30000086333E+02 0.  0.
        -12    1    1    2    0    0 -0.13007583309E+02 -0.99409308308E+01  0.37217523275E+02  0.40659111747E+02  0.00000000000E+00 0.  1.
         11    1    3    3    0    0  0.17120245227E+01  0.14325732096E+02 -0.14670091119E+02  0.20575937446E+02  0.51100000000E-03 0. -1.
        -11    1    3    3    0    0  0.60725533688E+00 -0.34218694707E+01 -0.17940990974E+02  0.18274493348E+02  0.51100000000E-03 0.  1.
         12    1    3    3    0    0  0.10688303449E+02 -0.96293179466E+00 -0.46064411816E+01  0.11678457459E+02  0.00000000000E+00 0. -1.
</event>
<event>
 7    1  0.9978258E-013  0.5052886E+02  0.7816164E-02  0.1300439E+00
        -11   -1    0    0    0    0  0.00000000000E+00  0.00000000000E+00  0.45593999997E+02  0.45594000000E+02  0.51100000000E-03 0.  1.
         11   -1    0    0    0    0 -0.00000000000E+00 -0.00000000000E+00 -0.45593999997E+02  0.45594000000E+02  0.51100000000E-03 0. -1.
    9900012    2    1    2    0    0 -0.22215311969E+02 -0.34024576374E+02 -0.14050057768E+01  0.50528856815E+02  0.29999990775E+02 0.  0.
        -12    1    1    2    0    0  0.22215311969E+02  0.34024576374E+02  0.14050057768E+01  0.40659143185E+02  0.00000000000E+00 0.  1.
         11    1    3    3    0    0  0.55324464208E+01 -0.12591631961E+02 -0.42351574934E+01  0.14390751131E+02  0.51100000000E-03 0. -1.
        -11    1    3    3    0    0 -0.97017977740E+01 -0.12222950430E+02  0.29276507952E+01  0.15877548196E+02  0.51100000000E-03 0.  1.
         12    1    3    3    0    0 -0.18045960616E+02 -0.92099939827E+01 -0.97499078607E-01  0.20260557489E+02  0.00000000000E+00 0. -1.
</event>
<event>
 7    1  0.9978258E-013  0.5052885E+02  0.7816164E-02  0.1300439E+00
        -11   -1    0    0    0    0  0.00000000000E+00  0.00000000000E+00  0.45593999997E+02  0.45594000000E+02  0.51100000000E-03 0. -1.
         11   -1    0    0    0    0 -0.00000000000E+00 -0.00000000000E+00 -0.45593999997E+02  0.45594000000E+02  0.51100000000E-03 0.  1.
    9900012    2    1    2    0    0  0.21541586967E+02  0.16371527028E+02  0.30349620811E+02  0.50528851587E+02  0.29999974884E+02 0.  0.
        -12    1    1    2    0    0 -0.21541586967E+02 -0.16371527028E+02 -0.30349620811E+02  0.40659148413E+02  0.00000000000E+00 0.  1.
         11    1    3    3    0    0  0.85539772182E+00 -0.25959991974E+01  0.18696549760E+01  0.33115747138E+01  0.51100000000E-03 0. -1.
        -11    1    3    3    0    0  0.16969307527E+02  0.23671814854E+02  0.29122152173E+02  0.41187521945E+02  0.51100000000E-03 0.  1.
        -12    1    3    3    0    0  0.37168817177E+01 -0.47042886289E+01 -0.64218633824E+00  0.60297549287E+01  0.00000000000E+00 0.  1.
</event>
<event>
 7    1  0.9978258E-013  0.5052885E+02  0.7816164E-02  0.1300439E+00
        -11   -1    0    0    0    0  0.00000000000E+00  0.00000000000E+00  0.45593999997E+02  0.45594000000E+02  0.51100000000E-03 0.  1.
         11   -1    0    0    0    0 -0.00000000000E+00 -0.00000000000E+00 -0.45593999997E+02  0.45594000000E+02  0.51100000000E-03 0. -1.
    9900012    2    1    2    0    0  0.18795030454E+02 -0.11693554286E+02  0.34105343814E+02  0.50528845333E+02  0.29999955874E+02 0.  0.
        -12    1    1    2    0    0 -0.18795030454E+02  0.11693554286E+02 -0.34105343814E+02  0.40659154667E+02  0.00000000000E+00 0.  1.
         11    1    3    3    0    0 -0.40669525539E+01 -0.32726475811E+01  0.11040867275E+02  0.12212742350E+02  0.51100000000E-03 0. -1.
        -11    1    3    3    0    0  0.22663666832E+02 -0.12745225491E+02  0.21409784660E+02  0.33681767272E+02  0.51100000000E-03 0.  1.
         12    1    3    3    0    0  0.19831617573E+00  0.43243187864E+01  0.16546918792E+01  0.46343357115E+01  0.00000000000E+00 0. -1.
</event>
<event>
 7    1  0.9978258E-013  0.5052882E+02  0.7816164E-02  0.1300439E+00
        -11   -1    0    0    0    0  0.00000000000E+00  0.00000000000E+00  0.45593999997E+02  0.45594000000E+02  0.51100000000E-03 0.  1.
         11   -1    0    0    0    0 -0.00000000000E+00 -0.00000000000E+00 -0.45593999997E+02  0.45594000000E+02  0.51100000000E-03 0. -1.
    9900012    2    1    2    0    0  0.44540390070E+01  0.16294369304E+02 -0.36984100134E+02  0.50528823948E+02  0.29999890873E+02 0.  0.
        -12    1    1    2    0    0 -0.44540390070E+01 -0.16294369304E+02  0.36984100134E+02  0.40659176052E+02  0.00000000000E+00 0.  1.
         11    1    3    3    0    0 -0.37160570916E+01  0.72089064475E+01  0.22697923427E+01  0.84219576119E+01  0.51100000000E-03 0. -1.
        -11    1    3    3    0    0  0.22312204588E+01 -0.11327082096E+01 -0.26609382999E+01  0.36526655364E+01  0.51100000000E-03 0.  1.
         12    1    3    3    0    0  0.59388756397E+01  0.10218171066E+02 -0.36592954177E+02  0.38454200800E+02  0.00000000000E+00 0. -1.
</event>
<event>
 7    1  0.9978258E-013  0.5052886E+02  0.7816164E-02  0.1300439E+00
        -11   -1    0    0    0    0  0.00000000000E+00  0.00000000000E+00  0.45593999997E+02  0.45594000000E+02  0.51100000000E-03 0. -1.
         11   -1    0    0    0    0 -0.00000000000E+00 -0.00000000000E+00 -0.45593999997E+02  0.45594000000E+02  0.51100000000E-03 0.  1.
    9900012    2    1    2    0    0 -0.33642669551E+02  0.18068471209E+02  0.13959466449E+02  0.50528861176E+02  0.30000004032E+02 0.  0.
        -12    1    1    2    0    0  0.33642669551E+02 -0.18068471209E+02 -0.13959466449E+02  0.40659138824E+02  0.00000000000E+00 0.  1.
         11    1    3    3    0    0 -0.18871057018E+01 -0.63043173488E+01  0.72837303502E+01  0.98162270369E+01  0.51100000000E-03 0. -1.
        -11    1    3    3    0    0 -0.12564047439E+02  0.11662296030E+02  0.27879006349E+01  0.17367694924E+02  0.51100000000E-03 0.  1.
         12    1    3    3    0    0 -0.19191516410E+02  0.12710492527E+02  0.38878354637E+01  0.23344939216E+02  0.00000000000E+00 0. -1.
</event>
<event>
 7    1  0.9978258E-013  0.5052886E+02  0.7816164E-02  0.1300439E+00
        -11   -1    0    0    0    0  0.00000000000E+00  0.00000000000E+00  0.45593999997E+02  0.45594000000E+02  0.51100000000E-03 0. -1.
         11   -1    0    0    0    0 -0.00000000000E+00 -0.00000000000E+00 -0.45593999997E+02  0.45594000000E+02  0.51100000000E-03 0.  1.
    9900012    2    1    2    0    0  0.13524166987E+02 -0.32058856422E+02  0.21035510037E+02  0.50528855268E+02  0.29999986074E+02 0.  0.
        -12    1    1    2    0    0 -0.13524166987E+02  0.32058856422E+02 -0.21035510037E+02  0.40659144732E+02  0.00000000000E+00 0.  1.
         11    1    3    3    0    0  0.21715135949E+02 -0.14880810008E+02  0.92481149055E+01  0.27901850572E+02  0.51100000000E-03 0. -1.
        -11    1    3    3    0    0 -0.36964921345E+01 -0.45938095610E+01  0.28343880551E+01  0.65422393942E+01  0.51100000000E-03 0.  1.
         12    1    3    3    0    0 -0.44944768270E+01 -0.12584236853E+02  0.89530070762E+01  0.16084765302E+02  0.00000000000E+00 0. -1.
</event>
<event>
 7    1  0.9978258E-013  0.5052886E+02  0.7816164E-02  0.1300439E+00
        -11   -1    0    0    0    0  0.00000000000E+00  0.00000000000E+00  0.45593999997E+02  0.45594000000E+02  0.51100000000E-03 0.  1.
         11   -1    0    0    0    0 -0.00000000000E+00 -0.00000000000E+00 -0.45593999997E+02  0.45594000000E+02  0.51100000000E-03 0. -1.
    9900012    2    1    2    0    0  0.11151458235E+02 -0.21715242612E+02 -0.32515513361E+02  0.50528863368E+02  0.30000010695E+02 0.  0.
        -12    1    1    2    0    0 -0.11151458235E+02  0.21715242612E+02  0.32515513361E+02  0.40659136632E+02  0.00000000000E+00 0.  1.
         11    1    3    3    0    0  0.47106870411E+01 -0.22560472091E+02 -0.27134637676E+02  0.35601320698E+02  0.51100000000E-03 0. -1.
        -11    1    3    3    0    0  0.60980690991E+01  0.88128208989E+00  0.27798906769E+01  0.67595042197E+01  0.51100000000E-03 0.  1.
         12    1    3    3    0    0  0.34270209471E+00 -0.36052611275E-01 -0.81607663624E+01  0.81680384511E+01  0.00000000000E+00 0. -1.
</event>
<event>
 7    1  0.9978258E-013  0.5052886E+02  0.7816164E-02  0.1300439E+00
        -11   -1    0    0    0    0  0.00000000000E+00  0.00000000000E+00  0.45593999997E+02  0.45594000000E+02  0.51100000000E-03 0. -1.
         11   -1    0    0    0    0 -0.00000000000E+00 -0.00000000000E+00 -0.45593999997E+02  0.45594000000E+02  0.51100000000E-03 0.  1.
    9900012    2    1    2    0    0  0.20588211173E+01  0.18365489965E+02  0.36216508655E+02  0.50528862464E+02  0.30000007945E+02 0.  0.
        -12    1    1    2    0    0 -0.20588211173E+01 -0.18365489965E+02 -0.36216508655E+02  0.40659137536E+02  0.00000000000E+00 0.  1.
         11    1    3    3    0    0  0.42150327691E+01  0.83714999820E+01  0.32432365507E+02  0.33759544515E+02  0.51100000000E-03 0. -1.
        -11    1    3    3    0    0 -0.30850421275E+01  0.12723396399E+02  0.16786780270E+01  0.13199252290E+02  0.51100000000E-03 0.  1.
         12    1    3    3    0    0  0.92883047573E+00 -0.27294064153E+01  0.21054651203E+01  0.35700656584E+01  0.00000000000E+00 0. -1.
</event>
<event>
 7    1  0.9978258E-013  0.5052888E+02  0.7816164E-02  0.1300439E+00
        -11   -1    0    0    0    0  0.00000000000E+00  0.00000000000E+00  0.45593999997E+02  0.45594000000E+02  0.51100000000E-03 0.  1.
         11   -1    0    0    0    0 -0.00000000000E+00 -0.00000000000E+00 -0.45593999997E+02  0.45594000000E+02  0.51100000000E-03 0. -1.
    9900012    2    1    2    0    0  0.12945039949E+02 -0.31999458936E+02 -0.21485442496E+02  0.50528884531E+02  0.30000075021E+02 0.  0.
        -12    1    1    2    0    0 -0.12945039949E+02  0.31999458936E+02  0.21485442496E+02  0.40659115469E+02  0.00000000000E+00 0.  1.
         11    1    3    3    0    0 -0.92954933705E+01 -0.77489850345E+01 -0.61751893480E+01  0.13586240459E+02  0.51100000000E-03 0. -1.
        -11    1    3    3    0    0  0.96147468430E+01 -0.59685133213E+01 -0.64289357944E+01  0.13015288081E+02  0.51100000000E-03 0.  1.
         12    1    3    3    0    0  0.12625786476E+02 -0.18281960580E+02 -0.88813173538E+01  0.23927355991E+02  0.00000000000E+00 0. -1.
</event>
<event>
 7    1  0.9978258E-013  0.5052886E+02  0.7816164E-02  0.1300439E+00
        -11   -1    0    0    0    0  0.00000000000E+00  0.00000000000E+00  0.45593999997E+02  0.45594000000E+02  0.51100000000E-03 0.  1.
         11   -1    0    0    0    0 -0.00000000000E+00 -0.00000000000E+00 -0.45593999997E+02  0.45594000000E+02  0.51100000000E-03 0. -1.
    9900012    2    1    2    0    0 -0.32150033627E+02 -0.13389466925E+02 -0.20982451473E+02  0.50528858881E+02  0.29999997054E+02 0.  0.
        -12    1    1    2    0    0  0.32150033627E+02  0.13389466925E+02  0.20982451473E+02  0.40659141119E+02  0.00000000000E+00 0.  1.
         11    1    3    3    0    0 -0.35314449356E+01 -0.24846455742E+00 -0.16876470795E+02  0.17243784524E+02  0.51100000000E-03 0. -1.
        -11    1    3    3    0    0 -0.19078762558E+02 -0.11114194429E+02 -0.69122088785E+01  0.23136618819E+02  0.51100000000E-03 0.  1.
         12    1    3    3    0    0 -0.95398261339E+01 -0.20268079387E+01  0.28062282003E+01  0.10148455538E+02  0.00000000000E+00 0. -1.
</event>
<event>
 7    1  0.9978258E-013  0.5052886E+02  0.7816164E-02  0.1300439E+00
        -11   -1    0    0    0    0  0.00000000000E+00  0.00000000000E+00  0.45593999997E+02  0.45594000000E+02  0.51100000000E-03 0. -1.
         11   -1    0    0    0    0 -0.00000000000E+00 -0.00000000000E+00 -0.45593999997E+02  0.45594000000E+02  0.51100000000E-03 0.  1.
    9900012    2    1    2    0    0  0.18240406349E+02  0.25757918442E+02 -0.25631683580E+02  0.50528856018E+02  0.29999988353E+02 0.  0.
        -12    1    1    2    0    0 -0.18240406349E+02 -0.25757918442E+02  0.25631683580E+02  0.40659143982E+02  0.00000000000E+00 0.  1.
         11    1    3    3    0    0  0.16733188805E+02  0.16477743418E+02 -0.15446088113E+02  0.28108669019E+02  0.51100000000E-03 0. -1.
        -11    1    3    3    0    0 -0.48171911418E+01  0.23758671399E+01  0.30734813265E+01  0.61884055207E+01  0.51100000000E-03 0.  1.
        -12    1    3    3    0    0  0.63244086852E+01  0.69043078835E+01 -0.13259076793E+02  0.16231781479E+02  0.00000000000E+00 0.  1.
</event>
<event>
 7    1  0.9978258E-013  0.5052886E+02  0.7816164E-02  0.1300439E+00
        -11   -1    0    0    0    0  0.00000000000E+00  0.00000000000E+00  0.45593999997E+02  0.45594000000E+02  0.51100000000E-03 0. -1.
         11   -1    0    0    0    0 -0.00000000000E+00 -0.00000000000E+00 -0.45593999997E+02  0.45594000000E+02  0.51100000000E-03 0.  1.
    9900012    2    1    2    0    0 -0.37559270811E+02  0.34804413127E+01  0.15177386899E+02  0.50528863651E+02  0.30000011553E+02 0.  0.
        -12    1    1    2    0    0  0.37559270811E+02 -0.34804413127E+01 -0.15177386899E+02  0.40659136349E+02  0.00000000000E+00 0.  1.
         11    1    3    3    0    0 -0.31616625982E+02  0.66670275961E+01  0.65292341473E+01  0.32964999533E+02  0.51100000000E-03 0. -1.
        -11    1    3    3    0    0 -0.63932793038E+00 -0.69270525788E+01  0.86164090281E+01  0.11074082465E+02  0.51100000000E-03 0.  1.
        -12    1    3    3    0    0 -0.53033168990E+01  0.37404662954E+01  0.31743723278E-01  0.64897816529E+01  0.00000000000E+00 0.  1.
</event>
<event>
 7    1  0.9978258E-013  0.5052886E+02  0.7816164E-02  0.1300439E+00
        -11   -1    0    0    0    0  0.00000000000E+00  0.00000000000E+00  0.45593999997E+02  0.45594000000E+02  0.51100000000E-03 0. -1.
         11   -1    0    0    0    0 -0.00000000000E+00 -0.00000000000E+00 -0.45593999997E+02  0.45594000000E+02  0.51100000000E-03 0.  1.
    9900012    2    1    2    0    0  0.11924391690E+02 -0.13061953814E+02  0.36610922626E+02  0.50528863141E+02  0.30000010003E+02 0.  0.
        -12    1    1    2    0    0 -0.11924391690E+02  0.13061953814E+02 -0.36610922626E+02  0.40659136859E+02  0.00000000000E+00 0.  1.
         11    1    3    3    0    0  0.37414519751E+01 -0.73870466298E+01  0.33219225398E+02  0.34235710262E+02  0.51100000000E-03 0. -1.
        -11    1    3    3    0    0  0.77438871844E+01  0.20899382905E+01  0.65180287390E+00  0.80473895165E+01  0.51100000000E-03 0.  1.
         12    1    3    3    0    0  0.43905253073E+00 -0.77648454745E+01  0.27398943534E+01  0.82457633628E+01  0.00000000000E+00 0. -1.
</event>
<event>
 7    1  0.9978258E-013  0.5052886E+02  0.7816164E-02  0.1300439E+00
        -11   -1    0    0    0    0  0.00000000000E+00  0.00000000000E+00  0.45593999997E+02  0.45594000000E+02  0.51100000000E-03 0. -1.
         11   -1    0    0    0    0 -0.00000000000E+00 -0.00000000000E+00 -0.45593999997E+02  0.45594000000E+02  0.51100000000E-03 0.  1.
    9900012    2    1    2    0    0 -0.57661454723E+01 -0.85319283514E+01  0.39333489655E+02  0.50528860272E+02  0.30000001282E+02 0.  0.
        -12    1    1    2    0    0  0.57661454723E+01  0.85319283514E+01 -0.39333489655E+02  0.40659139728E+02  0.00000000000E+00 0.  1.
         11    1    3    3    0    0 -0.14367642738E+02 -0.11921354858E+02  0.25825808292E+02  0.31867228209E+02  0.51100000000E-03 0. -1.
        -11    1    3    3    0    0  0.11523533684E+01 -0.24454511232E+01  0.60061913205E+01  0.65865380831E+01  0.51100000000E-03 0.  1.
         12    1    3    3    0    0  0.74491438976E+01  0.58348776299E+01  0.75014900421E+01  0.12075093980E+02  0.00000000000E+00 0. -1.
</event>
<event>
 7    1  0.9978258E-013  0.5052886E+02  0.7816164E-02  0.1300439E+00
        -11   -1    0    0    0    0  0.00000000000E+00  0.00000000000E+00  0.45593999997E+02  0.45594000000E+02  0.51100000000E-03 0. -1.
         11   -1    0    0    0    0 -0.00000000000E+00 -0.00000000000E+00 -0.45593999997E+02  0.45594000000E+02  0.51100000000E-03 0.  1.
    9900012    2    1    2    0    0 -0.36253103076E+02 -0.15062719672E+02  0.10582676521E+02  0.50528855285E+02  0.29999986125E+02 0.  0.
        -12    1    1    2    0    0  0.36253103076E+02  0.15062719672E+02 -0.10582676521E+02  0.40659144715E+02  0.00000000000E+00 0.  1.
         11    1    3    3    0    0 -0.95713951074E+01 -0.23661310736E+01  0.64927206356E+01  0.11805320922E+02  0.51100000000E-03 0. -1.
        -11    1    3    3    0    0 -0.23024605473E+02 -0.19477134719E+02  0.34999786528E+00  0.30159803263E+02  0.51100000000E-03 0.  1.
        -12    1    3    3    0    0 -0.36571024956E+01  0.67805461212E+01  0.37399580206E+01  0.85637311004E+01  0.00000000000E+00 0.  1.
</event>
<event>
 7    1  0.9978258E-013  0.5052886E+02  0.7816164E-02  0.1300439E+00
        -11   -1    0    0    0    0  0.00000000000E+00  0.00000000000E+00  0.45593999997E+02  0.45594000000E+02  0.51100000000E-03 0. -1.
         11   -1    0    0    0    0 -0.00000000000E+00 -0.00000000000E+00 -0.45593999997E+02  0.45594000000E+02  0.51100000000E-03 0.  1.
    9900012    2    1    2    0    0  0.30338215015E+02  0.83777187458E+01 -0.25740472186E+02  0.50528863634E+02  0.30000011503E+02 0.  0.
        -12    1    1    2    0    0 -0.30338215015E+02 -0.83777187458E+01  0.25740472186E+02  0.40659136366E+02  0.00000000000E+00 0.  1.
         11    1    3    3    0    0 -0.21046150145E+01 -0.13852334792E+01 -0.13054547059E+02  0.13295468225E+02  0.51100000000E-03 0. -1.
        -11    1    3    3    0    0  0.11792378265E+02  0.45443248831E+01 -0.92434554507E+01  0.15657347883E+02  0.51100000000E-03 0.  1.
         12    1    3    3    0    0  0.20650451764E+02  0.52186273420E+01 -0.34424696759E+01  0.21576047527E+02  0.00000000000E+00 0. -1.
</event>
<event>
 7    1  0.9978258E-013  0.5052879E+02  0.7816164E-02  0.1300439E+00
        -11   -1    0    0    0    0  0.00000000000E+00  0.00000000000E+00  0.45593999997E+02  0.45594000000E+02  0.51100000000E-03 0.  1.
         11   -1    0    0    0    0 -0.00000000000E+00 -0.00000000000E+00 -0.45593999997E+02  0.45594000000E+02  0.51100000000E-03 0. -1.
    9900012    2    1    2    0    0 -0.33818106421E+02 -0.17184044287E+02 -0.14636112921E+02  0.50528788234E+02  0.29999782317E+02 0.  0.
        -12    1    1    2    0    0  0.33818106421E+02  0.17184044287E+02  0.14636112921E+02  0.40659211766E+02  0.00000000000E+00 0.  1.
         11    1    3    3    0    0 -0.29712080957E+02 -0.20308260513E+02 -0.18534839495E+02  0.40481767195E+02  0.51100000000E-03 0. -1.
        -11    1    3    3    0    0 -0.19350675445E+01  0.23691919589E+01 -0.20414568085E+01  0.36776491270E+01  0.51100000000E-03 0.  1.
         12    1    3    3    0    0 -0.21709579194E+01  0.75502426726E+00  0.59401833829E+01  0.63693719121E+01  0.00000000000E+00 0. -1.
</event>
<event>
 7    1  0.9978258E-013  0.5052885E+02  0.7816164E-02  0.1300439E+00
        -11   -1    0    0    0    0  0.00000000000E+00  0.00000000000E+00  0.45593999997E+02  0.45594000000E+02  0.51100000000E-03 0.  1.
         11   -1    0    0    0    0 -0.00000000000E+00 -0.00000000000E+00 -0.45593999997E+02  0.45594000000E+02  0.51100000000E-03 0. -1.
    9900012    2    1    2    0    0 -0.27785005878E+01 -0.16184469567E+02 -0.37195550719E+02  0.50528854485E+02  0.29999983693E+02 0.  0.
        -12    1    1    2    0    0  0.27785005878E+01  0.16184469567E+02  0.37195550719E+02  0.40659145515E+02  0.00000000000E+00 0.  1.
         11    1    3    3    0    0 -0.52525006525E+01 -0.15863606332E+01 -0.11077264026E+02  0.12361677949E+02  0.51100000000E-03 0. -1.
        -11    1    3    3    0    0  0.12186583430E+02 -0.95733893842E+01 -0.20984713030E+02  0.26086793233E+02  0.51100000000E-03 0.  1.
        -12    1    3    3    0    0 -0.97125833652E+01 -0.50247195495E+01 -0.51335736639E+01  0.12080383303E+02  0.00000000000E+00 0.  1.
</event>
<event>
 7    1  0.9978258E-013  0.5052886E+02  0.7816164E-02  0.1300439E+00
        -11   -1    0    0    0    0  0.00000000000E+00  0.00000000000E+00  0.45593999997E+02  0.45594000000E+02  0.51100000000E-03 0.  1.
         11   -1    0    0    0    0 -0.00000000000E+00 -0.00000000000E+00 -0.45593999997E+02  0.45594000000E+02  0.51100000000E-03 0. -1.
    9900012    2    1    2    0    0  0.16581485794E+02 -0.42426905670E+01 -0.36881159508E+02  0.50528855628E+02  0.29999987168E+02 0.  0.
        -12    1    1    2    0    0 -0.16581485794E+02  0.42426905670E+01  0.36881159508E+02  0.40659144372E+02  0.00000000000E+00 0.  1.
         11    1    3    3    0    0  0.19764406859E+01  0.28025344689E+01 -0.30546336819E+02  0.30738236946E+02  0.51100000000E-03 0. -1.
        -11    1    3    3    0    0  0.71121837559E+01  0.72766922401E+00 -0.53891109856E+01  0.89529424075E+01  0.51100000000E-03 0.  1.
         12    1    3    3    0    0  0.74928613522E+01 -0.77728942599E+01 -0.94571170365E+00  0.10837676275E+02  0.00000000000E+00 0. -1.
</event>
<event>
 7    1  0.9978258E-013  0.5052886E+02  0.7816164E-02  0.1300439E+00
        -11   -1    0    0    0    0  0.00000000000E+00  0.00000000000E+00  0.45593999997E+02  0.45594000000E+02  0.51100000000E-03 0.  1.
         11   -1    0    0    0    0 -0.00000000000E+00 -0.00000000000E+00 -0.45593999997E+02  0.45594000000E+02  0.51100000000E-03 0. -1.
    9900012    2    1    2    0    0  0.39544721340E+02  0.44848778302E+01  0.83226568194E+01  0.50528859188E+02  0.29999997988E+02 0.  0.
        -12    1    1    2    0    0 -0.39544721340E+02 -0.44848778302E+01 -0.83226568194E+01  0.40659140812E+02  0.00000000000E+00 0.  1.
         11    1    3    3    0    0  0.37164077239E+02  0.10388227424E+02  0.27646989124E+01  0.38687562166E+02  0.51100000000E-03 0. -1.
        -11    1    3    3    0    0  0.34471170663E+01 -0.76009418906E+01  0.37819278790E+01  0.91629641730E+01  0.51100000000E-03 0.  1.
         12    1    3    3    0    0 -0.10664729647E+01  0.16975922968E+01  0.17760300280E+01  0.26783328492E+01  0.00000000000E+00 0. -1.
</event>
<event>
 7    1  0.9978258E-013  0.5052885E+02  0.7816164E-02  0.1300439E+00
        -11   -1    0    0    0    0  0.00000000000E+00  0.00000000000E+00  0.45593999997E+02  0.45594000000E+02  0.51100000000E-03 0.  1.
         11   -1    0    0    0    0 -0.00000000000E+00 -0.00000000000E+00 -0.45593999997E+02  0.45594000000E+02  0.51100000000E-03 0. -1.
    9900012    2    1    2    0    0 -0.36233552517E+02 -0.16064614831E+02  0.90677469905E+01  0.50528853266E+02  0.29999979987E+02 0.  0.
        -12    1    1    2    0    0  0.36233552517E+02  0.16064614831E+02 -0.90677469905E+01  0.40659146734E+02  0.00000000000E+00 0.  1.
         11    1    3    3    0    0 -0.26030944239E+02 -0.12652518989E+02  0.17292409127E+02  0.33715333432E+02  0.51100000000E-03 0. -1.
        -11    1    3    3    0    0  0.12136829877E+01  0.16935380278E+01 -0.60695324938E+00  0.21701359299E+01  0.51100000000E-03 0.  1.
         12    1    3    3    0    0 -0.11416291265E+02 -0.51056338697E+01 -0.76177088873E+01  0.14643383904E+02  0.00000000000E+00 0. -1.
</event>
<event>
 7    1  0.9978258E-013  0.5052886E+02  0.7816164E-02  0.1300439E+00
        -11   -1    0    0    0    0  0.00000000000E+00  0.00000000000E+00  0.45593999997E+02  0.45594000000E+02  0.51100000000E-03 0. -1.
         11   -1    0    0    0    0 -0.00000000000E+00 -0.00000000000E+00 -0.45593999997E+02  0.45594000000E+02  0.51100000000E-03 0.  1.
    9900012    2    1    2    0    0 -0.87621755457E+01 -0.39097358378E+02  0.69127924326E+01  0.50528857711E+02  0.29999993499E+02 0.  0.
        -12    1    1    2    0    0  0.87621755457E+01  0.39097358378E+02 -0.69127924326E+01  0.40659142289E+02  0.00000000000E+00 0.  1.
         11    1    3    3    0    0  0.48104389683E-01 -0.16750255221E+02  0.10713394002E+02  0.19883414579E+02  0.51100000000E-03 0. -1.
        -11    1    3    3    0    0 -0.88337511284E+01 -0.24893680862E+02 -0.62153119562E+01  0.27135965228E+02  0.51100000000E-03 0.  1.
        -12    1    3    3    0    0  0.23471192965E-01  0.25465777058E+01  0.24147103865E+01  0.35094779041E+01  0.00000000000E+00 0.  1.
</event>
<event>
 7    1  0.9978258E-013  0.5052886E+02  0.7816164E-02  0.1300439E+00
        -11   -1    0    0    0    0  0.00000000000E+00  0.00000000000E+00  0.45593999997E+02  0.45594000000E+02  0.51100000000E-03 0. -1.
         11   -1    0    0    0    0 -0.00000000000E+00 -0.00000000000E+00 -0.45593999997E+02  0.45594000000E+02  0.51100000000E-03 0.  1.
    9900012    2    1    2    0    0  0.11153017293E+01  0.33741373084E+02  0.22659249074E+02  0.50528859279E+02  0.29999998264E+02 0.  0.
        -12    1    1    2    0    0 -0.11153017293E+01 -0.33741373084E+02 -0.22659249074E+02  0.40659140721E+02  0.00000000000E+00 0.  1.
         11    1    3    3    0    0  0.74907443413E+01  0.31586136712E+02  0.11503630092E+02  0.34440220509E+02  0.51100000000E-03 0. -1.
        -11    1    3    3    0    0 -0.14299968061E+01 -0.25980645441E+01  0.80119207341E+01  0.85431671148E+01  0.51100000000E-03 0.  1.
         12    1    3    3    0    0 -0.49454458058E+01  0.47533009168E+01  0.31436982478E+01  0.75454716551E+01  0.00000000000E+00 0. -1.
</event>
<event>
 7    1  0.9978258E-013  0.5052884E+02  0.7816164E-02  0.1300439E+00
        -11   -1    0    0    0    0  0.00000000000E+00  0.00000000000E+00  0.45593999997E+02  0.45594000000E+02  0.51100000000E-03 0.  1.
         11   -1    0    0    0    0 -0.00000000000E+00 -0.00000000000E+00 -0.45593999997E+02  0.45594000000E+02  0.51100000000E-03 0. -1.
    9900012    2    1    2    0    0  0.16456507342E+02  0.27593555465E+02 -0.24918787515E+02  0.50528844717E+02  0.29999954003E+02 0.  0.
        -12    1    1    2    0    0 -0.16456507342E+02 -0.27593555465E+02  0.24918787515E+02  0.40659155283E+02  0.00000000000E+00 0.  1.
         11    1    3    3    0    0  0.14498283229E+02  0.40731330188E+01 -0.16060164156E+02  0.22016346249E+02  0.51100000000E-03 0. -1.
        -11    1    3    3    0    0  0.18140732615E+01  0.20017808969E+02 -0.12541794469E+01  0.20138930062E+02  0.51100000000E-03 0.  1.
        -12    1    3    3    0    0  0.14415085105E+00  0.35026134771E+01 -0.76044439116E+01  0.83735684055E+01  0.00000000000E+00 0.  1.
</event>
<event>
 7    1  0.9978258E-013  0.5052886E+02  0.7816164E-02  0.1300439E+00
        -11   -1    0    0    0    0  0.00000000000E+00  0.00000000000E+00  0.45593999997E+02  0.45594000000E+02  0.51100000000E-03 0.  1.
         11   -1    0    0    0    0 -0.00000000000E+00 -0.00000000000E+00 -0.45593999997E+02  0.45594000000E+02  0.51100000000E-03 0. -1.
    9900012    2    1    2    0    0  0.16881412360E+02  0.87023950443E+01 -0.35950691623E+02  0.50528855998E+02  0.29999988292E+02 0.  0.
        -12    1    1    2    0    0 -0.16881412360E+02 -0.87023950443E+01  0.35950691623E+02  0.40659144002E+02  0.00000000000E+00 0.  1.
         11    1    3    3    0    0  0.90857250002E+01  0.96635465140E+00 -0.19784904246E+02  0.21792812494E+02  0.51100000000E-03 0. -1.
        -11    1    3    3    0    0  0.64375084024E+01  0.13188535532E+02 -0.38096138828E+01  0.15162194502E+02  0.51100000000E-03 0.  1.
        -12    1    3    3    0    0  0.13581789572E+01 -0.54524951392E+01 -0.12356173494E+02  0.13573849003E+02  0.00000000000E+00 0.  1.
</event>
<event>
 7    1  0.9978258E-013  0.5052885E+02  0.7816164E-02  0.1300439E+00
        -11   -1    0    0    0    0  0.00000000000E+00  0.00000000000E+00  0.45593999997E+02  0.45594000000E+02  0.51100000000E-03 0.  1.
         11   -1    0    0    0    0 -0.00000000000E+00 -0.00000000000E+00 -0.45593999997E+02  0.45594000000E+02  0.51100000000E-03 0. -1.
    9900012    2    1    2    0    0 -0.31802228708E+02 -0.21122822683E+02 -0.13986106411E+02  0.50528848982E+02  0.29999966967E+02 0.  0.
        -12    1    1    2    0    0  0.31802228708E+02  0.21122822683E+02  0.13986106411E+02  0.40659151018E+02  0.00000000000E+00 0.  1.
         11    1    3    3    0    0 -0.22484713811E+02 -0.72553584770E+01 -0.12380427764E+02  0.26673536955E+02  0.51100000000E-03 0. -1.
        -11    1    3    3    0    0 -0.11821086707E+02 -0.14950420433E+02  0.21862573852E+01  0.19184183164E+02  0.51100000000E-03 0.  1.
        -12    1    3    3    0    0  0.25035718093E+01  0.10829562263E+01 -0.37919360322E+01  0.46711288640E+01  0.00000000000E+00 0.  1.
</event>
<event>
 7    1  0.9978258E-013  0.5052895E+02  0.7816164E-02  0.1300438E+00
        -11   -1    0    0    0    0  0.00000000000E+00  0.00000000000E+00  0.45593999997E+02  0.45594000000E+02  0.51100000000E-03 0.  1.
         11   -1    0    0    0    0 -0.00000000000E+00 -0.00000000000E+00 -0.45593999997E+02  0.45594000000E+02  0.51100000000E-03 0. -1.
    9900012    2    1    2    0    0 -0.26973196805E+02  0.28540231787E+02 -0.10538498436E+02  0.50528952721E+02  0.30000282289E+02 0.  0.
        -12    1    1    2    0    0  0.26973196805E+02 -0.28540231787E+02  0.10538498436E+02  0.40659047279E+02  0.00000000000E+00 0.  1.
         11    1    3    3    0    0 -0.10046539591E+02  0.41686193084E+01 -0.13085635978E+02  0.17015998763E+02  0.51100000000E-03 0. -1.
        -11    1    3    3    0    0 -0.25187518073E+01  0.17072442753E+02  0.96233640991E+00  0.17284053455E+02  0.51100000000E-03 0.  1.
        -12    1    3    3    0    0 -0.14407905407E+02  0.72991697261E+01  0.15848011317E+01  0.16228900503E+02  0.00000000000E+00 0.  1.
</event>
<event>
 7    1  0.9978258E-013  0.5052885E+02  0.7816164E-02  0.1300439E+00
        -11   -1    0    0    0    0  0.00000000000E+00  0.00000000000E+00  0.45593999997E+02  0.45594000000E+02  0.51100000000E-03 0.  1.
         11   -1    0    0    0    0 -0.00000000000E+00 -0.00000000000E+00 -0.45593999997E+02  0.45594000000E+02  0.51100000000E-03 0. -1.
    9900012    2    1    2    0    0 -0.22341097524E+02  0.92535301843E+01 -0.32686600440E+02  0.50528852103E+02  0.29999976451E+02 0.  0.
        -12    1    1    2    0    0  0.22341097524E+02 -0.92535301843E+01  0.32686600440E+02  0.40659147897E+02  0.00000000000E+00 0.  1.
         11    1    3    3    0    0 -0.13282995338E+02  0.17269505930E+02 -0.17941756938E+02  0.28223756704E+02  0.51100000000E-03 0. -1.
        -11    1    3    3    0    0 -0.44569823577E+01 -0.36815885179E+01 -0.14899874400E+02  0.15982022499E+02  0.51100000000E-03 0.  1.
         12    1    3    3    0    0 -0.46011198282E+01 -0.43343872281E+01  0.15503089793E+00  0.63230728998E+01  0.00000000000E+00 0. -1.
</event>
<event>
 7    1  0.9978258E-013  0.5052887E+02  0.7816164E-02  0.1300439E+00
        -11   -1    0    0    0    0  0.00000000000E+00  0.00000000000E+00  0.45593999997E+02  0.45594000000E+02  0.51100000000E-03 0. -1.
         11   -1    0    0    0    0 -0.00000000000E+00 -0.00000000000E+00 -0.45593999997E+02  0.45594000000E+02  0.51100000000E-03 0.  1.
    9900012    2    1    2    0    0 -0.36140052049E+02 -0.12705469843E+02  0.13624715722E+02  0.50528865669E+02  0.30000017689E+02 0.  0.
        -12    1    1    2    0    0  0.36140052049E+02  0.12705469843E+02 -0.13624715722E+02  0.40659134331E+02  0.00000000000E+00 0.  1.
         11    1    3    3    0    0 -0.21828765328E+02 -0.10559118327E+02 -0.15884238417E+01  0.24300474608E+02  0.51100000000E-03 0. -1.
        -11    1    3    3    0    0 -0.39552428834E+01 -0.41979507179E+01  0.14548599274E+02  0.15650190977E+02  0.51100000000E-03 0.  1.
         12    1    3    3    0    0 -0.10356043837E+02  0.20515992024E+01  0.66454028934E+00  0.10578200085E+02  0.00000000000E+00 0. -1.
</event>
<event>
 7    1  0.9978258E-013  0.5052878E+02  0.7816164E-02  0.1300439E+00
        -11   -1    0    0    0    0  0.00000000000E+00  0.00000000000E+00  0.45593999997E+02  0.45594000000E+02  0.51100000000E-03 0. -1.
         11   -1    0    0    0    0 -0.00000000000E+00 -0.00000000000E+00 -0.45593999997E+02  0.45594000000E+02  0.51100000000E-03 0.  1.
    9900012    2    1    2    0    0 -0.22571689438E+02  0.33803669955E+02  0.10014327152E+01  0.50528780455E+02  0.29999758672E+02 0.  0.
        -12    1    1    2    0    0  0.22571689438E+02 -0.33803669955E+02 -0.10014327152E+01  0.40659219545E+02  0.00000000000E+00 0.  1.
         11    1    3    3    0    0 -0.12395774807E+02  0.29172568540E+02 -0.82431806779E+00  0.31707625089E+02  0.51100000000E-03 0. -1.
        -11    1    3    3    0    0  0.12434905925E+01 -0.37397772428E+01 -0.16003701002E+01  0.42536322594E+01  0.51100000000E-03 0.  1.
        -12    1    3    3    0    0 -0.11419405223E+02  0.83708786579E+01  0.34261208832E+01  0.14567523107E+02  0.00000000000E+00 0.  1.
</event>
<event>
 7    1  0.9978258E-013  0.5052886E+02  0.7816164E-02  0.1300439E+00
        -11   -1    0    0    0    0  0.00000000000E+00  0.00000000000E+00  0.45593999997E+02  0.45594000000E+02  0.51100000000E-03 0. -1.
         11   -1    0    0    0    0 -0.00000000000E+00 -0.00000000000E+00 -0.45593999997E+02  0.45594000000E+02  0.51100000000E-03 0.  1.
    9900012    2    1    2    0    0 -0.40116092311E+02  0.60770483939E+01  0.26332522027E+01  0.50528863306E+02  0.30000010505E+02 0.  0.
        -12    1    1    2    0    0  0.40116092311E+02 -0.60770483939E+01 -0.26332522027E+01  0.40659136694E+02  0.00000000000E+00 0.  1.
         11    1    3    3    0    0 -0.16882713554E+02 -0.46141977336E+01  0.66402493049E+01  0.18719234727E+02  0.51100000000E-03 0. -1.
        -11    1    3    3    0    0 -0.23558994670E+02  0.14274689244E+02 -0.51719812603E+01  0.28027528847E+02  0.51100000000E-03 0.  1.
        -12    1    3    3    0    0  0.32561591243E+00 -0.35834431167E+01  0.11649841581E+01  0.37820997318E+01  0.00000000000E+00 0.  1.
</event>
<event>
 7    1  0.9978258E-013  0.5052888E+02  0.7816164E-02  0.1300439E+00
        -11   -1    0    0    0    0  0.00000000000E+00  0.00000000000E+00  0.45593999997E+02  0.45594000000E+02  0.51100000000E-03 0.  1.
         11   -1    0    0    0    0 -0.00000000000E+00 -0.00000000000E+00 -0.45593999997E+02  0.45594000000E+02  0.51100000000E-03 0. -1.
    9900012    2    1    2    0    0 -0.28433291961E+02 -0.45099884526E+01 -0.28711879762E+02  0.50528878920E+02  0.30000057964E+02 0.  0.
        -12    1    1    2    0    0  0.28433291961E+02  0.45099884526E+01  0.28711879762E+02  0.40659121080E+02  0.00000000000E+00 0.  1.
         11    1    3    3    0    0 -0.13342343884E+02 -0.55350984772E+01  0.10286487522E+01  0.14481490738E+02  0.51100000000E-03 0.  1.
        -11    1    3    3    0    0 -0.11776529204E+02  0.24708721237E+01 -0.30097537337E+02  0.32413787239E+02  0.51100000000E-03 0. -1.
         12    1    3    3    0    0 -0.33144188724E+01 -0.14457620992E+01  0.35700882342E+00  0.36336009425E+01  0.00000000000E+00 0. -1.
</event>
<event>
 7    1  0.9978258E-013  0.5052886E+02  0.7816164E-02  0.1300439E+00
        -11   -1    0    0    0    0  0.00000000000E+00  0.00000000000E+00  0.45593999997E+02  0.45594000000E+02  0.51100000000E-03 0.  1.
         11   -1    0    0    0    0 -0.00000000000E+00 -0.00000000000E+00 -0.45593999997E+02  0.45594000000E+02  0.51100000000E-03 0. -1.
    9900012    2    1    2    0    0 -0.17833543659E+02  0.23150609010E+02 -0.28269762943E+02  0.50528862357E+02  0.30000007621E+02 0.  0.
        -12    1    1    2    0    0  0.17833543659E+02 -0.23150609010E+02  0.28269762943E+02  0.40659137643E+02  0.00000000000E+00 0.  1.
         11    1    3    3    0    0 -0.18698797386E+02  0.89713947172E+01 -0.28051338041E+02  0.34885649098E+02  0.51100000000E-03 0. -1.
        -11    1    3    3    0    0  0.14392198393E+01  0.61628397068E+01 -0.31741260050E+01  0.70800440079E+01  0.51100000000E-03 0.  1.
         12    1    3    3    0    0 -0.57396611225E+00  0.80163745864E+01  0.29557011033E+01  0.85631692509E+01  0.00000000000E+00 0. -1.
</event>
<event>
 7    1  0.9978258E-013  0.5052885E+02  0.7816164E-02  0.1300439E+00
        -11   -1    0    0    0    0  0.00000000000E+00  0.00000000000E+00  0.45593999997E+02  0.45594000000E+02  0.51100000000E-03 0.  1.
         11   -1    0    0    0    0 -0.00000000000E+00 -0.00000000000E+00 -0.45593999997E+02  0.45594000000E+02  0.51100000000E-03 0. -1.
    9900012    2    1    2    0    0 -0.16299825991E+02 -0.14149077799E+02 -0.34457018696E+02  0.50528845222E+02  0.29999955535E+02 0.  0.
        -12    1    1    2    0    0  0.16299825991E+02  0.14149077799E+02  0.34457018696E+02  0.40659154778E+02  0.00000000000E+00 0.  1.
         11    1    3    3    0    0 -0.53773507468E+01 -0.29547923253E+01  0.43917785829E+01  0.75454899193E+01  0.51100000000E-03 0. -1.
        -11    1    3    3    0    0 -0.94923299976E+00 -0.39916003477E+00 -0.14544487864E+02  0.14580895018E+02  0.51100000000E-03 0.  1.
         12    1    3    3    0    0 -0.99732422441E+01 -0.10795125439E+02 -0.24304309414E+02  0.28402460285E+02  0.00000000000E+00 0. -1.
</event>
<event>
 7    1  0.9978258E-013  0.5052886E+02  0.7816164E-02  0.1300439E+00
        -11   -1    0    0    0    0  0.00000000000E+00  0.00000000000E+00  0.45593999997E+02  0.45594000000E+02  0.51100000000E-03 0.  1.
         11   -1    0    0    0    0 -0.00000000000E+00 -0.00000000000E+00 -0.45593999997E+02  0.45594000000E+02  0.51100000000E-03 0. -1.
    9900012    2    1    2    0    0 -0.35984590492E+02 -0.65284446374E+01 -0.17766668905E+02  0.50528857532E+02  0.29999992953E+02 0.  0.
        -12    1    1    2    0    0  0.35984590492E+02  0.65284446374E+01  0.17766668905E+02  0.40659142468E+02  0.00000000000E+00 0.  1.
         11    1    3    3    0    0 -0.16518684447E+02 -0.14643456982E+01 -0.18511021742E+02  0.24852950939E+02  0.51100000000E-03 0. -1.
        -11    1    3    3    0    0 -0.14955524521E+02 -0.27124217634E+01  0.77159899817E+01  0.17045863052E+02  0.51100000000E-03 0.  1.
        -12    1    3    3    0    0 -0.45103815244E+01 -0.23516771758E+01 -0.69716371452E+01  0.86300435410E+01  0.00000000000E+00 0.  1.
</event>
<event>
 7    1  0.9978258E-013  0.5052886E+02  0.7816164E-02  0.1300439E+00
        -11   -1    0    0    0    0  0.00000000000E+00  0.00000000000E+00  0.45593999997E+02  0.45594000000E+02  0.51100000000E-03 0. -1.
         11   -1    0    0    0    0 -0.00000000000E+00 -0.00000000000E+00 -0.45593999997E+02  0.45594000000E+02  0.51100000000E-03 0.  1.
    9900012    2    1    2    0    0  0.27887859067E+02 -0.29424326372E+02  0.31051685086E+01  0.50528859118E+02  0.29999997776E+02 0.  0.
        -12    1    1    2    0    0 -0.27887859067E+02  0.29424326372E+02 -0.31051685086E+01  0.40659140882E+02  0.00000000000E+00 0.  1.
         11    1    3    3    0    0  0.85806569039E+01  0.45667709786E-01 -0.20975861135E+01  0.88334379608E+01  0.51100000000E-03 0. -1.
        -11    1    3    3    0    0  0.10224319725E+02 -0.28795603369E+02 -0.11702227409E+01  0.30579288886E+02  0.51100000000E-03 0.  1.
        -12    1    3    3    0    0  0.90828824378E+01 -0.67439071194E+00  0.63729773629E+01  0.11116132272E+02  0.00000000000E+00 0.  1.
</event>
