<event>
 7    1  0.3020651E-013  0.7246154E+02  0.7816164E-02  0.1226708E+00
        -11   -1    0    0    0    0  0.00000000000E+00  0.00000000000E+00  0.45593999997E+02  0.45594000000E+02  0.51100000000E-03 0.  1.
         11   -1    0    0    0    0 -0.00000000000E+00 -0.00000000000E+00 -0.45593999997E+02  0.45594000000E+02  0.51100000000E-03 0. -1.
    9900012    2    1    2    0    0  0.18029154562E+02  0.34278369913E+01  0.37255842319E+01  0.72461535877E+02  0.69999955166E+02 0.  0.
         12    1    1    2    0    0 -0.18029154562E+02 -0.34278369913E+01 -0.37255842319E+01  0.18726464123E+02  0.00000000000E+00 0. -1.
         11    1    3    3    0    0 -0.66174278515E+01 -0.13336491637E+02 -0.49654116788E+01  0.15694192364E+02  0.51100000000E-03 0. -1.
        -11    1    3    3    0    0 -0.10927756845E+02  0.13623403854E+01 -0.89366884291E+01  0.14182250926E+02  0.51100000000E-03 0.  1.
        -12    1    3    3    0    0  0.35574339259E+02  0.15401988243E+02  0.17627684340E+02  0.42585092588E+02  0.00000000000E+00 0.  1.
</event>
<event>
 7    1  0.3020651E-013  0.7246158E+02  0.7816164E-02  0.1226708E+00
        -11   -1    0    0    0    0  0.00000000000E+00  0.00000000000E+00  0.45593999997E+02  0.45594000000E+02  0.51100000000E-03 0.  1.
         11   -1    0    0    0    0 -0.00000000000E+00 -0.00000000000E+00 -0.45593999997E+02  0.45594000000E+02  0.51100000000E-03 0. -1.
    9900012    2    1    2    0    0  0.15616696798E+01  0.18614820798E+02  0.13147442142E+01  0.72461577013E+02  0.70000008753E+02 0.  0.
         12    1    1    2    0    0 -0.15616696798E+01 -0.18614820798E+02 -0.13147442142E+01  0.18726422987E+02  0.00000000000E+00 0. -1.
         11    1    3    3    0    0  0.79332269165E+01 -0.36420937766E+01  0.56509370422E+01  0.10398751180E+02  0.51100000000E-03 0. -1.
        -11    1    3    3    0    0  0.12662450641E+02 -0.49291690840E+01  0.17634443886E+02  0.22262254503E+02  0.51100000000E-03 0.  1.
         12    1    3    3    0    0 -0.19034007878E+02  0.27186083659E+02 -0.21970636714E+02  0.39800571330E+02  0.00000000000E+00 0. -1.
</event>
<event>
 7    1  0.3020651E-013  0.7246158E+02  0.7816164E-02  0.1226708E+00
        -11   -1    0    0    0    0  0.00000000000E+00  0.00000000000E+00  0.45593999997E+02  0.45594000000E+02  0.51100000000E-03 0.  1.
         11   -1    0    0    0    0 -0.00000000000E+00 -0.00000000000E+00 -0.45593999997E+02  0.45594000000E+02  0.51100000000E-03 0. -1.
    9900012    2    1    2    0    0  0.15291391659E+02  0.52611125071E+01 -0.94431305629E+01  0.72461583405E+02  0.70000017078E+02 0.  0.
         12    1    1    2    0    0 -0.15291391659E+02 -0.52611125071E+01  0.94431305629E+01  0.18726416595E+02  0.00000000000E+00 0. -1.
         11    1    3    3    0    0 -0.25205171307E+01 -0.30126638571E+01 -0.10228899061E+02  0.10957167809E+02  0.51100000000E-03 0. -1.
        -11    1    3    3    0    0 -0.61476292965E+01 -0.12919234110E+02  0.19696953175E+02  0.24344813012E+02  0.51100000000E-03 0.  1.
         12    1    3    3    0    0  0.23959538086E+02  0.21193010474E+02 -0.18911184677E+02  0.37159602583E+02  0.00000000000E+00 0. -1.
</event>
<event>
 7    1  0.3020651E-013  0.7246137E+02  0.7816164E-02  0.1226709E+00
        -11   -1    0    0    0    0  0.00000000000E+00  0.00000000000E+00  0.45593999997E+02  0.45594000000E+02  0.51100000000E-03 0.  1.
         11   -1    0    0    0    0 -0.00000000000E+00 -0.00000000000E+00 -0.45593999997E+02  0.45594000000E+02  0.51100000000E-03 0. -1.
    9900012    2    1    2    0    0  0.35856679277E+01 -0.18020690257E+02 -0.36172096259E+01  0.72461374642E+02  0.69999745126E+02 0.  0.
         12    1    1    2    0    0 -0.35856679277E+01  0.18020690257E+02  0.36172096259E+01  0.18726625358E+02  0.00000000000E+00 0. -1.
         11    1    3    3    0    0  0.13088972105E+02 -0.37668893019E+01 -0.18146652342E+02  0.22689460929E+02  0.51100000000E-03 0. -1.
        -11    1    3    3    0    0 -0.10509409981E+02 -0.48928252538E+01 -0.14896946050E+02  0.18876081134E+02  0.51100000000E-03 0.  1.
        -12    1    3    3    0    0  0.10061058038E+01 -0.93609757012E+01  0.29426388765E+02  0.30895832579E+02  0.00000000000E+00 0.  1.
</event>
<event>
 7    1  0.3020651E-013  0.7246160E+02  0.7816164E-02  0.1226708E+00
        -11   -1    0    0    0    0  0.00000000000E+00  0.00000000000E+00  0.45593999997E+02  0.45594000000E+02  0.51100000000E-03 0.  1.
         11   -1    0    0    0    0 -0.00000000000E+00 -0.00000000000E+00 -0.45593999997E+02  0.45594000000E+02  0.51100000000E-03 0. -1.
    9900012    2    1    2    0    0 -0.21271891871E+01  0.14695821821E+02  0.11409899547E+02  0.72461603643E+02  0.70000043443E+02 0.  0.
         12    1    1    2    0    0  0.21271891871E+01 -0.14695821821E+02 -0.11409899547E+02  0.18726396357E+02  0.00000000000E+00 0. -1.
         11    1    3    3    0    0 -0.10943502432E+02  0.22418209437E+01  0.82538186371E+01  0.13889259483E+02  0.51100000000E-03 0. -1.
        -11    1    3    3    0    0  0.15838573828E+02 -0.59407748264E+01  0.24346501340E+02  0.29646337956E+02  0.51100000000E-03 0.  1.
         12    1    3    3    0    0 -0.70222605828E+01  0.18394775704E+02 -0.21190420430E+02  0.28926006204E+02  0.00000000000E+00 0. -1.
</event>
<event>
 7    1  0.3020651E-013  0.7246157E+02  0.7816164E-02  0.1226708E+00
        -11   -1    0    0    0    0  0.00000000000E+00  0.00000000000E+00  0.45593999997E+02  0.45594000000E+02  0.51100000000E-03 0. -1.
         11   -1    0    0    0    0 -0.00000000000E+00 -0.00000000000E+00 -0.45593999997E+02  0.45594000000E+02  0.51100000000E-03 0.  1.
    9900012    2    1    2    0    0  0.22377610317E+01  0.35507295164E+01 -0.18250041109E+02  0.72461568012E+02  0.69999997027E+02 0.  0.
         12    1    1    2    0    0 -0.22377610317E+01 -0.35507295164E+01  0.18250041109E+02  0.18726431988E+02  0.00000000000E+00 0. -1.
         11    1    3    3    0    0 -0.15534052301E+02  0.52969998053E+01 -0.34785373827E+02  0.38462803075E+02  0.51100000000E-03 0.  1.
        -11    1    3    3    0    0  0.20088595789E+02  0.15529999425E+01  0.36229492604E+01  0.20471669477E+02  0.51100000000E-03 0. -1.
        -12    1    3    3    0    0 -0.23167824562E+01 -0.32992702314E+01  0.12912383458E+02  0.13527095460E+02  0.00000000000E+00 0.  1.
</event>
<event>
 7    1  0.3020651E-013  0.7246157E+02  0.7816164E-02  0.1226708E+00
        -11   -1    0    0    0    0  0.00000000000E+00  0.00000000000E+00  0.45593999997E+02  0.45594000000E+02  0.51100000000E-03 0.  1.
         11   -1    0    0    0    0 -0.00000000000E+00 -0.00000000000E+00 -0.45593999997E+02  0.45594000000E+02  0.51100000000E-03 0. -1.
    9900012    2    1    2    0    0  0.15287955108E+02 -0.11910346776E+01 -0.10748908191E+02  0.72461570487E+02  0.70000000251E+02 0.  0.
         12    1    1    2    0    0 -0.15287955108E+02  0.11910346776E+01  0.10748908191E+02  0.18726429513E+02  0.00000000000E+00 0. -1.
         11    1    3    3    0    0  0.20473707398E+02 -0.16479558093E+01 -0.32470268713E+02  0.38421436771E+02  0.51100000000E-03 0. -1.
        -11    1    3    3    0    0 -0.18509576794E+01 -0.43852876861E+00 -0.59024308118E+01  0.62013741672E+01  0.51100000000E-03 0.  1.
        -12    1    3    3    0    0 -0.33347946108E+01  0.89544990036E+00  0.27623791333E+02  0.27838759549E+02  0.00000000000E+00 0.  1.
</event>
<event>
 7    1  0.3020651E-013  0.7246161E+02  0.7816164E-02  0.1226708E+00
        -11   -1    0    0    0    0  0.00000000000E+00  0.00000000000E+00  0.45593999997E+02  0.45594000000E+02  0.51100000000E-03 0.  1.
         11   -1    0    0    0    0 -0.00000000000E+00 -0.00000000000E+00 -0.45593999997E+02  0.45594000000E+02  0.51100000000E-03 0. -1.
    9900012    2    1    2    0    0 -0.14536936977E+02  0.22166585421E+01  0.11594899616E+02  0.72461606624E+02  0.70000047326E+02 0.  0.
         12    1    1    2    0    0  0.14536936977E+02 -0.22166585421E+01 -0.11594899616E+02  0.18726393376E+02  0.00000000000E+00 0. -1.
         11    1    3    3    0    0 -0.25320104563E+02 -0.37822780057E+01 -0.17812489052E+02  0.31188108126E+02  0.51100000000E-03 0. -1.
        -11    1    3    3    0    0 -0.77935415668E+01  0.11852516505E+01  0.16082823625E+02  0.17910927604E+02  0.51100000000E-03 0.  1.
        -12    1    3    3    0    0  0.18576709153E+02  0.48136848973E+01  0.13324565043E+02  0.23362570895E+02  0.00000000000E+00 0.  1.
</event>
<event>
 7    1  0.3020651E-013  0.7246158E+02  0.7816164E-02  0.1226708E+00
        -11   -1    0    0    0    0  0.00000000000E+00  0.00000000000E+00  0.45593999997E+02  0.45594000000E+02  0.51100000000E-03 0. -1.
         11   -1    0    0    0    0 -0.00000000000E+00 -0.00000000000E+00 -0.45593999997E+02  0.45594000000E+02  0.51100000000E-03 0.  1.
    9900012    2    1    2    0    0 -0.77846423760E+00 -0.18678191465E+02 -0.10945493349E+01  0.72461577992E+02  0.70000010028E+02 0.  0.
         12    1    1    2    0    0  0.77846423760E+00  0.18678191465E+02  0.10945493349E+01  0.18726422008E+02  0.00000000000E+00 0. -1.
         11    1    3    3    0    0 -0.74214307251E+01  0.71880568237E+01  0.98358295146E+01  0.14264968889E+02  0.51100000000E-03 0. -1.
        -11    1    3    3    0    0  0.17402764129E+02  0.97548218889E+01 -0.38276029843E+01  0.20314115641E+02  0.51100000000E-03 0.  1.
         12    1    3    3    0    0 -0.10759797641E+02 -0.35621070178E+02 -0.71027758652E+01  0.37882493462E+02  0.00000000000E+00 0. -1.
</event>
<event>
 7    1  0.3020651E-013  0.7246159E+02  0.7816164E-02  0.1226708E+00
        -11   -1    0    0    0    0  0.00000000000E+00  0.00000000000E+00  0.45593999997E+02  0.45594000000E+02  0.51100000000E-03 0.  1.
         11   -1    0    0    0    0 -0.00000000000E+00 -0.00000000000E+00 -0.45593999997E+02  0.45594000000E+02  0.51100000000E-03 0. -1.
    9900012    2    1    2    0    0  0.88659609988E+01 -0.47937669060E+01  0.15782679838E+02  0.72461589547E+02  0.70000025080E+02 0.  0.
         12    1    1    2    0    0 -0.88659609988E+01  0.47937669060E+01 -0.15782679838E+02  0.18726410453E+02  0.00000000000E+00 0. -1.
         11    1    3    3    0    0 -0.92052050779E+00  0.49867205406E+01 -0.26115253850E+02  0.26603030347E+02  0.51100000000E-03 0. -1.
        -11    1    3    3    0    0 -0.93497542125E+00 -0.61245011816E+00 -0.46349983439E+00  0.12100027038E+01  0.51100000000E-03 0.  1.
        -12    1    3    3    0    0  0.10721456928E+02 -0.91680373285E+01  0.42361433522E+02  0.44648556496E+02  0.00000000000E+00 0.  1.
</event>
<event>
 7    1  0.3020651E-013  0.7246164E+02  0.7816164E-02  0.1226708E+00
        -11   -1    0    0    0    0  0.00000000000E+00  0.00000000000E+00  0.45593999997E+02  0.45594000000E+02  0.51100000000E-03 0.  1.
         11   -1    0    0    0    0 -0.00000000000E+00 -0.00000000000E+00 -0.45593999997E+02  0.45594000000E+02  0.51100000000E-03 0. -1.
    9900012    2    1    2    0    0 -0.10095434182E+02  0.43824334648E+01  0.15151004330E+02  0.72461642997E+02  0.70000094708E+02 0.  0.
         12    1    1    2    0    0  0.10095434182E+02 -0.43824334648E+01 -0.15151004330E+02  0.18726357003E+02  0.00000000000E+00 0. -1.
         11    1    3    3    0    0 -0.28181363389E+02  0.17757017689E+02  0.24258421716E+02  0.41206455126E+02  0.51100000000E-03 0. -1.
        -11    1    3    3    0    0 -0.18288066563E+01 -0.19687178585E+01  0.40055649263E+01  0.48233737604E+01  0.51100000000E-03 0.  1.
         12    1    3    3    0    0  0.19914735863E+02 -0.11405866366E+02 -0.13112982312E+02  0.26431814110E+02  0.00000000000E+00 0. -1.
</event>
<event>
 7    1  0.3020651E-013  0.7246163E+02  0.7816164E-02  0.1226708E+00
        -11   -1    0    0    0    0  0.00000000000E+00  0.00000000000E+00  0.45593999997E+02  0.45594000000E+02  0.51100000000E-03 0. -1.
         11   -1    0    0    0    0 -0.00000000000E+00 -0.00000000000E+00 -0.45593999997E+02  0.45594000000E+02  0.51100000000E-03 0.  1.
    9900012    2    1    2    0    0 -0.13121785463E+02 -0.18887699574E+01  0.13226041753E+02  0.72461631262E+02  0.70000079421E+02 0.  0.
         12    1    1    2    0    0  0.13121785463E+02  0.18887699574E+01 -0.13226041753E+02  0.18726368738E+02  0.00000000000E+00 0. -1.
         11    1    3    3    0    0  0.16455732554E+02  0.27000014599E+01 -0.90409329571E+01  0.18968911691E+02  0.51100000000E-03 0. -1.
        -11    1    3    3    0    0 -0.68163007942E+00 -0.17125206292E+02  0.76791634480E+01  0.18780491517E+02  0.51100000000E-03 0.  1.
        -12    1    3    3    0    0 -0.28895887937E+02  0.12536434874E+02  0.14587811262E+02  0.34712228053E+02  0.00000000000E+00 0.  1.
</event>
<event>
 7    1  0.3020651E-013  0.7246157E+02  0.7816164E-02  0.1226708E+00
        -11   -1    0    0    0    0  0.00000000000E+00  0.00000000000E+00  0.45593999997E+02  0.45594000000E+02  0.51100000000E-03 0. -1.
         11   -1    0    0    0    0 -0.00000000000E+00 -0.00000000000E+00 -0.45593999997E+02  0.45594000000E+02  0.51100000000E-03 0.  1.
    9900012    2    1    2    0    0  0.13139843331E+02 -0.20877546292E+01 -0.13178202157E+02  0.72461569101E+02  0.69999998445E+02 0.  0.
         12    1    1    2    0    0 -0.13139843331E+02  0.20877546292E+01  0.13178202157E+02  0.18726430899E+02  0.00000000000E+00 0. -1.
         11    1    3    3    0    0 -0.32335758813E+01 -0.97626342144E+01 -0.28635362497E+02  0.30426124061E+02  0.51100000000E-03 0. -1.
        -11    1    3    3    0    0 -0.10385487703E+02 -0.11986560415E+01  0.14463802716E+01  0.10554010957E+02  0.51100000000E-03 0.  1.
        -12    1    3    3    0    0  0.26758906915E+02  0.88735356267E+01  0.14010780069E+02  0.31481434083E+02  0.00000000000E+00 0.  1.
</event>
<event>
 7    1  0.3434465E-013  0.7246153E+02  0.7816164E-02  0.1226708E+00
        -11   -1    0    0    0    0  0.00000000000E+00  0.00000000000E+00  0.45593999997E+02  0.45594000000E+02  0.51100000000E-03 0. -1.
         11   -1    0    0    0    0 -0.00000000000E+00 -0.00000000000E+00 -0.45593999997E+02  0.45594000000E+02  0.51100000000E-03 0.  1.
    9900012    2    1    2    0    0  0.82905277520E+01 -0.11630353416E+02 -0.12111258550E+02  0.72461533311E+02  0.69999951822E+02 0.  0.
         12    1    1    2    0    0 -0.82905277520E+01  0.11630353416E+02  0.12111258550E+02  0.18726466689E+02  0.00000000000E+00 0. -1.
         11    1    3    3    0    0 -0.19291280726E+01 -0.17822033606E+02  0.30591025401E+01  0.18185283214E+02  0.51100000000E-03 0. -1.
        -11    1    3    3    0    0  0.12461990487E+01 -0.32280851649E+01 -0.32457054503E+02  0.32640985481E+02  0.51100000000E-03 0.  1.
         12    1    3    3    0    0  0.89734567760E+01  0.94197653549E+01  0.17286693413E+02  0.21635264616E+02  0.00000000000E+00 0. -1.
</event>
<event>
 7    1  0.3020651E-013  0.7246159E+02  0.7816164E-02  0.1226708E+00
        -11   -1    0    0    0    0  0.00000000000E+00  0.00000000000E+00  0.45593999997E+02  0.45594000000E+02  0.51100000000E-03 0.  1.
         11   -1    0    0    0    0 -0.00000000000E+00 -0.00000000000E+00 -0.45593999997E+02  0.45594000000E+02  0.51100000000E-03 0. -1.
    9900012    2    1    2    0    0  0.61440819655E+01 -0.12161619791E+02  0.12846160421E+02  0.72461586123E+02  0.70000020620E+02 0.  0.
         12    1    1    2    0    0 -0.61440819655E+01  0.12161619791E+02 -0.12846160421E+02  0.18726413877E+02  0.00000000000E+00 0. -1.
         11    1    3    3    0    0  0.34159752481E+01 -0.92875845755E+01  0.38880777451E+01  0.10632274590E+02  0.51100000000E-03 0. -1.
        -11    1    3    3    0    0 -0.14964406514E+02 -0.98883812946E+01  0.29058301266E+02  0.34148183255E+02  0.51100000000E-03 0.  1.
         12    1    3    3    0    0  0.17692513231E+02  0.70143460791E+01 -0.20100218590E+02  0.27681128277E+02  0.00000000000E+00 0. -1.
</event>
<event>
 7    1  0.3020651E-013  0.7246148E+02  0.7816164E-02  0.1226708E+00
        -11   -1    0    0    0    0  0.00000000000E+00  0.00000000000E+00  0.45593999997E+02  0.45594000000E+02  0.51100000000E-03 0. -1.
         11   -1    0    0    0    0 -0.00000000000E+00 -0.00000000000E+00 -0.45593999997E+02  0.45594000000E+02  0.51100000000E-03 0.  1.
    9900012    2    1    2    0    0  0.17321929146E+02  0.38254514245E+01  0.59999255520E+01  0.72461483651E+02  0.69999887131E+02 0.  0.
         12    1    1    2    0    0 -0.17321929146E+02 -0.38254514245E+01 -0.59999255520E+01  0.18726516349E+02  0.00000000000E+00 0. -1.
         11    1    3    3    0    0  0.15018161529E+02  0.10119071033E+02  0.23245232825E+02  0.29466618802E+02  0.51100000000E-03 0. -1.
        -11    1    3    3    0    0 -0.32211867869E+01 -0.20690792723E+02 -0.15590457298E+01  0.20997989706E+02  0.51100000000E-03 0.  1.
        -12    1    3    3    0    0  0.55249544042E+01  0.14397173115E+02 -0.15686261543E+02  0.21996875143E+02  0.00000000000E+00 0.  1.
</event>
<event>
 7    1  0.3020651E-013  0.7246156E+02  0.7816164E-02  0.1226708E+00
        -11   -1    0    0    0    0  0.00000000000E+00  0.00000000000E+00  0.45593999997E+02  0.45594000000E+02  0.51100000000E-03 0.  1.
         11   -1    0    0    0    0 -0.00000000000E+00 -0.00000000000E+00 -0.45593999997E+02  0.45594000000E+02  0.51100000000E-03 0. -1.
    9900012    2    1    2    0    0  0.40165372425E+01 -0.17347182292E+02  0.57984536246E+01  0.72461564960E+02  0.69999993051E+02 0.  0.
         12    1    1    2    0    0 -0.40165372425E+01  0.17347182292E+02 -0.57984536246E+01  0.18726435040E+02  0.00000000000E+00 0. -1.
         11    1    3    3    0    0 -0.41809606139E+01  0.18480415459E+01  0.77658648438E+01  0.90113454181E+01  0.51100000000E-03 0. -1.
        -11    1    3    3    0    0 -0.12522137656E+02  0.14278027406E+02 -0.12453878456E+02  0.22710462059E+02  0.51100000000E-03 0.  1.
         12    1    3    3    0    0  0.20719635512E+02 -0.33473251244E+02  0.10486467237E+02  0.40739757482E+02  0.00000000000E+00 0. -1.
</event>
<event>
 7    1  0.3020651E-013  0.7246157E+02  0.7816164E-02  0.1226708E+00
        -11   -1    0    0    0    0  0.00000000000E+00  0.00000000000E+00  0.45593999997E+02  0.45594000000E+02  0.51100000000E-03 0. -1.
         11   -1    0    0    0    0 -0.00000000000E+00 -0.00000000000E+00 -0.45593999997E+02  0.45594000000E+02  0.51100000000E-03 0.  1.
    9900012    2    1    2    0    0 -0.16230574393E+02  0.85966769937E+01 -0.36530579040E+01  0.72461568613E+02  0.69999997809E+02 0.  0.
         12    1    1    2    0    0  0.16230574393E+02 -0.85966769937E+01  0.36530579040E+01  0.18726431387E+02  0.00000000000E+00 0. -1.
         11    1    3    3    0    0 -0.21676556489E+02 -0.73486077723E+00  0.49120072591E+01  0.22238276398E+02  0.51100000000E-03 0. -1.
        -11    1    3    3    0    0 -0.16323862669E+02 -0.58541362681E+01 -0.14980203105E+02  0.22916061817E+02  0.51100000000E-03 0.  1.
         12    1    3    3    0    0  0.21769844766E+02  0.15185674039E+02  0.64151379417E+01  0.27307230397E+02  0.00000000000E+00 0. -1.
</event>
<event>
 7    1  0.3020651E-013  0.7246158E+02  0.7816164E-02  0.1226708E+00
        -11   -1    0    0    0    0  0.00000000000E+00  0.00000000000E+00  0.45593999997E+02  0.45594000000E+02  0.51100000000E-03 0. -1.
         11   -1    0    0    0    0 -0.00000000000E+00 -0.00000000000E+00 -0.45593999997E+02  0.45594000000E+02  0.51100000000E-03 0.  1.
    9900012    2    1    2    0    0  0.45546164656E+01 -0.81227182278E+01 -0.16246713093E+02  0.72461580991E+02  0.70000013935E+02 0.  0.
         12    1    1    2    0    0 -0.45546164656E+01  0.81227182278E+01  0.16246713093E+02  0.18726419009E+02  0.00000000000E+00 0. -1.
         11    1    3    3    0    0 -0.54227737616E+01 -0.23712204110E+02  0.43843484669E+01  0.24716342990E+02  0.51100000000E-03 0. -1.
        -11    1    3    3    0    0  0.24378475596E+02  0.49111960634E+01 -0.14560089446E+02  0.28817115124E+02  0.51100000000E-03 0.  1.
        -12    1    3    3    0    0 -0.14401085368E+02  0.10678289819E+02 -0.60709721139E+01  0.18928122877E+02  0.00000000000E+00 0.  1.
</event>
<event>
 7    1  0.3020651E-013  0.7246158E+02  0.7816164E-02  0.1226708E+00
        -11   -1    0    0    0    0  0.00000000000E+00  0.00000000000E+00  0.45593999997E+02  0.45594000000E+02  0.51100000000E-03 0. -1.
         11   -1    0    0    0    0 -0.00000000000E+00 -0.00000000000E+00 -0.45593999997E+02  0.45594000000E+02  0.51100000000E-03 0.  1.
    9900012    2    1    2    0    0 -0.11248773228E+02 -0.13382694448E+02 -0.67117296572E+01  0.72461582168E+02  0.70000015468E+02 0.  0.
         12    1    1    2    0    0  0.11248773228E+02  0.13382694448E+02  0.67117296572E+01  0.18726417832E+02  0.00000000000E+00 0. -1.
         11    1    3    3    0    0 -0.13826059469E+01  0.72811984205E+01 -0.25027473800E+02  0.26101760375E+02  0.51100000000E-03 0. -1.
        -11    1    3    3    0    0 -0.70584629097E+01 -0.11950378560E+02 -0.96693684405E+01  0.16915381541E+02  0.51100000000E-03 0.  1.
         12    1    3    3    0    0 -0.28077043714E+01 -0.87135143082E+01  0.27985112583E+02  0.29444440251E+02  0.00000000000E+00 0. -1.
</event>
<event>
 7    1  0.3020651E-013  0.7246159E+02  0.7816164E-02  0.1226708E+00
        -11   -1    0    0    0    0  0.00000000000E+00  0.00000000000E+00  0.45593999997E+02  0.45594000000E+02  0.51100000000E-03 0.  1.
         11   -1    0    0    0    0 -0.00000000000E+00 -0.00000000000E+00 -0.45593999997E+02  0.45594000000E+02  0.51100000000E-03 0. -1.
    9900012    2    1    2    0    0  0.12280869023E+02  0.57703839246E+01  0.12905868808E+02  0.72461587523E+02  0.70000022443E+02 0.  0.
         12    1    1    2    0    0 -0.12280869023E+02 -0.57703839246E+01 -0.12905868808E+02  0.18726412477E+02  0.00000000000E+00 0. -1.
         11    1    3    3    0    0  0.89246301767E+01 -0.36674239722E+01  0.53576986905E+01  0.11036483040E+02  0.51100000000E-03 0. -1.
        -11    1    3    3    0    0  0.10903415898E+02  0.21888477836E+02  0.27452280427E+02  0.36764352859E+02  0.51100000000E-03 0.  1.
         12    1    3    3    0    0 -0.75471770523E+01 -0.12450669939E+02 -0.19904110310E+02  0.24660751623E+02  0.00000000000E+00 0. -1.
</event>
<event>
 7    1  0.3020651E-013  0.7246172E+02  0.7816164E-02  0.1226708E+00
        -11   -1    0    0    0    0  0.00000000000E+00  0.00000000000E+00  0.45593999997E+02  0.45594000000E+02  0.51100000000E-03 0. -1.
         11   -1    0    0    0    0 -0.00000000000E+00 -0.00000000000E+00 -0.45593999997E+02  0.45594000000E+02  0.51100000000E-03 0.  1.
    9900012    2    1    2    0    0 -0.75803374080E+01  0.83933869868E+01 -0.14925249253E+02  0.72461720989E+02  0.70000196308E+02 0.  0.
         12    1    1    2    0    0  0.75803374080E+01 -0.83933869868E+01  0.14925249253E+02  0.18726279011E+02  0.00000000000E+00 0. -1.
         11    1    3    3    0    0  0.60556891526E+01 -0.95078236818E+01 -0.10157848247E+01  0.11318211049E+02  0.51100000000E-03 0. -1.
        -11    1    3    3    0    0  0.44705556354E+01  0.19463416240E+01 -0.31121604423E+02  0.31501244031E+02  0.51100000000E-03 0.  1.
        -12    1    3    3    0    0 -0.18106582196E+02  0.15954869045E+02  0.17212139995E+02  0.29642265910E+02  0.00000000000E+00 0.  1.
</event>
<event>
 7    1  0.3020651E-013  0.7246158E+02  0.7816164E-02  0.1226708E+00
        -11   -1    0    0    0    0  0.00000000000E+00  0.00000000000E+00  0.45593999997E+02  0.45594000000E+02  0.51100000000E-03 0.  1.
         11   -1    0    0    0    0 -0.00000000000E+00 -0.00000000000E+00 -0.45593999997E+02  0.45594000000E+02  0.51100000000E-03 0. -1.
    9900012    2    1    2    0    0 -0.45383056799E+01 -0.18011747720E+02  0.23789778694E+01  0.72461579892E+02  0.70000012502E+02 0.  0.
         12    1    1    2    0    0  0.45383056799E+01  0.18011747720E+02 -0.23789778694E+01  0.18726420108E+02  0.00000000000E+00 0. -1.
         11    1    3    3    0    0 -0.19109437410E+02 -0.41701485486E+00 -0.87208218309E+01  0.21009455804E+02  0.51100000000E-03 0. -1.
        -11    1    3    3    0    0 -0.16532786051E+01 -0.28543336706E+02 -0.69565167059E+00  0.28599638668E+02  0.51100000000E-03 0.  1.
        -12    1    3    3    0    0  0.16224410335E+02  0.10948603841E+02  0.11795451371E+02  0.22852485419E+02  0.00000000000E+00 0.  1.
</event>
<event>
 7    1  0.3020651E-013  0.7246157E+02  0.7816164E-02  0.1226708E+00
        -11   -1    0    0    0    0  0.00000000000E+00  0.00000000000E+00  0.45593999997E+02  0.45594000000E+02  0.51100000000E-03 0. -1.
         11   -1    0    0    0    0 -0.00000000000E+00 -0.00000000000E+00 -0.45593999997E+02  0.45594000000E+02  0.51100000000E-03 0.  1.
    9900012    2    1    2    0    0  0.68245417738E+01 -0.33658730918E+01 -0.17110695028E+02  0.72461565304E+02  0.69999993499E+02 0.  0.
         12    1    1    2    0    0 -0.68245417738E+01  0.33658730918E+01  0.17110695028E+02  0.18726434696E+02  0.00000000000E+00 0. -1.
         11    1    3    3    0    0  0.89926010382E+01 -0.38327492995E+01 -0.70662505708E+01  0.12061871249E+02  0.51100000000E-03 0. -1.
        -11    1    3    3    0    0  0.21327546187E+02 -0.17516038413E+02 -0.13295327236E+02  0.30633993449E+02  0.51100000000E-03 0.  1.
         12    1    3    3    0    0 -0.23495605451E+02  0.17982914620E+02  0.32508827795E+01  0.29765700607E+02  0.00000000000E+00 0. -1.
</event>
<event>
 7    1  0.3020651E-013  0.7246153E+02  0.7816164E-02  0.1226708E+00
        -11   -1    0    0    0    0  0.00000000000E+00  0.00000000000E+00  0.45593999997E+02  0.45594000000E+02  0.51100000000E-03 0.  1.
         11   -1    0    0    0    0 -0.00000000000E+00 -0.00000000000E+00 -0.45593999997E+02  0.45594000000E+02  0.51100000000E-03 0. -1.
    9900012    2    1    2    0    0 -0.18709557846E+02  0.64201073798E+00 -0.47020249868E+00  0.72461526147E+02  0.69999942490E+02 0.  0.
         12    1    1    2    0    0  0.18709557846E+02 -0.64201073798E+00  0.47020249868E+00  0.18726473853E+02  0.00000000000E+00 0. -1.
         11    1    3    3    0    0 -0.16047757545E+02  0.18731838488E+02 -0.17317646794E+01  0.24726732589E+02  0.51100000000E-03 0. -1.
        -11    1    3    3    0    0  0.80897341777E+01 -0.25752227185E+02  0.13098209720E+02  0.30003068213E+02  0.51100000000E-03 0.  1.
         12    1    3    3    0    0 -0.10751534479E+02  0.76623994348E+01 -0.11836647540E+02  0.17731725345E+02  0.00000000000E+00 0. -1.
</event>
<event>
 7    1  0.3020651E-013  0.7246156E+02  0.7816164E-02  0.1226708E+00
        -11   -1    0    0    0    0  0.00000000000E+00  0.00000000000E+00  0.45593999997E+02  0.45594000000E+02  0.51100000000E-03 0.  1.
         11   -1    0    0    0    0 -0.00000000000E+00 -0.00000000000E+00 -0.45593999997E+02  0.45594000000E+02  0.51100000000E-03 0. -1.
    9900012    2    1    2    0    0 -0.15257928994E+02  0.22351189621E+01  0.10624465996E+02  0.72461563296E+02  0.69999990883E+02 0.  0.
         12    1    1    2    0    0  0.15257928994E+02 -0.22351189621E+01 -0.10624465996E+02  0.18726436704E+02  0.00000000000E+00 0. -1.
         11    1    3    3    0    0 -0.34867062765E+02  0.93711609837E+01  0.16566685154E+02  0.39723869163E+02  0.51100000000E-03 0. -1.
        -11    1    3    3    0    0  0.49209299350E+00  0.22755390827E+01  0.72916766957E+01  0.76543309915E+01  0.51100000000E-03 0.  1.
        -12    1    3    3    0    0  0.19117040777E+02 -0.94115811042E+01 -0.13233895855E+02  0.25083363141E+02  0.00000000000E+00 0.  1.
</event>
<event>
 7    1  0.3020651E-013  0.7246162E+02  0.7816164E-02  0.1226708E+00
        -11   -1    0    0    0    0  0.00000000000E+00  0.00000000000E+00  0.45593999997E+02  0.45594000000E+02  0.51100000000E-03 0. -1.
         11   -1    0    0    0    0 -0.00000000000E+00 -0.00000000000E+00 -0.45593999997E+02  0.45594000000E+02  0.51100000000E-03 0.  1.
    9900012    2    1    2    0    0  0.18881035322E+01 -0.16793037426E+02 -0.80688411748E+01  0.72461621844E+02  0.70000067153E+02 0.  0.
         12    1    1    2    0    0 -0.18881035322E+01  0.16793037426E+02  0.80688411748E+01  0.18726378156E+02  0.00000000000E+00 0. -1.
         11    1    3    3    0    0 -0.14625909753E+01 -0.25199534834E+02  0.92861148673E+01  0.26895866928E+02  0.51100000000E-03 0. -1.
        -11    1    3    3    0    0  0.73728059285E+01 -0.11971261660E+02 -0.20189276218E+02  0.24602362639E+02  0.51100000000E-03 0.  1.
        -12    1    3    3    0    0 -0.40221114210E+01  0.20377759068E+02  0.28343201754E+01  0.20963392277E+02  0.00000000000E+00 0.  1.
</event>
<event>
 7    1  0.3020651E-013  0.7246152E+02  0.7816164E-02  0.1226708E+00
        -11   -1    0    0    0    0  0.00000000000E+00  0.00000000000E+00  0.45593999997E+02  0.45594000000E+02  0.51100000000E-03 0. -1.
         11   -1    0    0    0    0 -0.00000000000E+00 -0.00000000000E+00 -0.45593999997E+02  0.45594000000E+02  0.51100000000E-03 0.  1.
    9900012    2    1    2    0    0  0.13041876344E+02 -0.65150293583E+01 -0.11753512171E+02  0.72461516228E+02  0.69999929568E+02 0.  0.
         12    1    1    2    0    0 -0.13041876344E+02  0.65150293583E+01  0.11753512171E+02  0.18726483772E+02  0.00000000000E+00 0. -1.
         11    1    3    3    0    0  0.15819585273E+02  0.91689882843E+01 -0.51476218325E+00  0.18291927310E+02  0.51100000000E-03 0. -1.
        -11    1    3    3    0    0 -0.58396627369E+01 -0.46844196467E+01 -0.30703586838E+02  0.31603096261E+02  0.51100000000E-03 0.  1.
         12    1    3    3    0    0  0.30619538085E+01 -0.10999597996E+02  0.19464836851E+02  0.22566492657E+02  0.00000000000E+00 0. -1.
</event>
<event>
 7    1  0.3020651E-013  0.7246156E+02  0.7816164E-02  0.1226708E+00
        -11   -1    0    0    0    0  0.00000000000E+00  0.00000000000E+00  0.45593999997E+02  0.45594000000E+02  0.51100000000E-03 0. -1.
         11   -1    0    0    0    0 -0.00000000000E+00 -0.00000000000E+00 -0.45593999997E+02  0.45594000000E+02  0.51100000000E-03 0.  1.
    9900012    2    1    2    0    0  0.68386408230E+01  0.16930627062E+02 -0.41552960903E+01  0.72461558090E+02  0.69999984101E+02 0.  0.
         12    1    1    2    0    0 -0.68386408230E+01 -0.16930627062E+02  0.41552960903E+01  0.18726441910E+02  0.00000000000E+00 0. -1.
         11    1    3    3    0    0 -0.16008839487E+01  0.16195014329E+02  0.18034298918E+02  0.24291505846E+02  0.51100000000E-03 0. -1.
        -11    1    3    3    0    0 -0.10634415679E+02  0.12266892649E+02  0.66242042860E+00  0.16248269237E+02  0.51100000000E-03 0.  1.
         12    1    3    3    0    0  0.19073940451E+02 -0.11531279916E+02 -0.22852015437E+02  0.31921783007E+02  0.00000000000E+00 0. -1.
</event>
<event>
 7    1  0.3020651E-013  0.7246158E+02  0.7816164E-02  0.1226708E+00
        -11   -1    0    0    0    0  0.00000000000E+00  0.00000000000E+00  0.45593999997E+02  0.45594000000E+02  0.51100000000E-03 0. -1.
         11   -1    0    0    0    0 -0.00000000000E+00 -0.00000000000E+00 -0.45593999997E+02  0.45594000000E+02  0.51100000000E-03 0.  1.
    9900012    2    1    2    0    0  0.11213705648E+02  0.14575238470E+02 -0.35346721105E+01  0.72461583425E+02  0.70000017104E+02 0.  0.
         12    1    1    2    0    0 -0.11213705648E+02 -0.14575238470E+02  0.35346721105E+01  0.18726416575E+02  0.00000000000E+00 0. -1.
         11    1    3    3    0    0 -0.17238730349E+02 -0.15900450284E+02  0.83723355312E+01  0.24901689617E+02  0.51100000000E-03 0. -1.
        -11    1    3    3    0    0  0.97402575344E+01  0.21122081166E+02 -0.12935851510E+02  0.26614867728E+02  0.51100000000E-03 0.  1.
        -12    1    3    3    0    0  0.18712178463E+02  0.93536075883E+01  0.10288438679E+01  0.20945026079E+02  0.00000000000E+00 0.  1.
</event>
<event>
 7    1  0.3020651E-013  0.7246161E+02  0.7816164E-02  0.1226708E+00
        -11   -1    0    0    0    0  0.00000000000E+00  0.00000000000E+00  0.45593999997E+02  0.45594000000E+02  0.51100000000E-03 0.  1.
         11   -1    0    0    0    0 -0.00000000000E+00 -0.00000000000E+00 -0.45593999997E+02  0.45594000000E+02  0.51100000000E-03 0. -1.
    9900012    2    1    2    0    0 -0.10296919378E+01  0.11180804417E+02  0.14986896928E+02  0.72461608665E+02  0.70000049985E+02 0.  0.
         12    1    1    2    0    0  0.10296919378E+01 -0.11180804417E+02 -0.14986896928E+02  0.18726391335E+02  0.00000000000E+00 0. -1.
         11    1    3    3    0    0  0.10130253691E+02 -0.63659705171E+01 -0.89973295994E+01  0.14969955266E+02  0.51100000000E-03 0. -1.
        -11    1    3    3    0    0  0.23364681925E+01 -0.48036865522E+01 -0.11940712141E+02  0.13081096850E+02  0.51100000000E-03 0.  1.
        -12    1    3    3    0    0 -0.13496413822E+02  0.22350461486E+02  0.35924938668E+02  0.44410556549E+02  0.00000000000E+00 0.  1.
</event>
<event>
 7    1  0.3020651E-013  0.7246153E+02  0.7816164E-02  0.1226708E+00
        -11   -1    0    0    0    0  0.00000000000E+00  0.00000000000E+00  0.45593999997E+02  0.45594000000E+02  0.51100000000E-03 0. -1.
         11   -1    0    0    0    0 -0.00000000000E+00 -0.00000000000E+00 -0.45593999997E+02  0.45594000000E+02  0.51100000000E-03 0.  1.
    9900012    2    1    2    0    0 -0.49627663856E+01  0.13631639229E+02 -0.11841881311E+02  0.72461526994E+02  0.69999943593E+02 0.  0.
         12    1    1    2    0    0  0.49627663856E+01 -0.13631639229E+02  0.11841881311E+02  0.18726473006E+02  0.00000000000E+00 0. -1.
         11    1    3    3    0    0 -0.41477494766E+01  0.65508838115E+01  0.99952769118E+01  0.12650038152E+02  0.51100000000E-03 0. -1.
        -11    1    3    3    0    0 -0.14658857673E+02  0.23567824411E+02 -0.25831523628E+02  0.37915591370E+02  0.51100000000E-03 0.  1.
         12    1    3    3    0    0  0.13843840764E+02 -0.16487068993E+02  0.39943654050E+01  0.21895897472E+02  0.00000000000E+00 0. -1.
</event>
<event>
 7    1  0.3020651E-013  0.7246163E+02  0.7816164E-02  0.1226708E+00
        -11   -1    0    0    0    0  0.00000000000E+00  0.00000000000E+00  0.45593999997E+02  0.45594000000E+02  0.51100000000E-03 0. -1.
         11   -1    0    0    0    0 -0.00000000000E+00 -0.00000000000E+00 -0.45593999997E+02  0.45594000000E+02  0.51100000000E-03 0.  1.
    9900012    2    1    2    0    0 -0.13682510446E+02  0.65828872114E+01 -0.10960440373E+02  0.72461634915E+02  0.70000084180E+02 0.  0.
         12    1    1    2    0    0  0.13682510446E+02 -0.65828872114E+01  0.10960440373E+02  0.18726365085E+02  0.00000000000E+00 0. -1.
         11    1    3    3    0    0  0.97113695809E+01 -0.17795020931E+01  0.12684256985E+01  0.99542066911E+01  0.51100000000E-03 0. -1.
        -11    1    3    3    0    0  0.47566230337E+00  0.12136709022E+02 -0.30095375962E+02  0.32453930656E+02  0.51100000000E-03 0.  1.
         12    1    3    3    0    0 -0.23869542330E+02 -0.37743197179E+01  0.17866509890E+02  0.30053497567E+02  0.00000000000E+00 0. -1.
</event>
<event>
 7    1  0.3020651E-013  0.7246160E+02  0.7816164E-02  0.1226708E+00
        -11   -1    0    0    0    0  0.00000000000E+00  0.00000000000E+00  0.45593999997E+02  0.45594000000E+02  0.51100000000E-03 0. -1.
         11   -1    0    0    0    0 -0.00000000000E+00 -0.00000000000E+00 -0.45593999997E+02  0.45594000000E+02  0.51100000000E-03 0.  1.
    9900012    2    1    2    0    0  0.15611201125E+02  0.89926707250E+01 -0.51088399931E+01  0.72461602231E+02  0.70000041603E+02 0.  0.
         12    1    1    2    0    0 -0.15611201125E+02 -0.89926707250E+01  0.51088399931E+01  0.18726397769E+02  0.00000000000E+00 0. -1.
         11    1    3    3    0    0  0.97705028301E+00  0.23928855722E+00  0.10952173614E+01  0.14870735015E+01  0.51100000000E-03 0. -1.
        -11    1    3    3    0    0 -0.96590315769E+01  0.32936593530E+02  0.54829959775E+01  0.34758874111E+02  0.51100000000E-03 0.  1.
         12    1    3    3    0    0  0.24293182419E+02 -0.24183211362E+02 -0.11687053332E+02  0.36215654618E+02  0.00000000000E+00 0. -1.
</event>
<event>
 7    1  0.3020651E-013  0.7246160E+02  0.7816164E-02  0.1226708E+00
        -11   -1    0    0    0    0  0.00000000000E+00  0.00000000000E+00  0.45593999997E+02  0.45594000000E+02  0.51100000000E-03 0. -1.
         11   -1    0    0    0    0 -0.00000000000E+00 -0.00000000000E+00 -0.45593999997E+02  0.45594000000E+02  0.51100000000E-03 0.  1.
    9900012    2    1    2    0    0 -0.53545827562E+01 -0.67992362634E+01 -0.16606535518E+02  0.72461596390E+02  0.70000033994E+02 0.  0.
         12    1    1    2    0    0  0.53545827562E+01  0.67992362634E+01  0.16606535518E+02  0.18726403610E+02  0.00000000000E+00 0. -1.
         11    1    3    3    0    0 -0.26070834294E+01  0.18049939162E+02  0.39241647951E+01  0.18654657792E+02  0.51100000000E-03 0. -1.
        -11    1    3    3    0    0 -0.11208274284E+02  0.91287994243E+01 -0.85702633133E+01  0.16805052956E+02  0.51100000000E-03 0.  1.
        -12    1    3    3    0    0  0.84607749568E+01 -0.33977974849E+02 -0.11960437000E+02  0.37001885641E+02  0.00000000000E+00 0.  1.
</event>
<event>
 7    1  0.3020651E-013  0.7246141E+02  0.7816164E-02  0.1226708E+00
        -11   -1    0    0    0    0  0.00000000000E+00  0.00000000000E+00  0.45593999997E+02  0.45594000000E+02  0.51100000000E-03 0. -1.
         11   -1    0    0    0    0 -0.00000000000E+00 -0.00000000000E+00 -0.45593999997E+02  0.45594000000E+02  0.51100000000E-03 0.  1.
    9900012    2    1    2    0    0  0.17360567901E+01  0.12170740054E+02 -0.14126014202E+02  0.72461412380E+02  0.69999794287E+02 0.  0.
         12    1    1    2    0    0 -0.17360567901E+01 -0.12170740054E+02  0.14126014202E+02  0.18726587620E+02  0.00000000000E+00 0. -1.
         11    1    3    3    0    0 -0.94713270808E+01  0.16705149117E+02 -0.13057440368E+02  0.23222075552E+02  0.51100000000E-03 0. -1.
        -11    1    3    3    0    0 -0.50650295536E+01 -0.16158120563E+02 -0.16756406776E+02  0.23822605919E+02  0.51100000000E-03 0.  1.
         12    1    3    3    0    0  0.16272413425E+02  0.11623711500E+02  0.15687832942E+02  0.25416730909E+02  0.00000000000E+00 0. -1.
</event>
<event>
 7    1  0.3020651E-013  0.7246150E+02  0.7816164E-02  0.1226708E+00
        -11   -1    0    0    0    0  0.00000000000E+00  0.00000000000E+00  0.45593999997E+02  0.45594000000E+02  0.51100000000E-03 0. -1.
         11   -1    0    0    0    0 -0.00000000000E+00 -0.00000000000E+00 -0.45593999997E+02  0.45594000000E+02  0.51100000000E-03 0.  1.
    9900012    2    1    2    0    0  0.70967319806E+01  0.16496799187E+02  0.53079152042E+01  0.72461496000E+02  0.69999903218E+02 0.  0.
         12    1    1    2    0    0 -0.70967319806E+01 -0.16496799187E+02 -0.53079152042E+01  0.18726504000E+02  0.00000000000E+00 0. -1.
         11    1    3    3    0    0  0.12951742343E+02  0.41389958164E+01  0.17197888192E+02  0.21923646472E+02  0.51100000000E-03 0. -1.
        -11    1    3    3    0    0 -0.15009096960E+02  0.21223399960E+02  0.77506581711E+01  0.27125235478E+02  0.51100000000E-03 0.  1.
        -12    1    3    3    0    0  0.91540865975E+01 -0.88655965890E+01 -0.19640631159E+02  0.23412614050E+02  0.00000000000E+00 0.  1.
</event>
<event>
 7    1  0.3020651E-013  0.7246159E+02  0.7816164E-02  0.1226708E+00
        -11   -1    0    0    0    0  0.00000000000E+00  0.00000000000E+00  0.45593999997E+02  0.45594000000E+02  0.51100000000E-03 0.  1.
         11   -1    0    0    0    0 -0.00000000000E+00 -0.00000000000E+00 -0.45593999997E+02  0.45594000000E+02  0.51100000000E-03 0. -1.
    9900012    2    1    2    0    0 -0.99612350730E+01  0.15494700623E+02  0.33714243534E+01  0.72461589406E+02  0.70000024896E+02 0.  0.
         12    1    1    2    0    0  0.99612350730E+01 -0.15494700623E+02 -0.33714243534E+01  0.18726410594E+02  0.00000000000E+00 0. -1.
         11    1    3    3    0    0  0.31496673703E+01 -0.13658098133E+02 -0.81978608473E+01  0.16237886928E+02  0.51100000000E-03 0. -1.
        -11    1    3    3    0    0 -0.27376473803E+02  0.65840211041E+01  0.81060433365E+01  0.29300658536E+02  0.51100000000E-03 0.  1.
         12    1    3    3    0    0  0.14265571360E+02  0.22568777652E+02  0.34632418641E+01  0.26923043942E+02  0.00000000000E+00 0. -1.
</event>
<event>
 7    1  0.3020651E-013  0.7246156E+02  0.7816164E-02  0.1226708E+00
        -11   -1    0    0    0    0  0.00000000000E+00  0.00000000000E+00  0.45593999997E+02  0.45594000000E+02  0.51100000000E-03 0. -1.
         11   -1    0    0    0    0 -0.00000000000E+00 -0.00000000000E+00 -0.45593999997E+02  0.45594000000E+02  0.51100000000E-03 0.  1.
    9900012    2    1    2    0    0 -0.24749207819E+01 -0.38034558251E+01 -0.18168327856E+02  0.72461557568E+02  0.69999983421E+02 0.  0.
         12    1    1    2    0    0  0.24749207819E+01  0.38034558251E+01  0.18168327856E+02  0.18726442432E+02  0.00000000000E+00 0. -1.
         11    1    3    3    0    0 -0.48371500512E+01  0.15723562171E+02  0.19705905105E+01  0.16568393259E+02  0.51100000000E-03 0. -1.
        -11    1    3    3    0    0  0.22048117409E+02  0.27067322668E+01 -0.11219680925E+02  0.24886283796E+02  0.51100000000E-03 0.  1.
        -12    1    3    3    0    0 -0.19685888139E+02 -0.22233750263E+02 -0.89192374408E+01  0.31006880513E+02  0.00000000000E+00 0.  1.
</event>
<event>
 7    1  0.3020651E-013  0.7246156E+02  0.7816164E-02  0.1226708E+00
        -11   -1    0    0    0    0  0.00000000000E+00  0.00000000000E+00  0.45593999997E+02  0.45594000000E+02  0.51100000000E-03 0.  1.
         11   -1    0    0    0    0 -0.00000000000E+00 -0.00000000000E+00 -0.45593999997E+02  0.45594000000E+02  0.51100000000E-03 0. -1.
    9900012    2    1    2    0    0 -0.15024094116E+02  0.10796046090E+02 -0.28985606681E+01  0.72461556955E+02  0.69999982623E+02 0.  0.
         12    1    1    2    0    0  0.15024094116E+02 -0.10796046090E+02  0.28985606681E+01  0.18726443045E+02  0.00000000000E+00 0. -1.
         11    1    3    3    0    0 -0.12070048885E+02  0.33115279663E+02 -0.14945654252E+02  0.38284205732E+02  0.51100000000E-03 0. -1.
        -11    1    3    3    0    0 -0.74748604929E+01  0.12723057288E+01  0.70989873714E+00  0.76155274101E+01  0.51100000000E-03 0.  1.
        -12    1    3    3    0    0  0.45208152619E+01 -0.23591539302E+02  0.11337194847E+02  0.26561823813E+02  0.00000000000E+00 0.  1.
</event>
<event>
 7    1  0.3020651E-013  0.7246159E+02  0.7816164E-02  0.1226708E+00
        -11   -1    0    0    0    0  0.00000000000E+00  0.00000000000E+00  0.45593999997E+02  0.45594000000E+02  0.51100000000E-03 0.  1.
         11   -1    0    0    0    0 -0.00000000000E+00 -0.00000000000E+00 -0.45593999997E+02  0.45594000000E+02  0.51100000000E-03 0. -1.
    9900012    2    1    2    0    0 -0.68013048221E+01  0.17389426361E+02  0.14243216838E+01  0.72461585802E+02  0.70000020201E+02 0.  0.
         12    1    1    2    0    0  0.68013048221E+01 -0.17389426361E+02 -0.14243216838E+01  0.18726414198E+02  0.00000000000E+00 0. -1.
         11    1    3    3    0    0  0.29066736900E+02  0.96592700961E+01  0.24135597521E-01  0.30629679652E+02  0.51100000000E-03 0. -1.
        -11    1    3    3    0    0 -0.69485431919E+01  0.10408226516E+02 -0.16758179390E+01  0.12626234503E+02  0.51100000000E-03 0.  1.
        -12    1    3    3    0    0 -0.28919498531E+02 -0.26780702511E+01  0.30760040252E+01  0.29205671646E+02  0.00000000000E+00 0.  1.
</event>
<event>
 7    1  0.3020651E-013  0.7246157E+02  0.7816164E-02  0.1226708E+00
        -11   -1    0    0    0    0  0.00000000000E+00  0.00000000000E+00  0.45593999997E+02  0.45594000000E+02  0.51100000000E-03 0. -1.
         11   -1    0    0    0    0 -0.00000000000E+00 -0.00000000000E+00 -0.45593999997E+02  0.45594000000E+02  0.51100000000E-03 0.  1.
    9900012    2    1    2    0    0  0.22892952964E+01 -0.33123302941E+01 -0.18288431827E+02  0.72461570986E+02  0.70000000901E+02 0.  0.
         12    1    1    2    0    0 -0.22892952964E+01  0.33123302941E+01  0.18288431827E+02  0.18726429014E+02  0.00000000000E+00 0. -1.
         11    1    3    3    0    0  0.20561483482E+02  0.18575607470E+02  0.54492437418E+01  0.28240432955E+02  0.51100000000E-03 0. -1.
        -11    1    3    3    0    0  0.50315979561E+01 -0.94243578218E+01 -0.89554311662E+01  0.13940417712E+02  0.51100000000E-03 0.  1.
        -12    1    3    3    0    0 -0.23303786141E+02 -0.12463579942E+02 -0.14782244402E+02  0.30280720320E+02  0.00000000000E+00 0.  1.
</event>
<event>
 7    1  0.3020651E-013  0.7246159E+02  0.7816164E-02  0.1226708E+00
        -11   -1    0    0    0    0  0.00000000000E+00  0.00000000000E+00  0.45593999997E+02  0.45594000000E+02  0.51100000000E-03 0.  1.
         11   -1    0    0    0    0 -0.00000000000E+00 -0.00000000000E+00 -0.45593999997E+02  0.45594000000E+02  0.51100000000E-03 0. -1.
    9900012    2    1    2    0    0 -0.21896406591E+01  0.77157934684E+01  0.16921893489E+02  0.72461588856E+02  0.70000024180E+02 0.  0.
         12    1    1    2    0    0  0.21896406591E+01 -0.77157934684E+01 -0.16921893489E+02  0.18726411144E+02  0.00000000000E+00 0. -1.
         11    1    3    3    0    0  0.61846458149E+01 -0.12850500832E+02 -0.24042745200E+01  0.14462563802E+02  0.51100000000E-03 0. -1.
        -11    1    3    3    0    0  0.16647574245E+02  0.55662877751E+01 -0.68119845394E+01  0.18828925127E+02  0.51100000000E-03 0.  1.
        -12    1    3    3    0    0 -0.25021860719E+02  0.15000006526E+02  0.26138152549E+02  0.39170099927E+02  0.00000000000E+00 0.  1.
</event>
<event>
 7    1  0.3020651E-013  0.7246168E+02  0.7816164E-02  0.1226708E+00
        -11   -1    0    0    0    0  0.00000000000E+00  0.00000000000E+00  0.45593999997E+02  0.45594000000E+02  0.51100000000E-03 0.  1.
         11   -1    0    0    0    0 -0.00000000000E+00 -0.00000000000E+00 -0.45593999997E+02  0.45594000000E+02  0.51100000000E-03 0. -1.
    9900012    2    1    2    0    0  0.26275825925E+01 -0.17833390895E+02  0.50735476315E+01  0.72461684114E+02  0.70000148272E+02 0.  0.
         12    1    1    2    0    0 -0.26275825925E+01  0.17833390895E+02 -0.50735476315E+01  0.18726315886E+02  0.00000000000E+00 0. -1.
         11    1    3    3    0    0 -0.12779995909E+02  0.99563183890E+01 -0.67156858633E+01  0.17537303332E+02  0.51100000000E-03 0. -1.
        -11    1    3    3    0    0 -0.14813987316E+02 -0.13027036685E+02  0.70935086135E+01  0.20963677390E+02  0.51100000000E-03 0.  1.
        -12    1    3    3    0    0  0.30221565818E+02 -0.14762672599E+02  0.46957248813E+01  0.33960703392E+02  0.00000000000E+00 0.  1.
</event>
<event>
 7    1  0.3020651E-013  0.7246152E+02  0.7816164E-02  0.1226708E+00
        -11   -1    0    0    0    0  0.00000000000E+00  0.00000000000E+00  0.45593999997E+02  0.45594000000E+02  0.51100000000E-03 0. -1.
         11   -1    0    0    0    0 -0.00000000000E+00 -0.00000000000E+00 -0.45593999997E+02  0.45594000000E+02  0.51100000000E-03 0.  1.
    9900012    2    1    2    0    0  0.17371971983E+02 -0.36837670177E+01 -0.59435267697E+01  0.72461519806E+02  0.69999934229E+02 0.  0.
         12    1    1    2    0    0 -0.17371971983E+02  0.36837670177E+01  0.59435267697E+01  0.18726480194E+02  0.00000000000E+00 0. -1.
         11    1    3    3    0    0  0.25205002949E+02  0.63464063193E+01  0.20611824908E+01  0.26073310498E+02  0.51100000000E-03 0. -1.
        -11    1    3    3    0    0 -0.11630002498E+02  0.13979188981E+02 -0.11954006294E+02  0.21761731305E+02  0.51100000000E-03 0.  1.
         12    1    3    3    0    0  0.37969715317E+01 -0.24009362318E+02  0.39492970335E+01  0.24626478002E+02  0.00000000000E+00 0. -1.
</event>
<event>
 7    1  0.3020651E-013  0.7246157E+02  0.7816164E-02  0.1226708E+00
        -11   -1    0    0    0    0  0.00000000000E+00  0.00000000000E+00  0.45593999997E+02  0.45594000000E+02  0.51100000000E-03 0.  1.
         11   -1    0    0    0    0 -0.00000000000E+00 -0.00000000000E+00 -0.45593999997E+02  0.45594000000E+02  0.51100000000E-03 0. -1.
    9900012    2    1    2    0    0 -0.95788652203E+01 -0.68196638191E+01  0.14574516308E+02  0.72461574844E+02  0.70000005927E+02 0.  0.
         12    1    1    2    0    0  0.95788652203E+01  0.68196638191E+01 -0.14574516308E+02  0.18726425156E+02  0.00000000000E+00 0. -1.
         11    1    3    3    0    0  0.14089706432E+02 -0.73174637810E+01 -0.93572593369E+01  0.18428874249E+02  0.51100000000E-03 0. -1.
        -11    1    3    3    0    0 -0.82659822020E+01  0.14406163589E+02 -0.59574220054E+01  0.17645251156E+02  0.51100000000E-03 0.  1.
        -12    1    3    3    0    0 -0.15402589450E+02 -0.13908363627E+02  0.29889197650E+02  0.36387449440E+02  0.00000000000E+00 0.  1.
</event>
<event>
 7    1  0.3020651E-013  0.7246155E+02  0.7816164E-02  0.1226708E+00
        -11   -1    0    0    0    0  0.00000000000E+00  0.00000000000E+00  0.45593999997E+02  0.45594000000E+02  0.51100000000E-03 0.  1.
         11   -1    0    0    0    0 -0.00000000000E+00 -0.00000000000E+00 -0.45593999997E+02  0.45594000000E+02  0.51100000000E-03 0. -1.
    9900012    2    1    2    0    0  0.23218291408E+01  0.16184051056E+02  0.91304700536E+01  0.72461551257E+02  0.69999975200E+02 0.  0.
         12    1    1    2    0    0 -0.23218291408E+01 -0.16184051056E+02 -0.91304700536E+01  0.18726448743E+02  0.00000000000E+00 0. -1.
         11    1    3    3    0    0 -0.17931610057E+00 -0.22623604740E+01 -0.52135555084E+01  0.56860874490E+01  0.51100000000E-03 0. -1.
        -11    1    3    3    0    0  0.70031644045E+01 -0.19425229209E+02 -0.84875531167E+01  0.22325375689E+02  0.51100000000E-03 0.  1.
         12    1    3    3    0    0 -0.45020191631E+01  0.37871640739E+02  0.22831578679E+02  0.44450088119E+02  0.00000000000E+00 0. -1.
</event>
<event>
 7    1  0.3020651E-013  0.7246126E+02  0.7816164E-02  0.1226709E+00
        -11   -1    0    0    0    0  0.00000000000E+00  0.00000000000E+00  0.45593999997E+02  0.45594000000E+02  0.51100000000E-03 0.  1.
         11   -1    0    0    0    0 -0.00000000000E+00 -0.00000000000E+00 -0.45593999997E+02  0.45594000000E+02  0.51100000000E-03 0. -1.
    9900012    2    1    2    0    0  0.74884112909E+01 -0.59497851397E+01  0.16100138101E+02  0.72461262598E+02  0.69999599167E+02 0.  0.
         12    1    1    2    0    0 -0.74884112909E+01  0.59497851397E+01 -0.16100138101E+02  0.18726737402E+02  0.00000000000E+00 0. -1.
         11    1    3    3    0    0 -0.16861772512E+01 -0.38047896139E+01  0.11381307836E+02  0.12118324391E+02  0.51100000000E-03 0. -1.
        -11    1    3    3    0    0  0.27334270009E+02  0.83329514914E+01  0.19583236419E+02  0.34642510682E+02  0.51100000000E-03 0.  1.
         12    1    3    3    0    0 -0.18159681467E+02 -0.10477947017E+02 -0.14864406154E+02  0.25700427525E+02  0.00000000000E+00 0. -1.
</event>
<event>
 7    1  0.3020651E-013  0.7246155E+02  0.7816164E-02  0.1226708E+00
        -11   -1    0    0    0    0  0.00000000000E+00  0.00000000000E+00  0.45593999997E+02  0.45594000000E+02  0.51100000000E-03 0.  1.
         11   -1    0    0    0    0 -0.00000000000E+00 -0.00000000000E+00 -0.45593999997E+02  0.45594000000E+02  0.51100000000E-03 0. -1.
    9900012    2    1    2    0    0 -0.96304174340E+01 -0.47360936939E+01  0.15346151854E+02  0.72461550786E+02  0.69999974587E+02 0.  0.
         12    1    1    2    0    0  0.96304174340E+01  0.47360936939E+01 -0.15346151854E+02  0.18726449214E+02  0.00000000000E+00 0. -1.
         11    1    3    3    0    0 -0.63653842174E+01  0.12539600861E+02  0.60413085396E+01  0.15305460304E+02  0.51100000000E-03 0. -1.
        -11    1    3    3    0    0  0.24058722803E+01  0.18663639052E+02  0.87867638110E+01  0.20768410209E+02  0.51100000000E-03 0.  1.
         12    1    3    3    0    0 -0.56709054969E+01 -0.35939333607E+02  0.51807950327E+00  0.36387680273E+02  0.00000000000E+00 0. -1.
</event>
<event>
 7    1  0.3020651E-013  0.7246155E+02  0.7816164E-02  0.1226708E+00
        -11   -1    0    0    0    0  0.00000000000E+00  0.00000000000E+00  0.45593999997E+02  0.45594000000E+02  0.51100000000E-03 0. -1.
         11   -1    0    0    0    0 -0.00000000000E+00 -0.00000000000E+00 -0.45593999997E+02  0.45594000000E+02  0.51100000000E-03 0.  1.
    9900012    2    1    2    0    0 -0.15490955159E+02 -0.10384451172E+02  0.16951188117E+01  0.72461549571E+02  0.69999973004E+02 0.  0.
         12    1    1    2    0    0  0.15490955159E+02  0.10384451172E+02 -0.16951188117E+01  0.18726450429E+02  0.00000000000E+00 0. -1.
         11    1    3    3    0    0  0.16834284670E+02 -0.18676052445E+01 -0.19041106017E+02  0.25484207037E+02  0.51100000000E-03 0.  1.
        -11    1    3    3    0    0 -0.31937354097E+01 -0.89330176561E+01 -0.23863481990E+01  0.97823007671E+01  0.51100000000E-03 0. -1.
         12    1    3    3    0    0 -0.29131504419E+02  0.41617172868E+00  0.23122573028E+02  0.37195041767E+02  0.00000000000E+00 0. -1.
</event>
<event>
 7    1  0.3020651E-013  0.7246158E+02  0.7816164E-02  0.1226708E+00
        -11   -1    0    0    0    0  0.00000000000E+00  0.00000000000E+00  0.45593999997E+02  0.45594000000E+02  0.51100000000E-03 0.  1.
         11   -1    0    0    0    0 -0.00000000000E+00 -0.00000000000E+00 -0.45593999997E+02  0.45594000000E+02  0.51100000000E-03 0. -1.
    9900012    2    1    2    0    0 -0.16037073049E+02  0.70447446440E+00  0.96433888508E+01  0.72461576295E+02  0.70000007817E+02 0.  0.
         12    1    1    2    0    0  0.16037073049E+02 -0.70447446440E+00 -0.96433888508E+01  0.18726423705E+02  0.00000000000E+00 0. -1.
         11    1    3    3    0    0 -0.38085081748E+01 -0.13281666361E+02 -0.14347641246E+02  0.19918890668E+02  0.51100000000E-03 0. -1.
        -11    1    3    3    0    0 -0.18596093139E+02  0.73171910434E+01 -0.62410226638E+01  0.20935766739E+02  0.51100000000E-03 0.  1.
         12    1    3    3    0    0  0.63675282648E+01  0.66689497821E+01  0.30232052761E+02  0.31606918887E+02  0.00000000000E+00 0. -1.
</event>
<event>
 7    1  0.3020651E-013  0.7246158E+02  0.7816164E-02  0.1226708E+00
        -11   -1    0    0    0    0  0.00000000000E+00  0.00000000000E+00  0.45593999997E+02  0.45594000000E+02  0.51100000000E-03 0. -1.
         11   -1    0    0    0    0 -0.00000000000E+00 -0.00000000000E+00 -0.45593999997E+02  0.45594000000E+02  0.51100000000E-03 0.  1.
    9900012    2    1    2    0    0  0.81623316108E+00 -0.16010885768E+02 -0.96780285587E+01  0.72461576518E+02  0.70000008107E+02 0.  0.
         12    1    1    2    0    0 -0.81623316108E+00  0.16010885768E+02  0.96780285587E+01  0.18726423482E+02  0.00000000000E+00 0. -1.
         11    1    3    3    0    0  0.10353330588E+02  0.76572410024E+01 -0.60701528369E+01  0.14236275839E+02  0.51100000000E-03 0.  1.
        -11    1    3    3    0    0 -0.60910183484E+01 -0.98912358149E+01  0.24287826616E+02  0.26922770520E+02  0.51100000000E-03 0. -1.
         12    1    3    3    0    0 -0.34460790790E+01 -0.13776890955E+02 -0.27895702338E+02  0.31302530159E+02  0.00000000000E+00 0. -1.
</event>
<event>
 7    1  0.3020651E-013  0.7246158E+02  0.7816164E-02  0.1226708E+00
        -11   -1    0    0    0    0  0.00000000000E+00  0.00000000000E+00  0.45593999997E+02  0.45594000000E+02  0.51100000000E-03 0. -1.
         11   -1    0    0    0    0 -0.00000000000E+00 -0.00000000000E+00 -0.45593999997E+02  0.45594000000E+02  0.51100000000E-03 0.  1.
    9900012    2    1    2    0    0 -0.12776222455E+02  0.10568256581E+02 -0.87039617630E+01  0.72461578619E+02  0.70000010844E+02 0.  0.
         12    1    1    2    0    0  0.12776222455E+02 -0.10568256581E+02  0.87039617630E+01  0.18726421381E+02  0.00000000000E+00 0. -1.
         11    1    3    3    0    0  0.48581143255E+01  0.82138795177E+01  0.12740903907E+02  0.15918533983E+02  0.51100000000E-03 0. -1.
        -11    1    3    3    0    0 -0.27078463368E+02  0.16865341034E+02 -0.43222632324E+01  0.32192621301E+02  0.51100000000E-03 0.  1.
        -12    1    3    3    0    0  0.94441265874E+01 -0.14510963970E+02 -0.17122602438E+02  0.24350423335E+02  0.00000000000E+00 0.  1.
</event>
<event>
 7    1  0.3020651E-013  0.7246194E+02  0.7816164E-02  0.1226707E+00
        -11   -1    0    0    0    0  0.00000000000E+00  0.00000000000E+00  0.45593999997E+02  0.45594000000E+02  0.51100000000E-03 0.  1.
         11   -1    0    0    0    0 -0.00000000000E+00 -0.00000000000E+00 -0.45593999997E+02  0.45594000000E+02  0.51100000000E-03 0. -1.
    9900012    2    1    2    0    0  0.12393052449E+02  0.11917285978E+02  0.74199588272E+01  0.72461942137E+02  0.70000484392E+02 0.  0.
         12    1    1    2    0    0 -0.12393052449E+02 -0.11917285978E+02 -0.74199588272E+01  0.18726057863E+02  0.00000000000E+00 0. -1.
         11    1    3    3    0    0  0.65112086250E+01  0.66468390384E+01  0.15760411175E+02  0.18302100088E+02  0.51100000000E-03 0. -1.
        -11    1    3    3    0    0  0.16688299671E+02  0.21211415379E+02  0.87902958933E+01  0.28384728120E+02  0.51100000000E-03 0.  1.
         12    1    3    3    0    0 -0.10806455847E+02 -0.15940968439E+02 -0.17130748241E+02  0.25775113929E+02  0.00000000000E+00 0. -1.
</event>
<event>
 7    1  0.3020651E-013  0.7246156E+02  0.7816164E-02  0.1226708E+00
        -11   -1    0    0    0    0  0.00000000000E+00  0.00000000000E+00  0.45593999997E+02  0.45594000000E+02  0.51100000000E-03 0.  1.
         11   -1    0    0    0    0 -0.00000000000E+00 -0.00000000000E+00 -0.45593999997E+02  0.45594000000E+02  0.51100000000E-03 0. -1.
    9900012    2    1    2    0    0 -0.17838937122E+01  0.14212593600E+02  0.12062311429E+02  0.72461562789E+02  0.69999990223E+02 0.  0.
         12    1    1    2    0    0  0.17838937122E+01 -0.14212593600E+02 -0.12062311429E+02  0.18726437211E+02  0.00000000000E+00 0. -1.
         11    1    3    3    0    0 -0.45474364011E+01 -0.32978301655E+01  0.73921154541E+01  0.92843003382E+01  0.51100000000E-03 0. -1.
        -11    1    3    3    0    0 -0.24679002513E+02 -0.36921942621E+01  0.12066757903E+02  0.27718082727E+02  0.51100000000E-03 0.  1.
         12    1    3    3    0    0  0.27442545202E+02  0.21202618027E+02 -0.73965619279E+01  0.35459179724E+02  0.00000000000E+00 0. -1.
</event>
<event>
 7    1  0.3020651E-013  0.7246167E+02  0.7816164E-02  0.1226708E+00
        -11   -1    0    0    0    0  0.00000000000E+00  0.00000000000E+00  0.45593999997E+02  0.45594000000E+02  0.51100000000E-03 0.  1.
         11   -1    0    0    0    0 -0.00000000000E+00 -0.00000000000E+00 -0.45593999997E+02  0.45594000000E+02  0.51100000000E-03 0. -1.
    9900012    2    1    2    0    0 -0.12191847824E+02 -0.11795433991E+02 -0.79310729461E+01  0.72461672691E+02  0.70000133391E+02 0.  0.
         12    1    1    2    0    0  0.12191847824E+02  0.11795433991E+02  0.79310729461E+01  0.18726327309E+02  0.00000000000E+00 0. -1.
         11    1    3    3    0    0 -0.18896931065E+02  0.11991791701E+02 -0.19582243371E+02  0.29738213254E+02  0.51100000000E-03 0. -1.
        -11    1    3    3    0    0  0.48590817199E+01 -0.79265082390E+00  0.18110397473E+02  0.18767670803E+02  0.51100000000E-03 0.  1.
        -12    1    3    3    0    0  0.18460015212E+01 -0.22994574868E+02 -0.64592270482E+01  0.23955788634E+02  0.00000000000E+00 0.  1.
</event>
<event>
 7    1  0.3020651E-013  0.7246152E+02  0.7816164E-02  0.1226708E+00
        -11   -1    0    0    0    0  0.00000000000E+00  0.00000000000E+00  0.45593999997E+02  0.45594000000E+02  0.51100000000E-03 0.  1.
         11   -1    0    0    0    0 -0.00000000000E+00 -0.00000000000E+00 -0.45593999997E+02  0.45594000000E+02  0.51100000000E-03 0. -1.
    9900012    2    1    2    0    0  0.15176309882E+02 -0.14699434640E+01  0.10871981693E+02  0.72461518714E+02  0.69999932807E+02 0.  0.
         12    1    1    2    0    0 -0.15176309882E+02  0.14699434640E+01 -0.10871981693E+02  0.18726481286E+02  0.00000000000E+00 0. -1.
         11    1    3    3    0    0 -0.14487084094E+01  0.17539477305E+02  0.14355548470E+01  0.17657656645E+02  0.51100000000E-03 0. -1.
        -11    1    3    3    0    0 -0.14592198012E+02 -0.12417968607E+02  0.12301718810E+02  0.22769946708E+02  0.51100000000E-03 0.  1.
         12    1    3    3    0    0  0.31217216303E+02 -0.65914521622E+01 -0.28652919648E+01  0.32033915361E+02  0.00000000000E+00 0. -1.
</event>
<event>
 7    1  0.3020651E-013  0.7246144E+02  0.7816164E-02  0.1226708E+00
        -11   -1    0    0    0    0  0.00000000000E+00  0.00000000000E+00  0.45593999997E+02  0.45594000000E+02  0.51100000000E-03 0.  1.
         11   -1    0    0    0    0 -0.00000000000E+00 -0.00000000000E+00 -0.45593999997E+02  0.45594000000E+02  0.51100000000E-03 0. -1.
    9900012    2    1    2    0    0  0.97838424685E+01 -0.42308586954E+01 -0.15396762947E+02  0.72461440038E+02  0.69999830317E+02 0.  0.
         12    1    1    2    0    0 -0.97838424685E+01  0.42308586954E+01  0.15396762947E+02  0.18726559962E+02  0.00000000000E+00 0. -1.
         11    1    3    3    0    0  0.40352353482E+01 -0.12354245089E+02  0.28744309960E+01  0.13310629205E+02  0.51100000000E-03 0. -1.
        -11    1    3    3    0    0 -0.13078191009E+01 -0.22902341486E+02 -0.10323370538E+01  0.22962869080E+02  0.51100000000E-03 0.  1.
         12    1    3    3    0    0  0.70564262213E+01  0.31025727879E+02 -0.17238856889E+02  0.36187941753E+02  0.00000000000E+00 0. -1.
</event>
<event>
 7    1  0.3020651E-013  0.7246155E+02  0.7816164E-02  0.1226708E+00
        -11   -1    0    0    0    0  0.00000000000E+00  0.00000000000E+00  0.45593999997E+02  0.45594000000E+02  0.51100000000E-03 0.  1.
         11   -1    0    0    0    0 -0.00000000000E+00 -0.00000000000E+00 -0.45593999997E+02  0.45594000000E+02  0.51100000000E-03 0. -1.
    9900012    2    1    2    0    0 -0.10680303384E+02  0.15025773974E+02  0.32919991764E+01  0.72461547521E+02  0.69999970333E+02 0.  0.
         12    1    1    2    0    0  0.10680303384E+02 -0.15025773974E+02 -0.32919991764E+01  0.18726452479E+02  0.00000000000E+00 0. -1.
         11    1    3    3    0    0 -0.26157785543E+01 -0.23360300088E+01  0.26314067490E+01  0.43844766378E+01  0.51100000000E-03 0. -1.
        -11    1    3    3    0    0  0.72571015370E+01 -0.15882742917E+02  0.20103540207E+02  0.26628544354E+02  0.51100000000E-03 0.  1.
         12    1    3    3    0    0 -0.15321626366E+02  0.33244546900E+02 -0.19442947779E+02  0.41448526529E+02  0.00000000000E+00 0. -1.
</event>
<event>
 7    1  0.3020651E-013  0.7246157E+02  0.7816164E-02  0.1226708E+00
        -11   -1    0    0    0    0  0.00000000000E+00  0.00000000000E+00  0.45593999997E+02  0.45594000000E+02  0.51100000000E-03 0. -1.
         11   -1    0    0    0    0 -0.00000000000E+00 -0.00000000000E+00 -0.45593999997E+02  0.45594000000E+02  0.51100000000E-03 0.  1.
    9900012    2    1    2    0    0  0.93246402392E+01  0.11879967431E+02 -0.11072330890E+02  0.72461573403E+02  0.70000004050E+02 0.  0.
         12    1    1    2    0    0 -0.93246402392E+01 -0.11879967431E+02  0.11072330890E+02  0.18726426597E+02  0.00000000000E+00 0. -1.
         11    1    3    3    0    0  0.29712508967E+01  0.21249023068E+02 -0.50418658019E+01  0.22040184306E+02  0.51100000000E-03 0. -1.
        -11    1    3    3    0    0 -0.48329801416E+01  0.17941472161E+02 -0.92092336314E+01  0.20737986997E+02  0.51100000000E-03 0.  1.
        -12    1    3    3    0    0  0.11186369484E+02 -0.27310527797E+02  0.31787685434E+01  0.29683402100E+02  0.00000000000E+00 0.  1.
</event>
<event>
 7    1  0.3020651E-013  0.7246155E+02  0.7816164E-02  0.1226708E+00
        -11   -1    0    0    0    0  0.00000000000E+00  0.00000000000E+00  0.45593999997E+02  0.45594000000E+02  0.51100000000E-03 0.  1.
         11   -1    0    0    0    0 -0.00000000000E+00 -0.00000000000E+00 -0.45593999997E+02  0.45594000000E+02  0.51100000000E-03 0. -1.
    9900012    2    1    2    0    0  0.10439628032E+02 -0.11958713404E+02  0.99339516413E+01  0.72461546653E+02  0.69999969203E+02 0.  0.
         12    1    1    2    0    0 -0.10439628032E+02  0.11958713404E+02 -0.99339516413E+01  0.18726453347E+02  0.00000000000E+00 0. -1.
         11    1    3    3    0    0  0.10523979245E+02  0.11042276535E+02 -0.14270347472E+02  0.20888485523E+02  0.51100000000E-03 0. -1.
        -11    1    3    3    0    0  0.11065845118E+02 -0.22506939423E+02  0.17788552528E+00  0.25080807281E+02  0.51100000000E-03 0.  1.
         12    1    3    3    0    0 -0.11150196330E+02 -0.49405051638E+00  0.24026413588E+02  0.26492253849E+02  0.00000000000E+00 0. -1.
</event>
<event>
 7    1  0.3020651E-013  0.7246158E+02  0.7816164E-02  0.1226708E+00
        -11   -1    0    0    0    0  0.00000000000E+00  0.00000000000E+00  0.45593999997E+02  0.45594000000E+02  0.51100000000E-03 0.  1.
         11   -1    0    0    0    0 -0.00000000000E+00 -0.00000000000E+00 -0.45593999997E+02  0.45594000000E+02  0.51100000000E-03 0. -1.
    9900012    2    1    2    0    0 -0.10871177898E+02 -0.80693751409E+01  0.12937598445E+02  0.72461580759E+02  0.70000013633E+02 0.  0.
         12    1    1    2    0    0  0.10871177898E+02  0.80693751409E+01 -0.12937598445E+02  0.18726419241E+02  0.00000000000E+00 0. -1.
         11    1    3    3    0    0  0.16962414065E+02  0.12689943210E+02 -0.70437839407E+01  0.22324270247E+02  0.51100000000E-03 0. -1.
        -11    1    3    3    0    0 -0.10930384636E+01 -0.12963420642E+02 -0.37561473051E+01  0.13540814254E+02  0.51100000000E-03 0.  1.
        -12    1    3    3    0    0 -0.26740553500E+02 -0.77958977084E+01  0.23737529690E+02  0.36596496258E+02  0.00000000000E+00 0.  1.
</event>
<event>
 7    1  0.3020651E-013  0.7246158E+02  0.7816164E-02  0.1226708E+00
        -11   -1    0    0    0    0  0.00000000000E+00  0.00000000000E+00  0.45593999997E+02  0.45594000000E+02  0.51100000000E-03 0. -1.
         11   -1    0    0    0    0 -0.00000000000E+00 -0.00000000000E+00 -0.45593999997E+02  0.45594000000E+02  0.51100000000E-03 0.  1.
    9900012    2    1    2    0    0 -0.63862028867E+01  0.95778258090E+01 -0.14770251077E+02  0.72461584128E+02  0.70000018021E+02 0.  0.
         12    1    1    2    0    0  0.63862028867E+01 -0.95778258090E+01  0.14770251077E+02  0.18726415872E+02  0.00000000000E+00 0. -1.
         11    1    3    3    0    0  0.10657094528E+02  0.13025237461E+02 -0.71245942928E+01  0.18275402014E+02  0.51100000000E-03 0. -1.
        -11    1    3    3    0    0  0.10230884957E+02  0.12408415734E+02 -0.14778904760E+02  0.21841607409E+02  0.51100000000E-03 0.  1.
         12    1    3    3    0    0 -0.27274182372E+02 -0.15855827386E+02  0.71332479761E+01  0.32344574705E+02  0.00000000000E+00 0. -1.
</event>
<event>
 7    1  0.3020651E-013  0.7246154E+02  0.7816164E-02  0.1226708E+00
        -11   -1    0    0    0    0  0.00000000000E+00  0.00000000000E+00  0.45593999997E+02  0.45594000000E+02  0.51100000000E-03 0.  1.
         11   -1    0    0    0    0 -0.00000000000E+00 -0.00000000000E+00 -0.45593999997E+02  0.45594000000E+02  0.51100000000E-03 0. -1.
    9900012    2    1    2    0    0 -0.12755446924E+02  0.66991895220E+00  0.13694158895E+02  0.72461542634E+02  0.69999963967E+02 0.  0.
         12    1    1    2    0    0  0.12755446924E+02 -0.66991895220E+00 -0.13694158895E+02  0.18726457366E+02  0.00000000000E+00 0. -1.
         11    1    3    3    0    0  0.19820596946E+02  0.63801433648E+01  0.59636457053E+01  0.21659348167E+02  0.51100000000E-03 0. -1.
        -11    1    3    3    0    0  0.95942324118E+00 -0.10757182604E+02  0.12540164397E+02  0.16549718847E+02  0.51100000000E-03 0.  1.
         12    1    3    3    0    0 -0.33535467112E+02  0.50469581919E+01 -0.48096512068E+01  0.34252475620E+02  0.00000000000E+00 0. -1.
</event>
<event>
 7    1  0.3020651E-013  0.7246171E+02  0.7816164E-02  0.1226708E+00
        -11   -1    0    0    0    0  0.00000000000E+00  0.00000000000E+00  0.45593999997E+02  0.45594000000E+02  0.51100000000E-03 0.  1.
         11   -1    0    0    0    0 -0.00000000000E+00 -0.00000000000E+00 -0.45593999997E+02  0.45594000000E+02  0.51100000000E-03 0. -1.
    9900012    2    1    2    0    0  0.14451465980E+02 -0.85902965774E+01 -0.82483769277E+01  0.72461714031E+02  0.70000187243E+02 0.  0.
         12    1    1    2    0    0 -0.14451465980E+02  0.85902965774E+01  0.82483769277E+01  0.18726285969E+02  0.00000000000E+00 0. -1.
         11    1    3    3    0    0  0.12454512241E+02 -0.13054339434E+02 -0.18247894351E+02  0.25661572472E+02  0.51100000000E-03 0. -1.
        -11    1    3    3    0    0  0.22331078060E+02 -0.53697276485E+01  0.70251497036E+01  0.24017988070E+02  0.51100000000E-03 0.  1.
        -12    1    3    3    0    0 -0.20334124320E+02  0.98337705051E+01  0.29743677201E+01  0.22782153488E+02  0.00000000000E+00 0.  1.
</event>
<event>
 7    1  0.3020651E-013  0.7246152E+02  0.7816164E-02  0.1226708E+00
        -11   -1    0    0    0    0  0.00000000000E+00  0.00000000000E+00  0.45593999997E+02  0.45594000000E+02  0.51100000000E-03 0.  1.
         11   -1    0    0    0    0 -0.00000000000E+00 -0.00000000000E+00 -0.45593999997E+02  0.45594000000E+02  0.51100000000E-03 0. -1.
    9900012    2    1    2    0    0  0.74694790774E+01  0.24927712931E+01  0.16990411917E+02  0.72461518122E+02  0.69999932036E+02 0.  0.
         12    1    1    2    0    0 -0.74694790774E+01 -0.24927712931E+01 -0.16990411917E+02  0.18726481878E+02  0.00000000000E+00 0. -1.
         11    1    3    3    0    0  0.11260839221E+02 -0.18009454268E+01  0.47337030932E+01  0.12347382299E+02  0.51100000000E-03 0. -1.
        -11    1    3    3    0    0  0.25130895282E+02  0.19589064132E+01  0.17421657072E+02  0.30641692959E+02  0.51100000000E-03 0.  1.
         12    1    3    3    0    0 -0.28922255425E+02  0.23348103067E+01 -0.51649482481E+01  0.29472442865E+02  0.00000000000E+00 0. -1.
</event>
<event>
 7    1  0.3020651E-013  0.7246144E+02  0.7816164E-02  0.1226708E+00
        -11   -1    0    0    0    0  0.00000000000E+00  0.00000000000E+00  0.45593999997E+02  0.45594000000E+02  0.51100000000E-03 0.  1.
         11   -1    0    0    0    0 -0.00000000000E+00 -0.00000000000E+00 -0.45593999997E+02  0.45594000000E+02  0.51100000000E-03 0. -1.
    9900012    2    1    2    0    0 -0.17653178685E+02 -0.36879969298E+01  0.50445846298E+01  0.72461444707E+02  0.69999836399E+02 0.  0.
         12    1    1    2    0    0  0.17653178685E+02  0.36879969298E+01 -0.50445846298E+01  0.18726555293E+02  0.00000000000E+00 0. -1.
         11    1    3    3    0    0  0.44447171571E+01  0.16231864094E+02  0.12766732345E+02  0.21123881689E+02  0.51100000000E-03 0.  1.
        -11    1    3    3    0    0  0.42761481808E+01 -0.85614835263E+01  0.12843530353E+02  0.16016888451E+02  0.51100000000E-03 0. -1.
         12    1    3    3    0    0 -0.26374044023E+02 -0.11358377498E+02 -0.20565678069E+02  0.35320674568E+02  0.00000000000E+00 0. -1.
</event>
<event>
 7    1  0.3020651E-013  0.7246158E+02  0.7816164E-02  0.1226708E+00
        -11   -1    0    0    0    0  0.00000000000E+00  0.00000000000E+00  0.45593999997E+02  0.45594000000E+02  0.51100000000E-03 0.  1.
         11   -1    0    0    0    0 -0.00000000000E+00 -0.00000000000E+00 -0.45593999997E+02  0.45594000000E+02  0.51100000000E-03 0. -1.
    9900012    2    1    2    0    0  0.58280000867E+01  0.80779564579E+01  0.15857484247E+02  0.72461580903E+02  0.70000013820E+02 0.  0.
         12    1    1    2    0    0 -0.58280000867E+01 -0.80779564579E+01 -0.15857484247E+02  0.18726419097E+02  0.00000000000E+00 0. -1.
         11    1    3    3    0    0  0.11792588700E+01 -0.59876595737E+01  0.33420442673E+01  0.69578717147E+01  0.51100000000E-03 0. -1.
        -11    1    3    3    0    0 -0.14745681934E+01 -0.86762025915E+01  0.33084115379E+02  0.34234624774E+02  0.51100000000E-03 0.  1.
         12    1    3    3    0    0  0.61233094101E+01  0.22741818623E+02 -0.20568675400E+02  0.31269084414E+02  0.00000000000E+00 0. -1.
</event>
<event>
 7    1  0.3020651E-013  0.7246156E+02  0.7816164E-02  0.1226708E+00
        -11   -1    0    0    0    0  0.00000000000E+00  0.00000000000E+00  0.45593999997E+02  0.45594000000E+02  0.51100000000E-03 0.  1.
         11   -1    0    0    0    0 -0.00000000000E+00 -0.00000000000E+00 -0.45593999997E+02  0.45594000000E+02  0.51100000000E-03 0. -1.
    9900012    2    1    2    0    0 -0.17734565454E+02 -0.11951823149E+01 -0.58937531888E+01  0.72461558820E+02  0.69999985053E+02 0.  0.
         12    1    1    2    0    0  0.17734565454E+02  0.11951823149E+01  0.58937531888E+01  0.18726441180E+02  0.00000000000E+00 0. -1.
         11    1    3    3    0    0 -0.12784296360E+01  0.29272809352E+02 -0.65284970311E+01  0.30019210907E+02  0.51100000000E-03 0. -1.
        -11    1    3    3    0    0  0.49515048990E+01 -0.12768846644E+02  0.44605547989E+01  0.14403381365E+02  0.51100000000E-03 0.  1.
        -12    1    3    3    0    0 -0.21407640717E+02 -0.17699145024E+02 -0.38258109566E+01  0.28038966548E+02  0.00000000000E+00 0.  1.
</event>
<event>
 7    1  0.3020651E-013  0.7246193E+02  0.7816164E-02  0.1226707E+00
        -11   -1    0    0    0    0  0.00000000000E+00  0.00000000000E+00  0.45593999997E+02  0.45594000000E+02  0.51100000000E-03 0. -1.
         11   -1    0    0    0    0 -0.00000000000E+00 -0.00000000000E+00 -0.45593999997E+02  0.45594000000E+02  0.51100000000E-03 0.  1.
    9900012    2    1    2    0    0 -0.80252454207E+01 -0.16071988758E+02 -0.52869898112E+01  0.72461931327E+02  0.70000470310E+02 0.  0.
         12    1    1    2    0    0  0.80252454207E+01  0.16071988758E+02  0.52869898112E+01  0.18726068673E+02  0.00000000000E+00 0. -1.
         11    1    3    3    0    0  0.67843099397E+01  0.13784745710E+02  0.21149845431E+02  0.26141194266E+02  0.51100000000E-03 0. -1.
        -11    1    3    3    0    0 -0.89160996575E+01 -0.53188053254E+01 -0.90399392487E+00  0.10421311264E+02  0.51100000000E-03 0.  1.
        -12    1    3    3    0    0 -0.58934557028E+01 -0.24537929142E+02 -0.25532841318E+02  0.35899425796E+02  0.00000000000E+00 0.  1.
</event>
<event>
 7    1  0.3020651E-013  0.7246160E+02  0.7816164E-02  0.1226708E+00
        -11   -1    0    0    0    0  0.00000000000E+00  0.00000000000E+00  0.45593999997E+02  0.45594000000E+02  0.51100000000E-03 0.  1.
         11   -1    0    0    0    0 -0.00000000000E+00 -0.00000000000E+00 -0.45593999997E+02  0.45594000000E+02  0.51100000000E-03 0. -1.
    9900012    2    1    2    0    0 -0.17688867792E+02  0.58582814514E+01 -0.18607664860E+01  0.72461602662E+02  0.70000042165E+02 0.  0.
         12    1    1    2    0    0  0.17688867792E+02 -0.58582814514E+01  0.18607664860E+01  0.18726397338E+02  0.00000000000E+00 0. -1.
         11    1    3    3    0    0 -0.16602674405E+02 -0.22641121515E+02 -0.10076802374E+02  0.29829702097E+02  0.51100000000E-03 0. -1.
        -11    1    3    3    0    0 -0.74197007615E+00  0.74302331218E+00 -0.95938819467E+01  0.96511747629E+01  0.51100000000E-03 0.  1.
        -12    1    3    3    0    0 -0.34422331132E+00  0.27756379654E+02  0.17809917834E+02  0.32980725802E+02  0.00000000000E+00 0.  1.
</event>
<event>
 7    1  0.3020651E-013  0.7246161E+02  0.7816164E-02  0.1226708E+00
        -11   -1    0    0    0    0  0.00000000000E+00  0.00000000000E+00  0.45593999997E+02  0.45594000000E+02  0.51100000000E-03 0.  1.
         11   -1    0    0    0    0 -0.00000000000E+00 -0.00000000000E+00 -0.45593999997E+02  0.45594000000E+02  0.51100000000E-03 0. -1.
    9900012    2    1    2    0    0 -0.25252297868E+01  0.38686120653E+01  0.18147585686E+02  0.72461606567E+02  0.70000047252E+02 0.  0.
         12    1    1    2    0    0  0.25252297868E+01 -0.38686120653E+01 -0.18147585686E+02  0.18726393433E+02  0.00000000000E+00 0. -1.
         11    1    3    3    0    0 -0.12509759800E+01 -0.90191151798E+01  0.27454152831E+02  0.28924727958E+02  0.51100000000E-03 0. -1.
        -11    1    3    3    0    0 -0.11062035168E+02 -0.98022441258E+01  0.42135386859E+01  0.15369011695E+02  0.51100000000E-03 0.  1.
         12    1    3    3    0    0  0.97877813607E+01  0.22689971371E+02 -0.13520105831E+02  0.28167866914E+02  0.00000000000E+00 0. -1.
</event>
<event>
 7    1  0.3020651E-013  0.7246157E+02  0.7816164E-02  0.1226708E+00
        -11   -1    0    0    0    0  0.00000000000E+00  0.00000000000E+00  0.45593999997E+02  0.45594000000E+02  0.51100000000E-03 0. -1.
         11   -1    0    0    0    0 -0.00000000000E+00 -0.00000000000E+00 -0.45593999997E+02  0.45594000000E+02  0.51100000000E-03 0.  1.
    9900012    2    1    2    0    0 -0.13719830511E+02 -0.11843703241E+02 -0.47087353251E+01  0.72461568304E+02  0.69999997408E+02 0.  0.
         12    1    1    2    0    0  0.13719830511E+02  0.11843703241E+02  0.47087353251E+01  0.18726431696E+02  0.00000000000E+00 0. -1.
         11    1    3    3    0    0  0.54913956260E+01 -0.33285777712E+01 -0.13990351188E+02  0.15393660465E+02  0.51100000000E-03 0. -1.
        -11    1    3    3    0    0 -0.18065712399E+01  0.18548455164E+02  0.15567306421E+02  0.24282708212E+02  0.51100000000E-03 0.  1.
        -12    1    3    3    0    0 -0.17404654897E+02 -0.27063580634E+02 -0.62856905589E+01  0.32785199627E+02  0.00000000000E+00 0.  1.
</event>
<event>
 7    1  0.3020651E-013  0.7246159E+02  0.7816164E-02  0.1226708E+00
        -11   -1    0    0    0    0  0.00000000000E+00  0.00000000000E+00  0.45593999997E+02  0.45594000000E+02  0.51100000000E-03 0.  1.
         11   -1    0    0    0    0 -0.00000000000E+00 -0.00000000000E+00 -0.45593999997E+02  0.45594000000E+02  0.51100000000E-03 0. -1.
    9900012    2    1    2    0    0 -0.12404649499E+01 -0.23118115976E+01  0.18541713781E+02  0.72461591479E+02  0.70000027598E+02 0.  0.
         12    1    1    2    0    0  0.12404649499E+01  0.23118115976E+01 -0.18541713781E+02  0.18726408521E+02  0.00000000000E+00 0. -1.
         11    1    3    3    0    0  0.75414540215E+01 -0.18134876499E+02 -0.19607764271E+02  0.27752688056E+02  0.51100000000E-03 0. -1.
        -11    1    3    3    0    0 -0.26204199471E+01 -0.10708762925E+01  0.15661037860E+02  0.15914819630E+02  0.51100000000E-03 0.  1.
        -12    1    3    3    0    0 -0.61614990243E+01  0.16893941194E+02  0.22488440191E+02  0.28794083794E+02  0.00000000000E+00 0.  1.
</event>
<event>
 7    1  0.3020651E-013  0.7246159E+02  0.7816164E-02  0.1226708E+00
        -11   -1    0    0    0    0  0.00000000000E+00  0.00000000000E+00  0.45593999997E+02  0.45594000000E+02  0.51100000000E-03 0.  1.
         11   -1    0    0    0    0 -0.00000000000E+00 -0.00000000000E+00 -0.45593999997E+02  0.45594000000E+02  0.51100000000E-03 0. -1.
    9900012    2    1    2    0    0  0.71754264803E+01  0.22476079747E+01  0.17150504902E+02  0.72461593372E+02  0.70000030064E+02 0.  0.
         12    1    1    2    0    0 -0.71754264803E+01 -0.22476079747E+01 -0.17150504902E+02  0.18726406628E+02  0.00000000000E+00 0. -1.
         11    1    3    3    0    0 -0.29564539178E+01 -0.12528300923E+02 -0.38809013215E+01  0.13444714170E+02  0.51100000000E-03 0. -1.
        -11    1    3    3    0    0 -0.73997971350E+01 -0.13457832768E+02 -0.56841857098E+01  0.16376209204E+02  0.51100000000E-03 0.  1.
        -12    1    3    3    0    0  0.17531677533E+02  0.28233741666E+02  0.26715591933E+02  0.42640669998E+02  0.00000000000E+00 0.  1.
</event>
<event>
 7    1  0.3020651E-013  0.7246157E+02  0.7816164E-02  0.1226708E+00
        -11   -1    0    0    0    0  0.00000000000E+00  0.00000000000E+00  0.45593999997E+02  0.45594000000E+02  0.51100000000E-03 0.  1.
         11   -1    0    0    0    0 -0.00000000000E+00 -0.00000000000E+00 -0.45593999997E+02  0.45594000000E+02  0.51100000000E-03 0. -1.
    9900012    2    1    2    0    0  0.37696696769E+01  0.96256065663E+01  0.15614624819E+02  0.72461568960E+02  0.69999998262E+02 0.  0.
         12    1    1    2    0    0 -0.37696696769E+01 -0.96256065663E+01 -0.15614624819E+02  0.18726431040E+02  0.00000000000E+00 0. -1.
         11    1    3    3    0    0  0.21852965432E+02 -0.65995520921E+01  0.25502655971E+00  0.22829174860E+02  0.51100000000E-03 0. -1.
        -11    1    3    3    0    0  0.51071790654E+01 -0.10581649295E+02  0.37245794286E+01  0.12325870030E+02  0.51100000000E-03 0.  1.
        -12    1    3    3    0    0 -0.23190474820E+02  0.26806807953E+02  0.11635018831E+02  0.37306524071E+02  0.00000000000E+00 0.  1.
</event>
<event>
 7    1  0.3020651E-013  0.7246158E+02  0.7816164E-02  0.1226708E+00
        -11   -1    0    0    0    0  0.00000000000E+00  0.00000000000E+00  0.45593999997E+02  0.45594000000E+02  0.51100000000E-03 0.  1.
         11   -1    0    0    0    0 -0.00000000000E+00 -0.00000000000E+00 -0.45593999997E+02  0.45594000000E+02  0.51100000000E-03 0. -1.
    9900012    2    1    2    0    0 -0.36192482469E+00  0.97917119083E+01  0.15958386206E+02  0.72461582778E+02  0.70000016262E+02 0.  0.
         12    1    1    2    0    0  0.36192482469E+00 -0.97917119083E+01 -0.15958386206E+02  0.18726417222E+02  0.00000000000E+00 0. -1.
         11    1    3    3    0    0  0.16637304683E+02  0.33158740878E+01  0.27741923381E+01  0.17189853736E+02  0.51100000000E-03 0. -1.
        -11    1    3    3    0    0 -0.10345259159E+02  0.69532775623E+01  0.32514906507E+02  0.34822285987E+02  0.51100000000E-03 0.  1.
         12    1    3    3    0    0 -0.66539703493E+01 -0.47743974186E+00 -0.19330712639E+02  0.20449443055E+02  0.00000000000E+00 0. -1.
</event>
<event>
 7    1  0.3020651E-013  0.7246158E+02  0.7816164E-02  0.1226708E+00
        -11   -1    0    0    0    0  0.00000000000E+00  0.00000000000E+00  0.45593999997E+02  0.45594000000E+02  0.51100000000E-03 0.  1.
         11   -1    0    0    0    0 -0.00000000000E+00 -0.00000000000E+00 -0.45593999997E+02  0.45594000000E+02  0.51100000000E-03 0. -1.
    9900012    2    1    2    0    0 -0.61307675714E+01 -0.13893411297E+02  0.10957443493E+02  0.72461581325E+02  0.70000014369E+02 0.  0.
         12    1    1    2    0    0  0.61307675714E+01  0.13893411297E+02 -0.10957443493E+02  0.18726418675E+02  0.00000000000E+00 0. -1.
         11    1    3    3    0    0  0.38846414832E+01  0.57059275083E+01  0.77190209540E+01  0.10355256295E+02  0.51100000000E-03 0. -1.
        -11    1    3    3    0    0  0.22420663668E+02 -0.19173669963E+02 -0.50483689584E-01  0.29501158080E+02  0.51100000000E-03 0.  1.
        -12    1    3    3    0    0 -0.32436072723E+02 -0.42566884204E+00  0.32889062287E+01  0.32605166950E+02  0.00000000000E+00 0.  1.
</event>
<event>
 7    1  0.3020651E-013  0.7246163E+02  0.7816164E-02  0.1226708E+00
        -11   -1    0    0    0    0  0.00000000000E+00  0.00000000000E+00  0.45593999997E+02  0.45594000000E+02  0.51100000000E-03 0.  1.
         11   -1    0    0    0    0 -0.00000000000E+00 -0.00000000000E+00 -0.45593999997E+02  0.45594000000E+02  0.51100000000E-03 0. -1.
    9900012    2    1    2    0    0  0.11034281229E+02  0.14725039539E+02  0.34777434738E+01  0.72461632191E+02  0.70000080632E+02 0.  0.
         12    1    1    2    0    0 -0.11034281229E+02 -0.14725039539E+02 -0.34777434738E+01  0.18726367809E+02  0.00000000000E+00 0. -1.
         11    1    3    3    0    0 -0.53743543112E+01  0.89867767516E+01  0.13104107084E+02  0.16773892314E+02  0.51100000000E-03 0. -1.
        -11    1    3    3    0    0 -0.90128373490E+01  0.21704904200E+02  0.17914454436E+01  0.23569967765E+02  0.51100000000E-03 0.  1.
         12    1    3    3    0    0  0.25421472889E+02 -0.15966641412E+02 -0.11417809054E+02  0.32117772112E+02  0.00000000000E+00 0. -1.
</event>
<event>
 7    1  0.3020651E-013  0.7246175E+02  0.7816164E-02  0.1226708E+00
        -11   -1    0    0    0    0  0.00000000000E+00  0.00000000000E+00  0.45593999997E+02  0.45594000000E+02  0.51100000000E-03 0. -1.
         11   -1    0    0    0    0 -0.00000000000E+00 -0.00000000000E+00 -0.45593999997E+02  0.45594000000E+02  0.51100000000E-03 0.  1.
    9900012    2    1    2    0    0 -0.15462569507E+01  0.17267251358E+01 -0.18582248772E+02  0.72461749449E+02  0.70000233382E+02 0.  0.
         12    1    1    2    0    0  0.15462569507E+01 -0.17267251358E+01  0.18582248772E+02  0.18726250551E+02  0.00000000000E+00 0. -1.
         11    1    3    3    0    0  0.18710362020E+01 -0.15427953377E+02 -0.34048274497E+02  0.37427363230E+02  0.51100000000E-03 0. -1.
        -11    1    3    3    0    0 -0.74843730698E+01  0.76759358426E+00 -0.45933636501E+01  0.88149889417E+01  0.51100000000E-03 0.  1.
        -12    1    3    3    0    0  0.40670799171E+01  0.16387084929E+02  0.20059389375E+02  0.26219397277E+02  0.00000000000E+00 0.  1.
</event>
<event>
 7    1  0.3020651E-013  0.7246155E+02  0.7816164E-02  0.1226708E+00
        -11   -1    0    0    0    0  0.00000000000E+00  0.00000000000E+00  0.45593999997E+02  0.45594000000E+02  0.51100000000E-03 0. -1.
         11   -1    0    0    0    0 -0.00000000000E+00 -0.00000000000E+00 -0.45593999997E+02  0.45594000000E+02  0.51100000000E-03 0.  1.
    9900012    2    1    2    0    0 -0.12327535467E+02 -0.13969843109E+02  0.18855053560E+01  0.72461554058E+02  0.69999978849E+02 0.  0.
         12    1    1    2    0    0  0.12327535467E+02  0.13969843109E+02 -0.18855053560E+01  0.18726445942E+02  0.00000000000E+00 0. -1.
         11    1    3    3    0    0 -0.59333720120E+01  0.70194975609E+01  0.60023825116E+01  0.10977561000E+02  0.51100000000E-03 0. -1.
        -11    1    3    3    0    0 -0.18063474835E+02 -0.23466140583E+02 -0.24120389983E+02  0.38193482300E+02  0.51100000000E-03 0.  1.
         12    1    3    3    0    0  0.11669311380E+02  0.24767999134E+01  0.20003512828E+02  0.23290510758E+02  0.00000000000E+00 0. -1.
</event>
<event>
 7    1  0.3020651E-013  0.7246159E+02  0.7816164E-02  0.1226708E+00
        -11   -1    0    0    0    0  0.00000000000E+00  0.00000000000E+00  0.45593999997E+02  0.45594000000E+02  0.51100000000E-03 0.  1.
         11   -1    0    0    0    0 -0.00000000000E+00 -0.00000000000E+00 -0.45593999997E+02  0.45594000000E+02  0.51100000000E-03 0. -1.
    9900012    2    1    2    0    0 -0.12083602638E+02  0.72665709016E+01  0.12323231938E+02  0.72461586815E+02  0.70000021522E+02 0.  0.
         12    1    1    2    0    0  0.12083602638E+02 -0.72665709016E+01 -0.12323231938E+02  0.18726413185E+02  0.00000000000E+00 0. -1.
         11    1    3    3    0    0  0.13568415869E+02 -0.68534975367E+01 -0.14744516507E+02  0.21177183594E+02  0.51100000000E-03 0. -1.
        -11    1    3    3    0    0 -0.12542892918E+02  0.12613770045E+02 -0.33741403051E+01  0.18105694699E+02  0.51100000000E-03 0.  1.
        -12    1    3    3    0    0 -0.13109125588E+02  0.15062983937E+01  0.30441888750E+02  0.33178708522E+02  0.00000000000E+00 0.  1.
</event>
<event>
 7    1  0.3020651E-013  0.7246159E+02  0.7816164E-02  0.1226708E+00
        -11   -1    0    0    0    0  0.00000000000E+00  0.00000000000E+00  0.45593999997E+02  0.45594000000E+02  0.51100000000E-03 0.  1.
         11   -1    0    0    0    0 -0.00000000000E+00 -0.00000000000E+00 -0.45593999997E+02  0.45594000000E+02  0.51100000000E-03 0. -1.
    9900012    2    1    2    0    0  0.29075009003E+01  0.18049890407E+02  0.40529542777E+01  0.72461587007E+02  0.70000021772E+02 0.  0.
         12    1    1    2    0    0 -0.29075009003E+01 -0.18049890407E+02 -0.40529542777E+01  0.18726412993E+02  0.00000000000E+00 0. -1.
         11    1    3    3    0    0  0.15557626235E+02 -0.12071487834E+02  0.22538662870E+01  0.19820203483E+02  0.51100000000E-03 0. -1.
        -11    1    3    3    0    0  0.71574332992E+01  0.27830951155E+02 -0.88079265493E+01  0.30056118578E+02  0.51100000000E-03 0.  1.
        -12    1    3    3    0    0 -0.19807558634E+02  0.22904270866E+01  0.10607014540E+02  0.22585264947E+02  0.00000000000E+00 0.  1.
</event>
<event>
 7    1  0.3020651E-013  0.7246160E+02  0.7816164E-02  0.1226708E+00
        -11   -1    0    0    0    0  0.00000000000E+00  0.00000000000E+00  0.45593999997E+02  0.45594000000E+02  0.51100000000E-03 0. -1.
         11   -1    0    0    0    0 -0.00000000000E+00 -0.00000000000E+00 -0.45593999997E+02  0.45594000000E+02  0.51100000000E-03 0.  1.
    9900012    2    1    2    0    0  0.13566275520E+02  0.11866440501E+02 -0.50815101489E+01  0.72461601867E+02  0.70000041129E+02 0.  0.
         12    1    1    2    0    0 -0.13566275520E+02 -0.11866440501E+02  0.50815101489E+01  0.18726398133E+02  0.00000000000E+00 0. -1.
         11    1    3    3    0    0  0.27525081188E+01  0.21541521646E+02  0.99810557298E+01  0.23900521532E+02  0.51100000000E-03 0. -1.
        -11    1    3    3    0    0  0.90202952734E+01  0.39269870801E+01  0.13599296833E+02  0.16784749893E+02  0.51100000000E-03 0.  1.
        -12    1    3    3    0    0  0.17934721277E+01 -0.13602068225E+02 -0.28661862712E+02  0.31776330442E+02  0.00000000000E+00 0.  1.
</event>
<event>
 7    1  0.3020651E-013  0.7246157E+02  0.7816164E-02  0.1226708E+00
        -11   -1    0    0    0    0  0.00000000000E+00  0.00000000000E+00  0.45593999997E+02  0.45594000000E+02  0.51100000000E-03 0.  1.
         11   -1    0    0    0    0 -0.00000000000E+00 -0.00000000000E+00 -0.45593999997E+02  0.45594000000E+02  0.51100000000E-03 0. -1.
    9900012    2    1    2    0    0  0.26652907438E+01  0.22426037906E+01  0.18399627072E+02  0.72461566199E+02  0.69999994665E+02 0.  0.
         12    1    1    2    0    0 -0.26652907438E+01 -0.22426037906E+01 -0.18399627072E+02  0.18726433801E+02  0.00000000000E+00 0. -1.
         11    1    3    3    0    0  0.33351807258E+01  0.20752384648E+02 -0.66524158118E+01  0.22046304349E+02  0.51100000000E-03 0. -1.
        -11    1    3    3    0    0 -0.11673498982E+02  0.67783389061E+01  0.52650177820E+00  0.13509021474E+02  0.51100000000E-03 0.  1.
         12    1    3    3    0    0  0.11003609000E+02 -0.25288119763E+02  0.24525541106E+02  0.36906240376E+02  0.00000000000E+00 0. -1.
</event>
<event>
 7    1  0.3239657E-013  0.7246157E+02  0.7816164E-02  0.1226708E+00
        -11   -1    0    0    0    0  0.00000000000E+00  0.00000000000E+00  0.45593999997E+02  0.45594000000E+02  0.51100000000E-03 0. -1.
         11   -1    0    0    0    0 -0.00000000000E+00 -0.00000000000E+00 -0.45593999997E+02  0.45594000000E+02  0.51100000000E-03 0.  1.
    9900012    2    1    2    0    0 -0.13902066025E+02 -0.93504135406E+01 -0.83655055349E+01  0.72461565315E+02  0.69999993514E+02 0.  0.
         12    1    1    2    0    0  0.13902066025E+02  0.93504135406E+01  0.83655055349E+01  0.18726434685E+02  0.00000000000E+00 0. -1.
         11    1    3    3    0    0  0.17313464553E+01 -0.33646315818E+01  0.16969444416E+02  0.17386211498E+02  0.51100000000E-03 0. -1.
        -11    1    3    3    0    0 -0.18064301531E+02 -0.15721565726E+02  0.38122890949E+01  0.24249127141E+02  0.51100000000E-03 0.  1.
        -12    1    3    3    0    0  0.24308890512E+01  0.97357837667E+01 -0.29147239045E+02  0.30826226676E+02  0.00000000000E+00 0.  1.
</event>
<event>
 7    1  0.3020651E-013  0.7246158E+02  0.7816164E-02  0.1226708E+00
        -11   -1    0    0    0    0  0.00000000000E+00  0.00000000000E+00  0.45593999997E+02  0.45594000000E+02  0.51100000000E-03 0.  1.
         11   -1    0    0    0    0 -0.00000000000E+00 -0.00000000000E+00 -0.45593999997E+02  0.45594000000E+02  0.51100000000E-03 0. -1.
    9900012    2    1    2    0    0 -0.14601684591E+02  0.39460356352E+01  0.11040756794E+02  0.72461582811E+02  0.70000016306E+02 0.  0.
         12    1    1    2    0    0  0.14601684591E+02 -0.39460356352E+01 -0.11040756794E+02  0.18726417189E+02  0.00000000000E+00 0. -1.
         11    1    3    3    0    0 -0.91005181308E+01 -0.33049675897E+01 -0.58222075587E+01  0.11297802536E+02  0.51100000000E-03 0. -1.
        -11    1    3    3    0    0 -0.20276838353E+02 -0.13981602992E+02  0.23937632099E+02  0.34345969583E+02  0.51100000000E-03 0.  1.
         12    1    3    3    0    0  0.14775671892E+02  0.21232606217E+02 -0.70746677466E+01  0.26817810693E+02  0.00000000000E+00 0. -1.
</event>
<event>
 7    1  0.3020651E-013  0.7246160E+02  0.7816164E-02  0.1226708E+00
        -11   -1    0    0    0    0  0.00000000000E+00  0.00000000000E+00  0.45593999997E+02  0.45594000000E+02  0.51100000000E-03 0. -1.
         11   -1    0    0    0    0 -0.00000000000E+00 -0.00000000000E+00 -0.45593999997E+02  0.45594000000E+02  0.51100000000E-03 0.  1.
    9900012    2    1    2    0    0 -0.11879934659E+01  0.17740070146E+02 -0.58784969280E+01  0.72461597692E+02  0.70000035691E+02 0.  0.
         12    1    1    2    0    0  0.11879934659E+01 -0.17740070146E+02  0.58784969280E+01  0.18726402308E+02  0.00000000000E+00 0. -1.
         11    1    3    3    0    0 -0.72900684401E+01  0.79680650322E+01 -0.21244963602E+02  0.23832407283E+02  0.51100000000E-03 0.  1.
        -11    1    3    3    0    0 -0.44501524516E+00 -0.11708590131E+01 -0.15334328572E+02  0.15385401600E+02  0.51100000000E-03 0. -1.
         12    1    3    3    0    0  0.65470902193E+01  0.10942864127E+02  0.30700795246E+02  0.33243788809E+02  0.00000000000E+00 0. -1.
</event>
<event>
 7    1  0.3020651E-013  0.7246151E+02  0.7816164E-02  0.1226708E+00
        -11   -1    0    0    0    0  0.00000000000E+00  0.00000000000E+00  0.45593999997E+02  0.45594000000E+02  0.51100000000E-03 0.  1.
         11   -1    0    0    0    0 -0.00000000000E+00 -0.00000000000E+00 -0.45593999997E+02  0.45594000000E+02  0.51100000000E-03 0. -1.
    9900012    2    1    2    0    0 -0.15866119133E+02 -0.98940634980E+01 -0.10271678484E+01  0.72461513340E+02  0.69999925807E+02 0.  0.
         12    1    1    2    0    0  0.15866119133E+02  0.98940634980E+01  0.10271678484E+01  0.18726486660E+02  0.00000000000E+00 0. -1.
         11    1    3    3    0    0 -0.15612989792E+01 -0.12231457588E+02  0.13068381159E+01  0.12399759487E+02  0.51100000000E-03 0. -1.
        -11    1    3    3    0    0  0.10774788784E+02  0.15710546838E+01  0.22351723194E+02  0.24862900397E+02  0.51100000000E-03 0.  1.
         12    1    3    3    0    0 -0.25079608937E+02  0.76633940569E+00 -0.24685729159E+02  0.35198853456E+02  0.00000000000E+00 0. -1.
</event>
<event>
 7    1  0.3020651E-013  0.7246156E+02  0.7816164E-02  0.1226708E+00
        -11   -1    0    0    0    0  0.00000000000E+00  0.00000000000E+00  0.45593999997E+02  0.45594000000E+02  0.51100000000E-03 0. -1.
         11   -1    0    0    0    0 -0.00000000000E+00 -0.00000000000E+00 -0.45593999997E+02  0.45594000000E+02  0.51100000000E-03 0.  1.
    9900012    2    1    2    0    0 -0.28205538761E+01 -0.45690750825E+01 -0.17940111310E+02  0.72461559732E+02  0.69999986241E+02 0.  0.
         12    1    1    2    0    0  0.28205538761E+01  0.45690750825E+01  0.17940111310E+02  0.18726440268E+02  0.00000000000E+00 0. -1.
         11    1    3    3    0    0  0.54720529479E+01  0.90864914183E+01 -0.82460660160E+01  0.13435225892E+02  0.51100000000E-03 0. -1.
        -11    1    3    3    0    0  0.15516646533E+02  0.14450946813E+02 -0.58182545730E+01  0.21987457105E+02  0.51100000000E-03 0.  1.
         12    1    3    3    0    0 -0.23809253357E+02 -0.28106513314E+02 -0.38757907212E+01  0.37038876735E+02  0.00000000000E+00 0. -1.
</event>
<event>
 7    1  0.3020651E-013  0.7246158E+02  0.7816164E-02  0.1226708E+00
        -11   -1    0    0    0    0  0.00000000000E+00  0.00000000000E+00  0.45593999997E+02  0.45594000000E+02  0.51100000000E-03 0.  1.
         11   -1    0    0    0    0 -0.00000000000E+00 -0.00000000000E+00 -0.45593999997E+02  0.45594000000E+02  0.51100000000E-03 0. -1.
    9900012    2    1    2    0    0 -0.33023202985E+00 -0.47178785722E+01  0.18119364688E+02  0.72461579944E+02  0.70000012571E+02 0.  0.
         12    1    1    2    0    0  0.33023202985E+00  0.47178785722E+01 -0.18119364688E+02  0.18726420056E+02  0.00000000000E+00 0. -1.
         11    1    3    3    0    0  0.20384510829E+02 -0.82493076135E+00  0.62218586819E+01  0.21328861156E+02  0.51100000000E-03 0. -1.
        -11    1    3    3    0    0  0.60926488443E+01 -0.16178324737E+02  0.12990065119E+02  0.21624068842E+02  0.51100000000E-03 0.  1.
        -12    1    3    3    0    0 -0.26807391704E+02  0.12285376927E+02 -0.10925591125E+01  0.29508649945E+02  0.00000000000E+00 0.  1.
</event>
<event>
 7    1  0.3020651E-013  0.7246155E+02  0.7816164E-02  0.1226708E+00
        -11   -1    0    0    0    0  0.00000000000E+00  0.00000000000E+00  0.45593999997E+02  0.45594000000E+02  0.51100000000E-03 0.  1.
         11   -1    0    0    0    0 -0.00000000000E+00 -0.00000000000E+00 -0.45593999997E+02  0.45594000000E+02  0.51100000000E-03 0. -1.
    9900012    2    1    2    0    0  0.17039995799E+02  0.24907066891E+01  0.73562715787E+01  0.72461553242E+02  0.69999977786E+02 0.  0.
         12    1    1    2    0    0 -0.17039995799E+02 -0.24907066891E+01 -0.73562715787E+01  0.18726446758E+02  0.00000000000E+00 0. -1.
         11    1    3    3    0    0  0.54936839629E+01 -0.77839554652E+01 -0.41846752902E-01  0.95274486397E+01  0.51100000000E-03 0. -1.
        -11    1    3    3    0    0  0.20153931487E+02 -0.16494573607E+02 -0.12099344028E+02  0.28716650902E+02  0.51100000000E-03 0.  1.
        -12    1    3    3    0    0 -0.86076196513E+01  0.26769235761E+02  0.19497462359E+02  0.34217453700E+02  0.00000000000E+00 0.  1.
</event>
<event>
 7    1  0.3020651E-013  0.7246158E+02  0.7816164E-02  0.1226708E+00
        -11   -1    0    0    0    0  0.00000000000E+00  0.00000000000E+00  0.45593999997E+02  0.45594000000E+02  0.51100000000E-03 0.  1.
         11   -1    0    0    0    0 -0.00000000000E+00 -0.00000000000E+00 -0.45593999997E+02  0.45594000000E+02  0.51100000000E-03 0. -1.
    9900012    2    1    2    0    0 -0.82953720668E+01  0.10715263581E+01  0.16754629457E+02  0.72461575496E+02  0.70000006776E+02 0.  0.
         12    1    1    2    0    0  0.82953720668E+01 -0.10715263581E+01 -0.16754629457E+02  0.18726424504E+02  0.00000000000E+00 0. -1.
         11    1    3    3    0    0  0.99351696747E+01 -0.62562830613E+01 -0.19805595848E+02  0.23024124334E+02  0.51100000000E-03 0. -1.
        -11    1    3    3    0    0  0.38124457142E+01 -0.52054718282E+01  0.23771864155E+01  0.68762413275E+01  0.51100000000E-03 0.  1.
        -12    1    3    3    0    0 -0.22042987456E+02  0.12533281248E+02  0.34183038890E+02  0.42561209834E+02  0.00000000000E+00 0.  1.
</event>
<event>
 7    1  0.3020651E-013  0.7246158E+02  0.7816164E-02  0.1226708E+00
        -11   -1    0    0    0    0  0.00000000000E+00  0.00000000000E+00  0.45593999997E+02  0.45594000000E+02  0.51100000000E-03 0. -1.
         11   -1    0    0    0    0 -0.00000000000E+00 -0.00000000000E+00 -0.45593999997E+02  0.45594000000E+02  0.51100000000E-03 0.  1.
    9900012    2    1    2    0    0  0.82806379506E+01  0.15821908292E+02 -0.56371250995E+01  0.72461576790E+02  0.70000008462E+02 0.  0.
         12    1    1    2    0    0 -0.82806379506E+01 -0.15821908292E+02  0.56371250995E+01  0.18726423210E+02  0.00000000000E+00 0. -1.
         11    1    3    3    0    0  0.30210968092E+02 -0.74962284831E+01  0.11330761148E+01  0.31147710932E+02  0.51100000000E-03 0. -1.
        -11    1    3    3    0    0 -0.12228016789E+02 -0.18549780000E+01  0.28137344813E+01  0.12683944181E+02  0.51100000000E-03 0.  1.
        -12    1    3    3    0    0 -0.97023133521E+01  0.25173114775E+02 -0.95839356955E+01  0.28629921678E+02  0.00000000000E+00 0.  1.
</event>
<event>
 7    1  0.3020651E-013  0.7246160E+02  0.7816164E-02  0.1226708E+00
        -11   -1    0    0    0    0  0.00000000000E+00  0.00000000000E+00  0.45593999997E+02  0.45594000000E+02  0.51100000000E-03 0.  1.
         11   -1    0    0    0    0 -0.00000000000E+00 -0.00000000000E+00 -0.45593999997E+02  0.45594000000E+02  0.51100000000E-03 0. -1.
    9900012    2    1    2    0    0 -0.63600803919E+01  0.16654882332E+02  0.57308390098E+01  0.72461595010E+02  0.70000032197E+02 0.  0.
         12    1    1    2    0    0  0.63600803919E+01 -0.16654882332E+02 -0.57308390098E+01  0.18726404990E+02  0.00000000000E+00 0. -1.
         11    1    3    3    0    0 -0.48767561164E+01  0.15680846255E+02  0.52041852172E+01  0.17226585080E+02  0.51100000000E-03 0. -1.
        -11    1    3    3    0    0  0.43700061519E+00  0.21638859355E+02  0.17964755712E+02  0.28127631464E+02  0.51100000000E-03 0.  1.
         12    1    3    3    0    0 -0.19203248907E+01 -0.20664823278E+02 -0.17438101919E+02  0.27107378467E+02  0.00000000000E+00 0. -1.
</event>
<event>
 7    1  0.3020651E-013  0.7246149E+02  0.7816164E-02  0.1226708E+00
        -11   -1    0    0    0    0  0.00000000000E+00  0.00000000000E+00  0.45593999997E+02  0.45594000000E+02  0.51100000000E-03 0.  1.
         11   -1    0    0    0    0 -0.00000000000E+00 -0.00000000000E+00 -0.45593999997E+02  0.45594000000E+02  0.51100000000E-03 0. -1.
    9900012    2    1    2    0    0 -0.78689329289E+01 -0.16988180771E+02  0.40458065326E+00  0.72461492668E+02  0.69999898878E+02 0.  0.
         12    1    1    2    0    0  0.78689329289E+01  0.16988180771E+02 -0.40458065326E+00  0.18726507332E+02  0.00000000000E+00 0. -1.
         11    1    3    3    0    0 -0.72634115756E+00  0.68763495219E+00  0.25232076300E+01  0.27142200187E+01  0.51100000000E-03 0. -1.
        -11    1    3    3    0    0 -0.15649726856E+02  0.15159786549E+02  0.19734880813E+02  0.29397254971E+02  0.51100000000E-03 0.  1.
         12    1    3    3    0    0  0.85071350844E+01 -0.32835602272E+02 -0.21853507790E+02  0.40350017678E+02  0.00000000000E+00 0. -1.
</event>
<event>
 7    1  0.3020651E-013  0.7246157E+02  0.7816164E-02  0.1226708E+00
        -11   -1    0    0    0    0  0.00000000000E+00  0.00000000000E+00  0.45593999997E+02  0.45594000000E+02  0.51100000000E-03 0.  1.
         11   -1    0    0    0    0 -0.00000000000E+00 -0.00000000000E+00 -0.45593999997E+02  0.45594000000E+02  0.51100000000E-03 0. -1.
    9900012    2    1    2    0    0  0.52428632480E+01 -0.20702114959E+00  0.17976333780E+02  0.72461573513E+02  0.70000004193E+02 0.  0.
         12    1    1    2    0    0 -0.52428632480E+01  0.20702114959E+00 -0.17976333780E+02  0.18726426487E+02  0.00000000000E+00 0. -1.
         11    1    3    3    0    0  0.13538773995E+02 -0.13494874118E+02  0.51413886733E+01  0.19795047525E+02  0.51100000000E-03 0. -1.
        -11    1    3    3    0    0 -0.21207654973E+02 -0.70069112038E+01  0.17237111611E+02  0.28213107788E+02  0.51100000000E-03 0.  1.
        -12    1    3    3    0    0  0.12911744226E+02  0.20294764173E+02 -0.44021665044E+01  0.24453418201E+02  0.00000000000E+00 0.  1.
</event>
<event>
 7    1  0.3020651E-013  0.7246154E+02  0.7816164E-02  0.1226708E+00
        -11   -1    0    0    0    0  0.00000000000E+00  0.00000000000E+00  0.45593999997E+02  0.45594000000E+02  0.51100000000E-03 0.  1.
         11   -1    0    0    0    0 -0.00000000000E+00 -0.00000000000E+00 -0.45593999997E+02  0.45594000000E+02  0.51100000000E-03 0. -1.
    9900012    2    1    2    0    0 -0.15339888256E+02  0.47502568137E+01 -0.96334448106E+01  0.72461538230E+02  0.69999958230E+02 0.  0.
         12    1    1    2    0    0  0.15339888256E+02 -0.47502568137E+01  0.96334448106E+01  0.18726461770E+02  0.00000000000E+00 0. -1.
         11    1    3    3    0    0 -0.35635896827E+02  0.79526101526E+01 -0.14534896413E+01  0.36541398212E+02  0.51100000000E-03 0. -1.
        -11    1    3    3    0    0 -0.20027113088E+00 -0.10025614625E+02  0.43684124495E+01  0.10937828154E+02  0.51100000000E-03 0.  1.
        -12    1    3    3    0    0  0.20496279702E+02  0.68232612861E+01 -0.12548367619E+02  0.24982311864E+02  0.00000000000E+00 0.  1.
</event>
<event>
 7    1  0.3020651E-013  0.7246159E+02  0.7816164E-02  0.1226708E+00
        -11   -1    0    0    0    0  0.00000000000E+00  0.00000000000E+00  0.45593999997E+02  0.45594000000E+02  0.51100000000E-03 0. -1.
         11   -1    0    0    0    0 -0.00000000000E+00 -0.00000000000E+00 -0.45593999997E+02  0.45594000000E+02  0.51100000000E-03 0.  1.
    9900012    2    1    2    0    0 -0.67274303942E+01  0.83075644375E+01 -0.15375452462E+02  0.72461588571E+02  0.70000023809E+02 0.  0.
         12    1    1    2    0    0  0.67274303942E+01 -0.83075644375E+01  0.15375452462E+02  0.18726411429E+02  0.00000000000E+00 0. -1.
         11    1    3    3    0    0 -0.12290123840E+02 -0.92243341704E+01 -0.48380936048E+01  0.16110326964E+02  0.51100000000E-03 0. -1.
        -11    1    3    3    0    0 -0.21949929988E+02  0.16797423781E+02 -0.29159919465E+01  0.27793090534E+02  0.51100000000E-03 0.  1.
        -12    1    3    3    0    0  0.27512623433E+02  0.73447482699E+00 -0.76213669107E+01  0.28558171073E+02  0.00000000000E+00 0.  1.
</event>
<event>
 7    1  0.3020651E-013  0.7246156E+02  0.7816164E-02  0.1226708E+00
        -11   -1    0    0    0    0  0.00000000000E+00  0.00000000000E+00  0.45593999997E+02  0.45594000000E+02  0.51100000000E-03 0. -1.
         11   -1    0    0    0    0 -0.00000000000E+00 -0.00000000000E+00 -0.45593999997E+02  0.45594000000E+02  0.51100000000E-03 0.  1.
    9900012    2    1    2    0    0 -0.13096463855E+02 -0.13314130257E+02 -0.13770087186E+01  0.72461559254E+02  0.69999985618E+02 0.  0.
         12    1    1    2    0    0  0.13096463855E+02  0.13314130257E+02  0.13770087186E+01  0.18726440746E+02  0.00000000000E+00 0. -1.
         11    1    3    3    0    0 -0.22722067202E+01 -0.16221567713E+02 -0.28196823301E+02  0.32609247569E+02  0.51100000000E-03 0.  1.
        -11    1    3    3    0    0  0.45744453037E+01  0.90860530542E+01  0.26092687912E+01  0.10501913817E+02  0.51100000000E-03 0. -1.
        -12    1    3    3    0    0 -0.15398702439E+02 -0.61786155982E+01  0.24210545792E+02  0.29350397868E+02  0.00000000000E+00 0.  1.
</event>
<event>
 7    1  0.3020651E-013  0.7246099E+02  0.7816164E-02  0.1226710E+00
        -11   -1    0    0    0    0  0.00000000000E+00  0.00000000000E+00  0.45593999997E+02  0.45594000000E+02  0.51100000000E-03 0. -1.
         11   -1    0    0    0    0 -0.00000000000E+00 -0.00000000000E+00 -0.45593999997E+02  0.45594000000E+02  0.51100000000E-03 0.  1.
    9900012    2    1    2    0    0  0.14162205889E+02  0.18940865030E+01 -0.12105584915E+02  0.72460992085E+02  0.69999246771E+02 0.  0.
         12    1    1    2    0    0 -0.14162205889E+02 -0.18940865030E+01  0.12105584915E+02  0.18727007915E+02  0.00000000000E+00 0. -1.
         11    1    3    3    0    0  0.21145137535E+02  0.26265618923E+01 -0.11066021724E+02  0.24009841853E+02  0.51100000000E-03 0. -1.
        -11    1    3    3    0    0  0.53805993031E+01  0.21462370433E+02 -0.51415550534E+01  0.22716068808E+02  0.51100000000E-03 0.  1.
         12    1    3    3    0    0 -0.12363530949E+02 -0.22194845823E+02  0.41019918633E+01  0.25735081423E+02  0.00000000000E+00 0. -1.
</event>
<event>
 7    1  0.3020651E-013  0.7246158E+02  0.7816164E-02  0.1226708E+00
        -11   -1    0    0    0    0  0.00000000000E+00  0.00000000000E+00  0.45593999997E+02  0.45594000000E+02  0.51100000000E-03 0. -1.
         11   -1    0    0    0    0 -0.00000000000E+00 -0.00000000000E+00 -0.45593999997E+02  0.45594000000E+02  0.51100000000E-03 0.  1.
    9900012    2    1    2    0    0 -0.74592236090E+01 -0.15327911023E+02  0.77520207682E+01  0.72461582853E+02  0.70000016360E+02 0.  0.
         12    1    1    2    0    0  0.74592236090E+01  0.15327911023E+02 -0.77520207682E+01  0.18726417147E+02  0.00000000000E+00 0. -1.
         11    1    3    3    0    0  0.16013647701E+02 -0.13489528176E+01  0.15076291306E+01  0.16140927243E+02  0.51100000000E-03 0. -1.
        -11    1    3    3    0    0 -0.11719186107E+02 -0.31704382133E+02  0.87230317104E+01  0.34908429526E+02  0.51100000000E-03 0.  1.
         12    1    3    3    0    0 -0.11753685203E+02  0.17725423928E+02 -0.24786400728E+01  0.21412226084E+02  0.00000000000E+00 0. -1.
</event>
<event>
 7    1  0.3020651E-013  0.7246157E+02  0.7816164E-02  0.1226708E+00
        -11   -1    0    0    0    0  0.00000000000E+00  0.00000000000E+00  0.45593999997E+02  0.45594000000E+02  0.51100000000E-03 0.  1.
         11   -1    0    0    0    0 -0.00000000000E+00 -0.00000000000E+00 -0.45593999997E+02  0.45594000000E+02  0.51100000000E-03 0. -1.
    9900012    2    1    2    0    0  0.11709254840E+02  0.51048265592E+01  0.13693552441E+02  0.72461567303E+02  0.69999996103E+02 0.  0.
         12    1    1    2    0    0 -0.11709254840E+02 -0.51048265592E+01 -0.13693552441E+02  0.18726432697E+02  0.00000000000E+00 0. -1.
         11    1    3    3    0    0  0.17281982768E+01  0.62007233762E+01  0.31846326690E+01  0.71817494505E+01  0.51100000000E-03 0. -1.
        -11    1    3    3    0    0  0.25597725898E+02  0.20962451956E+02  0.17408541930E+02  0.37386164494E+02  0.51100000000E-03 0.  1.
         12    1    3    3    0    0 -0.15616669335E+02 -0.22058348773E+02 -0.68996221583E+01  0.27893653358E+02  0.00000000000E+00 0. -1.
</event>
<event>
 7    1  0.3020651E-013  0.7246157E+02  0.7816164E-02  0.1226708E+00
        -11   -1    0    0    0    0  0.00000000000E+00  0.00000000000E+00  0.45593999997E+02  0.45594000000E+02  0.51100000000E-03 0.  1.
         11   -1    0    0    0    0 -0.00000000000E+00 -0.00000000000E+00 -0.45593999997E+02  0.45594000000E+02  0.51100000000E-03 0. -1.
    9900012    2    1    2    0    0 -0.16417039137E+02  0.83273005578E+01 -0.34374523387E+01  0.72461569823E+02  0.69999999385E+02 0.  0.
         12    1    1    2    0    0  0.16417039137E+02 -0.83273005578E+01  0.34374523387E+01  0.18726430177E+02  0.00000000000E+00 0. -1.
         11    1    3    3    0    0  0.13707045494E+02 -0.12315304507E+02 -0.12020267525E+02  0.22000833005E+02  0.51100000000E-03 0. -1.
        -11    1    3    3    0    0 -0.13411864126E+02 -0.48366980101E+01  0.13453454565E+02  0.19602734171E+02  0.51100000000E-03 0.  1.
        -12    1    3    3    0    0 -0.16712220505E+02  0.25479303075E+02 -0.48706393785E+01  0.30858002646E+02  0.00000000000E+00 0.  1.
</event>
<event>
 7    1  0.3020651E-013  0.7246157E+02  0.7816164E-02  0.1226708E+00
        -11   -1    0    0    0    0  0.00000000000E+00  0.00000000000E+00  0.45593999997E+02  0.45594000000E+02  0.51100000000E-03 0.  1.
         11   -1    0    0    0    0 -0.00000000000E+00 -0.00000000000E+00 -0.45593999997E+02  0.45594000000E+02  0.51100000000E-03 0. -1.
    9900012    2    1    2    0    0 -0.97279503467E+00  0.71626830958E+01  0.17275093993E+02  0.72461568632E+02  0.69999997834E+02 0.  0.
         12    1    1    2    0    0  0.97279503467E+00 -0.71626830958E+01 -0.17275093993E+02  0.18726431368E+02  0.00000000000E+00 0. -1.
         11    1    3    3    0    0  0.13510311153E+00 -0.19986051035E+01  0.13196196960E+01  0.23987646015E+01  0.51100000000E-03 0. -1.
        -11    1    3    3    0    0 -0.21560895136E+01 -0.27642476365E+02  0.18215719589E+02  0.33174804626E+02  0.51100000000E-03 0.  1.
         12    1    3    3    0    0  0.10481913674E+01  0.36803764564E+02 -0.22602452915E+01  0.36887999404E+02  0.00000000000E+00 0. -1.
</event>
<event>
 7    1  0.3020651E-013  0.7246152E+02  0.7816164E-02  0.1226708E+00
        -11   -1    0    0    0    0  0.00000000000E+00  0.00000000000E+00  0.45593999997E+02  0.45594000000E+02  0.51100000000E-03 0.  1.
         11   -1    0    0    0    0 -0.00000000000E+00 -0.00000000000E+00 -0.45593999997E+02  0.45594000000E+02  0.51100000000E-03 0. -1.
    9900012    2    1    2    0    0 -0.13138044568E+02 -0.76053382425E+01  0.10965011812E+02  0.72461524921E+02  0.69999940892E+02 0.  0.
         12    1    1    2    0    0  0.13138044568E+02  0.76053382425E+01 -0.10965011812E+02  0.18726475079E+02  0.00000000000E+00 0. -1.
         11    1    3    3    0    0  0.85620879408E+01  0.76983068832E+01  0.11120996204E+01  0.11567629169E+02  0.51100000000E-03 0. -1.
        -11    1    3    3    0    0 -0.22059729563E+02  0.15214987645E+02  0.13759859219E+02  0.30124097388E+02  0.51100000000E-03 0.  1.
         12    1    3    3    0    0  0.35959705440E+00 -0.30518632771E+02 -0.39069470270E+01  0.30769798363E+02  0.00000000000E+00 0. -1.
</event>
<event>
 7    1  0.3020651E-013  0.7246157E+02  0.7816164E-02  0.1226708E+00
        -11   -1    0    0    0    0  0.00000000000E+00  0.00000000000E+00  0.45593999997E+02  0.45594000000E+02  0.51100000000E-03 0. -1.
         11   -1    0    0    0    0 -0.00000000000E+00 -0.00000000000E+00 -0.45593999997E+02  0.45594000000E+02  0.51100000000E-03 0.  1.
    9900012    2    1    2    0    0 -0.82440603635E+01  0.26882278305E+01 -0.16597832423E+02  0.72461571048E+02  0.70000000982E+02 0.  0.
         12    1    1    2    0    0  0.82440603635E+01 -0.26882278305E+01  0.16597832423E+02  0.18726428952E+02  0.00000000000E+00 0. -1.
         11    1    3    3    0    0  0.67664961574E+01 -0.15251133810E+00 -0.83837596434E+01  0.10774792619E+02  0.51100000000E-03 0. -1.
        -11    1    3    3    0    0  0.17591955655E+02 -0.11101538820E+02 -0.14920379627E+02  0.25599585864E+02  0.51100000000E-03 0.  1.
         12    1    3    3    0    0 -0.32602512176E+02  0.13942277989E+02  0.67063068473E+01  0.36087192565E+02  0.00000000000E+00 0. -1.
</event>
<event>
 7    1  0.3020651E-013  0.7246149E+02  0.7816164E-02  0.1226708E+00
        -11   -1    0    0    0    0  0.00000000000E+00  0.00000000000E+00  0.45593999997E+02  0.45594000000E+02  0.51100000000E-03 0.  1.
         11   -1    0    0    0    0 -0.00000000000E+00 -0.00000000000E+00 -0.45593999997E+02  0.45594000000E+02  0.51100000000E-03 0. -1.
    9900012    2    1    2    0    0 -0.87262593973E+01  0.16508242094E+02 -0.14185819261E+01  0.72461493791E+02  0.69999900340E+02 0.  0.
         12    1    1    2    0    0  0.87262593973E+01 -0.16508242094E+02  0.14185819261E+01  0.18726506209E+02  0.00000000000E+00 0. -1.
         11    1    3    3    0    0 -0.57624402023E+01  0.52253568703E+01  0.49349469666E+01  0.92121535665E+01  0.51100000000E-03 0. -1.
        -11    1    3    3    0    0 -0.32334918844E+02  0.82142664625E+01 -0.22953619003E+01  0.33440840849E+02  0.51100000000E-03 0.  1.
         12    1    3    3    0    0  0.29371099649E+02  0.30686187613E+01 -0.40581669924E+01  0.29808499376E+02  0.00000000000E+00 0. -1.
</event>
<event>
 7    1  0.3020651E-013  0.7246109E+02  0.7816164E-02  0.1226709E+00
        -11   -1    0    0    0    0  0.00000000000E+00  0.00000000000E+00  0.45593999997E+02  0.45594000000E+02  0.51100000000E-03 0. -1.
         11   -1    0    0    0    0 -0.00000000000E+00 -0.00000000000E+00 -0.45593999997E+02  0.45594000000E+02  0.51100000000E-03 0.  1.
    9900012    2    1    2    0    0  0.14465748354E+02  0.64737019810E+01 -0.99764864123E+01  0.72461094919E+02  0.69999380732E+02 0.  0.
         12    1    1    2    0    0 -0.14465748354E+02 -0.64737019810E+01  0.99764864123E+01  0.18726905081E+02  0.00000000000E+00 0. -1.
         11    1    3    3    0    0 -0.58259792578E+01 -0.11289466929E+02  0.25712703349E+01  0.12961694690E+02  0.51100000000E-03 0. -1.
        -11    1    3    3    0    0  0.24119641365E+02 -0.10095432351E+02  0.46206905945E+01  0.26552318840E+02  0.51100000000E-03 0.  1.
        -12    1    3    3    0    0 -0.38279137530E+01  0.27858601260E+02 -0.17168447342E+02  0.32947081388E+02  0.00000000000E+00 0.  1.
</event>
<event>
 7    1  0.3020651E-013  0.7246152E+02  0.7816164E-02  0.1226708E+00
        -11   -1    0    0    0    0  0.00000000000E+00  0.00000000000E+00  0.45593999997E+02  0.45594000000E+02  0.51100000000E-03 0. -1.
         11   -1    0    0    0    0 -0.00000000000E+00 -0.00000000000E+00 -0.45593999997E+02  0.45594000000E+02  0.51100000000E-03 0.  1.
    9900012    2    1    2    0    0  0.15949655874E+02 -0.36518082087E+01 -0.91079067863E+01  0.72461516302E+02  0.69999929664E+02 0.  0.
         12    1    1    2    0    0 -0.15949655874E+02  0.36518082087E+01  0.91079067863E+01  0.18726483698E+02  0.00000000000E+00 0. -1.
         11    1    3    3    0    0 -0.13822901514E+02  0.48968182062E+01 -0.10845870340E+02  0.18239636469E+02  0.51100000000E-03 0. -1.
        -11    1    3    3    0    0 -0.61762004655E+01 -0.49860775041E+01  0.13982359188E+02  0.16078332929E+02  0.51100000000E-03 0.  1.
        -12    1    3    3    0    0  0.35948757854E+02 -0.35625489108E+01 -0.12244395634E+02  0.38143546904E+02  0.00000000000E+00 0.  1.
</event>
<event>
 7    1  0.3020651E-013  0.7246148E+02  0.7816164E-02  0.1226708E+00
        -11   -1    0    0    0    0  0.00000000000E+00  0.00000000000E+00  0.45593999997E+02  0.45594000000E+02  0.51100000000E-03 0. -1.
         11   -1    0    0    0    0 -0.00000000000E+00 -0.00000000000E+00 -0.45593999997E+02  0.45594000000E+02  0.51100000000E-03 0.  1.
    9900012    2    1    2    0    0 -0.16885137776E+02 -0.61104028599E+01  0.53138992905E+01  0.72461483333E+02  0.69999886716E+02 0.  0.
         12    1    1    2    0    0  0.16885137776E+02  0.61104028599E+01 -0.53138992905E+01  0.18726516667E+02  0.00000000000E+00 0. -1.
         11    1    3    3    0    0 -0.12955415022E+02  0.17070677239E+02  0.13911168081E+02  0.25549391331E+02  0.51100000000E-03 0. -1.
        -11    1    3    3    0    0  0.74764989941E+01 -0.23490461130E+02  0.87415589972E+01  0.26155585546E+02  0.51100000000E-03 0.  1.
        -12    1    3    3    0    0 -0.11406221748E+02  0.30938103122E+00 -0.17338827787E+02  0.20756506455E+02  0.00000000000E+00 0.  1.
</event>
<event>
 7    1  0.3020651E-013  0.7246177E+02  0.7816164E-02  0.1226707E+00
        -11   -1    0    0    0    0  0.00000000000E+00  0.00000000000E+00  0.45593999997E+02  0.45594000000E+02  0.51100000000E-03 0. -1.
         11   -1    0    0    0    0 -0.00000000000E+00 -0.00000000000E+00 -0.45593999997E+02  0.45594000000E+02  0.51100000000E-03 0.  1.
    9900012    2    1    2    0    0  0.13782526688E+02  0.10070180677E+02 -0.77009689402E+01  0.72461774983E+02  0.70000266644E+02 0.  0.
         12    1    1    2    0    0 -0.13782526688E+02 -0.10070180677E+02  0.77009689402E+01  0.18726225017E+02  0.00000000000E+00 0. -1.
         11    1    3    3    0    0  0.19341879944E+01 -0.86044226162E+01  0.14018565526E+02  0.16561924750E+02  0.51100000000E-03 0. -1.
        -11    1    3    3    0    0 -0.84960126703E+01  0.18833743858E+02 -0.27826182038E+02  0.34658167091E+02  0.51100000000E-03 0.  1.
         12    1    3    3    0    0  0.20344351364E+02 -0.15914056520E+00  0.61066475717E+01  0.21241683142E+02  0.00000000000E+00 0. -1.
</event>
<event>
 7    1  0.3020651E-013  0.7246156E+02  0.7816164E-02  0.1226708E+00
        -11   -1    0    0    0    0  0.00000000000E+00  0.00000000000E+00  0.45593999997E+02  0.45594000000E+02  0.51100000000E-03 0. -1.
         11   -1    0    0    0    0 -0.00000000000E+00 -0.00000000000E+00 -0.45593999997E+02  0.45594000000E+02  0.51100000000E-03 0.  1.
    9900012    2    1    2    0    0 -0.16317060993E+02  0.91541032038E+01 -0.79710257727E+00  0.72461562607E+02  0.69999989986E+02 0.  0.
         12    1    1    2    0    0  0.16317060993E+02 -0.91541032038E+01  0.79710257727E+00  0.18726437393E+02  0.00000000000E+00 0. -1.
         11    1    3    3    0    0  0.15973905843E+02  0.12937958300E+01  0.14815434667E+02  0.21825138720E+02  0.51100000000E-03 0. -1.
        -11    1    3    3    0    0 -0.11873229226E+02 -0.85297491279E+01  0.68445076871E+01  0.16142412403E+02  0.51100000000E-03 0.  1.
         12    1    3    3    0    0 -0.20417737609E+02  0.16390056502E+02 -0.22457044932E+02  0.34494011484E+02  0.00000000000E+00 0. -1.
</event>
<event>
 7    1  0.3020651E-013  0.7246154E+02  0.7816164E-02  0.1226708E+00
        -11   -1    0    0    0    0  0.00000000000E+00  0.00000000000E+00  0.45593999997E+02  0.45594000000E+02  0.51100000000E-03 0.  1.
         11   -1    0    0    0    0 -0.00000000000E+00 -0.00000000000E+00 -0.45593999997E+02  0.45594000000E+02  0.51100000000E-03 0. -1.
    9900012    2    1    2    0    0 -0.38705004579E+01  0.44019629764E+01  0.17785452611E+02  0.72461538070E+02  0.69999958022E+02 0.  0.
         12    1    1    2    0    0  0.38705004579E+01 -0.44019629764E+01 -0.17785452611E+02  0.18726461930E+02  0.00000000000E+00 0. -1.
         11    1    3    3    0    0 -0.10551771339E+02 -0.85315129662E+01 -0.15996796557E+02  0.20976751232E+02  0.51100000000E-03 0. -1.
        -11    1    3    3    0    0 -0.63100424628E+00 -0.45521487153E+01 -0.59177543169E+01  0.74926657940E+01  0.51100000000E-03 0.  1.
        -12    1    3    3    0    0  0.73122751276E+01  0.17485624658E+02  0.39700003485E+02  0.43992121044E+02  0.00000000000E+00 0.  1.
</event>
<event>
 7    1  0.3020651E-013  0.7246158E+02  0.7816164E-02  0.1226708E+00
        -11   -1    0    0    0    0  0.00000000000E+00  0.00000000000E+00  0.45593999997E+02  0.45594000000E+02  0.51100000000E-03 0.  1.
         11   -1    0    0    0    0 -0.00000000000E+00 -0.00000000000E+00 -0.45593999997E+02  0.45594000000E+02  0.51100000000E-03 0. -1.
    9900012    2    1    2    0    0 -0.93930899843E+01 -0.38515485804E+01  0.15735757298E+02  0.72461584869E+02  0.70000018986E+02 0.  0.
         12    1    1    2    0    0  0.93930899843E+01  0.38515485804E+01 -0.15735757298E+02  0.18726415131E+02  0.00000000000E+00 0. -1.
         11    1    3    3    0    0 -0.28861982053E+02  0.44435092838E+01 -0.21732597706E+01  0.29282790869E+02  0.51100000000E-03 0. -1.
        -11    1    3    3    0    0  0.13624041732E+02  0.11288864582E+02  0.31555223812E+01  0.17972487263E+02  0.51100000000E-03 0.  1.
        -12    1    3    3    0    0  0.58448503370E+01 -0.19583922446E+02  0.14753494687E+02  0.25206306737E+02  0.00000000000E+00 0.  1.
</event>
<event>
 7    1  0.3020651E-013  0.7246157E+02  0.7816164E-02  0.1226708E+00
        -11   -1    0    0    0    0  0.00000000000E+00  0.00000000000E+00  0.45593999997E+02  0.45594000000E+02  0.51100000000E-03 0.  1.
         11   -1    0    0    0    0 -0.00000000000E+00 -0.00000000000E+00 -0.45593999997E+02  0.45594000000E+02  0.51100000000E-03 0. -1.
    9900012    2    1    2    0    0  0.22911565762E+01 -0.41012768183E+00  0.18581218721E+02  0.72461567015E+02  0.69999995728E+02 0.  0.
         12    1    1    2    0    0 -0.22911565762E+01  0.41012768183E+00 -0.18581218721E+02  0.18726432985E+02  0.00000000000E+00 0. -1.
         11    1    3    3    0    0 -0.30765096740E+01 -0.32715771467E+01 -0.12451713771E+02  0.13236816268E+02  0.51100000000E-03 0. -1.
        -11    1    3    3    0    0  0.25120866294E+02  0.46213115701E+01  0.42416483174E+01  0.25892200075E+02  0.51100000000E-03 0.  1.
        -12    1    3    3    0    0 -0.19753200044E+02 -0.17598621053E+01  0.26791284175E+02  0.33332550673E+02  0.00000000000E+00 0.  1.
</event>
<event>
 7    1  0.3020651E-013  0.7246160E+02  0.7816164E-02  0.1226708E+00
        -11   -1    0    0    0    0  0.00000000000E+00  0.00000000000E+00  0.45593999997E+02  0.45594000000E+02  0.51100000000E-03 0.  1.
         11   -1    0    0    0    0 -0.00000000000E+00 -0.00000000000E+00 -0.45593999997E+02  0.45594000000E+02  0.51100000000E-03 0. -1.
    9900012    2    1    2    0    0 -0.10179500281E+01 -0.16629229022E+02  0.85504649847E+01  0.72461603348E+02  0.70000043059E+02 0.  0.
         12    1    1    2    0    0  0.10179500281E+01  0.16629229022E+02 -0.85504649847E+01  0.18726396652E+02  0.00000000000E+00 0. -1.
         11    1    3    3    0    0 -0.18965165791E+02 -0.26695580754E+02 -0.75636820854E+01  0.33608642225E+02  0.51100000000E-03 0. -1.
        -11    1    3    3    0    0  0.94212617890E+01 -0.95202756792E+01  0.97383931410E+01  0.16559955433E+02  0.51100000000E-03 0.  1.
        -12    1    3    3    0    0  0.85259539742E+01  0.19586627411E+02  0.63757539291E+01  0.22293005690E+02  0.00000000000E+00 0.  1.
</event>
<event>
 7    1  0.3020651E-013  0.7246159E+02  0.7816164E-02  0.1226708E+00
        -11   -1    0    0    0    0  0.00000000000E+00  0.00000000000E+00  0.45593999997E+02  0.45594000000E+02  0.51100000000E-03 0.  1.
         11   -1    0    0    0    0 -0.00000000000E+00 -0.00000000000E+00 -0.45593999997E+02  0.45594000000E+02  0.51100000000E-03 0. -1.
    9900012    2    1    2    0    0  0.32218325440E+01 -0.14180436246E+02  0.11798879574E+02  0.72461587202E+02  0.70000022026E+02 0.  0.
         12    1    1    2    0    0 -0.32218325440E+01  0.14180436246E+02 -0.11798879574E+02  0.18726412798E+02  0.00000000000E+00 0. -1.
         11    1    3    3    0    0 -0.13282875950E+00  0.26588436590E+02  0.35965117818E+01  0.26830905707E+02  0.51100000000E-03 0. -1.
        -11    1    3    3    0    0 -0.47032883203E+01 -0.38316249534E+01  0.46782371045E+01  0.76608206789E+01  0.51100000000E-03 0.  1.
        -12    1    3    3    0    0  0.80579496238E+01 -0.36937247883E+02  0.35241306881E+01  0.37969860816E+02  0.00000000000E+00 0.  1.
</event>
<event>
 7    1  0.3020651E-013  0.7246158E+02  0.7816164E-02  0.1226708E+00
        -11   -1    0    0    0    0  0.00000000000E+00  0.00000000000E+00  0.45593999997E+02  0.45594000000E+02  0.51100000000E-03 0.  1.
         11   -1    0    0    0    0 -0.00000000000E+00 -0.00000000000E+00 -0.45593999997E+02  0.45594000000E+02  0.51100000000E-03 0. -1.
    9900012    2    1    2    0    0 -0.15480616940E+02 -0.10086061006E+02 -0.30496915602E+01  0.72461581601E+02  0.70000014729E+02 0.  0.
         12    1    1    2    0    0  0.15480616940E+02  0.10086061006E+02  0.30496915602E+01  0.18726418399E+02  0.00000000000E+00 0. -1.
         11    1    3    3    0    0 -0.10433026339E+02  0.76990874918E+01 -0.17715005835E+02  0.21953255312E+02  0.51100000000E-03 0. -1.
        -11    1    3    3    0    0  0.18911801842E+01 -0.23783954110E+02 -0.87089510085E+01  0.25398796498E+02  0.51100000000E-03 0.  1.
         12    1    3    3    0    0 -0.69387707849E+01  0.59988056125E+01  0.23374265284E+02  0.25109529791E+02  0.00000000000E+00 0. -1.
</event>
<event>
 7    1  0.3020651E-013  0.7246158E+02  0.7816164E-02  0.1226708E+00
        -11   -1    0    0    0    0  0.00000000000E+00  0.00000000000E+00  0.45593999997E+02  0.45594000000E+02  0.51100000000E-03 0.  1.
         11   -1    0    0    0    0 -0.00000000000E+00 -0.00000000000E+00 -0.45593999997E+02  0.45594000000E+02  0.51100000000E-03 0. -1.
    9900012    2    1    2    0    0 -0.50722177989E+01  0.23003085230E+01  0.17879039209E+02  0.72461578673E+02  0.70000010914E+02 0.  0.
         12    1    1    2    0    0  0.50722177989E+01 -0.23003085230E+01 -0.17879039209E+02  0.18726421327E+02  0.00000000000E+00 0. -1.
         11    1    3    3    0    0  0.80095329965E+01  0.13374250195E+02  0.32024845025E+02  0.35617606408E+02  0.51100000000E-03 0. -1.
        -11    1    3    3    0    0 -0.18921291980E+02 -0.80663134412E+00 -0.70640971911E+00  0.18951647930E+02  0.51100000000E-03 0.  1.
        -12    1    3    3    0    0  0.58395411848E+01 -0.10267310328E+02 -0.13439396097E+02  0.17892324334E+02  0.00000000000E+00 0.  1.
</event>
<event>
 7    1  0.3020651E-013  0.7246161E+02  0.7816164E-02  0.1226708E+00
        -11   -1    0    0    0    0  0.00000000000E+00  0.00000000000E+00  0.45593999997E+02  0.45594000000E+02  0.51100000000E-03 0.  1.
         11   -1    0    0    0    0 -0.00000000000E+00 -0.00000000000E+00 -0.45593999997E+02  0.45594000000E+02  0.51100000000E-03 0. -1.
    9900012    2    1    2    0    0  0.15309979671E+02 -0.99865347743E+01  0.40683516518E+01  0.72461605807E+02  0.70000046262E+02 0.  0.
         12    1    1    2    0    0 -0.15309979671E+02  0.99865347743E+01 -0.40683516518E+01  0.18726394193E+02  0.00000000000E+00 0. -1.
         11    1    3    3    0    0  0.11674186655E+02 -0.29710399273E+02  0.19797245189E+02  0.37562286623E+02  0.51100000000E-03 0.  1.
        -11    1    3    3    0    0 -0.88752049173E+01  0.17245662511E+01 -0.28703575869E+01  0.94859023828E+01  0.51100000000E-03 0. -1.
        -12    1    3    3    0    0  0.12510997933E+02  0.17999298248E+02 -0.12858535950E+02  0.25413416801E+02  0.00000000000E+00 0.  1.
</event>
<event>
 7    1  0.3020651E-013  0.7246151E+02  0.7816164E-02  0.1226708E+00
        -11   -1    0    0    0    0  0.00000000000E+00  0.00000000000E+00  0.45593999997E+02  0.45594000000E+02  0.51100000000E-03 0. -1.
         11   -1    0    0    0    0 -0.00000000000E+00 -0.00000000000E+00 -0.45593999997E+02  0.45594000000E+02  0.51100000000E-03 0.  1.
    9900012    2    1    2    0    0  0.14300796494E+02  0.12064786201E+02 -0.78083021264E+00  0.72461506942E+02  0.69999917472E+02 0.  0.
         12    1    1    2    0    0 -0.14300796494E+02 -0.12064786201E+02  0.78083021264E+00  0.18726493058E+02  0.00000000000E+00 0. -1.
         11    1    3    3    0    0 -0.95844687425E+01  0.43357787287E+01 -0.12123378276E+02  0.16051084678E+02  0.51100000000E-03 0. -1.
        -11    1    3    3    0    0 -0.63413827171E+01  0.15104583329E+02  0.18266070036E+02  0.24535910155E+02  0.51100000000E-03 0.  1.
         12    1    3    3    0    0  0.30226647953E+02 -0.73755758563E+01 -0.69235219736E+01  0.31874512109E+02  0.00000000000E+00 0. -1.
</event>
<event>
 7    1  0.3020651E-013  0.7246160E+02  0.7816164E-02  0.1226708E+00
        -11   -1    0    0    0    0  0.00000000000E+00  0.00000000000E+00  0.45593999997E+02  0.45594000000E+02  0.51100000000E-03 0. -1.
         11   -1    0    0    0    0 -0.00000000000E+00 -0.00000000000E+00 -0.45593999997E+02  0.45594000000E+02  0.51100000000E-03 0.  1.
    9900012    2    1    2    0    0 -0.79076225032E+01  0.11925009031E+02 -0.12080638654E+02  0.72461597133E+02  0.70000034962E+02 0.  0.
         12    1    1    2    0    0  0.79076225032E+01 -0.11925009031E+02  0.12080638654E+02  0.18726402867E+02  0.00000000000E+00 0. -1.
         11    1    3    3    0    0  0.97549863541E+01 -0.11646598235E+01  0.15293045483E+01  0.99425833633E+01  0.51100000000E-03 0. -1.
        -11    1    3    3    0    0 -0.16016475382E+02 -0.19221315155E+02 -0.16603852330E+02  0.30027892906E+02  0.51100000000E-03 0.  1.
         12    1    3    3    0    0 -0.16461334756E+01  0.32310984010E+02  0.29939091274E+01  0.32491120863E+02  0.00000000000E+00 0. -1.
</event>
<event>
 7    1  0.3922080E-013  0.7246167E+02  0.7816164E-02  0.1226708E+00
        -11   -1    0    0    0    0  0.00000000000E+00  0.00000000000E+00  0.45593999997E+02  0.45594000000E+02  0.51100000000E-03 0. -1.
         11   -1    0    0    0    0 -0.00000000000E+00 -0.00000000000E+00 -0.45593999997E+02  0.45594000000E+02  0.51100000000E-03 0.  1.
    9900012    2    1    2    0    0 -0.59663152188E+01 -0.21813099117E+01 -0.17615918116E+02  0.72461665568E+02  0.70000124111E+02 0.  0.
         12    1    1    2    0    0  0.59663152188E+01  0.21813099117E+01  0.17615918116E+02  0.18726334432E+02  0.00000000000E+00 0. -1.
         11    1    3    3    0    0 -0.15488332690E+02  0.22770668492E+02  0.74087344643E+01  0.28518084433E+02  0.51100000000E-03 0. -1.
        -11    1    3    3    0    0 -0.74729368744E+01 -0.39977042022E+01 -0.26107804856E+01  0.88680662730E+01  0.51100000000E-03 0.  1.
        -12    1    3    3    0    0  0.16994954346E+02 -0.20954274202E+02 -0.22413872094E+02  0.35075514861E+02  0.00000000000E+00 0.  1.
</event>
<event>
 7    1  0.3020651E-013  0.7246157E+02  0.7816164E-02  0.1226708E+00
        -11   -1    0    0    0    0  0.00000000000E+00  0.00000000000E+00  0.45593999997E+02  0.45594000000E+02  0.51100000000E-03 0.  1.
         11   -1    0    0    0    0 -0.00000000000E+00 -0.00000000000E+00 -0.45593999997E+02  0.45594000000E+02  0.51100000000E-03 0. -1.
    9900012    2    1    2    0    0 -0.10126327639E+02 -0.15430029297E+02  0.31703216136E+01  0.72461568020E+02  0.69999997038E+02 0.  0.
         12    1    1    2    0    0  0.10126327639E+02  0.15430029297E+02 -0.31703216136E+01  0.18726431980E+02  0.00000000000E+00 0. -1.
         11    1    3    3    0    0 -0.13845999428E+02 -0.20983209817E+02 -0.14536343151E+02  0.29039835861E+02  0.51100000000E-03 0. -1.
        -11    1    3    3    0    0 -0.96985251880E+01 -0.77044933350E+01 -0.54689266197E+01  0.13539932312E+02  0.51100000000E-03 0.  1.
        -12    1    3    3    0    0  0.13418196977E+02  0.13257673855E+02  0.23175591384E+02  0.29881799848E+02  0.00000000000E+00 0.  1.
</event>
<event>
 7    1  0.3020651E-013  0.7246154E+02  0.7816164E-02  0.1226708E+00
        -11   -1    0    0    0    0  0.00000000000E+00  0.00000000000E+00  0.45593999997E+02  0.45594000000E+02  0.51100000000E-03 0.  1.
         11   -1    0    0    0    0 -0.00000000000E+00 -0.00000000000E+00 -0.45593999997E+02  0.45594000000E+02  0.51100000000E-03 0. -1.
    9900012    2    1    2    0    0 -0.80453243304E+01 -0.98940695697E+01  0.13713513825E+02  0.72461539639E+02  0.69999960066E+02 0.  0.
         12    1    1    2    0    0  0.80453243304E+01  0.98940695697E+01 -0.13713513825E+02  0.18726460361E+02  0.00000000000E+00 0. -1.
         11    1    3    3    0    0  0.60263711383E+01  0.16873851632E+02  0.61192873619E+01  0.18933824127E+02  0.51100000000E-03 0. -1.
        -11    1    3    3    0    0 -0.98250250406E+01  0.26067311294E+00 -0.15075309638E+02  0.17996222617E+02  0.51100000000E-03 0.  1.
         12    1    3    3    0    0 -0.42466704280E+01 -0.27028594314E+02  0.22669536101E+02  0.35531492895E+02  0.00000000000E+00 0. -1.
</event>
<event>
 7    1  0.3020651E-013  0.7246156E+02  0.7816164E-02  0.1226708E+00
        -11   -1    0    0    0    0  0.00000000000E+00  0.00000000000E+00  0.45593999997E+02  0.45594000000E+02  0.51100000000E-03 0.  1.
         11   -1    0    0    0    0 -0.00000000000E+00 -0.00000000000E+00 -0.45593999997E+02  0.45594000000E+02  0.51100000000E-03 0. -1.
    9900012    2    1    2    0    0  0.14041601962E+02 -0.68320440349E+01  0.10336164389E+02  0.72461555980E+02  0.69999981353E+02 0.  0.
         12    1    1    2    0    0 -0.14041601962E+02  0.68320440349E+01 -0.10336164389E+02  0.18726444020E+02  0.00000000000E+00 0. -1.
         11    1    3    3    0    0 -0.15668356108E+02  0.35282445403E+01 -0.32104303418E+01  0.16378423486E+02  0.51100000000E-03 0. -1.
        -11    1    3    3    0    0 -0.82905959931E+01  0.12932346970E+01  0.14012996192E+02  0.16333110556E+02  0.51100000000E-03 0.  1.
        -12    1    3    3    0    0  0.38000554063E+02 -0.11653523272E+02 -0.46640146082E+00  0.39750021938E+02  0.00000000000E+00 0.  1.
</event>
<event>
 7    1  0.3020651E-013  0.7246157E+02  0.7816164E-02  0.1226708E+00
        -11   -1    0    0    0    0  0.00000000000E+00  0.00000000000E+00  0.45593999997E+02  0.45594000000E+02  0.51100000000E-03 0.  1.
         11   -1    0    0    0    0 -0.00000000000E+00 -0.00000000000E+00 -0.45593999997E+02  0.45594000000E+02  0.51100000000E-03 0. -1.
    9900012    2    1    2    0    0  0.17612255234E+02 -0.47642837027E+01  0.42177297163E+01  0.72461570079E+02  0.69999999720E+02 0.  0.
         12    1    1    2    0    0 -0.17612255234E+02  0.47642837027E+01 -0.42177297163E+01  0.18726429921E+02  0.00000000000E+00 0. -1.
         11    1    3    3    0    0 -0.65051955850E+01  0.68935364138E+01 -0.21996902902E+02  0.23952080315E+02  0.51100000000E-03 0. -1.
        -11    1    3    3    0    0 -0.28564685324E+01  0.69315196122E+01  0.19609118911E+01  0.77492291434E+01  0.51100000000E-03 0.  1.
        -12    1    3    3    0    0  0.26973919351E+02 -0.18589339729E+02  0.24253720727E+02  0.40760260620E+02  0.00000000000E+00 0.  1.
</event>
<event>
 7    1  0.3020651E-013  0.7246152E+02  0.7816164E-02  0.1226708E+00
        -11   -1    0    0    0    0  0.00000000000E+00  0.00000000000E+00  0.45593999997E+02  0.45594000000E+02  0.51100000000E-03 0. -1.
         11   -1    0    0    0    0 -0.00000000000E+00 -0.00000000000E+00 -0.45593999997E+02  0.45594000000E+02  0.51100000000E-03 0.  1.
    9900012    2    1    2    0    0 -0.18372561617E+02 -0.29784475673E+01 -0.20637371035E+01  0.72461516584E+02  0.69999930033E+02 0.  0.
         12    1    1    2    0    0  0.18372561617E+02  0.29784475673E+01  0.20637371035E+01  0.18726483416E+02  0.00000000000E+00 0. -1.
         11    1    3    3    0    0  0.11568382970E+02  0.12700961228E+02  0.67458009084E+01  0.18456644625E+02  0.51100000000E-03 0. -1.
        -11    1    3    3    0    0  0.41103254760E+01  0.97886418697E+01 -0.19081471949E+00  0.10618318873E+02  0.51100000000E-03 0.  1.
        -12    1    3    3    0    0 -0.34051270063E+02 -0.25468050665E+02 -0.86187232924E+01  0.43386553087E+02  0.00000000000E+00 0.  1.
</event>
<event>
 7    1  0.3020651E-013  0.7246177E+02  0.7816164E-02  0.1226707E+00
        -11   -1    0    0    0    0  0.00000000000E+00  0.00000000000E+00  0.45593999997E+02  0.45594000000E+02  0.51100000000E-03 0.  1.
         11   -1    0    0    0    0 -0.00000000000E+00 -0.00000000000E+00 -0.45593999997E+02  0.45594000000E+02  0.51100000000E-03 0. -1.
    9900012    2    1    2    0    0  0.15730930464E+02 -0.23309351781E+01 -0.98881928480E+01  0.72461767334E+02  0.70000256680E+02 0.  0.
         12    1    1    2    0    0 -0.15730930464E+02  0.23309351781E+01  0.98881928480E+01  0.18726232666E+02  0.00000000000E+00 0. -1.
         11    1    3    3    0    0  0.99343489581E+01  0.52069741306E+01  0.30092596288E+01  0.11612902850E+02  0.51100000000E-03 0. -1.
        -11    1    3    3    0    0  0.17317642774E+02 -0.22315620911E+02  0.11145640315E+02  0.30366313345E+02  0.51100000000E-03 0.  1.
         12    1    3    3    0    0 -0.11521061268E+02  0.14777711603E+02 -0.24043092792E+02  0.30482551139E+02  0.00000000000E+00 0. -1.
</event>
<event>
 7    1  0.3020651E-013  0.7246141E+02  0.7816164E-02  0.1226708E+00
        -11   -1    0    0    0    0  0.00000000000E+00  0.00000000000E+00  0.45593999997E+02  0.45594000000E+02  0.51100000000E-03 0.  1.
         11   -1    0    0    0    0 -0.00000000000E+00 -0.00000000000E+00 -0.45593999997E+02  0.45594000000E+02  0.51100000000E-03 0. -1.
    9900012    2    1    2    0    0  0.14259361941E+02  0.12015877581E+02 -0.17246199681E+01  0.72461413791E+02  0.69999796125E+02 0.  0.
         12    1    1    2    0    0 -0.14259361941E+02 -0.12015877581E+02  0.17246199681E+01  0.18726586209E+02  0.00000000000E+00 0. -1.
         11    1    3    3    0    0 -0.19550121933E+01  0.61102237010E+01 -0.23340180252E+02  0.24205803453E+02  0.51100000000E-03 0. -1.
        -11    1    3    3    0    0  0.12743630004E+02  0.15852001151E+02 -0.38469974779E+01  0.20699889759E+02  0.51100000000E-03 0.  1.
        -12    1    3    3    0    0  0.34707441302E+01 -0.99463472706E+01  0.25462557762E+02  0.27555720579E+02  0.00000000000E+00 0.  1.
</event>
<event>
 7    1  0.3020651E-013  0.7246153E+02  0.7816164E-02  0.1226708E+00
        -11   -1    0    0    0    0  0.00000000000E+00  0.00000000000E+00  0.45593999997E+02  0.45594000000E+02  0.51100000000E-03 0. -1.
         11   -1    0    0    0    0 -0.00000000000E+00 -0.00000000000E+00 -0.45593999997E+02  0.45594000000E+02  0.51100000000E-03 0.  1.
    9900012    2    1    2    0    0  0.17822904737E+02 -0.12249221958E+01 -0.56146519837E+01  0.72461529843E+02  0.69999947305E+02 0.  0.
         12    1    1    2    0    0 -0.17822904737E+02  0.12249221958E+01  0.56146519837E+01  0.18726470157E+02  0.00000000000E+00 0. -1.
         11    1    3    3    0    0  0.97072013117E+01  0.12568062021E+02  0.16908961274E+02  0.23196959109E+02  0.51100000000E-03 0. -1.
        -11    1    3    3    0    0 -0.17180345140E+01  0.12435054404E+02  0.11280796683E+01  0.12603760733E+02  0.51100000000E-03 0.  1.
         12    1    3    3    0    0  0.98337379388E+01 -0.26228038621E+02 -0.23651692925E+02  0.36660810002E+02  0.00000000000E+00 0. -1.
</event>
<event>
 7    1  0.3020651E-013  0.7246164E+02  0.7816164E-02  0.1226708E+00
        -11   -1    0    0    0    0  0.00000000000E+00  0.00000000000E+00  0.45593999997E+02  0.45594000000E+02  0.51100000000E-03 0. -1.
         11   -1    0    0    0    0 -0.00000000000E+00 -0.00000000000E+00 -0.45593999997E+02  0.45594000000E+02  0.51100000000E-03 0.  1.
    9900012    2    1    2    0    0 -0.17242523844E+02  0.71400898696E+01 -0.15463163312E+01  0.72461638739E+02  0.70000089162E+02 0.  0.
         12    1    1    2    0    0  0.17242523844E+02 -0.71400898696E+01  0.15463163312E+01  0.18726361261E+02  0.00000000000E+00 0. -1.
         11    1    3    3    0    0  0.97731550743E+01 -0.51607152368E+01 -0.16301557546E+02  0.19694880567E+02  0.51100000000E-03 0. -1.
        -11    1    3    3    0    0 -0.60279418180E+01 -0.95602370946E+01 -0.88488409638E+01  0.14353961214E+02  0.51100000000E-03 0.  1.
        -12    1    3    3    0    0 -0.20987737101E+02  0.21861042201E+02  0.23604082178E+02  0.38412796959E+02  0.00000000000E+00 0.  1.
</event>
<event>
 7    1  0.3020651E-013  0.7246187E+02  0.7816164E-02  0.1226707E+00
        -11   -1    0    0    0    0  0.00000000000E+00  0.00000000000E+00  0.45593999997E+02  0.45594000000E+02  0.51100000000E-03 0. -1.
         11   -1    0    0    0    0 -0.00000000000E+00 -0.00000000000E+00 -0.45593999997E+02  0.45594000000E+02  0.51100000000E-03 0.  1.
    9900012    2    1    2    0    0 -0.18622419431E+02 -0.58032408181E+00 -0.18806406102E+01  0.72461866106E+02  0.70000385348E+02 0.  0.
         12    1    1    2    0    0  0.18622419431E+02  0.58032408181E+00  0.18806406102E+01  0.18726133894E+02  0.00000000000E+00 0. -1.
         11    1    3    3    0    0 -0.91847101967E+01 -0.34970102997E+01  0.16304207343E+02  0.19037204621E+02  0.51100000000E-03 0. -1.
        -11    1    3    3    0    0 -0.25534161195E+02 -0.11932981084E+02 -0.81825896202E+01  0.29348666045E+02  0.51100000000E-03 0.  1.
        -12    1    3    3    0    0  0.16096451960E+02  0.14849667302E+02 -0.10002258333E+02  0.24075995440E+02  0.00000000000E+00 0.  1.
</event>
<event>
 7    1  0.3020651E-013  0.7246151E+02  0.7816164E-02  0.1226708E+00
        -11   -1    0    0    0    0  0.00000000000E+00  0.00000000000E+00  0.45593999997E+02  0.45594000000E+02  0.51100000000E-03 0. -1.
         11   -1    0    0    0    0 -0.00000000000E+00 -0.00000000000E+00 -0.45593999997E+02  0.45594000000E+02  0.51100000000E-03 0.  1.
    9900012    2    1    2    0    0  0.12288976917E+02 -0.22632744781E+01 -0.13947759074E+02  0.72461512123E+02  0.69999924221E+02 0.  0.
         12    1    1    2    0    0 -0.12288976917E+02  0.22632744781E+01  0.13947759074E+02  0.18726487877E+02  0.00000000000E+00 0. -1.
         11    1    3    3    0    0  0.18666306390E+01  0.20937459636E+01  0.19100917140E+02  0.19305779392E+02  0.51100000000E-03 0. -1.
        -11    1    3    3    0    0 -0.33001369129E+01  0.30193589682E+01  0.80467069029E+01  0.92063523974E+01  0.51100000000E-03 0.  1.
        -12    1    3    3    0    0  0.13722483191E+02 -0.73763794099E+01 -0.41095383117E+02  0.43949380333E+02  0.00000000000E+00 0.  1.
</event>
<event>
 7    1  0.3020651E-013  0.7246155E+02  0.7816164E-02  0.1226708E+00
        -11   -1    0    0    0    0  0.00000000000E+00  0.00000000000E+00  0.45593999997E+02  0.45594000000E+02  0.51100000000E-03 0. -1.
         11   -1    0    0    0    0 -0.00000000000E+00 -0.00000000000E+00 -0.45593999997E+02  0.45594000000E+02  0.51100000000E-03 0.  1.
    9900012    2    1    2    0    0  0.96842396921E+01  0.84729475664E+01 -0.13605310940E+02  0.72461552802E+02  0.69999977213E+02 0.  0.
         12    1    1    2    0    0 -0.96842396921E+01 -0.84729475664E+01  0.13605310940E+02  0.18726447198E+02  0.00000000000E+00 0. -1.
         11    1    3    3    0    0  0.31295454118E+01 -0.37012855002E+01 -0.99882936479E+01  0.11102233068E+02  0.51100000000E-03 0. -1.
        -11    1    3    3    0    0  0.22330254542E+02 -0.71690018074E+01 -0.20562166369E+02  0.31190343712E+02  0.51100000000E-03 0.  1.
         12    1    3    3    0    0 -0.15775560262E+02  0.19343234874E+02  0.16945149076E+02  0.30168976022E+02  0.00000000000E+00 0. -1.
</event>
<event>
 7    1  0.3020651E-013  0.7246152E+02  0.7816164E-02  0.1226708E+00
        -11   -1    0    0    0    0  0.00000000000E+00  0.00000000000E+00  0.45593999997E+02  0.45594000000E+02  0.51100000000E-03 0.  1.
         11   -1    0    0    0    0 -0.00000000000E+00 -0.00000000000E+00 -0.45593999997E+02  0.45594000000E+02  0.51100000000E-03 0. -1.
    9900012    2    1    2    0    0 -0.55742524853E+01 -0.17718933844E+01  0.17789578076E+02  0.72461521819E+02  0.69999936852E+02 0.  0.
         12    1    1    2    0    0  0.55742524853E+01  0.17718933844E+01 -0.17789578076E+02  0.18726478181E+02  0.00000000000E+00 0. -1.
         11    1    3    3    0    0  0.12809102020E+02  0.10986522427E+02 -0.11026110262E+02  0.20158171479E+02  0.51100000000E-03 0. -1.
        -11    1    3    3    0    0 -0.10762512917E+01 -0.47837864585E+01 -0.88352769931E+01  0.10104704327E+02  0.51100000000E-03 0.  1.
        -12    1    3    3    0    0 -0.17307103214E+02 -0.79746293532E+01  0.37650965331E+02  0.42198646013E+02  0.00000000000E+00 0.  1.
</event>
<event>
 7    1  0.3020651E-013  0.7246108E+02  0.7816164E-02  0.1226709E+00
        -11   -1    0    0    0    0  0.00000000000E+00  0.00000000000E+00  0.45593999997E+02  0.45594000000E+02  0.51100000000E-03 0.  1.
         11   -1    0    0    0    0 -0.00000000000E+00 -0.00000000000E+00 -0.45593999997E+02  0.45594000000E+02  0.51100000000E-03 0. -1.
    9900012    2    1    2    0    0 -0.16794366056E+02  0.82218249290E+01  0.10239375136E+01  0.72461078619E+02  0.69999359499E+02 0.  0.
         12    1    1    2    0    0  0.16794366056E+02 -0.82218249290E+01 -0.10239375136E+01  0.18726921381E+02  0.00000000000E+00 0. -1.
         11    1    3    3    0    0 -0.17970748316E+02  0.10892780425E+02  0.14470855808E+02  0.25514821741E+02  0.51100000000E-03 0. -1.
        -11    1    3    3    0    0 -0.16963784117E+02 -0.12016958835E+02 -0.16199434559E+02  0.26355245237E+02  0.51100000000E-03 0.  1.
         12    1    3    3    0    0  0.18140166377E+02  0.93460033391E+01  0.27525162645E+01  0.20591011641E+02  0.00000000000E+00 0. -1.
</event>
<event>
 7    1  0.3020651E-013  0.7246150E+02  0.7816164E-02  0.1226708E+00
        -11   -1    0    0    0    0  0.00000000000E+00  0.00000000000E+00  0.45593999997E+02  0.45594000000E+02  0.51100000000E-03 0.  1.
         11   -1    0    0    0    0 -0.00000000000E+00 -0.00000000000E+00 -0.45593999997E+02  0.45594000000E+02  0.51100000000E-03 0. -1.
    9900012    2    1    2    0    0 -0.10685957228E+02  0.14522867719E+02  0.50574955495E+01  0.72461504602E+02  0.69999914424E+02 0.  0.
         12    1    1    2    0    0  0.10685957228E+02 -0.14522867719E+02 -0.50574955495E+01  0.18726495398E+02  0.00000000000E+00 0. -1.
         11    1    3    3    0    0  0.46638524269E+00  0.11734638222E+02 -0.18571229830E+02  0.21972933965E+02  0.51100000000E-03 0. -1.
        -11    1    3    3    0    0  0.16374482715E+02  0.46459180357E+01  0.94776681331E+01  0.19481643465E+02  0.51100000000E-03 0.  1.
         12    1    3    3    0    0 -0.27526825185E+02 -0.18576885385E+01  0.14151057246E+02  0.31006927172E+02  0.00000000000E+00 0. -1.
</event>
<event>
 7    1  0.3020651E-013  0.7246157E+02  0.7816164E-02  0.1226708E+00
        -11   -1    0    0    0    0  0.00000000000E+00  0.00000000000E+00  0.45593999997E+02  0.45594000000E+02  0.51100000000E-03 0.  1.
         11   -1    0    0    0    0 -0.00000000000E+00 -0.00000000000E+00 -0.45593999997E+02  0.45594000000E+02  0.51100000000E-03 0. -1.
    9900012    2    1    2    0    0  0.74831720018E+01  0.80056876019E+01  0.15185198332E+02  0.72461570934E+02  0.70000000833E+02 0.  0.
         12    1    1    2    0    0 -0.74831720018E+01 -0.80056876019E+01 -0.15185198332E+02  0.18726429066E+02  0.00000000000E+00 0. -1.
         11    1    3    3    0    0  0.60536536458E+00 -0.38672388269E+01 -0.22525768718E+02  0.22863338775E+02  0.51100000000E-03 0. -1.
        -11    1    3    3    0    0  0.18636801418E+01  0.16156044175E+02  0.62004475249E+01  0.17405074456E+02  0.51100000000E-03 0.  1.
        -12    1    3    3    0    0  0.50141264954E+01 -0.42831177465E+01  0.31510519525E+02  0.32193157702E+02  0.00000000000E+00 0.  1.
</event>
<event>
 7    1  0.3020651E-013  0.7246157E+02  0.7816164E-02  0.1226708E+00
        -11   -1    0    0    0    0  0.00000000000E+00  0.00000000000E+00  0.45593999997E+02  0.45594000000E+02  0.51100000000E-03 0.  1.
         11   -1    0    0    0    0 -0.00000000000E+00 -0.00000000000E+00 -0.45593999997E+02  0.45594000000E+02  0.51100000000E-03 0. -1.
    9900012    2    1    2    0    0  0.12757897517E+02  0.20802875322E+01  0.13549449624E+02  0.72461571339E+02  0.70000001361E+02 0.  0.
         12    1    1    2    0    0 -0.12757897517E+02 -0.20802875322E+01 -0.13549449624E+02  0.18726428661E+02  0.00000000000E+00 0. -1.
         11    1    3    3    0    0 -0.22329829141E+02  0.53800551037E+00  0.22107811893E+01  0.22445451056E+02  0.51100000000E-03 0. -1.
        -11    1    3    3    0    0  0.11874205045E+01  0.12869373950E+02  0.39895751062E+01  0.13525807300E+02  0.51100000000E-03 0.  1.
        -12    1    3    3    0    0  0.33900306153E+02 -0.11327091928E+02  0.73490933287E+01  0.36490312983E+02  0.00000000000E+00 0.  1.
</event>
<event>
 7    1  0.3020651E-013  0.7246158E+02  0.7816164E-02  0.1226708E+00
        -11   -1    0    0    0    0  0.00000000000E+00  0.00000000000E+00  0.45593999997E+02  0.45594000000E+02  0.51100000000E-03 0.  1.
         11   -1    0    0    0    0 -0.00000000000E+00 -0.00000000000E+00 -0.45593999997E+02  0.45594000000E+02  0.51100000000E-03 0. -1.
    9900012    2    1    2    0    0  0.98957605765E+01  0.15516297642E+02 -0.34637211807E+01  0.72461576575E+02  0.70000008181E+02 0.  0.
         12    1    1    2    0    0 -0.98957605765E+01 -0.15516297642E+02  0.34637211807E+01  0.18726423425E+02  0.00000000000E+00 0. -1.
         11    1    3    3    0    0 -0.63588337580E+01  0.41470288255E+01 -0.27967755290E+02  0.28979785215E+02  0.51100000000E-03 0. -1.
        -11    1    3    3    0    0 -0.30308252598E+01 -0.26824355262E+01 -0.44148837141E+01  0.59893706329E+01  0.51100000000E-03 0.  1.
        -12    1    3    3    0    0  0.19285419594E+02  0.14051704342E+02  0.28918917824E+02  0.37492420727E+02  0.00000000000E+00 0.  1.
</event>
<event>
 7    1  0.3020651E-013  0.7246154E+02  0.7816164E-02  0.1226708E+00
        -11   -1    0    0    0    0  0.00000000000E+00  0.00000000000E+00  0.45593999997E+02  0.45594000000E+02  0.51100000000E-03 0.  1.
         11   -1    0    0    0    0 -0.00000000000E+00 -0.00000000000E+00 -0.45593999997E+02  0.45594000000E+02  0.51100000000E-03 0. -1.
    9900012    2    1    2    0    0 -0.15872313190E+01  0.91514055304E+01  0.16260769266E+02  0.72461544287E+02  0.69999966121E+02 0.  0.
         12    1    1    2    0    0  0.15872313190E+01 -0.91514055304E+01 -0.16260769266E+02  0.18726455713E+02  0.00000000000E+00 0. -1.
         11    1    3    3    0    0  0.10458690605E+01  0.89750635409E+00  0.13583318054E+02  0.13653054214E+02  0.51100000000E-03 0. -1.
        -11    1    3    3    0    0 -0.28843835483E+02 -0.15804633325E+01  0.87085772785E+01  0.30171245055E+02  0.51100000000E-03 0.  1.
         12    1    3    3    0    0  0.26210735103E+02  0.98343625089E+01 -0.60311260670E+01  0.28637245018E+02  0.00000000000E+00 0. -1.
</event>
<event>
 7    1  0.3020651E-013  0.7246157E+02  0.7816164E-02  0.1226708E+00
        -11   -1    0    0    0    0  0.00000000000E+00  0.00000000000E+00  0.45593999997E+02  0.45594000000E+02  0.51100000000E-03 0.  1.
         11   -1    0    0    0    0 -0.00000000000E+00 -0.00000000000E+00 -0.45593999997E+02  0.45594000000E+02  0.51100000000E-03 0. -1.
    9900012    2    1    2    0    0 -0.50969665466E+01  0.13272039141E+02  0.12188242694E+02  0.72461565452E+02  0.69999993691E+02 0.  0.
         12    1    1    2    0    0  0.50969665466E+01 -0.13272039141E+02 -0.12188242694E+02  0.18726434548E+02  0.00000000000E+00 0. -1.
         11    1    3    3    0    0 -0.84146200696E+01 -0.20352537556E+02  0.64615446090E+01  0.22951757555E+02  0.51100000000E-03 0. -1.
        -11    1    3    3    0    0 -0.11021644613E+02  0.10100839397E+01  0.82330927219E+01  0.13794228342E+02  0.51100000000E-03 0.  1.
         12    1    3    3    0    0  0.14339298136E+02  0.32614492757E+02 -0.25063946374E+01  0.35715579554E+02  0.00000000000E+00 0. -1.
</event>
<event>
 7    1  0.3020651E-013  0.7246133E+02  0.7816164E-02  0.1226709E+00
        -11   -1    0    0    0    0  0.00000000000E+00  0.00000000000E+00  0.45593999997E+02  0.45594000000E+02  0.51100000000E-03 0.  1.
         11   -1    0    0    0    0 -0.00000000000E+00 -0.00000000000E+00 -0.45593999997E+02  0.45594000000E+02  0.51100000000E-03 0. -1.
    9900012    2    1    2    0    0  0.17410523517E+02 -0.68955191290E+01  0.11749398579E+00  0.72461326029E+02  0.69999681798E+02 0.  0.
         12    1    1    2    0    0 -0.17410523517E+02  0.68955191290E+01 -0.11749398579E+00  0.18726673971E+02  0.00000000000E+00 0. -1.
         11    1    3    3    0    0  0.30467003023E+02  0.82276964449E+01 -0.10490523635E+02  0.33256342980E+02  0.51100000000E-03 0. -1.
        -11    1    3    3    0    0  0.50791880296E+01  0.68654386405E+01  0.57394148872E+01  0.10289474344E+02  0.51100000000E-03 0.  1.
        -12    1    3    3    0    0 -0.18135667536E+02 -0.21988654214E+02  0.48686027336E+01  0.28915508705E+02  0.00000000000E+00 0.  1.
</event>
<event>
 7    1  0.3020651E-013  0.7246156E+02  0.7816164E-02  0.1226708E+00
        -11   -1    0    0    0    0  0.00000000000E+00  0.00000000000E+00  0.45593999997E+02  0.45594000000E+02  0.51100000000E-03 0.  1.
         11   -1    0    0    0    0 -0.00000000000E+00 -0.00000000000E+00 -0.45593999997E+02  0.45594000000E+02  0.51100000000E-03 0. -1.
    9900012    2    1    2    0    0  0.10815968564E+02 -0.15629456445E+01 -0.15206962752E+02  0.72461556365E+02  0.69999981855E+02 0.  0.
         12    1    1    2    0    0 -0.10815968564E+02  0.15629456445E+01  0.15206962752E+02  0.18726443635E+02  0.00000000000E+00 0. -1.
         11    1    3    3    0    0  0.20578531214E+02  0.10585328930E+01 -0.33601468459E+02  0.39416432127E+02  0.51100000000E-03 0. -1.
        -11    1    3    3    0    0  0.62606881435E+01  0.44839216452E+00 -0.23072635135E+01  0.66873564841E+01  0.51100000000E-03 0.  1.
        -12    1    3    3    0    0 -0.16023250793E+02 -0.30698707021E+01  0.20701769220E+02  0.26357767754E+02  0.00000000000E+00 0.  1.
</event>
<event>
 7    1  0.3020651E-013  0.7246163E+02  0.7816164E-02  0.1226708E+00
        -11   -1    0    0    0    0  0.00000000000E+00  0.00000000000E+00  0.45593999997E+02  0.45594000000E+02  0.51100000000E-03 0.  1.
         11   -1    0    0    0    0 -0.00000000000E+00 -0.00000000000E+00 -0.45593999997E+02  0.45594000000E+02  0.51100000000E-03 0. -1.
    9900012    2    1    2    0    0 -0.16738200481E+00 -0.17391431973E+01  0.18644687551E+02  0.72461627963E+02  0.70000075124E+02 0.  0.
         12    1    1    2    0    0  0.16738200481E+00  0.17391431973E+01 -0.18644687551E+02  0.18726372037E+02  0.00000000000E+00 0. -1.
         11    1    3    3    0    0  0.10917942495E+02  0.13995086049E+01 -0.99571240847E+01  0.14842655186E+02  0.51100000000E-03 0. -1.
        -11    1    3    3    0    0 -0.11865963939E+02 -0.12555353947E+01 -0.12025364527E+02  0.16940686575E+02  0.51100000000E-03 0.  1.
        -12    1    3    3    0    0  0.78063943920E+00 -0.18831164076E+01  0.40627176163E+02  0.40678286202E+02  0.00000000000E+00 0.  1.
</event>
<event>
 7    1  0.3020651E-013  0.7246157E+02  0.7816164E-02  0.1226708E+00
        -11   -1    0    0    0    0  0.00000000000E+00  0.00000000000E+00  0.45593999997E+02  0.45594000000E+02  0.51100000000E-03 0. -1.
         11   -1    0    0    0    0 -0.00000000000E+00 -0.00000000000E+00 -0.45593999997E+02  0.45594000000E+02  0.51100000000E-03 0.  1.
    9900012    2    1    2    0    0 -0.38148073582E+01  0.13748816452E+01 -0.18282127361E+02  0.72461568531E+02  0.69999997703E+02 0.  0.
         12    1    1    2    0    0  0.38148073582E+01 -0.13748816452E+01  0.18282127361E+02  0.18726431469E+02  0.00000000000E+00 0. -1.
         11    1    3    3    0    0 -0.80309460785E+01 -0.97293974333E+01 -0.34242541299E+01  0.13072214271E+02  0.51100000000E-03 0. -1.
        -11    1    3    3    0    0 -0.71867116081E+01 -0.19939744278E+02  0.36249212994E+01  0.21503076066E+02  0.51100000000E-03 0.  1.
         12    1    3    3    0    0  0.11402850328E+02  0.31044023356E+02 -0.18482794531E+02  0.37886278194E+02  0.00000000000E+00 0. -1.
</event>
<event>
 7    1  0.3020651E-013  0.7246158E+02  0.7816164E-02  0.1226708E+00
        -11   -1    0    0    0    0  0.00000000000E+00  0.00000000000E+00  0.45593999997E+02  0.45594000000E+02  0.51100000000E-03 0. -1.
         11   -1    0    0    0    0 -0.00000000000E+00 -0.00000000000E+00 -0.45593999997E+02  0.45594000000E+02  0.51100000000E-03 0.  1.
    9900012    2    1    2    0    0 -0.13571264698E+02  0.86835189574E+01 -0.95444243340E+01  0.72461581153E+02  0.70000014145E+02 0.  0.
         12    1    1    2    0    0  0.13571264698E+02 -0.86835189574E+01  0.95444243340E+01  0.18726418847E+02  0.00000000000E+00 0. -1.
         11    1    3    3    0    0  0.11729922032E+02 -0.47853836977E+01  0.43058662783E+01  0.13380263550E+02  0.51100000000E-03 0. -1.
        -11    1    3    3    0    0 -0.26755818174E+02  0.44846220845E+01  0.13467048432E+02  0.30287737372E+02  0.51100000000E-03 0.  1.
        -12    1    3    3    0    0  0.14546314445E+01  0.89842805706E+01 -0.27317339044E+02  0.28793580230E+02  0.00000000000E+00 0.  1.
</event>
<event>
 7    1  0.3020651E-013  0.7246154E+02  0.7816164E-02  0.1226708E+00
        -11   -1    0    0    0    0  0.00000000000E+00  0.00000000000E+00  0.45593999997E+02  0.45594000000E+02  0.51100000000E-03 0. -1.
         11   -1    0    0    0    0 -0.00000000000E+00 -0.00000000000E+00 -0.45593999997E+02  0.45594000000E+02  0.51100000000E-03 0.  1.
    9900012    2    1    2    0    0  0.17186580507E+02  0.72687861978E+01 -0.15705279020E+01  0.72461538503E+02  0.69999958586E+02 0.  0.
         12    1    1    2    0    0 -0.17186580507E+02 -0.72687861978E+01  0.15705279020E+01  0.18726461497E+02  0.00000000000E+00 0. -1.
         11    1    3    3    0    0 -0.60308387547E+01  0.65531380996E+01  0.51827516402E+01  0.10304152069E+02  0.51100000000E-03 0. -1.
        -11    1    3    3    0    0  0.18218292504E+02  0.26712764213E+02 -0.13176998261E+02  0.34915773471E+02  0.51100000000E-03 0.  1.
         12    1    3    3    0    0  0.49991267582E+01 -0.25997116115E+02  0.64237187188E+01  0.27241612963E+02  0.00000000000E+00 0. -1.
</event>
<event>
 7    1  0.3020651E-013  0.7246158E+02  0.7816164E-02  0.1226708E+00
        -11   -1    0    0    0    0  0.00000000000E+00  0.00000000000E+00  0.45593999997E+02  0.45594000000E+02  0.51100000000E-03 0.  1.
         11   -1    0    0    0    0 -0.00000000000E+00 -0.00000000000E+00 -0.45593999997E+02  0.45594000000E+02  0.51100000000E-03 0. -1.
    9900012    2    1    2    0    0 -0.71189388351E+01 -0.12558067591E+01  0.17274913588E+02  0.72461575349E+02  0.70000006584E+02 0.  0.
         12    1    1    2    0    0  0.71189388351E+01  0.12558067591E+01 -0.17274913588E+02  0.18726424651E+02  0.00000000000E+00 0. -1.
         11    1    3    3    0    0 -0.22712324303E+01  0.54163727574E+01 -0.39085407981E+01  0.70549473443E+01  0.51100000000E-03 0. -1.
        -11    1    3    3    0    0 -0.26822025882E+02  0.14888843789E+02  0.67768603785E+01  0.31416947315E+02  0.51100000000E-03 0.  1.
         12    1    3    3    0    0  0.21974319477E+02 -0.21561023306E+02  0.14406594007E+02  0.33989680689E+02  0.00000000000E+00 0. -1.
</event>
<event>
 7    1  0.3020651E-013  0.7246160E+02  0.7816164E-02  0.1226708E+00
        -11   -1    0    0    0    0  0.00000000000E+00  0.00000000000E+00  0.45593999997E+02  0.45594000000E+02  0.51100000000E-03 0.  1.
         11   -1    0    0    0    0 -0.00000000000E+00 -0.00000000000E+00 -0.45593999997E+02  0.45594000000E+02  0.51100000000E-03 0. -1.
    9900012    2    1    2    0    0 -0.65738849337E+01 -0.98041089636E+01  0.14537596176E+02  0.72461595693E+02  0.70000033086E+02 0.  0.
         12    1    1    2    0    0  0.65738849337E+01  0.98041089636E+01 -0.14537596176E+02  0.18726404307E+02  0.00000000000E+00 0. -1.
         11    1    3    3    0    0  0.40414490873E+01 -0.66805265325E+01  0.18865494393E+02  0.20417385348E+02  0.51100000000E-03 0. -1.
        -11    1    3    3    0    0 -0.29687897938E+02 -0.10237940533E+02 -0.10139385136E+01  0.31419974251E+02  0.51100000000E-03 0.  1.
         12    1    3    3    0    0  0.19072563917E+02  0.71143581024E+01 -0.33139597035E+01  0.20624236095E+02  0.00000000000E+00 0. -1.
</event>
<event>
 7    1  0.3020651E-013  0.7246157E+02  0.7816164E-02  0.1226708E+00
        -11   -1    0    0    0    0  0.00000000000E+00  0.00000000000E+00  0.45593999997E+02  0.45594000000E+02  0.51100000000E-03 0.  1.
         11   -1    0    0    0    0 -0.00000000000E+00 -0.00000000000E+00 -0.45593999997E+02  0.45594000000E+02  0.51100000000E-03 0. -1.
    9900012    2    1    2    0    0  0.48315440695E+01 -0.14679813852E+02  0.10575363069E+02  0.72461573302E+02  0.70000003918E+02 0.  0.
         12    1    1    2    0    0 -0.48315440695E+01  0.14679813852E+02 -0.10575363069E+02  0.18726426698E+02  0.00000000000E+00 0. -1.
         11    1    3    3    0    0 -0.19193647393E+02 -0.17634414436E+02  0.26139433683E+02  0.36913935936E+02  0.51100000000E-03 0. -1.
        -11    1    3    3    0    0 -0.31259881118E-01 -0.61397713865E+01 -0.41475757958E+01  0.74094638876E+01  0.51100000000E-03 0.  1.
        -12    1    3    3    0    0  0.24056451344E+02  0.90943719701E+01 -0.11416494819E+02  0.28138173479E+02  0.00000000000E+00 0.  1.
</event>
<event>
 7    1  0.3020651E-013  0.7246146E+02  0.7816164E-02  0.1226708E+00
        -11   -1    0    0    0    0  0.00000000000E+00  0.00000000000E+00  0.45593999997E+02  0.45594000000E+02  0.51100000000E-03 0. -1.
         11   -1    0    0    0    0 -0.00000000000E+00 -0.00000000000E+00 -0.45593999997E+02  0.45594000000E+02  0.51100000000E-03 0.  1.
    9900012    2    1    2    0    0 -0.70974703454E+01  0.11056630311E+02 -0.13343918683E+02  0.72461459343E+02  0.69999855466E+02 0.  0.
         12    1    1    2    0    0  0.70974703454E+01 -0.11056630311E+02  0.13343918683E+02  0.18726540657E+02  0.00000000000E+00 0. -1.
         11    1    3    3    0    0  0.85561278396E+00  0.63727836343E+01 -0.29586211219E+02  0.30276861446E+02  0.51100000000E-03 0. -1.
        -11    1    3    3    0    0  0.61325495853E+01  0.45664836862E+01 -0.98880359708E+01  0.12499367716E+02  0.51100000000E-03 0.  1.
         12    1    3    3    0    0 -0.14085632715E+02  0.11736299064E+00  0.26130328507E+02  0.29685230181E+02  0.00000000000E+00 0. -1.
</event>
<event>
 7    1  0.3020651E-013  0.7246160E+02  0.7816164E-02  0.1226708E+00
        -11   -1    0    0    0    0  0.00000000000E+00  0.00000000000E+00  0.45593999997E+02  0.45594000000E+02  0.51100000000E-03 0. -1.
         11   -1    0    0    0    0 -0.00000000000E+00 -0.00000000000E+00 -0.45593999997E+02  0.45594000000E+02  0.51100000000E-03 0.  1.
    9900012    2    1    2    0    0  0.47377822422E+01  0.17172681730E+02 -0.57732459553E+01  0.72461602930E+02  0.70000042514E+02 0.  0.
         12    1    1    2    0    0 -0.47377822422E+01 -0.17172681730E+02  0.57732459553E+01  0.18726397070E+02  0.00000000000E+00 0. -1.
         11    1    3    3    0    0 -0.13139831554E+02  0.13453779231E+02  0.41618463749E+01  0.19260849264E+02  0.51100000000E-03 0. -1.
        -11    1    3    3    0    0  0.16274149803E+01  0.94403220132E+01 -0.27183621739E+02  0.28822169425E+02  0.51100000000E-03 0.  1.
        -12    1    3    3    0    0  0.16250198816E+02 -0.57214195148E+01  0.17248529409E+02  0.24378584241E+02  0.00000000000E+00 0.  1.
</event>
<event>
 7    1  0.3020651E-013  0.7246162E+02  0.7816164E-02  0.1226708E+00
        -11   -1    0    0    0    0  0.00000000000E+00  0.00000000000E+00  0.45593999997E+02  0.45594000000E+02  0.51100000000E-03 0.  1.
         11   -1    0    0    0    0 -0.00000000000E+00 -0.00000000000E+00 -0.45593999997E+02  0.45594000000E+02  0.51100000000E-03 0. -1.
    9900012    2    1    2    0    0  0.10656573290E+02  0.14713273200E+02  0.45425215656E+01  0.72461615813E+02  0.70000059296E+02 0.  0.
         12    1    1    2    0    0 -0.10656573290E+02 -0.14713273200E+02 -0.45425215656E+01  0.18726384187E+02  0.00000000000E+00 0. -1.
         11    1    3    3    0    0 -0.12441375078E+02  0.53524962658E+01 -0.38760550770E+01  0.14087612762E+02  0.51100000000E-03 0. -1.
        -11    1    3    3    0    0  0.10431554098E+02 -0.47540088742E+01  0.28520343181E+02  0.30738052910E+02  0.51100000000E-03 0.  1.
         12    1    3    3    0    0  0.12666394270E+02  0.14114785808E+02 -0.20101766539E+02  0.27635950141E+02  0.00000000000E+00 0. -1.
</event>
<event>
 7    1  0.3020651E-013  0.7246158E+02  0.7816164E-02  0.1226708E+00
        -11   -1    0    0    0    0  0.00000000000E+00  0.00000000000E+00  0.45593999997E+02  0.45594000000E+02  0.51100000000E-03 0.  1.
         11   -1    0    0    0    0 -0.00000000000E+00 -0.00000000000E+00 -0.45593999997E+02  0.45594000000E+02  0.51100000000E-03 0. -1.
    9900012    2    1    2    0    0  0.12621015874E+01  0.45049294626E+01  0.18132608435E+02  0.72461580733E+02  0.70000013599E+02 0.  0.
         12    1    1    2    0    0 -0.12621015874E+01 -0.45049294626E+01 -0.18132608435E+02  0.18726419267E+02  0.00000000000E+00 0. -1.
         11    1    3    3    0    0  0.16399674381E+02  0.10014506164E+02 -0.30909443572E+01  0.19462620348E+02  0.51100000000E-03 0. -1.
        -11    1    3    3    0    0  0.47168046465E+01 -0.55759891919E+00  0.30259563421E+02  0.30630056176E+02  0.51100000000E-03 0.  1.
         12    1    3    3    0    0 -0.19854377440E+02 -0.49519777825E+01 -0.90360106284E+01  0.22368904210E+02  0.00000000000E+00 0. -1.
</event>
<event>
 7    1  0.3020651E-013  0.7246160E+02  0.7816164E-02  0.1226708E+00
        -11   -1    0    0    0    0  0.00000000000E+00  0.00000000000E+00  0.45593999997E+02  0.45594000000E+02  0.51100000000E-03 0.  1.
         11   -1    0    0    0    0 -0.00000000000E+00 -0.00000000000E+00 -0.45593999997E+02  0.45594000000E+02  0.51100000000E-03 0. -1.
    9900012    2    1    2    0    0  0.18256131258E+02 -0.18776295342E+01 -0.37237513384E+01  0.72461597643E+02  0.70000035627E+02 0.  0.
         12    1    1    2    0    0 -0.18256131258E+02  0.18776295342E+01  0.37237513384E+01  0.18726402357E+02  0.00000000000E+00 0. -1.
         11    1    3    3    0    0 -0.12456836795E+02  0.11440126707E+02  0.66657066615E+01  0.18179134401E+02  0.51100000000E-03 0. -1.
        -11    1    3    3    0    0  0.63738273316E+01  0.14756719585E+02 -0.42045623244E+01  0.16615197633E+02  0.51100000000E-03 0.  1.
        -12    1    3    3    0    0  0.24339140722E+02 -0.28074475826E+02 -0.61848956755E+01  0.37667265610E+02  0.00000000000E+00 0.  1.
</event>
<event>
 7    1  0.3020651E-013  0.7246159E+02  0.7816164E-02  0.1226708E+00
        -11   -1    0    0    0    0  0.00000000000E+00  0.00000000000E+00  0.45593999997E+02  0.45594000000E+02  0.51100000000E-03 0.  1.
         11   -1    0    0    0    0 -0.00000000000E+00 -0.00000000000E+00 -0.45593999997E+02  0.45594000000E+02  0.51100000000E-03 0. -1.
    9900012    2    1    2    0    0 -0.93546486953E+01 -0.68239882378E+01  0.14717410576E+02  0.72461589726E+02  0.70000025313E+02 0.  0.
         12    1    1    2    0    0  0.93546486953E+01  0.68239882378E+01 -0.14717410576E+02  0.18726410274E+02  0.00000000000E+00 0. -1.
         11    1    3    3    0    0  0.11329364784E+02 -0.26607118388E+02  0.15699873992E+02  0.32905611967E+02  0.51100000000E-03 0. -1.
        -11    1    3    3    0    0 -0.25380721260E+02  0.80097901617E+01 -0.27559354753E+01  0.26756923043E+02  0.51100000000E-03 0.  1.
         12    1    3    3    0    0  0.46967077810E+01  0.11773339989E+02  0.17734720601E+01  0.12799054716E+02  0.00000000000E+00 0. -1.
</event>
<event>
 7    1  0.3020651E-013  0.7246160E+02  0.7816164E-02  0.1226708E+00
        -11   -1    0    0    0    0  0.00000000000E+00  0.00000000000E+00  0.45593999997E+02  0.45594000000E+02  0.51100000000E-03 0. -1.
         11   -1    0    0    0    0 -0.00000000000E+00 -0.00000000000E+00 -0.45593999997E+02  0.45594000000E+02  0.51100000000E-03 0.  1.
    9900012    2    1    2    0    0 -0.93123214385E+01 -0.10673172520E+02 -0.12249170317E+02  0.72461598433E+02  0.70000036656E+02 0.  0.
         12    1    1    2    0    0  0.93123214385E+01  0.10673172520E+02  0.12249170317E+02  0.18726401567E+02  0.00000000000E+00 0. -1.
         11    1    3    3    0    0  0.14902783110E+02 -0.29068356093E+02  0.48258885557E+01  0.33020470484E+02  0.51100000000E-03 0. -1.
        -11    1    3    3    0    0  0.86131185828E+00  0.77094622616E+01 -0.10685016697E+01  0.78306680788E+01  0.51100000000E-03 0.  1.
        -12    1    3    3    0    0 -0.25076416406E+02  0.10685721312E+02 -0.16006557203E+02  0.31610459870E+02  0.00000000000E+00 0.  1.
</event>
<event>
 7    1  0.3020651E-013  0.7246158E+02  0.7816164E-02  0.1226708E+00
        -11   -1    0    0    0    0  0.00000000000E+00  0.00000000000E+00  0.45593999997E+02  0.45594000000E+02  0.51100000000E-03 0.  1.
         11   -1    0    0    0    0 -0.00000000000E+00 -0.00000000000E+00 -0.45593999997E+02  0.45594000000E+02  0.51100000000E-03 0. -1.
    9900012    2    1    2    0    0  0.47315819873E+01  0.99690197023E+01 -0.15129761812E+02  0.72461577106E+02  0.70000008873E+02 0.  0.
         12    1    1    2    0    0 -0.47315819873E+01 -0.99690197023E+01  0.15129761812E+02  0.18726422894E+02  0.00000000000E+00 0. -1.
         11    1    3    3    0    0 -0.91387411817E+01  0.56024430229E+01  0.83266664214E+01  0.13573405327E+02  0.51100000000E-03 0. -1.
        -11    1    3    3    0    0  0.25275217898E+01  0.27634191534E+02 -0.86447096703E+01  0.29064891427E+02  0.51100000000E-03 0.  1.
         12    1    3    3    0    0  0.11342801379E+02 -0.23267614854E+02 -0.14811718563E+02  0.29823280352E+02  0.00000000000E+00 0. -1.
</event>
<event>
 7    1  0.3020651E-013  0.7246157E+02  0.7816164E-02  0.1226708E+00
        -11   -1    0    0    0    0  0.00000000000E+00  0.00000000000E+00  0.45593999997E+02  0.45594000000E+02  0.51100000000E-03 0.  1.
         11   -1    0    0    0    0 -0.00000000000E+00 -0.00000000000E+00 -0.45593999997E+02  0.45594000000E+02  0.51100000000E-03 0. -1.
    9900012    2    1    2    0    0  0.79697475392E+00  0.18650093475E+02 -0.14893642353E+01  0.72461565176E+02  0.69999993332E+02 0.  0.
         12    1    1    2    0    0 -0.79697475392E+00 -0.18650093475E+02  0.14893642353E+01  0.18726434824E+02  0.00000000000E+00 0. -1.
         11    1    3    3    0    0 -0.24174183758E+02  0.14917210071E+02 -0.33792793402E+01  0.28606535019E+02  0.51100000000E-03 0. -1.
        -11    1    3    3    0    0 -0.86415208543E+01  0.35614772693E+01 -0.31563772437E+01  0.98652278525E+01  0.51100000000E-03 0.  1.
        -12    1    3    3    0    0  0.33612679366E+02  0.17140613543E+00  0.50462923486E+01  0.33989802305E+02  0.00000000000E+00 0.  1.
</event>
<event>
 7    1  0.3020651E-013  0.7246137E+02  0.7816164E-02  0.1226709E+00
        -11   -1    0    0    0    0  0.00000000000E+00  0.00000000000E+00  0.45593999997E+02  0.45594000000E+02  0.51100000000E-03 0.  1.
         11   -1    0    0    0    0 -0.00000000000E+00 -0.00000000000E+00 -0.45593999997E+02  0.45594000000E+02  0.51100000000E-03 0. -1.
    9900012    2    1    2    0    0 -0.11391918729E+02  0.28084609947E+01  0.14595327537E+02  0.72461365188E+02  0.69999732810E+02 0.  0.
         12    1    1    2    0    0  0.11391918729E+02 -0.28084609947E+01 -0.14595327537E+02  0.18726634812E+02  0.00000000000E+00 0. -1.
         11    1    3    3    0    0  0.28108785166E+01  0.31251074090E+02  0.10495278501E+02  0.33085971965E+02  0.51100000000E-03 0. -1.
        -11    1    3    3    0    0  0.26153408185E+01 -0.54980321902E+01  0.86374160774E+01  0.10567559904E+02  0.51100000000E-03 0.  1.
         12    1    3    3    0    0 -0.16818138064E+02 -0.22944580905E+02 -0.45373670420E+01  0.28807833319E+02  0.00000000000E+00 0. -1.
</event>
<event>
 7    1  0.3020651E-013  0.7246172E+02  0.7816164E-02  0.1226708E+00
        -11   -1    0    0    0    0  0.00000000000E+00  0.00000000000E+00  0.45593999997E+02  0.45594000000E+02  0.51100000000E-03 0. -1.
         11   -1    0    0    0    0 -0.00000000000E+00 -0.00000000000E+00 -0.45593999997E+02  0.45594000000E+02  0.51100000000E-03 0.  1.
    9900012    2    1    2    0    0  0.89609631986E+01  0.16241919560E+02 -0.25641184291E+01  0.72461721251E+02  0.70000196649E+02 0.  0.
         12    1    1    2    0    0 -0.89609631986E+01 -0.16241919560E+02  0.25641184291E+01  0.18726278749E+02  0.00000000000E+00 0. -1.
         11    1    3    3    0    0  0.49293541428E+01  0.18213572732E+02 -0.57351263194E+01  0.19721167260E+02  0.51100000000E-03 0. -1.
        -11    1    3    3    0    0 -0.11134406332E+02  0.14214374362E+02 -0.15462082054E+02  0.23771819968E+02  0.51100000000E-03 0.  1.
        -12    1    3    3    0    0  0.15166015387E+02 -0.16186027534E+02  0.18633089945E+02  0.28968734024E+02  0.00000000000E+00 0.  1.
</event>
<event>
 7    1  0.3020651E-013  0.7246155E+02  0.7816164E-02  0.1226708E+00
        -11   -1    0    0    0    0  0.00000000000E+00  0.00000000000E+00  0.45593999997E+02  0.45594000000E+02  0.51100000000E-03 0.  1.
         11   -1    0    0    0    0 -0.00000000000E+00 -0.00000000000E+00 -0.45593999997E+02  0.45594000000E+02  0.51100000000E-03 0. -1.
    9900012    2    1    2    0    0 -0.21371203729E+01 -0.19409228155E+01  0.18502582424E+02  0.72461547554E+02  0.69999970376E+02 0.  0.
         12    1    1    2    0    0  0.21371203729E+01  0.19409228155E+01 -0.18502582424E+02  0.18726452446E+02  0.00000000000E+00 0. -1.
         11    1    3    3    0    0 -0.33044648069E+01 -0.33683606880E+01  0.79731155105E+01  0.92647672712E+01  0.51100000000E-03 0. -1.
        -11    1    3    3    0    0  0.13329549672E+02  0.21692040837E+02  0.24837872099E+02  0.35568826531E+02  0.51100000000E-03 0.  1.
         12    1    3    3    0    0 -0.12162205238E+02 -0.20264602964E+02 -0.14308405186E+02  0.27627953752E+02  0.00000000000E+00 0. -1.
</event>
<event>
 7    1  0.3020651E-013  0.7246154E+02  0.7816164E-02  0.1226708E+00
        -11   -1    0    0    0    0  0.00000000000E+00  0.00000000000E+00  0.45593999997E+02  0.45594000000E+02  0.51100000000E-03 0.  1.
         11   -1    0    0    0    0 -0.00000000000E+00 -0.00000000000E+00 -0.45593999997E+02  0.45594000000E+02  0.51100000000E-03 0. -1.
    9900012    2    1    2    0    0  0.89522416817E+01 -0.12556863508E+02  0.10623697714E+02  0.72461537296E+02  0.69999957013E+02 0.  0.
         12    1    1    2    0    0 -0.89522416817E+01  0.12556863508E+02 -0.10623697714E+02  0.18726462704E+02  0.00000000000E+00 0. -1.
         11    1    3    3    0    0 -0.73988187079E+01 -0.13250123552E+01 -0.80575287844E+01  0.11019162690E+02  0.51100000000E-03 0. -1.
        -11    1    3    3    0    0  0.10531683965E+01 -0.98516007667E+01 -0.18625827548E+02  0.21097029494E+02  0.51100000000E-03 0.  1.
        -12    1    3    3    0    0  0.15297891993E+02 -0.13802503858E+01  0.37307054047E+02  0.40345345112E+02  0.00000000000E+00 0.  1.
</event>
<event>
 7    1  0.3020651E-013  0.7246158E+02  0.7816164E-02  0.1226708E+00
        -11   -1    0    0    0    0  0.00000000000E+00  0.00000000000E+00  0.45593999997E+02  0.45594000000E+02  0.51100000000E-03 0.  1.
         11   -1    0    0    0    0 -0.00000000000E+00 -0.00000000000E+00 -0.45593999997E+02  0.45594000000E+02  0.51100000000E-03 0. -1.
    9900012    2    1    2    0    0 -0.17013074831E+02 -0.34193679385E+00  0.78177352147E+01  0.72461584970E+02  0.70000019118E+02 0.  0.
         12    1    1    2    0    0  0.17013074831E+02  0.34193679385E+00 -0.78177352147E+01  0.18726415030E+02  0.00000000000E+00 0. -1.
         11    1    3    3    0    0  0.59375269728E+01  0.83441929973E+01 -0.51844391582E+01  0.11478597169E+02  0.51100000000E-03 0. -1.
        -11    1    3    3    0    0  0.68514412123E+01 -0.24774339429E+02  0.50793531977E+01  0.26201335271E+02  0.51100000000E-03 0.  1.
         12    1    3    3    0    0 -0.29802043017E+02  0.16088209638E+02  0.79228211752E+01  0.34781652530E+02  0.00000000000E+00 0. -1.
</event>
<event>
 7    1  0.3020651E-013  0.7246153E+02  0.7816164E-02  0.1226708E+00
        -11   -1    0    0    0    0  0.00000000000E+00  0.00000000000E+00  0.45593999997E+02  0.45594000000E+02  0.51100000000E-03 0.  1.
         11   -1    0    0    0    0 -0.00000000000E+00 -0.00000000000E+00 -0.45593999997E+02  0.45594000000E+02  0.51100000000E-03 0. -1.
    9900012    2    1    2    0    0  0.13973079435E+02 -0.11841986276E+02  0.38988581351E+01  0.72461529894E+02  0.69999947372E+02 0.  0.
         12    1    1    2    0    0 -0.13973079435E+02  0.11841986276E+02 -0.38988581351E+01  0.18726470106E+02  0.00000000000E+00 0. -1.
         11    1    3    3    0    0  0.93504779648E+01 -0.38762868527E+01  0.85285783129E+01  0.13236075182E+02  0.51100000000E-03 0. -1.
        -11    1    3    3    0    0  0.19349816409E+02 -0.23397774521E+02 -0.16765184986E+02  0.34683464006E+02  0.51100000000E-03 0.  1.
         12    1    3    3    0    0 -0.14727214939E+02  0.15432075097E+02  0.12135464808E+02  0.24541990706E+02  0.00000000000E+00 0. -1.
</event>
<event>
 7    1  0.3020651E-013  0.7246156E+02  0.7816164E-02  0.1226708E+00
        -11   -1    0    0    0    0  0.00000000000E+00  0.00000000000E+00  0.45593999997E+02  0.45594000000E+02  0.51100000000E-03 0. -1.
         11   -1    0    0    0    0 -0.00000000000E+00 -0.00000000000E+00 -0.45593999997E+02  0.45594000000E+02  0.51100000000E-03 0.  1.
    9900012    2    1    2    0    0 -0.16647430454E+02  0.37523063039E+01  0.77112071685E+01  0.72461562557E+02  0.69999989920E+02 0.  0.
         12    1    1    2    0    0  0.16647430454E+02 -0.37523063039E+01 -0.77112071685E+01  0.18726437443E+02  0.00000000000E+00 0. -1.
         11    1    3    3    0    0 -0.93348883010E+01 -0.11199743773E+02  0.13233761900E+02  0.19690273093E+02  0.51100000000E-03 0. -1.
        -11    1    3    3    0    0  0.20320296087E+02  0.21909875695E+01  0.41081492172E+01  0.20846864268E+02  0.51100000000E-03 0.  1.
        -12    1    3    3    0    0 -0.27632838240E+02  0.12761062507E+02 -0.96307039490E+01  0.31924425195E+02  0.00000000000E+00 0.  1.
</event>
<event>
 7    1  0.3020651E-013  0.7246154E+02  0.7816164E-02  0.1226708E+00
        -11   -1    0    0    0    0  0.00000000000E+00  0.00000000000E+00  0.45593999997E+02  0.45594000000E+02  0.51100000000E-03 0.  1.
         11   -1    0    0    0    0 -0.00000000000E+00 -0.00000000000E+00 -0.45593999997E+02  0.45594000000E+02  0.51100000000E-03 0. -1.
    9900012    2    1    2    0    0  0.80012419636E+01  0.15020345903E+01  0.16864286363E+02  0.72461544505E+02  0.69999966404E+02 0.  0.
         12    1    1    2    0    0 -0.80012419636E+01 -0.15020345903E+01 -0.16864286363E+02  0.18726455495E+02  0.00000000000E+00 0. -1.
         11    1    3    3    0    0 -0.68749603471E+01 -0.52419881541E+01  0.27412024986E+02  0.28743044962E+02  0.51100000000E-03 0. -1.
        -11    1    3    3    0    0 -0.31636975411E+01  0.17948664752E+02  0.30826368252E+01  0.18484214849E+02  0.51100000000E-03 0.  1.
         12    1    3    3    0    0  0.18039899852E+02 -0.11204642008E+02 -0.13630375448E+02  0.25234284694E+02  0.00000000000E+00 0. -1.
</event>
<event>
 7    1  0.3020651E-013  0.7246156E+02  0.7816164E-02  0.1226708E+00
        -11   -1    0    0    0    0  0.00000000000E+00  0.00000000000E+00  0.45593999997E+02  0.45594000000E+02  0.51100000000E-03 0.  1.
         11   -1    0    0    0    0 -0.00000000000E+00 -0.00000000000E+00 -0.45593999997E+02  0.45594000000E+02  0.51100000000E-03 0. -1.
    9900012    2    1    2    0    0  0.59347189066E+00 -0.10390334429E+02  0.15568181413E+02  0.72461560644E+02  0.69999987429E+02 0.  0.
         12    1    1    2    0    0 -0.59347189066E+00  0.10390334429E+02 -0.15568181413E+02  0.18726439356E+02  0.00000000000E+00 0. -1.
         11    1    3    3    0    0 -0.40502061798E+01 -0.11740685889E+02  0.90801192366E+01  0.15384942016E+02  0.51100000000E-03 0. -1.
        -11    1    3    3    0    0 -0.18910772004E+02 -0.18071788723E+02  0.37519134389E+01  0.26425058186E+02  0.51100000000E-03 0.  1.
         12    1    3    3    0    0  0.23554450075E+02  0.19422140182E+02  0.27361487377E+01  0.30651560441E+02  0.00000000000E+00 0. -1.
</event>
<event>
 7    1  0.3020651E-013  0.7246160E+02  0.7816164E-02  0.1226708E+00
        -11   -1    0    0    0    0  0.00000000000E+00  0.00000000000E+00  0.45593999997E+02  0.45594000000E+02  0.51100000000E-03 0.  1.
         11   -1    0    0    0    0 -0.00000000000E+00 -0.00000000000E+00 -0.45593999997E+02  0.45594000000E+02  0.51100000000E-03 0. -1.
    9900012    2    1    2    0    0  0.15970873221E+02  0.26455488380E+01  0.94133119067E+01  0.72461597218E+02  0.70000035074E+02 0.  0.
         12    1    1    2    0    0 -0.15970873221E+02 -0.26455488380E+01 -0.94133119067E+01  0.18726402782E+02  0.00000000000E+00 0. -1.
         11    1    3    3    0    0 -0.48348130220E+01 -0.40450826484E+01 -0.24941841136E+02  0.25726125828E+02  0.51100000000E-03 0. -1.
        -11    1    3    3    0    0  0.10653182470E+02  0.12331277561E+02  0.84729735617E+01  0.18366871924E+02  0.51100000000E-03 0.  1.
         12    1    3    3    0    0  0.10152503772E+02 -0.56406460749E+01  0.25882179481E+02  0.28368599466E+02  0.00000000000E+00 0. -1.
</event>
<event>
 7    1  0.3020651E-013  0.7246154E+02  0.7816164E-02  0.1226708E+00
        -11   -1    0    0    0    0  0.00000000000E+00  0.00000000000E+00  0.45593999997E+02  0.45594000000E+02  0.51100000000E-03 0.  1.
         11   -1    0    0    0    0 -0.00000000000E+00 -0.00000000000E+00 -0.45593999997E+02  0.45594000000E+02  0.51100000000E-03 0. -1.
    9900012    2    1    2    0    0 -0.23876697381E+01  0.60394899294E+01  0.17564273959E+02  0.72461544781E+02  0.69999966764E+02 0.  0.
         12    1    1    2    0    0  0.23876697381E+01 -0.60394899294E+01 -0.17564273959E+02  0.18726455219E+02  0.00000000000E+00 0. -1.
         11    1    3    3    0    0 -0.20404400335E+02  0.17231918631E+00  0.96213828748E+01  0.22559704245E+02  0.51100000000E-03 0. -1.
        -11    1    3    3    0    0  0.83658404435E+01  0.19274615743E+01  0.26916976250E+02  0.28252893749E+02  0.51100000000E-03 0.  1.
         12    1    3    3    0    0  0.96508901532E+01  0.39397091688E+01 -0.18974085167E+02  0.21648946787E+02  0.00000000000E+00 0. -1.
</event>
<event>
 7    1  0.3020651E-013  0.7246170E+02  0.7816164E-02  0.1226708E+00
        -11   -1    0    0    0    0  0.00000000000E+00  0.00000000000E+00  0.45593999997E+02  0.45594000000E+02  0.51100000000E-03 0.  1.
         11   -1    0    0    0    0 -0.00000000000E+00 -0.00000000000E+00 -0.45593999997E+02  0.45594000000E+02  0.51100000000E-03 0. -1.
    9900012    2    1    2    0    0  0.68531805188E+01  0.67885411623E+01  0.16050672998E+02  0.72461695559E+02  0.70000163180E+02 0.  0.
         12    1    1    2    0    0 -0.68531805188E+01 -0.67885411623E+01 -0.16050672998E+02  0.18726304441E+02  0.00000000000E+00 0. -1.
         11    1    3    3    0    0  0.73534731910E+01  0.11587442708E+02 -0.46178957936E+01  0.14479894969E+02  0.51100000000E-03 0. -1.
        -11    1    3    3    0    0 -0.18662150271E+02  0.17303454096E+02  0.11626903803E+02  0.27979818954E+02  0.51100000000E-03 0.  1.
         12    1    3    3    0    0  0.18161857599E+02 -0.22102355641E+02  0.90416649885E+01  0.30001981636E+02  0.00000000000E+00 0. -1.
</event>
<event>
 7    1  0.3020651E-013  0.7246156E+02  0.7816164E-02  0.1226708E+00
        -11   -1    0    0    0    0  0.00000000000E+00  0.00000000000E+00  0.45593999997E+02  0.45594000000E+02  0.51100000000E-03 0. -1.
         11   -1    0    0    0    0 -0.00000000000E+00 -0.00000000000E+00 -0.45593999997E+02  0.45594000000E+02  0.51100000000E-03 0.  1.
    9900012    2    1    2    0    0 -0.58677845942E+01 -0.17767155814E+02 -0.75953207424E+00  0.72461558514E+02  0.69999984654E+02 0.  0.
         12    1    1    2    0    0  0.58677845942E+01  0.17767155814E+02  0.75953207424E+00  0.18726441486E+02  0.00000000000E+00 0. -1.
         11    1    3    3    0    0 -0.12453442291E+02  0.89410372460E+00 -0.36548145120E+01  0.13009431800E+02  0.51100000000E-03 0. -1.
        -11    1    3    3    0    0  0.81673596933E+01 -0.38475150064E+02  0.40578652852E+01  0.39541234272E+02  0.51100000000E-03 0.  1.
         12    1    3    3    0    0 -0.15817019962E+01  0.19813890526E+02 -0.11625828475E+01  0.19910892442E+02  0.00000000000E+00 0. -1.
</event>
<event>
 7    1  0.3020651E-013  0.7246159E+02  0.7816164E-02  0.1226708E+00
        -11   -1    0    0    0    0  0.00000000000E+00  0.00000000000E+00  0.45593999997E+02  0.45594000000E+02  0.51100000000E-03 0.  1.
         11   -1    0    0    0    0 -0.00000000000E+00 -0.00000000000E+00 -0.45593999997E+02  0.45594000000E+02  0.51100000000E-03 0. -1.
    9900012    2    1    2    0    0 -0.13018758899E+02 -0.28198942590E+00  0.13457741683E+02  0.72461590507E+02  0.70000026330E+02 0.  0.
         12    1    1    2    0    0  0.13018758899E+02  0.28198942590E+00 -0.13457741683E+02  0.18726409493E+02  0.00000000000E+00 0. -1.
         11    1    3    3    0    0 -0.46093342850E+01 -0.45544156071E+01  0.12001030645E+02  0.13638672988E+02  0.51100000000E-03 0. -1.
        -11    1    3    3    0    0 -0.32883643608E+02  0.43580567364E+00 -0.48941329361E+01  0.33248706456E+02  0.51100000000E-03 0.  1.
         12    1    3    3    0    0  0.24474218994E+02  0.38366205076E+01  0.63508439747E+01  0.25574211063E+02  0.00000000000E+00 0. -1.
</event>
<event>
 7    1  0.3020651E-013  0.7246163E+02  0.7816164E-02  0.1226708E+00
        -11   -1    0    0    0    0  0.00000000000E+00  0.00000000000E+00  0.45593999997E+02  0.45594000000E+02  0.51100000000E-03 0.  1.
         11   -1    0    0    0    0 -0.00000000000E+00 -0.00000000000E+00 -0.45593999997E+02  0.45594000000E+02  0.51100000000E-03 0. -1.
    9900012    2    1    2    0    0  0.64758729246E+01 -0.87496441122E+01  0.15237574206E+02  0.72461631694E+02  0.70000079985E+02 0.  0.
         12    1    1    2    0    0 -0.64758729246E+01  0.87496441122E+01 -0.15237574206E+02  0.18726368306E+02  0.00000000000E+00 0. -1.
         11    1    3    3    0    0 -0.23856524443E+00 -0.67097421103E+01 -0.15093110839E+02  0.16519066185E+02  0.51100000000E-03 0. -1.
        -11    1    3    3    0    0  0.15679963069E+02  0.16452976375E+02  0.49079860796E+01  0.23251881667E+02  0.51100000000E-03 0.  1.
        -12    1    3    3    0    0 -0.89655248998E+01 -0.18492878377E+02  0.25422698965E+02  0.32690683842E+02  0.00000000000E+00 0.  1.
</event>
<event>
 7    1  0.3020651E-013  0.7246168E+02  0.7816164E-02  0.1226708E+00
        -11   -1    0    0    0    0  0.00000000000E+00  0.00000000000E+00  0.45593999997E+02  0.45594000000E+02  0.51100000000E-03 0.  1.
         11   -1    0    0    0    0 -0.00000000000E+00 -0.00000000000E+00 -0.45593999997E+02  0.45594000000E+02  0.51100000000E-03 0. -1.
    9900012    2    1    2    0    0  0.18707977089E+02 -0.65536453558E+00 -0.50717712135E+00  0.72461677935E+02  0.70000140222E+02 0.  0.
         12    1    1    2    0    0 -0.18707977089E+02  0.65536453558E+00  0.50717712135E+00  0.18726322065E+02  0.00000000000E+00 0. -1.
         11    1    3    3    0    0  0.11880744673E+02  0.22543500739E+02 -0.18507714913E+02  0.31494396821E+02  0.51100000000E-03 0. -1.
        -11    1    3    3    0    0  0.84353364791E+01 -0.70271126662E+00  0.16278960027E+02  0.18348112831E+02  0.51100000000E-03 0.  1.
        -12    1    3    3    0    0 -0.16081040628E+01 -0.22496154007E+02  0.17215777649E+01  0.22619168283E+02  0.00000000000E+00 0.  1.
</event>
<event>
 7    1  0.3020651E-013  0.7246130E+02  0.7816164E-02  0.1226709E+00
        -11   -1    0    0    0    0  0.00000000000E+00  0.00000000000E+00  0.45593999997E+02  0.45594000000E+02  0.51100000000E-03 0. -1.
         11   -1    0    0    0    0 -0.00000000000E+00 -0.00000000000E+00 -0.45593999997E+02  0.45594000000E+02  0.51100000000E-03 0.  1.
    9900012    2    1    2    0    0 -0.70668400622E+01  0.12301944168E+01 -0.17298429821E+02  0.72461300316E+02  0.69999648303E+02 0.  0.
         12    1    1    2    0    0  0.70668400622E+01 -0.12301944168E+01  0.17298429821E+02  0.18726699684E+02  0.00000000000E+00 0. -1.
         11    1    3    3    0    0 -0.49984215741E+01 -0.42137218492E+01 -0.43037627814E+01  0.78270073716E+01  0.51100000000E-03 0. -1.
        -11    1    3    3    0    0 -0.22752514588E+02 -0.19846690294E+02 -0.23991209109E+01  0.30287354079E+02  0.51100000000E-03 0.  1.
         12    1    3    3    0    0  0.20684096100E+02  0.25290606560E+02 -0.10595546129E+02  0.34346938865E+02  0.00000000000E+00 0. -1.
</event>
<event>
 7    1  0.3020651E-013  0.7246156E+02  0.7816164E-02  0.1226708E+00
        -11   -1    0    0    0    0  0.00000000000E+00  0.00000000000E+00  0.45593999997E+02  0.45594000000E+02  0.51100000000E-03 0. -1.
         11   -1    0    0    0    0 -0.00000000000E+00 -0.00000000000E+00 -0.45593999997E+02  0.45594000000E+02  0.51100000000E-03 0.  1.
    9900012    2    1    2    0    0  0.17400159296E+02  0.68959332244E+01 -0.59997491248E+00  0.72461563914E+02  0.69999991689E+02 0.  0.
         12    1    1    2    0    0 -0.17400159296E+02 -0.68959332244E+01  0.59997491248E+00  0.18726436086E+02  0.00000000000E+00 0. -1.
         11    1    3    3    0    0 -0.66429689847E+01  0.19855081603E+01 -0.10796352585E+02  0.12830920036E+02  0.51100000000E-03 0. -1.
        -11    1    3    3    0    0  0.68802945406E+01 -0.21346813894E+02 -0.74571885296E+01  0.23635451708E+02  0.51100000000E-03 0.  1.
         12    1    3    3    0    0  0.17162833740E+02  0.26257238958E+02  0.17653566202E+02  0.35995192170E+02  0.00000000000E+00 0. -1.
</event>
<event>
 7    1  0.3020651E-013  0.7246154E+02  0.7816164E-02  0.1226708E+00
        -11   -1    0    0    0    0  0.00000000000E+00  0.00000000000E+00  0.45593999997E+02  0.45594000000E+02  0.51100000000E-03 0.  1.
         11   -1    0    0    0    0 -0.00000000000E+00 -0.00000000000E+00 -0.45593999997E+02  0.45594000000E+02  0.51100000000E-03 0. -1.
    9900012    2    1    2    0    0  0.12037280343E+02  0.29225903719E+01  0.14044315294E+02  0.72461536249E+02  0.69999955650E+02 0.  0.
         12    1    1    2    0    0 -0.12037280343E+02 -0.29225903719E+01 -0.14044315294E+02  0.18726463751E+02  0.00000000000E+00 0. -1.
         11    1    3    3    0    0  0.18783015892E+02 -0.11431536294E+02 -0.11343897887E+02  0.24741983096E+02  0.51100000000E-03 0. -1.
        -11    1    3    3    0    0  0.41006606210E+01  0.76661173210E+00 -0.85912886466E+01  0.95505681478E+01  0.51100000000E-03 0.  1.
        -12    1    3    3    0    0 -0.10846396170E+02  0.13587514933E+02  0.33979501827E+02  0.38168985005E+02  0.00000000000E+00 0.  1.
</event>
<event>
 7    1  0.3459364E-013  0.7246153E+02  0.7816164E-02  0.1226708E+00
        -11   -1    0    0    0    0  0.00000000000E+00  0.00000000000E+00  0.45593999997E+02  0.45594000000E+02  0.51100000000E-03 0. -1.
         11   -1    0    0    0    0 -0.00000000000E+00 -0.00000000000E+00 -0.45593999997E+02  0.45594000000E+02  0.51100000000E-03 0.  1.
    9900012    2    1    2    0    0 -0.11701470447E+02 -0.40934542674E+01 -0.14035659004E+02  0.72461534714E+02  0.69999953649E+02 0.  0.
         12    1    1    2    0    0  0.11701470447E+02  0.40934542674E+01  0.14035659004E+02  0.18726465286E+02  0.00000000000E+00 0. -1.
         11    1    3    3    0    0 -0.25494250415E+02 -0.24990110262E+01 -0.13326301322E+01  0.25651077242E+02  0.51100000000E-03 0. -1.
        -11    1    3    3    0    0 -0.17239314535E+01 -0.43633100894E+01 -0.25858076032E+02  0.26280230420E+02  0.51100000000E-03 0.  1.
         12    1    3    3    0    0  0.15516711422E+02  0.27688668482E+01  0.13155047161E+02  0.20530227051E+02  0.00000000000E+00 0. -1.
</event>
<event>
 7    1  0.3020651E-013  0.7246135E+02  0.7816164E-02  0.1226709E+00
        -11   -1    0    0    0    0  0.00000000000E+00  0.00000000000E+00  0.45593999997E+02  0.45594000000E+02  0.51100000000E-03 0.  1.
         11   -1    0    0    0    0 -0.00000000000E+00 -0.00000000000E+00 -0.45593999997E+02  0.45594000000E+02  0.51100000000E-03 0. -1.
    9900012    2    1    2    0    0 -0.31360360308E+00  0.16036537832E+02  0.96653219772E+01  0.72461352094E+02  0.69999715753E+02 0.  0.
         12    1    1    2    0    0  0.31360360308E+00 -0.16036537832E+02 -0.96653219772E+01  0.18726647906E+02  0.00000000000E+00 0. -1.
         11    1    3    3    0    0  0.38188594375E+01  0.25652811624E+02 -0.18855466765E+02  0.32065231307E+02  0.51100000000E-03 0. -1.
        -11    1    3    3    0    0 -0.45152340222E+01  0.77959960503E+01  0.29935689871E+01  0.94934897816E+01  0.51100000000E-03 0.  1.
         12    1    3    3    0    0  0.38277098159E+00 -0.17412269842E+02  0.25527219755E+02  0.30902631006E+02  0.00000000000E+00 0. -1.
</event>
<event>
 7    1  0.3020651E-013  0.7246154E+02  0.7816164E-02  0.1226708E+00
        -11   -1    0    0    0    0  0.00000000000E+00  0.00000000000E+00  0.45593999997E+02  0.45594000000E+02  0.51100000000E-03 0. -1.
         11   -1    0    0    0    0 -0.00000000000E+00 -0.00000000000E+00 -0.45593999997E+02  0.45594000000E+02  0.51100000000E-03 0.  1.
    9900012    2    1    2    0    0 -0.16273803166E+02 -0.90999710399E+01 -0.17419055898E+01  0.72461538041E+02  0.69999957984E+02 0.  0.
         12    1    1    2    0    0  0.16273803166E+02  0.90999710399E+01  0.17419055898E+01  0.18726461959E+02  0.00000000000E+00 0. -1.
         11    1    3    3    0    0 -0.20118118930E+02 -0.77568677541E+01 -0.19296237203E+02  0.28935315397E+02  0.51100000000E-03 0. -1.
        -11    1    3    3    0    0 -0.14024659999E+02 -0.85853788547E+01  0.17814421928E+02  0.24243626937E+02  0.51100000000E-03 0.  1.
        -12    1    3    3    0    0  0.17868975763E+02  0.72422755689E+01 -0.26009031511E+00  0.19282595707E+02  0.00000000000E+00 0.  1.
</event>
<event>
 7    1  0.3020651E-013  0.7246155E+02  0.7816164E-02  0.1226708E+00
        -11   -1    0    0    0    0  0.00000000000E+00  0.00000000000E+00  0.45593999997E+02  0.45594000000E+02  0.51100000000E-03 0. -1.
         11   -1    0    0    0    0 -0.00000000000E+00 -0.00000000000E+00 -0.45593999997E+02  0.45594000000E+02  0.51100000000E-03 0.  1.
    9900012    2    1    2    0    0 -0.16435608358E+02  0.41692793539E+01 -0.79478202616E+01  0.72461549206E+02  0.69999972529E+02 0.  0.
         12    1    1    2    0    0  0.16435608358E+02 -0.41692793539E+01  0.79478202616E+01  0.18726450794E+02  0.00000000000E+00 0. -1.
         11    1    3    3    0    0 -0.39705383337E+01 -0.68542075188E+00 -0.25736530382E+01  0.47810737799E+01  0.51100000000E-03 0. -1.
        -11    1    3    3    0    0 -0.30153523767E+02  0.20120085203E+02 -0.18693373379E+02  0.40785966124E+02  0.51100000000E-03 0.  1.
         12    1    3    3    0    0  0.17688453743E+02 -0.15265385097E+02  0.13319206156E+02  0.26894509302E+02  0.00000000000E+00 0. -1.
</event>
<event>
 7    1  0.3020651E-013  0.7246162E+02  0.7816164E-02  0.1226708E+00
        -11   -1    0    0    0    0  0.00000000000E+00  0.00000000000E+00  0.45593999997E+02  0.45594000000E+02  0.51100000000E-03 0. -1.
         11   -1    0    0    0    0 -0.00000000000E+00 -0.00000000000E+00 -0.45593999997E+02  0.45594000000E+02  0.51100000000E-03 0.  1.
    9900012    2    1    2    0    0 -0.15404727169E+02  0.78085932263E+00 -0.10618948799E+02  0.72461616632E+02  0.70000060364E+02 0.  0.
         12    1    1    2    0    0  0.15404727169E+02 -0.78085932263E+00  0.10618948799E+02  0.18726383368E+02  0.00000000000E+00 0. -1.
         11    1    3    3    0    0  0.29152473406E+01  0.71923542399E+01 -0.46153055312E+00  0.77744219902E+01  0.51100000000E-03 0. -1.
        -11    1    3    3    0    0 -0.18049767517E+02  0.13455878270E+02  0.18961995932E+02  0.29434878247E+02  0.51100000000E-03 0.  1.
        -12    1    3    3    0    0 -0.27020699286E+00 -0.19867373187E+02 -0.29119414178E+02  0.35252316395E+02  0.00000000000E+00 0.  1.
</event>
<event>
 7    1  0.3020651E-013  0.7246154E+02  0.7816164E-02  0.1226708E+00
        -11   -1    0    0    0    0  0.00000000000E+00  0.00000000000E+00  0.45593999997E+02  0.45594000000E+02  0.51100000000E-03 0. -1.
         11   -1    0    0    0    0 -0.00000000000E+00 -0.00000000000E+00 -0.45593999997E+02  0.45594000000E+02  0.51100000000E-03 0.  1.
    9900012    2    1    2    0    0  0.50561314628E+01  0.53757155978E+01 -0.17210966024E+02  0.72461544514E+02  0.69999966417E+02 0.  0.
         12    1    1    2    0    0 -0.50561314628E+01 -0.53757155978E+01  0.17210966024E+02  0.18726455486E+02  0.00000000000E+00 0. -1.
         11    1    3    3    0    0  0.10799692144E+02 -0.56769288871E+01  0.40372547022E+00  0.12207533187E+02  0.51100000000E-03 0. -1.
        -11    1    3    3    0    0  0.97078565556E+01 -0.89172150630E+01  0.14372536397E+02  0.19502025693E+02  0.51100000000E-03 0.  1.
        -12    1    3    3    0    0 -0.15451417237E+02  0.19969859548E+02 -0.31987227891E+02  0.40751985635E+02  0.00000000000E+00 0.  1.
</event>
<event>
 7    1  0.3020651E-013  0.7246155E+02  0.7816164E-02  0.1226708E+00
        -11   -1    0    0    0    0  0.00000000000E+00  0.00000000000E+00  0.45593999997E+02  0.45594000000E+02  0.51100000000E-03 0.  1.
         11   -1    0    0    0    0 -0.00000000000E+00 -0.00000000000E+00 -0.45593999997E+02  0.45594000000E+02  0.51100000000E-03 0. -1.
    9900012    2    1    2    0    0 -0.14992843957E+02 -0.69661569710E+01  0.87958739766E+01  0.72461545134E+02  0.69999967223E+02 0.  0.
         12    1    1    2    0    0  0.14992843957E+02  0.69661569710E+01 -0.87958739766E+01  0.18726454866E+02  0.00000000000E+00 0. -1.
         11    1    3    3    0    0 -0.13432309432E+02  0.10550281979E+02  0.87899399561E+01  0.19209331878E+02  0.51100000000E-03 0. -1.
        -11    1    3    3    0    0 -0.11470996798E+02  0.11186100807E+02  0.12595625313E+02  0.20380441509E+02  0.51100000000E-03 0.  1.
        -12    1    3    3    0    0  0.99104622733E+01 -0.28702539756E+02 -0.12589691293E+02  0.32871771747E+02  0.00000000000E+00 0.  1.
</event>
<event>
 7    1  0.3020651E-013  0.7246161E+02  0.7816164E-02  0.1226708E+00
        -11   -1    0    0    0    0  0.00000000000E+00  0.00000000000E+00  0.45593999997E+02  0.45594000000E+02  0.51100000000E-03 0.  1.
         11   -1    0    0    0    0 -0.00000000000E+00 -0.00000000000E+00 -0.45593999997E+02  0.45594000000E+02  0.51100000000E-03 0. -1.
    9900012    2    1    2    0    0  0.17787046728E+02 -0.41115874048E+01  0.41705499567E+01  0.72461610353E+02  0.70000052183E+02 0.  0.
         12    1    1    2    0    0 -0.17787046728E+02  0.41115874048E+01 -0.41705499567E+01  0.18726389647E+02  0.00000000000E+00 0. -1.
         11    1    3    3    0    0  0.60867367209E+01 -0.59099521609E+00  0.98181216349E+01  0.11566898977E+02  0.51100000000E-03 0. -1.
        -11    1    3    3    0    0  0.13780036719E+02 -0.10881093289E+02  0.24303486808E+02  0.29982446105E+02  0.51100000000E-03 0.  1.
         12    1    3    3    0    0 -0.20797267124E+01  0.73605011006E+01 -0.29951058487E+02  0.30912265270E+02  0.00000000000E+00 0. -1.
</event>
<event>
 7    1  0.3020651E-013  0.7246170E+02  0.7816164E-02  0.1226708E+00
        -11   -1    0    0    0    0  0.00000000000E+00  0.00000000000E+00  0.45593999997E+02  0.45594000000E+02  0.51100000000E-03 0.  1.
         11   -1    0    0    0    0 -0.00000000000E+00 -0.00000000000E+00 -0.45593999997E+02  0.45594000000E+02  0.51100000000E-03 0. -1.
    9900012    2    1    2    0    0  0.18286841457E+02  0.35417631577E+00  0.40174949961E+01  0.72461700916E+02  0.70000170159E+02 0.  0.
         12    1    1    2    0    0 -0.18286841457E+02 -0.35417631577E+00 -0.40174949961E+01  0.18726299084E+02  0.00000000000E+00 0. -1.
         11    1    3    3    0    0 -0.12947597063E+02 -0.80488993407E+01  0.10275293884E+02  0.18384958933E+02  0.51100000000E-03 0. -1.
        -11    1    3    3    0    0 -0.10674746121E+02  0.33006220755E+01  0.10789180305E+01  0.11225345216E+02  0.51100000000E-03 0.  1.
        -12    1    3    3    0    0  0.41909184641E+02  0.51024535810E+01 -0.73367169184E+01  0.42851396768E+02  0.00000000000E+00 0.  1.
</event>
<event>
 7    1  0.3020651E-013  0.7246156E+02  0.7816164E-02  0.1226708E+00
        -11   -1    0    0    0    0  0.00000000000E+00  0.00000000000E+00  0.45593999997E+02  0.45594000000E+02  0.51100000000E-03 0.  1.
         11   -1    0    0    0    0 -0.00000000000E+00 -0.00000000000E+00 -0.45593999997E+02  0.45594000000E+02  0.51100000000E-03 0. -1.
    9900012    2    1    2    0    0 -0.91972144190E+01 -0.97227594008E+01  0.13098041198E+02  0.72461561826E+02  0.69999988969E+02 0.  0.
         12    1    1    2    0    0  0.91972144190E+01  0.97227594008E+01 -0.13098041198E+02  0.18726438174E+02  0.00000000000E+00 0. -1.
         11    1    3    3    0    0  0.10085392907E+02  0.31385932520E+01  0.48740295679E+01  0.11632801992E+02  0.51100000000E-03 0. -1.
        -11    1    3    3    0    0  0.52283876576E+01 -0.15332229849E+01  0.27254836062E+02  0.27794116270E+02  0.51100000000E-03 0.  1.
        -12    1    3    3    0    0 -0.24510994984E+02 -0.11328129668E+02 -0.19030824431E+02  0.33034643564E+02  0.00000000000E+00 0.  1.
</event>
<event>
 7    1  0.3020651E-013  0.7246143E+02  0.7816164E-02  0.1226708E+00
        -11   -1    0    0    0    0  0.00000000000E+00  0.00000000000E+00  0.45593999997E+02  0.45594000000E+02  0.51100000000E-03 0.  1.
         11   -1    0    0    0    0 -0.00000000000E+00 -0.00000000000E+00 -0.45593999997E+02  0.45594000000E+02  0.51100000000E-03 0. -1.
    9900012    2    1    2    0    0  0.59599675275E+01 -0.38068522506E+01  0.17339868375E+02  0.72461431380E+02  0.69999819039E+02 0.  0.
         12    1    1    2    0    0 -0.59599675275E+01  0.38068522506E+01 -0.17339868375E+02  0.18726568620E+02  0.00000000000E+00 0. -1.
         11    1    3    3    0    0  0.45254833885E+00 -0.58742319003E+01  0.26429772642E+02  0.27078483757E+02  0.51100000000E-03 0. -1.
        -11    1    3    3    0    0  0.45936589103E+01  0.20233046487E+02  0.61644230297E+01  0.21644352240E+02  0.51100000000E-03 0.  1.
         12    1    3    3    0    0  0.91376027836E+00 -0.18165666838E+02 -0.15254327296E+02  0.23738595383E+02  0.00000000000E+00 0. -1.
</event>
<event>
 7    1  0.3020651E-013  0.7246159E+02  0.7816164E-02  0.1226708E+00
        -11   -1    0    0    0    0  0.00000000000E+00  0.00000000000E+00  0.45593999997E+02  0.45594000000E+02  0.51100000000E-03 0.  1.
         11   -1    0    0    0    0 -0.00000000000E+00 -0.00000000000E+00 -0.45593999997E+02  0.45594000000E+02  0.51100000000E-03 0. -1.
    9900012    2    1    2    0    0  0.70984694741E+01  0.10660957599E+02  0.13661410657E+02  0.72461590122E+02  0.70000025829E+02 0.  0.
         12    1    1    2    0    0 -0.70984694741E+01 -0.10660957599E+02 -0.13661410657E+02  0.18726409878E+02  0.00000000000E+00 0. -1.
         11    1    3    3    0    0 -0.14080078316E+01  0.33466438531E+02  0.38416332052E+01  0.33715621602E+02  0.51100000000E-03 0. -1.
        -11    1    3    3    0    0 -0.11612618865E+01 -0.60302449846E+00  0.14094897912E+02  0.14155504764E+02  0.51100000000E-03 0.  1.
        -12    1    3    3    0    0  0.96677391922E+01 -0.22202456434E+02 -0.42751204606E+01  0.24590463756E+02  0.00000000000E+00 0.  1.
</event>
<event>
 7    1  0.3020651E-013  0.7246185E+02  0.7816164E-02  0.1226707E+00
        -11   -1    0    0    0    0  0.00000000000E+00  0.00000000000E+00  0.45593999997E+02  0.45594000000E+02  0.51100000000E-03 0.  1.
         11   -1    0    0    0    0 -0.00000000000E+00 -0.00000000000E+00 -0.45593999997E+02  0.45594000000E+02  0.51100000000E-03 0. -1.
    9900012    2    1    2    0    0 -0.18312129430E+02  0.26378870009E+01  0.28941593306E+01  0.72461850094E+02  0.70000364490E+02 0.  0.
         12    1    1    2    0    0  0.18312129430E+02 -0.26378870009E+01 -0.28941593306E+01  0.18726149906E+02  0.00000000000E+00 0. -1.
         11    1    3    3    0    0 -0.29745539952E+02  0.62395167318E+01  0.17141085915E+02  0.34893345249E+02  0.51100000000E-03 0. -1.
        -11    1    3    3    0    0  0.12893967905E+01 -0.92395752726E+01  0.81212859344E+01  0.12368814850E+02  0.51100000000E-03 0.  1.
         12    1    3    3    0    0  0.10144013732E+02  0.56379455416E+01 -0.22368212519E+02  0.25199689994E+02  0.00000000000E+00 0. -1.
</event>
<event>
 7    1  0.3020651E-013  0.7246157E+02  0.7816164E-02  0.1226708E+00
        -11   -1    0    0    0    0  0.00000000000E+00  0.00000000000E+00  0.45593999997E+02  0.45594000000E+02  0.51100000000E-03 0.  1.
         11   -1    0    0    0    0 -0.00000000000E+00 -0.00000000000E+00 -0.45593999997E+02  0.45594000000E+02  0.51100000000E-03 0. -1.
    9900012    2    1    2    0    0 -0.16705448162E+02  0.84596189421E+01  0.20521374706E+00  0.72461567782E+02  0.69999996727E+02 0.  0.
         12    1    1    2    0    0  0.16705448162E+02 -0.84596189421E+01 -0.20521374706E+00  0.18726432218E+02  0.00000000000E+00 0. -1.
         11    1    3    3    0    0  0.13833200938E+02  0.13654677127E+01 -0.98977719930E+01  0.17064226937E+02  0.51100000000E-03 0. -1.
        -11    1    3    3    0    0  0.11092448707E+02  0.64045667450E+01  0.16982329172E+01  0.12920715491E+02  0.51100000000E-03 0.  1.
         12    1    3    3    0    0 -0.41631097807E+02  0.68958448451E+00  0.84047528229E+01  0.42476625353E+02  0.00000000000E+00 0. -1.
</event>
<event>
 7    1  0.3020651E-013  0.7246153E+02  0.7816164E-02  0.1226708E+00
        -11   -1    0    0    0    0  0.00000000000E+00  0.00000000000E+00  0.45593999997E+02  0.45594000000E+02  0.51100000000E-03 0.  1.
         11   -1    0    0    0    0 -0.00000000000E+00 -0.00000000000E+00 -0.45593999997E+02  0.45594000000E+02  0.51100000000E-03 0. -1.
    9900012    2    1    2    0    0  0.12049208337E+02 -0.45033699293E+00  0.14328106133E+02  0.72461525417E+02  0.69999941539E+02 0.  0.
         12    1    1    2    0    0 -0.12049208337E+02  0.45033699293E+00 -0.14328106133E+02  0.18726474583E+02  0.00000000000E+00 0. -1.
         11    1    3    3    0    0 -0.13667325251E+01  0.73715220114E+01 -0.14692028750E+02  0.16494332469E+02  0.51100000000E-03 0. -1.
        -11    1    3    3    0    0  0.10079972037E+02 -0.52353796477E+01 -0.10948612369E+02  0.15776157625E+02  0.51100000000E-03 0.  1.
        -12    1    3    3    0    0  0.33359688247E+01 -0.25864793567E+01  0.39968747252E+02  0.40191035323E+02  0.00000000000E+00 0.  1.
</event>
<event>
 7    1  0.3020651E-013  0.7246161E+02  0.7816164E-02  0.1226708E+00
        -11   -1    0    0    0    0  0.00000000000E+00  0.00000000000E+00  0.45593999997E+02  0.45594000000E+02  0.51100000000E-03 0. -1.
         11   -1    0    0    0    0 -0.00000000000E+00 -0.00000000000E+00 -0.45593999997E+02  0.45594000000E+02  0.51100000000E-03 0.  1.
    9900012    2    1    2    0    0  0.53540977184E+00 -0.12000792880E+02 -0.14365657845E+02  0.72461606362E+02  0.70000046985E+02 0.  0.
         12    1    1    2    0    0 -0.53540977184E+00  0.12000792880E+02  0.14365657845E+02  0.18726393638E+02  0.00000000000E+00 0. -1.
         11    1    3    3    0    0 -0.55414739979E+01  0.20712831535E+02  0.14053511352E+02  0.25636507286E+02  0.51100000000E-03 0. -1.
        -11    1    3    3    0    0  0.36641084344E+01 -0.32835416246E+01  0.11326387113E+01  0.50487827178E+01  0.51100000000E-03 0.  1.
        -12    1    3    3    0    0  0.24127753354E+01 -0.29430082790E+02 -0.29551807908E+02  0.41776316358E+02  0.00000000000E+00 0.  1.
</event>
<event>
 7    1  0.3020651E-013  0.7246159E+02  0.7816164E-02  0.1226708E+00
        -11   -1    0    0    0    0  0.00000000000E+00  0.00000000000E+00  0.45593999997E+02  0.45594000000E+02  0.51100000000E-03 0. -1.
         11   -1    0    0    0    0 -0.00000000000E+00 -0.00000000000E+00 -0.45593999997E+02  0.45594000000E+02  0.51100000000E-03 0.  1.
    9900012    2    1    2    0    0 -0.17366289611E+01 -0.12014261459E+02 -0.14259040650E+02  0.72461585533E+02  0.70000019851E+02 0.  0.
         12    1    1    2    0    0  0.17366289611E+01  0.12014261459E+02  0.14259040650E+02  0.18726414467E+02  0.00000000000E+00 0. -1.
         11    1    3    3    0    0 -0.14900212616E+02 -0.17109915331E+02 -0.17181080466E+02  0.28459709501E+02  0.51100000000E-03 0.  1.
        -11    1    3    3    0    0 -0.13078266349E+02  0.77421042609E+01 -0.57325684623E+01  0.16243262311E+02  0.51100000000E-03 0. -1.
         12    1    3    3    0    0  0.26241850003E+02 -0.26464503883E+01  0.86546082780E+01  0.27758613721E+02  0.00000000000E+00 0. -1.
</event>
<event>
 7    1  0.3020651E-013  0.7246168E+02  0.7816164E-02  0.1226708E+00
        -11   -1    0    0    0    0  0.00000000000E+00  0.00000000000E+00  0.45593999997E+02  0.45594000000E+02  0.51100000000E-03 0.  1.
         11   -1    0    0    0    0 -0.00000000000E+00 -0.00000000000E+00 -0.45593999997E+02  0.45594000000E+02  0.51100000000E-03 0. -1.
    9900012    2    1    2    0    0 -0.14116717315E+02 -0.10730982670E+02 -0.60199107969E+01  0.72461681013E+02  0.70000144231E+02 0.  0.
         12    1    1    2    0    0  0.14116717315E+02  0.10730982670E+02  0.60199107969E+01  0.18726318987E+02  0.00000000000E+00 0. -1.
         11    1    3    3    0    0  0.15037338805E+02  0.16084935413E+02  0.16918792636E+01  0.22084138228E+02  0.51100000000E-03 0. -1.
        -11    1    3    3    0    0 -0.68258868784E+01  0.61545870017E+01 -0.50068962255E+01  0.10466168492E+02  0.51100000000E-03 0.  1.
        -12    1    3    3    0    0 -0.22328169241E+02 -0.32970505085E+02 -0.27048938350E+01  0.39911374292E+02  0.00000000000E+00 0.  1.
</event>
<event>
 7    1  0.3020651E-013  0.7246153E+02  0.7816164E-02  0.1226708E+00
        -11   -1    0    0    0    0  0.00000000000E+00  0.00000000000E+00  0.45593999997E+02  0.45594000000E+02  0.51100000000E-03 0.  1.
         11   -1    0    0    0    0 -0.00000000000E+00 -0.00000000000E+00 -0.45593999997E+02  0.45594000000E+02  0.51100000000E-03 0. -1.
    9900012    2    1    2    0    0  0.29076394263E+01 -0.14833138356E+02 -0.11054605993E+02  0.72461530120E+02  0.69999947666E+02 0.  0.
         12    1    1    2    0    0 -0.29076394263E+01  0.14833138356E+02  0.11054605993E+02  0.18726469880E+02  0.00000000000E+00 0. -1.
         11    1    3    3    0    0  0.20226683629E+02  0.16333909755E+02 -0.12163243391E+02  0.28702958534E+02  0.51100000000E-03 0. -1.
        -11    1    3    3    0    0 -0.50741265622E+01 -0.10145831379E+02  0.12513808350E+02  0.16890235475E+02  0.51100000000E-03 0.  1.
        -12    1    3    3    0    0 -0.12244917641E+02 -0.21021216732E+02 -0.11405170952E+02  0.26868336111E+02  0.00000000000E+00 0.  1.
</event>
<event>
 7    1  0.3020651E-013  0.7246161E+02  0.7816164E-02  0.1226708E+00
        -11   -1    0    0    0    0  0.00000000000E+00  0.00000000000E+00  0.45593999997E+02  0.45594000000E+02  0.51100000000E-03 0. -1.
         11   -1    0    0    0    0 -0.00000000000E+00 -0.00000000000E+00 -0.45593999997E+02  0.45594000000E+02  0.51100000000E-03 0.  1.
    9900012    2    1    2    0    0 -0.56082202941E+01  0.14904490611E+02 -0.98529988733E+01  0.72461613214E+02  0.70000055911E+02 0.  0.
         12    1    1    2    0    0  0.56082202941E+01 -0.14904490611E+02  0.98529988733E+01  0.18726386786E+02  0.00000000000E+00 0. -1.
         11    1    3    3    0    0  0.10016006450E+02 -0.15505692507E+01  0.15412454104E+02  0.18446365278E+02  0.51100000000E-03 0. -1.
        -11    1    3    3    0    0 -0.56297702804E+01  0.61908495521E+01  0.11692169341E+02  0.14378030315E+02  0.51100000000E-03 0.  1.
        -12    1    3    3    0    0 -0.99944564632E+01  0.10264210310E+02 -0.36957622318E+02  0.39637217621E+02  0.00000000000E+00 0.  1.
</event>
<event>
 7    1  0.3020651E-013  0.7246157E+02  0.7816164E-02  0.1226708E+00
        -11   -1    0    0    0    0  0.00000000000E+00  0.00000000000E+00  0.45593999997E+02  0.45594000000E+02  0.51100000000E-03 0.  1.
         11   -1    0    0    0    0 -0.00000000000E+00 -0.00000000000E+00 -0.45593999997E+02  0.45594000000E+02  0.51100000000E-03 0. -1.
    9900012    2    1    2    0    0  0.57014248410E+01 -0.10347559739E+02  0.14529308155E+02  0.72461573934E+02  0.70000004741E+02 0.  0.
         12    1    1    2    0    0 -0.57014248410E+01  0.10347559739E+02 -0.14529308155E+02  0.18726426066E+02  0.00000000000E+00 0. -1.
         11    1    3    3    0    0  0.38639989107E+01 -0.17014238122E+02 -0.12835408921E+02  0.21660159484E+02  0.51100000000E-03 0. -1.
        -11    1    3    3    0    0  0.24648233820E+01 -0.12206738292E+02  0.29282435483E+02  0.31820446919E+02  0.51100000000E-03 0.  1.
         12    1    3    3    0    0 -0.62739745175E+00  0.18873416674E+02 -0.19177184077E+01  0.18980967531E+02  0.00000000000E+00 0. -1.
</event>
<event>
 7    1  0.3020651E-013  0.7246165E+02  0.7816164E-02  0.1226708E+00
        -11   -1    0    0    0    0  0.00000000000E+00  0.00000000000E+00  0.45593999997E+02  0.45594000000E+02  0.51100000000E-03 0.  1.
         11   -1    0    0    0    0 -0.00000000000E+00 -0.00000000000E+00 -0.45593999997E+02  0.45594000000E+02  0.51100000000E-03 0. -1.
    9900012    2    1    2    0    0 -0.78805662567E+01 -0.16729260661E+02  0.29503498758E+01  0.72461653555E+02  0.70000108462E+02 0.  0.
         12    1    1    2    0    0  0.78805662567E+01  0.16729260661E+02 -0.29503498758E+01  0.18726346445E+02  0.00000000000E+00 0. -1.
         11    1    3    3    0    0 -0.86094576253E+01 -0.25617753495E+01 -0.29257569628E+02  0.30605405312E+02  0.51100000000E-03 0. -1.
        -11    1    3    3    0    0  0.59868153863E+01 -0.34512738160E+01 -0.60774377971E+00  0.69370456382E+01  0.51100000000E-03 0.  1.
        -12    1    3    3    0    0 -0.52579240178E+01 -0.10716211496E+02  0.32815663283E+02  0.34919202604E+02  0.00000000000E+00 0.  1.
</event>
<event>
 7    1  0.3020651E-013  0.7246146E+02  0.7816164E-02  0.1226708E+00
        -11   -1    0    0    0    0  0.00000000000E+00  0.00000000000E+00  0.45593999997E+02  0.45594000000E+02  0.51100000000E-03 0.  1.
         11   -1    0    0    0    0 -0.00000000000E+00 -0.00000000000E+00 -0.45593999997E+02  0.45594000000E+02  0.51100000000E-03 0. -1.
    9900012    2    1    2    0    0  0.10525026025E+02  0.53167139117E+01  0.14547846714E+02  0.72461455640E+02  0.69999850642E+02 0.  0.
         12    1    1    2    0    0 -0.10525026025E+02 -0.53167139117E+01 -0.14547846714E+02  0.18726544360E+02  0.00000000000E+00 0. -1.
         11    1    3    3    0    0 -0.96498655343E+01  0.67006414821E+00  0.22005972295E+01  0.99202580219E+01  0.51100000000E-03 0. -1.
        -11    1    3    3    0    0  0.90719131948E+01 -0.23123534775E+02 -0.83105831835E+01  0.26192809368E+02  0.51100000000E-03 0.  1.
        -12    1    3    3    0    0  0.11102978365E+02  0.27770184538E+02  0.20657832668E+02  0.36348388250E+02  0.00000000000E+00 0.  1.
</event>
<event>
 7    1  0.3020651E-013  0.7246152E+02  0.7816164E-02  0.1226708E+00
        -11   -1    0    0    0    0  0.00000000000E+00  0.00000000000E+00  0.45593999997E+02  0.45594000000E+02  0.51100000000E-03 0.  1.
         11   -1    0    0    0    0 -0.00000000000E+00 -0.00000000000E+00 -0.45593999997E+02  0.45594000000E+02  0.51100000000E-03 0. -1.
    9900012    2    1    2    0    0 -0.14560260910E+01  0.10075309816E+02  0.15717796172E+02  0.72461521517E+02  0.69999936458E+02 0.  0.
         12    1    1    2    0    0  0.14560260910E+01 -0.10075309816E+02 -0.15717796172E+02  0.18726478483E+02  0.00000000000E+00 0. -1.
         11    1    3    3    0    0  0.41798989234E+01 -0.18217466471E+01 -0.44881948605E+01  0.63979847782E+01  0.51100000000E-03 0. -1.
        -11    1    3    3    0    0 -0.79919189581E+01 -0.18796553301E+02 -0.10169234294E+02  0.22816540294E+02  0.51100000000E-03 0.  1.
        -12    1    3    3    0    0  0.23559939438E+01  0.30693609764E+02  0.30375225326E+02  0.43246996444E+02  0.00000000000E+00 0.  1.
</event>
<event>
 7    1  0.3020651E-013  0.7246154E+02  0.7816164E-02  0.1226708E+00
        -11   -1    0    0    0    0  0.00000000000E+00  0.00000000000E+00  0.45593999997E+02  0.45594000000E+02  0.51100000000E-03 0.  1.
         11   -1    0    0    0    0 -0.00000000000E+00 -0.00000000000E+00 -0.45593999997E+02  0.45594000000E+02  0.51100000000E-03 0. -1.
    9900012    2    1    2    0    0 -0.17167234760E+02  0.74104477687E+01 -0.10255528739E+01  0.72461536262E+02  0.69999955666E+02 0.  0.
         12    1    1    2    0    0  0.17167234760E+02 -0.74104477687E+01  0.10255528739E+01  0.18726463738E+02  0.00000000000E+00 0. -1.
         11    1    3    3    0    0 -0.13534555181E+02 -0.18827616196E+02  0.85451549132E+00  0.23203308225E+02  0.51100000000E-03 0.  1.
        -11    1    3    3    0    0  0.74599548622E+01 -0.62579089242E+01 -0.10017530097E+02  0.13970084472E+02  0.51100000000E-03 0. -1.
        -12    1    3    3    0    0 -0.11092634441E+02  0.32495972889E+02  0.81374617316E+01  0.35288143566E+02  0.00000000000E+00 0.  1.
</event>
<event>
 7    1  0.3020651E-013  0.7246164E+02  0.7816164E-02  0.1226708E+00
        -11   -1    0    0    0    0  0.00000000000E+00  0.00000000000E+00  0.45593999997E+02  0.45594000000E+02  0.51100000000E-03 0. -1.
         11   -1    0    0    0    0 -0.00000000000E+00 -0.00000000000E+00 -0.45593999997E+02  0.45594000000E+02  0.51100000000E-03 0.  1.
    9900012    2    1    2    0    0  0.65414761634E+01  0.82710847433E+01 -0.15474972649E+02  0.72461640724E+02  0.70000091748E+02 0.  0.
         12    1    1    2    0    0 -0.65414761634E+01 -0.82710847433E+01  0.15474972649E+02  0.18726359276E+02  0.00000000000E+00 0. -1.
         11    1    3    3    0    0 -0.14060985415E+02 -0.25079366713E+01  0.20430780330E+02  0.24928253896E+02  0.51100000000E-03 0. -1.
        -11    1    3    3    0    0 -0.28969502775E+01  0.65767985073E+01 -0.68447904661E+01  0.99246035841E+01  0.51100000000E-03 0.  1.
        -12    1    3    3    0    0  0.23499411856E+02  0.42022229072E+01 -0.29060962513E+02  0.37608783244E+02  0.00000000000E+00 0.  1.
</event>
<event>
 7    1  0.3020651E-013  0.7246156E+02  0.7816164E-02  0.1226708E+00
        -11   -1    0    0    0    0  0.00000000000E+00  0.00000000000E+00  0.45593999997E+02  0.45594000000E+02  0.51100000000E-03 0.  1.
         11   -1    0    0    0    0 -0.00000000000E+00 -0.00000000000E+00 -0.45593999997E+02  0.45594000000E+02  0.51100000000E-03 0. -1.
    9900012    2    1    2    0    0 -0.65071337844E+01 -0.58464837288E+01  0.16557644113E+02  0.72461555045E+02  0.69999980135E+02 0.  0.
         12    1    1    2    0    0  0.65071337844E+01  0.58464837288E+01 -0.16557644113E+02  0.18726444955E+02  0.00000000000E+00 0. -1.
         11    1    3    3    0    0 -0.65754674253E+01 -0.13309936850E+01 -0.10536788752E+02  0.12491286303E+02  0.51100000000E-03 0. -1.
        -11    1    3    3    0    0 -0.78755353060E+01 -0.27794890157E+02  0.13946713609E+02  0.32079445069E+02  0.51100000000E-03 0.  1.
         12    1    3    3    0    0  0.79438689470E+01  0.23279400113E+02  0.13147719256E+02  0.27890823672E+02  0.00000000000E+00 0. -1.
</event>
<event>
 7    1  0.3020651E-013  0.7246159E+02  0.7816164E-02  0.1226708E+00
        -11   -1    0    0    0    0  0.00000000000E+00  0.00000000000E+00  0.45593999997E+02  0.45594000000E+02  0.51100000000E-03 0.  1.
         11   -1    0    0    0    0 -0.00000000000E+00 -0.00000000000E+00 -0.45593999997E+02  0.45594000000E+02  0.51100000000E-03 0. -1.
    9900012    2    1    2    0    0 -0.88726989876E+01 -0.14514479023E+02 -0.78283832743E+01  0.72461588883E+02  0.70000024215E+02 0.  0.
         12    1    1    2    0    0  0.88726989876E+01  0.14514479023E+02  0.78283832743E+01  0.18726411117E+02  0.00000000000E+00 0. -1.
         11    1    3    3    0    0  0.12346124489E+01  0.19434274054E+02 -0.11239478962E+02  0.22484242560E+02  0.51100000000E-03 0. -1.
        -11    1    3    3    0    0 -0.11661514407E+02 -0.36540552398E+01  0.13309276537E+02  0.18068754250E+02  0.51100000000E-03 0.  1.
        -12    1    3    3    0    0  0.15542029704E+01 -0.30294697837E+02 -0.98981808496E+01  0.31908592073E+02  0.00000000000E+00 0.  1.
</event>
<event>
 7    1  0.3020651E-013  0.7246160E+02  0.7816164E-02  0.1226708E+00
        -11   -1    0    0    0    0  0.00000000000E+00  0.00000000000E+00  0.45593999997E+02  0.45594000000E+02  0.51100000000E-03 0. -1.
         11   -1    0    0    0    0 -0.00000000000E+00 -0.00000000000E+00 -0.45593999997E+02  0.45594000000E+02  0.51100000000E-03 0.  1.
    9900012    2    1    2    0    0 -0.31781038960E+01  0.23028062776E+01 -0.18310511432E+02  0.72461599117E+02  0.70000037547E+02 0.  0.
         12    1    1    2    0    0  0.31781038960E+01 -0.23028062776E+01  0.18310511432E+02  0.18726400883E+02  0.00000000000E+00 0. -1.
         11    1    3    3    0    0  0.31492956840E+01  0.10540109032E+02  0.22598646461E+02  0.25133857321E+02  0.51100000000E-03 0. -1.
        -11    1    3    3    0    0  0.44078900416E+00  0.69877442833E+01 -0.98989709266E+01  0.12124870753E+02  0.51100000000E-03 0.  1.
        -12    1    3    3    0    0 -0.67681885842E+01 -0.15225047038E+02 -0.31010186966E+02  0.35202871043E+02  0.00000000000E+00 0.  1.
</event>
<event>
 7    1  0.3020651E-013  0.7246159E+02  0.7816164E-02  0.1226708E+00
        -11   -1    0    0    0    0  0.00000000000E+00  0.00000000000E+00  0.45593999997E+02  0.45594000000E+02  0.51100000000E-03 0. -1.
         11   -1    0    0    0    0 -0.00000000000E+00 -0.00000000000E+00 -0.45593999997E+02  0.45594000000E+02  0.51100000000E-03 0.  1.
    9900012    2    1    2    0    0 -0.11625649944E+01 -0.58775480103E+01 -0.17742072492E+02  0.72461594465E+02  0.70000031486E+02 0.  0.
         12    1    1    2    0    0  0.11625649944E+01  0.58775480103E+01  0.17742072492E+02  0.18726405535E+02  0.00000000000E+00 0. -1.
         11    1    3    3    0    0 -0.13529063487E+02  0.63679309708E+01  0.75610810987E+01  0.16755776655E+02  0.51100000000E-03 0. -1.
        -11    1    3    3    0    0  0.16196165384E+02 -0.11801013080E+02  0.84391732305E+01  0.21743949225E+02  0.51100000000E-03 0.  1.
        -12    1    3    3    0    0 -0.38296668912E+01 -0.44446590128E+00 -0.33742326821E+02  0.33961868584E+02  0.00000000000E+00 0.  1.
</event>
<event>
 7    1  0.3020651E-013  0.7246157E+02  0.7816164E-02  0.1226708E+00
        -11   -1    0    0    0    0  0.00000000000E+00  0.00000000000E+00  0.45593999997E+02  0.45594000000E+02  0.51100000000E-03 0.  1.
         11   -1    0    0    0    0 -0.00000000000E+00 -0.00000000000E+00 -0.45593999997E+02  0.45594000000E+02  0.51100000000E-03 0. -1.
    9900012    2    1    2    0    0  0.94264171081E+01  0.15484049591E+02 -0.46974450727E+01  0.72461571578E+02  0.70000001672E+02 0.  0.
         12    1    1    2    0    0 -0.94264171081E+01 -0.15484049591E+02  0.46974450727E+01  0.18726428422E+02  0.00000000000E+00 0. -1.
         11    1    3    3    0    0  0.13809281027E+01  0.90964122495E+01  0.77829810085E+01  0.12050994643E+02  0.51100000000E-03 0. -1.
        -11    1    3    3    0    0 -0.23866089600E+02  0.70150217372E+00  0.37348356576E+01  0.24166740280E+02  0.51100000000E-03 0.  1.
         12    1    3    3    0    0  0.31911578606E+02  0.56861351680E+01 -0.16215261739E+02  0.36243836655E+02  0.00000000000E+00 0. -1.
</event>
<event>
 7    1  0.3020651E-013  0.7246156E+02  0.7816164E-02  0.1226708E+00
        -11   -1    0    0    0    0  0.00000000000E+00  0.00000000000E+00  0.45593999997E+02  0.45594000000E+02  0.51100000000E-03 0. -1.
         11   -1    0    0    0    0 -0.00000000000E+00 -0.00000000000E+00 -0.45593999997E+02  0.45594000000E+02  0.51100000000E-03 0.  1.
    9900012    2    1    2    0    0  0.48888914778E+01  0.12285967878E+01 -0.18035215946E+02  0.72461555485E+02  0.69999980708E+02 0.  0.
         12    1    1    2    0    0 -0.48888914778E+01 -0.12285967878E+01  0.18035215946E+02  0.18726444515E+02  0.00000000000E+00 0. -1.
         11    1    3    3    0    0  0.18455353212E+02  0.63565996377E+01  0.19160304391E+01  0.19613199485E+02  0.51100000000E-03 0. -1.
        -11    1    3    3    0    0 -0.59779203879E+01 -0.24377395442E+02 -0.15318125996E+01  0.25146359395E+02  0.51100000000E-03 0.  1.
        -12    1    3    3    0    0 -0.75885413461E+01  0.19249392593E+02 -0.18419433786E+02  0.27701996605E+02  0.00000000000E+00 0.  1.
</event>
<event>
 7    1  0.3020651E-013  0.7246160E+02  0.7816164E-02  0.1226708E+00
        -11   -1    0    0    0    0  0.00000000000E+00  0.00000000000E+00  0.45593999997E+02  0.45594000000E+02  0.51100000000E-03 0.  1.
         11   -1    0    0    0    0 -0.00000000000E+00 -0.00000000000E+00 -0.45593999997E+02  0.45594000000E+02  0.51100000000E-03 0. -1.
    9900012    2    1    2    0    0  0.85976777886E+01 -0.11094119597E+02  0.12396719724E+02  0.72461595836E+02  0.70000033273E+02 0.  0.
         12    1    1    2    0    0 -0.85976777886E+01  0.11094119597E+02 -0.12396719724E+02  0.18726404164E+02  0.00000000000E+00 0. -1.
         11    1    3    3    0    0  0.34187781026E+01  0.52497952993E+01 -0.13712628605E+02  0.15075960265E+02  0.51100000000E-03 0. -1.
        -11    1    3    3    0    0  0.19371157246E+02  0.84974153047E+01  0.17655984708E+02  0.27553250193E+02  0.51100000000E-03 0.  1.
         12    1    3    3    0    0 -0.14192257560E+02 -0.24841330201E+02  0.84533636201E+01  0.29832385378E+02  0.00000000000E+00 0. -1.
</event>
<event>
 7    1  0.3020651E-013  0.7246162E+02  0.7816164E-02  0.1226708E+00
        -11   -1    0    0    0    0  0.00000000000E+00  0.00000000000E+00  0.45593999997E+02  0.45594000000E+02  0.51100000000E-03 0. -1.
         11   -1    0    0    0    0 -0.00000000000E+00 -0.00000000000E+00 -0.45593999997E+02  0.45594000000E+02  0.51100000000E-03 0.  1.
    9900012    2    1    2    0    0 -0.18062780974E+02 -0.45729487106E+01 -0.18711941748E+01  0.72461620637E+02  0.70000065581E+02 0.  0.
         12    1    1    2    0    0  0.18062780974E+02  0.45729487106E+01  0.18711941748E+01  0.18726379363E+02  0.00000000000E+00 0. -1.
         11    1    3    3    0    0 -0.29424462954E+02  0.59128953467E+01 -0.23515998655E+01  0.30104673619E+02  0.51100000000E-03 0. -1.
        -11    1    3    3    0    0  0.11780475849E+02  0.11487643996E+02 -0.86132757676E+01  0.18572401447E+02  0.51100000000E-03 0.  1.
        -12    1    3    3    0    0 -0.41879386881E+00 -0.21973488054E+02  0.90936814584E+01  0.23784545571E+02  0.00000000000E+00 0.  1.
</event>
<event>
 7    1  0.3020651E-013  0.7246155E+02  0.7816164E-02  0.1226708E+00
        -11   -1    0    0    0    0  0.00000000000E+00  0.00000000000E+00  0.45593999997E+02  0.45594000000E+02  0.51100000000E-03 0.  1.
         11   -1    0    0    0    0 -0.00000000000E+00 -0.00000000000E+00 -0.45593999997E+02  0.45594000000E+02  0.51100000000E-03 0. -1.
    9900012    2    1    2    0    0 -0.15275697309E+01  0.11842068394E+02  0.14426083834E+02  0.72461549511E+02  0.69999972926E+02 0.  0.
         12    1    1    2    0    0  0.15275697309E+01 -0.11842068394E+02 -0.14426083834E+02  0.18726450489E+02  0.00000000000E+00 0. -1.
         11    1    3    3    0    0  0.20404363443E+02  0.90395959269E+01  0.20749880520E+01  0.22413342404E+02  0.51100000000E-03 0.  1.
        -11    1    3    3    0    0  0.77735739275E+01 -0.12170462374E+02 -0.33642381296E+00  0.14445130226E+02  0.51100000000E-03 0. -1.
        -12    1    3    3    0    0 -0.29705507101E+02  0.14972934842E+02  0.12687519595E+02  0.35603076881E+02  0.00000000000E+00 0.  1.
</event>
<event>
 7    1  0.3020651E-013  0.7246143E+02  0.7816164E-02  0.1226708E+00
        -11   -1    0    0    0    0  0.00000000000E+00  0.00000000000E+00  0.45593999997E+02  0.45594000000E+02  0.51100000000E-03 0.  1.
         11   -1    0    0    0    0 -0.00000000000E+00 -0.00000000000E+00 -0.45593999997E+02  0.45594000000E+02  0.51100000000E-03 0. -1.
    9900012    2    1    2    0    0  0.74527627254E+01 -0.14259488790E+01  0.17120381206E+02  0.72461429169E+02  0.69999816158E+02 0.  0.
         12    1    1    2    0    0 -0.74527627254E+01  0.14259488790E+01 -0.17120381206E+02  0.18726570831E+02  0.00000000000E+00 0. -1.
         11    1    3    3    0    0  0.11263798115E+02 -0.56766645379E+01  0.10058694523E+02  0.16133040755E+02  0.51100000000E-03 0. -1.
        -11    1    3    3    0    0 -0.22544066800E+01  0.10157257662E+02  0.30438045246E+02  0.32167170086E+02  0.51100000000E-03 0.  1.
         12    1    3    3    0    0 -0.15566287094E+01 -0.59065420033E+01 -0.23376358563E+02  0.24161218327E+02  0.00000000000E+00 0. -1.
</event>
<event>
 7    1  0.3020651E-013  0.7246130E+02  0.7816164E-02  0.1226709E+00
        -11   -1    0    0    0    0  0.00000000000E+00  0.00000000000E+00  0.45593999997E+02  0.45594000000E+02  0.51100000000E-03 0.  1.
         11   -1    0    0    0    0 -0.00000000000E+00 -0.00000000000E+00 -0.45593999997E+02  0.45594000000E+02  0.51100000000E-03 0. -1.
    9900012    2    1    2    0    0 -0.50555707500E+01  0.18031338735E+02 -0.37124069479E-01  0.72461298465E+02  0.69999645890E+02 0.  0.
         12    1    1    2    0    0  0.50555707500E+01 -0.18031338735E+02  0.37124069479E-01  0.18726701535E+02  0.00000000000E+00 0. -1.
         11    1    3    3    0    0  0.10100301150E+02  0.96164678159E+01  0.22385268967E+01  0.14124572189E+02  0.51100000000E-03 0. -1.
        -11    1    3    3    0    0 -0.28522496872E+02  0.17860328406E+02 -0.15731535857E+02  0.37148423644E+02  0.51100000000E-03 0.  1.
         12    1    3    3    0    0  0.13366624971E+02 -0.94454574860E+01  0.13455884891E+02  0.21188302632E+02  0.00000000000E+00 0. -1.
</event>
<event>
 7    1  0.3020651E-013  0.7246157E+02  0.7816164E-02  0.1226708E+00
        -11   -1    0    0    0    0  0.00000000000E+00  0.00000000000E+00  0.45593999997E+02  0.45594000000E+02  0.51100000000E-03 0.  1.
         11   -1    0    0    0    0 -0.00000000000E+00 -0.00000000000E+00 -0.45593999997E+02  0.45594000000E+02  0.51100000000E-03 0. -1.
    9900012    2    1    2    0    0 -0.83541832858E+01  0.56003187783E+01  0.15796303333E+02  0.72461570875E+02  0.70000000756E+02 0.  0.
         12    1    1    2    0    0  0.83541832858E+01 -0.56003187783E+01 -0.15796303333E+02  0.18726429125E+02  0.00000000000E+00 0. -1.
         11    1    3    3    0    0 -0.50313631136E+01 -0.24552683185E+02  0.37647107334E+00  0.25065725545E+02  0.51100000000E-03 0. -1.
        -11    1    3    3    0    0 -0.36591322880E+01 -0.55087503196E+01 -0.29938187360E+01  0.72593753223E+01  0.51100000000E-03 0.  1.
        -12    1    3    3    0    0  0.33631211585E+00  0.35661752283E+02  0.18413650996E+02  0.40136470008E+02  0.00000000000E+00 0.  1.
</event>
<event>
 7    1  0.3020651E-013  0.7246161E+02  0.7816164E-02  0.1226708E+00
        -11   -1    0    0    0    0  0.00000000000E+00  0.00000000000E+00  0.45593999997E+02  0.45594000000E+02  0.51100000000E-03 0. -1.
         11   -1    0    0    0    0 -0.00000000000E+00 -0.00000000000E+00 -0.45593999997E+02  0.45594000000E+02  0.51100000000E-03 0.  1.
    9900012    2    1    2    0    0  0.14950233646E+02 -0.70474818833E+01 -0.88034700007E+01  0.72461612974E+02  0.70000055599E+02 0.  0.
         12    1    1    2    0    0 -0.14950233646E+02  0.70474818833E+01  0.88034700007E+01  0.18726387026E+02  0.00000000000E+00 0. -1.
         11    1    3    3    0    0 -0.18519373183E+02  0.10433611926E+02  0.96828006863E+01  0.23357741121E+02  0.51100000000E-03 0. -1.
        -11    1    3    3    0    0  0.83194380131E+01 -0.14384847416E+02 -0.16920007888E+02  0.23715470715E+02  0.51100000000E-03 0.  1.
        -12    1    3    3    0    0  0.25150168816E+02 -0.30962463930E+01 -0.15662627994E+01  0.25388401139E+02  0.00000000000E+00 0.  1.
</event>
<event>
 7    1  0.3020651E-013  0.7246159E+02  0.7816164E-02  0.1226708E+00
        -11   -1    0    0    0    0  0.00000000000E+00  0.00000000000E+00  0.45593999997E+02  0.45594000000E+02  0.51100000000E-03 0.  1.
         11   -1    0    0    0    0 -0.00000000000E+00 -0.00000000000E+00 -0.45593999997E+02  0.45594000000E+02  0.51100000000E-03 0. -1.
    9900012    2    1    2    0    0 -0.10468558273E+02  0.10034413640E+02  0.11848981932E+02  0.72461587043E+02  0.70000021818E+02 0.  0.
         12    1    1    2    0    0  0.10468558273E+02 -0.10034413640E+02 -0.11848981932E+02  0.18726412957E+02  0.00000000000E+00 0. -1.
         11    1    3    3    0    0  0.35666771806E+01  0.32614291916E+01 -0.45423793449E+01  0.66325950319E+01  0.51100000000E-03 0. -1.
        -11    1    3    3    0    0  0.16944658879E+00  0.31967287126E+02  0.18314573431E+02  0.36842363640E+02  0.51100000000E-03 0.  1.
        -12    1    3    3    0    0 -0.14204682043E+02 -0.25194302678E+02 -0.19232121547E+01  0.28986628371E+02  0.00000000000E+00 0.  1.
</event>
<event>
 7    1  0.3020651E-013  0.7246154E+02  0.7816164E-02  0.1226708E+00
        -11   -1    0    0    0    0  0.00000000000E+00  0.00000000000E+00  0.45593999997E+02  0.45594000000E+02  0.51100000000E-03 0. -1.
         11   -1    0    0    0    0 -0.00000000000E+00 -0.00000000000E+00 -0.45593999997E+02  0.45594000000E+02  0.51100000000E-03 0.  1.
    9900012    2    1    2    0    0  0.17671133222E+01 -0.72627380854E+00 -0.18628741266E+02  0.72461543734E+02  0.69999965400E+02 0.  0.
         12    1    1    2    0    0 -0.17671133222E+01  0.72627380854E+00  0.18628741266E+02  0.18726456266E+02  0.00000000000E+00 0. -1.
         11    1    3    3    0    0  0.95119638658E+00 -0.30086387097E+02  0.28195623698E+01  0.30233183679E+02  0.51100000000E-03 0. -1.
        -11    1    3    3    0    0 -0.21968656625E+01  0.29098635043E+01 -0.14167874553E+02  0.14629497392E+02  0.51100000000E-03 0.  1.
        -12    1    3    3    0    0  0.30127825982E+01  0.26450249784E+02 -0.72804290834E+01  0.27598862663E+02  0.00000000000E+00 0.  1.
</event>
<event>
 7    1  0.3020651E-013  0.7246157E+02  0.7816164E-02  0.1226708E+00
        -11   -1    0    0    0    0  0.00000000000E+00  0.00000000000E+00  0.45593999997E+02  0.45594000000E+02  0.51100000000E-03 0.  1.
         11   -1    0    0    0    0 -0.00000000000E+00 -0.00000000000E+00 -0.45593999997E+02  0.45594000000E+02  0.51100000000E-03 0. -1.
    9900012    2    1    2    0    0  0.78741180712E+01 -0.40088817345E+01  0.16510792717E+02  0.72461570968E+02  0.70000000877E+02 0.  0.
         12    1    1    2    0    0 -0.78741180712E+01  0.40088817345E+01 -0.16510792717E+02  0.18726429032E+02  0.00000000000E+00 0. -1.
         11    1    3    3    0    0 -0.25254923865E+02 -0.98429023349E+01  0.12421353560E+02  0.29815833551E+02  0.51100000000E-03 0. -1.
        -11    1    3    3    0    0  0.15901441151E+02 -0.95576047400E+01 -0.22532808578E+01  0.18689058669E+02  0.51100000000E-03 0.  1.
        -12    1    3    3    0    0  0.17227600786E+02  0.15391625340E+02  0.63427200143E+01  0.23956678748E+02  0.00000000000E+00 0.  1.
</event>
<event>
 7    1  0.3020651E-013  0.7246158E+02  0.7816164E-02  0.1226708E+00
        -11   -1    0    0    0    0  0.00000000000E+00  0.00000000000E+00  0.45593999997E+02  0.45594000000E+02  0.51100000000E-03 0.  1.
         11   -1    0    0    0    0 -0.00000000000E+00 -0.00000000000E+00 -0.45593999997E+02  0.45594000000E+02  0.51100000000E-03 0. -1.
    9900012    2    1    2    0    0  0.12729950884E+02 -0.13703762289E+02 -0.91318628268E+00  0.72461583911E+02  0.70000017738E+02 0.  0.
         12    1    1    2    0    0 -0.12729950884E+02  0.13703762289E+02  0.91318628268E+00  0.18726416089E+02  0.00000000000E+00 0. -1.
         11    1    3    3    0    0  0.17867825170E+02 -0.21836971673E+02 -0.73283520912E+01  0.29151625217E+02  0.51100000000E-03 0.  1.
        -11    1    3    3    0    0  0.12519571753E+02 -0.10550750694E+02  0.64642664795E+01  0.17602407746E+02  0.51100000000E-03 0. -1.
        -12    1    3    3    0    0 -0.17657446040E+02  0.18683960078E+02 -0.49100671045E-01  0.25707550948E+02  0.00000000000E+00 0.  1.
</event>
<event>
 7    1  0.3020651E-013  0.7246163E+02  0.7816164E-02  0.1226708E+00
        -11   -1    0    0    0    0  0.00000000000E+00  0.00000000000E+00  0.45593999997E+02  0.45594000000E+02  0.51100000000E-03 0.  1.
         11   -1    0    0    0    0 -0.00000000000E+00 -0.00000000000E+00 -0.45593999997E+02  0.45594000000E+02  0.51100000000E-03 0. -1.
    9900012    2    1    2    0    0 -0.62212905651E+01 -0.15419201648E+02 -0.86151443899E+01  0.72461629593E+02  0.70000077247E+02 0.  0.
         12    1    1    2    0    0  0.62212905651E+01  0.15419201648E+02  0.86151443899E+01  0.18726370407E+02  0.00000000000E+00 0. -1.
         11    1    3    3    0    0 -0.36870523703E+01 -0.46429707561E+01 -0.66802300268E+01  0.89317974729E+01  0.51100000000E-03 0. -1.
        -11    1    3    3    0    0 -0.11596667578E+02 -0.21697179396E+02  0.23743596248E+02  0.34190768574E+02  0.51100000000E-03 0.  1.
         12    1    3    3    0    0  0.90624293830E+01  0.10920948504E+02 -0.25678510611E+02  0.29339063546E+02  0.00000000000E+00 0. -1.
</event>
<event>
 7    1  0.3020651E-013  0.7246158E+02  0.7816164E-02  0.1226708E+00
        -11   -1    0    0    0    0  0.00000000000E+00  0.00000000000E+00  0.45593999997E+02  0.45594000000E+02  0.51100000000E-03 0.  1.
         11   -1    0    0    0    0 -0.00000000000E+00 -0.00000000000E+00 -0.45593999997E+02  0.45594000000E+02  0.51100000000E-03 0. -1.
    9900012    2    1    2    0    0 -0.46229527416E+01 -0.10849412081E+02  0.14546391998E+02  0.72461576030E+02  0.70000007471E+02 0.  0.
         12    1    1    2    0    0  0.46229527416E+01  0.10849412081E+02 -0.14546391998E+02  0.18726423970E+02  0.00000000000E+00 0. -1.
         11    1    3    3    0    0 -0.37529116926E+01 -0.15023085326E+02  0.26007619454E+02  0.30268361515E+02  0.51100000000E-03 0. -1.
        -11    1    3    3    0    0 -0.17624157632E+02  0.45152566649E+01  0.48281683702E+01  0.18823115711E+02  0.51100000000E-03 0.  1.
         12    1    3    3    0    0  0.16754116583E+02 -0.34158341980E+00 -0.16289395826E+02  0.23370098804E+02  0.00000000000E+00 0. -1.
</event>
<event>
 7    1  0.3020651E-013  0.7246150E+02  0.7816164E-02  0.1226708E+00
        -11   -1    0    0    0    0  0.00000000000E+00  0.00000000000E+00  0.45593999997E+02  0.45594000000E+02  0.51100000000E-03 0. -1.
         11   -1    0    0    0    0 -0.00000000000E+00 -0.00000000000E+00 -0.45593999997E+02  0.45594000000E+02  0.51100000000E-03 0.  1.
    9900012    2    1    2    0    0  0.16404605566E+02 -0.80219105171E+01 -0.41496751958E+01  0.72461496420E+02  0.69999903764E+02 0.  0.
         12    1    1    2    0    0 -0.16404605566E+02  0.80219105171E+01  0.41496751958E+01  0.18726503580E+02  0.00000000000E+00 0. -1.
         11    1    3    3    0    0  0.15318013069E+01  0.28677222209E+02  0.24491953511E+01  0.28822353253E+02  0.51100000000E-03 0. -1.
        -11    1    3    3    0    0 -0.12797234479E+00 -0.85312099388E+01  0.47533688155E+01  0.97669051034E+01  0.51100000000E-03 0.  1.
        -12    1    3    3    0    0  0.15000776604E+02 -0.28167922788E+02 -0.11352239362E+02  0.33872238064E+02  0.00000000000E+00 0.  1.
</event>
<event>
 7    1  0.3020651E-013  0.7246158E+02  0.7816164E-02  0.1226708E+00
        -11   -1    0    0    0    0  0.00000000000E+00  0.00000000000E+00  0.45593999997E+02  0.45594000000E+02  0.51100000000E-03 0. -1.
         11   -1    0    0    0    0 -0.00000000000E+00 -0.00000000000E+00 -0.45593999997E+02  0.45594000000E+02  0.51100000000E-03 0.  1.
    9900012    2    1    2    0    0 -0.67080826742E+01  0.15664818259E+02  0.77649116829E+01  0.72461581290E+02  0.70000014324E+02 0.  0.
         12    1    1    2    0    0  0.67080826742E+01 -0.15664818259E+02 -0.77649116829E+01  0.18726418710E+02  0.00000000000E+00 0. -1.
         11    1    3    3    0    0 -0.13063684721E+02  0.37194837608E+01 -0.28805497830E+01  0.13884955356E+02  0.51100000000E-03 0. -1.
        -11    1    3    3    0    0 -0.24489894034E+02 -0.77831333560E-01  0.49175525785E+01  0.24978856882E+02  0.51100000000E-03 0.  1.
         12    1    3    3    0    0  0.30845496080E+02  0.12023165832E+02  0.57279088874E+01  0.33597769052E+02  0.00000000000E+00 0. -1.
</event>
<event>
 7    1  0.3020651E-013  0.7246160E+02  0.7816164E-02  0.1226708E+00
        -11   -1    0    0    0    0  0.00000000000E+00  0.00000000000E+00  0.45593999997E+02  0.45594000000E+02  0.51100000000E-03 0. -1.
         11   -1    0    0    0    0 -0.00000000000E+00 -0.00000000000E+00 -0.45593999997E+02  0.45594000000E+02  0.51100000000E-03 0.  1.
    9900012    2    1    2    0    0  0.10376658388E+02  0.37478459407E+01 -0.15131314304E+02  0.72461599890E+02  0.70000038554E+02 0.  0.
         12    1    1    2    0    0 -0.10376658388E+02 -0.37478459407E+01  0.15131314304E+02  0.18726400110E+02  0.00000000000E+00 0. -1.
         11    1    3    3    0    0  0.44342075165E+01 -0.11777622988E+02 -0.20710298812E+02  0.24234089145E+02  0.51100000000E-03 0. -1.
        -11    1    3    3    0    0  0.16558177228E+01 -0.13574980690E+02 -0.79851744762E+01  0.15836187823E+02  0.51100000000E-03 0.  1.
        -12    1    3    3    0    0  0.42866331485E+01  0.29100449619E+02  0.13564158984E+02  0.32391322923E+02  0.00000000000E+00 0.  1.
</event>
<event>
 7    1  0.3020651E-013  0.7246163E+02  0.7816164E-02  0.1226708E+00
        -11   -1    0    0    0    0  0.00000000000E+00  0.00000000000E+00  0.45593999997E+02  0.45594000000E+02  0.51100000000E-03 0.  1.
         11   -1    0    0    0    0 -0.00000000000E+00 -0.00000000000E+00 -0.45593999997E+02  0.45594000000E+02  0.51100000000E-03 0. -1.
    9900012    2    1    2    0    0  0.11910747119E+02 -0.14348070640E+02 -0.17157317690E+01  0.72461634535E+02  0.70000083685E+02 0.  0.
         12    1    1    2    0    0 -0.11910747119E+02  0.14348070640E+02  0.17157317690E+01  0.18726365465E+02  0.00000000000E+00 0. -1.
         11    1    3    3    0    0 -0.57952756191E+01 -0.18692432024E+01 -0.63869139497E+01  0.88245090352E+01  0.51100000000E-03 0. -1.
        -11    1    3    3    0    0 -0.77555154176E+01 -0.26137249490E+02 -0.12536263819E+02  0.30007694698E+02  0.51100000000E-03 0.  1.
         12    1    3    3    0    0  0.25461538156E+02  0.13658422052E+02  0.17207446000E+02  0.33629430802E+02  0.00000000000E+00 0. -1.
</event>
<event>
 7    1  0.3934522E-013  0.7246156E+02  0.7816164E-02  0.1226708E+00
        -11   -1    0    0    0    0  0.00000000000E+00  0.00000000000E+00  0.45593999997E+02  0.45594000000E+02  0.51100000000E-03 0. -1.
         11   -1    0    0    0    0 -0.00000000000E+00 -0.00000000000E+00 -0.45593999997E+02  0.45594000000E+02  0.51100000000E-03 0.  1.
    9900012    2    1    2    0    0  0.10706460430E+02  0.41137589111E-01 -0.15363903913E+02  0.72461560651E+02  0.69999987438E+02 0.  0.
         12    1    1    2    0    0 -0.10706460430E+02 -0.41137589111E-01  0.15363903913E+02  0.18726439349E+02  0.00000000000E+00 0. -1.
         11    1    3    3    0    0  0.15242081450E+02 -0.98246862685E+01  0.20806671014E+02  0.27600055546E+02  0.51100000000E-03 0. -1.
        -11    1    3    3    0    0  0.37762741327E+01 -0.67861674072E+01 -0.84922196640E+01  0.11507828183E+02  0.51100000000E-03 0.  1.
        -12    1    3    3    0    0 -0.83118951530E+01  0.16651991265E+02 -0.27678355263E+02  0.33353676922E+02  0.00000000000E+00 0.  1.
</event>
<event>
 7    1  0.3020651E-013  0.7246156E+02  0.7816164E-02  0.1226708E+00
        -11   -1    0    0    0    0  0.00000000000E+00  0.00000000000E+00  0.45593999997E+02  0.45594000000E+02  0.51100000000E-03 0.  1.
         11   -1    0    0    0    0 -0.00000000000E+00 -0.00000000000E+00 -0.45593999997E+02  0.45594000000E+02  0.51100000000E-03 0. -1.
    9900012    2    1    2    0    0 -0.86432689045E+01 -0.76903285470E+01  0.14725222800E+02  0.72461563151E+02  0.69999990695E+02 0.  0.
         12    1    1    2    0    0  0.86432689045E+01  0.76903285470E+01 -0.14725222800E+02  0.18726436849E+02  0.00000000000E+00 0. -1.
         11    1    3    3    0    0  0.27246514504E+01 -0.27480850616E+02  0.16885142341E+02  0.32368640816E+02  0.51100000000E-03 0. -1.
        -11    1    3    3    0    0  0.49992409130E+01 -0.53104403296E+01  0.55340335157E+01  0.91552560540E+01  0.51100000000E-03 0.  1.
        -12    1    3    3    0    0 -0.16367161268E+02  0.25100962399E+02 -0.76939530562E+01  0.30937666282E+02  0.00000000000E+00 0.  1.
</event>
<event>
 7    1  0.3020651E-013  0.7246156E+02  0.7816164E-02  0.1226708E+00
        -11   -1    0    0    0    0  0.00000000000E+00  0.00000000000E+00  0.45593999997E+02  0.45594000000E+02  0.51100000000E-03 0.  1.
         11   -1    0    0    0    0 -0.00000000000E+00 -0.00000000000E+00 -0.45593999997E+02  0.45594000000E+02  0.51100000000E-03 0. -1.
    9900012    2    1    2    0    0  0.12222013993E+02  0.11485510933E+02  0.83297738039E+01  0.72461555622E+02  0.69999980886E+02 0.  0.
         12    1    1    2    0    0 -0.12222013993E+02 -0.11485510933E+02 -0.83297738039E+01  0.18726444378E+02  0.00000000000E+00 0. -1.
         11    1    3    3    0    0  0.53413203261E+01  0.39268920677E+01  0.17454405664E+01  0.68554173592E+01  0.51100000000E-03 0. -1.
        -11    1    3    3    0    0  0.35271498726E+02  0.97927753059E+01  0.61864768164E+01  0.37124783719E+02  0.51100000000E-03 0.  1.
         12    1    3    3    0    0 -0.28390805059E+02 -0.22341564407E+01  0.39785642109E+00  0.28481354543E+02  0.00000000000E+00 0. -1.
</event>
<event>
 7    1  0.3020651E-013  0.7246155E+02  0.7816164E-02  0.1226708E+00
        -11   -1    0    0    0    0  0.00000000000E+00  0.00000000000E+00  0.45593999997E+02  0.45594000000E+02  0.51100000000E-03 0.  1.
         11   -1    0    0    0    0 -0.00000000000E+00 -0.00000000000E+00 -0.45593999997E+02  0.45594000000E+02  0.51100000000E-03 0. -1.
    9900012    2    1    2    0    0 -0.63689791513E+01 -0.49645482652E+01  0.16895836094E+02  0.72461550464E+02  0.69999974168E+02 0.  0.
         12    1    1    2    0    0  0.63689791513E+01  0.49645482652E+01 -0.16895836094E+02  0.18726449536E+02  0.00000000000E+00 0. -1.
         11    1    3    3    0    0 -0.71545072216E+01  0.46114303426E+01 -0.26172474631E+01  0.89051809601E+01  0.51100000000E-03 0. -1.
        -11    1    3    3    0    0  0.74482035932E+01  0.13816681666E+02  0.32420811075E+02  0.36020624926E+02  0.51100000000E-03 0.  1.
         12    1    3    3    0    0 -0.66626755229E+01 -0.23392660274E+02 -0.12907727518E+02  0.27535744578E+02  0.00000000000E+00 0. -1.
</event>
<event>
 7    1  0.3020651E-013  0.7246158E+02  0.7816164E-02  0.1226708E+00
        -11   -1    0    0    0    0  0.00000000000E+00  0.00000000000E+00  0.45593999997E+02  0.45594000000E+02  0.51100000000E-03 0. -1.
         11   -1    0    0    0    0 -0.00000000000E+00 -0.00000000000E+00 -0.45593999997E+02  0.45594000000E+02  0.51100000000E-03 0.  1.
    9900012    2    1    2    0    0  0.15232508415E+02  0.12731713618E+01  0.10817973136E+02  0.72461579609E+02  0.70000012133E+02 0.  0.
         12    1    1    2    0    0 -0.15232508415E+02 -0.12731713618E+01 -0.10817973136E+02  0.18726420391E+02  0.00000000000E+00 0. -1.
         11    1    3    3    0    0  0.54728108691E+01 -0.19401320104E+02  0.47053042076E+01  0.20700308416E+02  0.51100000000E-03 0. -1.
        -11    1    3    3    0    0 -0.76725237231E+01 -0.61691751303E+01 -0.11572015723E+02  0.15193350197E+02  0.51100000000E-03 0.  1.
         12    1    3    3    0    0  0.17432221269E+02  0.26843666596E+02  0.17684684651E+02  0.36567920995E+02  0.00000000000E+00 0. -1.
</event>
<event>
 7    1  0.3020651E-013  0.7246158E+02  0.7816164E-02  0.1226708E+00
        -11   -1    0    0    0    0  0.00000000000E+00  0.00000000000E+00  0.45593999997E+02  0.45594000000E+02  0.51100000000E-03 0.  1.
         11   -1    0    0    0    0 -0.00000000000E+00 -0.00000000000E+00 -0.45593999997E+02  0.45594000000E+02  0.51100000000E-03 0. -1.
    9900012    2    1    2    0    0  0.41883602634E+01 -0.10949738089E+02  0.14602723598E+02  0.72461583835E+02  0.70000017639E+02 0.  0.
         12    1    1    2    0    0 -0.41883602634E+01  0.10949738089E+02 -0.14602723598E+02  0.18726416165E+02  0.00000000000E+00 0. -1.
         11    1    3    3    0    0  0.34194820095E+01  0.14889498755E+01 -0.12872386149E+02  0.13401796684E+02  0.51100000000E-03 0. -1.
        -11    1    3    3    0    0 -0.80596987346E+01 -0.25214428872E+02 -0.11471185152E+01  0.26496076090E+02  0.51100000000E-03 0.  1.
        -12    1    3    3    0    0  0.88285769885E+01  0.12775740908E+02  0.28622228262E+02  0.32563711061E+02  0.00000000000E+00 0.  1.
</event>
<event>
 7    1  0.3020651E-013  0.7246157E+02  0.7816164E-02  0.1226708E+00
        -11   -1    0    0    0    0  0.00000000000E+00  0.00000000000E+00  0.45593999997E+02  0.45594000000E+02  0.51100000000E-03 0. -1.
         11   -1    0    0    0    0 -0.00000000000E+00 -0.00000000000E+00 -0.45593999997E+02  0.45594000000E+02  0.51100000000E-03 0.  1.
    9900012    2    1    2    0    0 -0.23563795150E+01  0.18062568165E+02 -0.43439907006E+01  0.72461570860E+02  0.70000000737E+02 0.  0.
         12    1    1    2    0    0  0.23563795150E+01 -0.18062568165E+02  0.43439907006E+01  0.18726429140E+02  0.00000000000E+00 0. -1.
         11    1    3    3    0    0  0.11658282444E+01  0.39996881038E+01 -0.10622559152E+01  0.42994241840E+01  0.51100000000E-03 0. -1.
        -11    1    3    3    0    0 -0.18228081706E+02  0.14362459812E+02 -0.29840619107E+02  0.37802192575E+02  0.51100000000E-03 0.  1.
         12    1    3    3    0    0  0.14705873947E+02 -0.29957975085E+00  0.26558884322E+02  0.30359954101E+02  0.00000000000E+00 0. -1.
</event>
<event>
 7    1  0.3020651E-013  0.7246164E+02  0.7816164E-02  0.1226708E+00
        -11   -1    0    0    0    0  0.00000000000E+00  0.00000000000E+00  0.45593999997E+02  0.45594000000E+02  0.51100000000E-03 0. -1.
         11   -1    0    0    0    0 -0.00000000000E+00 -0.00000000000E+00 -0.45593999997E+02  0.45594000000E+02  0.51100000000E-03 0.  1.
    9900012    2    1    2    0    0  0.61811112165E+01  0.15355736658E+02 -0.87562505662E+01  0.72461636013E+02  0.70000085611E+02 0.  0.
         12    1    1    2    0    0 -0.61811112165E+01 -0.15355736658E+02  0.87562505662E+01  0.18726363987E+02  0.00000000000E+00 0. -1.
         11    1    3    3    0    0 -0.11096364221E+02  0.12753353687E+02 -0.67283237840E+01  0.18194715453E+02  0.51100000000E-03 0. -1.
        -11    1    3    3    0    0 -0.31286614432E+01  0.23652157217E+02  0.43815243405E+01  0.24257180777E+02  0.51100000000E-03 0.  1.
         12    1    3    3    0    0  0.20406136881E+02 -0.21049774246E+02 -0.64094511227E+01  0.30009739784E+02  0.00000000000E+00 0. -1.
</event>
<event>
 7    1  0.3020651E-013  0.7246156E+02  0.7816164E-02  0.1226708E+00
        -11   -1    0    0    0    0  0.00000000000E+00  0.00000000000E+00  0.45593999997E+02  0.45594000000E+02  0.51100000000E-03 0.  1.
         11   -1    0    0    0    0 -0.00000000000E+00 -0.00000000000E+00 -0.45593999997E+02  0.45594000000E+02  0.51100000000E-03 0. -1.
    9900012    2    1    2    0    0 -0.13575490636E+02 -0.73347764032E+01  0.10610694934E+02  0.72461555119E+02  0.69999980231E+02 0.  0.
         12    1    1    2    0    0  0.13575490636E+02  0.73347764032E+01 -0.10610694934E+02  0.18726444881E+02  0.00000000000E+00 0. -1.
         11    1    3    3    0    0 -0.13229013847E+02 -0.15388998021E+02 -0.11846572493E+02  0.23498283928E+02  0.51100000000E-03 0.  1.
        -11    1    3    3    0    0  0.12280448864E+02  0.79880211719E+01 -0.74967265162E+01  0.16456573618E+02  0.51100000000E-03 0. -1.
        -12    1    3    3    0    0 -0.12626925653E+02  0.66200445646E-01  0.29953993943E+02  0.32506697573E+02  0.00000000000E+00 0.  1.
</event>
<event>
 7    1  0.3020651E-013  0.7246147E+02  0.7816164E-02  0.1226708E+00
        -11   -1    0    0    0    0  0.00000000000E+00  0.00000000000E+00  0.45593999997E+02  0.45594000000E+02  0.51100000000E-03 0.  1.
         11   -1    0    0    0    0 -0.00000000000E+00 -0.00000000000E+00 -0.45593999997E+02  0.45594000000E+02  0.51100000000E-03 0. -1.
    9900012    2    1    2    0    0  0.61437948390E+01  0.16342337757E+02 -0.67723616079E+01  0.72461465346E+02  0.69999863285E+02 0.  0.
         12    1    1    2    0    0 -0.61437948390E+01 -0.16342337757E+02  0.67723616079E+01  0.18726534654E+02  0.00000000000E+00 0. -1.
         11    1    3    3    0    0 -0.40935356404E+01  0.12500168179E+02  0.10903178247E+02  0.17084804204E+02  0.51100000000E-03 0. -1.
        -11    1    3    3    0    0 -0.92629544661E+01 -0.67830480491E+01 -0.28460662881E+02  0.30689108787E+02  0.51100000000E-03 0.  1.
         12    1    3    3    0    0  0.19500284946E+02  0.10625217627E+02  0.10785123026E+02  0.24687552355E+02  0.00000000000E+00 0. -1.
</event>
<event>
 7    1  0.3020651E-013  0.7246160E+02  0.7816164E-02  0.1226708E+00
        -11   -1    0    0    0    0  0.00000000000E+00  0.00000000000E+00  0.45593999997E+02  0.45594000000E+02  0.51100000000E-03 0.  1.
         11   -1    0    0    0    0 -0.00000000000E+00 -0.00000000000E+00 -0.45593999997E+02  0.45594000000E+02  0.51100000000E-03 0. -1.
    9900012    2    1    2    0    0  0.13601742800E+02  0.12753750519E+02 -0.17356802946E+01  0.72461597634E+02  0.70000035615E+02 0.  0.
         12    1    1    2    0    0 -0.13601742800E+02 -0.12753750519E+02  0.17356802946E+01  0.18726402366E+02  0.00000000000E+00 0. -1.
         11    1    3    3    0    0 -0.12735029394E+02 -0.79794335148E+01 -0.22169924952E+01  0.15191029882E+02  0.51100000000E-03 0. -1.
        -11    1    3    3    0    0  0.16509226224E+02 -0.13570697785E+02  0.25739225635E+01  0.21525414433E+02  0.51100000000E-03 0.  1.
        -12    1    3    3    0    0  0.98275459708E+01  0.34303881819E+02 -0.20926103629E+01  0.35745153319E+02  0.00000000000E+00 0.  1.
</event>
<event>
 7    1  0.3020651E-013  0.7246167E+02  0.7816164E-02  0.1226708E+00
        -11   -1    0    0    0    0  0.00000000000E+00  0.00000000000E+00  0.45593999997E+02  0.45594000000E+02  0.51100000000E-03 0.  1.
         11   -1    0    0    0    0 -0.00000000000E+00 -0.00000000000E+00 -0.45593999997E+02  0.45594000000E+02  0.51100000000E-03 0. -1.
    9900012    2    1    2    0    0  0.45000475753E+00  0.11832766688E+02  0.14507193834E+02  0.72461667078E+02  0.70000126078E+02 0.  0.
         12    1    1    2    0    0 -0.45000475753E+00 -0.11832766688E+02 -0.14507193834E+02  0.18726332922E+02  0.00000000000E+00 0. -1.
         11    1    3    3    0    0  0.12097638399E+02  0.28500373749E+02  0.16765736884E+02  0.35209573871E+02  0.51100000000E-03 0. -1.
        -11    1    3    3    0    0 -0.10286873720E+02 -0.44520994369E+01  0.13319973311E+02  0.17408694655E+02  0.51100000000E-03 0.  1.
        -12    1    3    3    0    0 -0.13607599216E+01 -0.12215507625E+02 -0.15578516360E+02  0.19843398551E+02  0.00000000000E+00 0.  1.
</event>
<event>
 7    1  0.3020651E-013  0.7246149E+02  0.7816164E-02  0.1226708E+00
        -11   -1    0    0    0    0  0.00000000000E+00  0.00000000000E+00  0.45593999997E+02  0.45594000000E+02  0.51100000000E-03 0.  1.
         11   -1    0    0    0    0 -0.00000000000E+00 -0.00000000000E+00 -0.45593999997E+02  0.45594000000E+02  0.51100000000E-03 0. -1.
    9900012    2    1    2    0    0  0.11734861940E+02  0.14002273926E+02  0.41123577748E+01  0.72461490813E+02  0.69999896461E+02 0.  0.
         12    1    1    2    0    0 -0.11734861940E+02 -0.14002273926E+02 -0.41123577748E+01  0.18726509187E+02  0.00000000000E+00 0. -1.
         11    1    3    3    0    0  0.58203186314E+01  0.19521497158E+02 -0.46831476964E+01  0.20902077238E+02  0.51100000000E-03 0. -1.
        -11    1    3    3    0    0  0.43794332944E+01  0.20978959730E+02  0.12420756080E+02  0.24770372811E+02  0.51100000000E-03 0.  1.
        -12    1    3    3    0    0  0.15351100146E+01 -0.26498182962E+02 -0.36252506088E+01  0.26789040764E+02  0.00000000000E+00 0.  1.
</event>
<event>
 7    1  0.3020651E-013  0.7246158E+02  0.7816164E-02  0.1226708E+00
        -11   -1    0    0    0    0  0.00000000000E+00  0.00000000000E+00  0.45593999997E+02  0.45594000000E+02  0.51100000000E-03 0.  1.
         11   -1    0    0    0    0 -0.00000000000E+00 -0.00000000000E+00 -0.45593999997E+02  0.45594000000E+02  0.51100000000E-03 0. -1.
    9900012    2    1    2    0    0 -0.78063372328E+01 -0.16826662031E+02  0.25696945955E+01  0.72461580524E+02  0.70000013326E+02 0.  0.
         12    1    1    2    0    0  0.78063372328E+01  0.16826662031E+02 -0.25696945955E+01  0.18726419476E+02  0.00000000000E+00 0. -1.
         11    1    3    3    0    0 -0.14607005675E+02 -0.42669469931E+02  0.38429480728E+01  0.45263854555E+02  0.51100000000E-03 0. -1.
        -11    1    3    3    0    0  0.39851093851E+01  0.12607840509E+02  0.17356288205E+01  0.13336084387E+02  0.51100000000E-03 0.  1.
        -12    1    3    3    0    0  0.28155590571E+01  0.13234967391E+02 -0.30088822978E+01  0.13861641581E+02  0.00000000000E+00 0.  1.
</event>
<event>
 7    1  0.3020651E-013  0.7246161E+02  0.7816164E-02  0.1226708E+00
        -11   -1    0    0    0    0  0.00000000000E+00  0.00000000000E+00  0.45593999997E+02  0.45594000000E+02  0.51100000000E-03 0. -1.
         11   -1    0    0    0    0 -0.00000000000E+00 -0.00000000000E+00 -0.45593999997E+02  0.45594000000E+02  0.51100000000E-03 0.  1.
    9900012    2    1    2    0    0  0.18618245577E+01 -0.16493700418E+02  0.86700166029E+01  0.72461608675E+02  0.70000049998E+02 0.  0.
         12    1    1    2    0    0 -0.18618245577E+01  0.16493700418E+02 -0.86700166029E+01  0.18726391325E+02  0.00000000000E+00 0. -1.
         11    1    3    3    0    0  0.18730080814E+02 -0.15762993154E+02 -0.15513553519E+02  0.28982032770E+02  0.51100000000E-03 0. -1.
        -11    1    3    3    0    0 -0.64675770765E+01 -0.82982083452E+01 -0.49542888977E+01  0.11629049562E+02  0.51100000000E-03 0.  1.
         12    1    3    3    0    0 -0.10400679180E+02  0.75675010806E+01  0.29137859020E+02  0.31850526342E+02  0.00000000000E+00 0. -1.
</event>
<event>
 7    1  0.3020651E-013  0.7246162E+02  0.7816164E-02  0.1226708E+00
        -11   -1    0    0    0    0  0.00000000000E+00  0.00000000000E+00  0.45593999997E+02  0.45594000000E+02  0.51100000000E-03 0.  1.
         11   -1    0    0    0    0 -0.00000000000E+00 -0.00000000000E+00 -0.45593999997E+02  0.45594000000E+02  0.51100000000E-03 0. -1.
    9900012    2    1    2    0    0  0.38270028369E+01 -0.18088386553E+02 -0.29734941969E+01  0.72461618968E+02  0.70000063407E+02 0.  0.
         12    1    1    2    0    0 -0.38270028369E+01  0.18088386553E+02  0.29734941969E+01  0.18726381032E+02  0.00000000000E+00 0. -1.
         11    1    3    3    0    0  0.69186051308E+01 -0.17077888373E+02 -0.16522457628E+02  0.24748999466E+02  0.51100000000E-03 0. -1.
        -11    1    3    3    0    0  0.77580478598E+01  0.38279346180E+01  0.27825864507E+02  0.29139648691E+02  0.51100000000E-03 0.  1.
         12    1    3    3    0    0 -0.10849650154E+02 -0.48384327982E+01 -0.14276901076E+02  0.18572970811E+02  0.00000000000E+00 0. -1.
</event>
<event>
 7    1  0.3020651E-013  0.7246162E+02  0.7816164E-02  0.1226708E+00
        -11   -1    0    0    0    0  0.00000000000E+00  0.00000000000E+00  0.45593999997E+02  0.45594000000E+02  0.51100000000E-03 0.  1.
         11   -1    0    0    0    0 -0.00000000000E+00 -0.00000000000E+00 -0.45593999997E+02  0.45594000000E+02  0.51100000000E-03 0. -1.
    9900012    2    1    2    0    0 -0.12487437155E+02  0.12757461501E+02  0.56558420782E+01  0.72461615932E+02  0.70000059451E+02 0.  0.
         12    1    1    2    0    0  0.12487437155E+02 -0.12757461501E+02 -0.56558420782E+01  0.18726384068E+02  0.00000000000E+00 0. -1.
         11    1    3    3    0    0  0.16345960893E+02  0.92806904506E+01  0.10200251994E+02  0.21386135550E+02  0.51100000000E-03 0. -1.
        -11    1    3    3    0    0  0.73949987505E+01 -0.31503696867E+01 -0.11061659007E+02  0.13673738916E+02  0.51100000000E-03 0.  1.
        -12    1    3    3    0    0 -0.36228396799E+02  0.66271407372E+01  0.65172490914E+01  0.37401741466E+02  0.00000000000E+00 0.  1.
</event>
<event>
 7    1  0.3020651E-013  0.7246152E+02  0.7816164E-02  0.1226708E+00
        -11   -1    0    0    0    0  0.00000000000E+00  0.00000000000E+00  0.45593999997E+02  0.45594000000E+02  0.51100000000E-03 0. -1.
         11   -1    0    0    0    0 -0.00000000000E+00 -0.00000000000E+00 -0.45593999997E+02  0.45594000000E+02  0.51100000000E-03 0.  1.
    9900012    2    1    2    0    0 -0.12282312242E+02 -0.13966160949E+02 -0.21845446539E+01  0.72461519257E+02  0.69999933515E+02 0.  0.
         12    1    1    2    0    0  0.12282312242E+02  0.13966160949E+02  0.21845446539E+01  0.18726480743E+02  0.00000000000E+00 0. -1.
         11    1    3    3    0    0 -0.11530554350E+01  0.11980255381E+02 -0.15792989750E+02  0.19856348641E+02  0.51100000000E-03 0. -1.
        -11    1    3    3    0    0 -0.27240628233E+02 -0.16559470753E+02  0.58610683952E+01  0.32413269214E+02  0.51100000000E-03 0.  1.
         12    1    3    3    0    0  0.16111371426E+02 -0.93869455775E+01  0.77473767013E+01  0.20191901402E+02  0.00000000000E+00 0. -1.
</event>
<event>
 7    1  0.3020651E-013  0.7246151E+02  0.7816164E-02  0.1226708E+00
        -11   -1    0    0    0    0  0.00000000000E+00  0.00000000000E+00  0.45593999997E+02  0.45594000000E+02  0.51100000000E-03 0. -1.
         11   -1    0    0    0    0 -0.00000000000E+00 -0.00000000000E+00 -0.45593999997E+02  0.45594000000E+02  0.51100000000E-03 0.  1.
    9900012    2    1    2    0    0 -0.12606101201E+01 -0.20043292140E+01 -0.18576194027E+02  0.72461509191E+02  0.69999920402E+02 0.  0.
         12    1    1    2    0    0  0.12606101201E+01  0.20043292140E+01  0.18576194027E+02  0.18726490809E+02  0.00000000000E+00 0. -1.
         11    1    3    3    0    0 -0.14703144633E+02 -0.26274899337E+02 -0.21040797537E+02  0.36732382969E+02  0.51100000000E-03 0. -1.
        -11    1    3    3    0    0  0.70669977572E+01 -0.26643880082E+01 -0.16913373135E+01  0.77396410077E+01  0.51100000000E-03 0.  1.
        -12    1    3    3    0    0  0.63755367559E+01  0.26934958132E+02  0.41559408236E+01  0.27989485215E+02  0.00000000000E+00 0.  1.
</event>
<event>
 7    1  0.3020651E-013  0.7246163E+02  0.7816164E-02  0.1226708E+00
        -11   -1    0    0    0    0  0.00000000000E+00  0.00000000000E+00  0.45593999997E+02  0.45594000000E+02  0.51100000000E-03 0. -1.
         11   -1    0    0    0    0 -0.00000000000E+00 -0.00000000000E+00 -0.45593999997E+02  0.45594000000E+02  0.51100000000E-03 0.  1.
    9900012    2    1    2    0    0  0.12837948113E+02  0.15705145816E+01 -0.13542438483E+02  0.72461626409E+02  0.70000073100E+02 0.  0.
         12    1    1    2    0    0 -0.12837948113E+02 -0.15705145816E+01  0.13542438483E+02  0.18726373591E+02  0.00000000000E+00 0. -1.
         11    1    3    3    0    0 -0.19015882179E+02 -0.41613133893E+00 -0.15868284094E+02  0.24770534526E+02  0.51100000000E-03 0. -1.
        -11    1    3    3    0    0 -0.78371650860E+01  0.10018197079E+01 -0.24500061420E+00  0.79047343330E+01  0.51100000000E-03 0.  1.
         12    1    3    3    0    0  0.39690995378E+02  0.98482621258E+00  0.25708462251E+01  0.39786357550E+02  0.00000000000E+00 0. -1.
</event>
<event>
 7    1  0.3020651E-013  0.7246125E+02  0.7816164E-02  0.1226709E+00
        -11   -1    0    0    0    0  0.00000000000E+00  0.00000000000E+00  0.45593999997E+02  0.45594000000E+02  0.51100000000E-03 0.  1.
         11   -1    0    0    0    0 -0.00000000000E+00 -0.00000000000E+00 -0.45593999997E+02  0.45594000000E+02  0.51100000000E-03 0. -1.
    9900012    2    1    2    0    0  0.96777485772E+01  0.15859866621E+02  0.23445785198E+01  0.72461248141E+02  0.69999580334E+02 0.  0.
         12    1    1    2    0    0 -0.96777485772E+01 -0.15859866621E+02 -0.23445785198E+01  0.18726751859E+02  0.00000000000E+00 0. -1.
         11    1    3    3    0    0  0.18825530967E+02 -0.51114504738E+00 -0.87742570818E+00  0.18852897963E+02  0.51100000000E-03 0. -1.
        -11    1    3    3    0    0  0.19885323688E+02  0.12583003205E+02  0.57371806450E+01  0.24221339968E+02  0.51100000000E-03 0.  1.
         12    1    3    3    0    0 -0.29033106078E+02  0.37880084634E+01 -0.25151764170E+01  0.29387010210E+02  0.00000000000E+00 0. -1.
</event>
<event>
 7    1  0.3020651E-013  0.7246153E+02  0.7816164E-02  0.1226708E+00
        -11   -1    0    0    0    0  0.00000000000E+00  0.00000000000E+00  0.45593999997E+02  0.45594000000E+02  0.51100000000E-03 0.  1.
         11   -1    0    0    0    0 -0.00000000000E+00 -0.00000000000E+00 -0.45593999997E+02  0.45594000000E+02  0.51100000000E-03 0. -1.
    9900012    2    1    2    0    0 -0.17534247900E+01 -0.69115594857E+01  0.17315786555E+02  0.72461531646E+02  0.69999949653E+02 0.  0.
         12    1    1    2    0    0  0.17534247900E+01  0.69115594857E+01 -0.17315786555E+02  0.18726468354E+02  0.00000000000E+00 0. -1.
         11    1    3    3    0    0 -0.49772554821E+01  0.38177899184E+01  0.82231286140E+00  0.63265148936E+01  0.51100000000E-03 0. -1.
        -11    1    3    3    0    0 -0.23667868829E+02  0.10405877109E+02 -0.41492807899E+01  0.26185240588E+02  0.51100000000E-03 0.  1.
        -12    1    3    3    0    0  0.26891699521E+02 -0.21135226513E+02  0.20642754483E+02  0.39949776164E+02  0.00000000000E+00 0.  1.
</event>
<event>
 7    1  0.3020651E-013  0.7246195E+02  0.7816164E-02  0.1226707E+00
        -11   -1    0    0    0    0  0.00000000000E+00  0.00000000000E+00  0.45593999997E+02  0.45594000000E+02  0.51100000000E-03 0.  1.
         11   -1    0    0    0    0 -0.00000000000E+00 -0.00000000000E+00 -0.45593999997E+02  0.45594000000E+02  0.51100000000E-03 0. -1.
    9900012    2    1    2    0    0  0.12461999047E+02  0.46432546934E+01  0.13183461211E+02  0.72461951728E+02  0.70000496886E+02 0.  0.
         12    1    1    2    0    0 -0.12461999047E+02 -0.46432546934E+01 -0.13183461211E+02  0.18726048272E+02  0.00000000000E+00 0. -1.
         11    1    3    3    0    0  0.10444899555E+02  0.31270213495E+01 -0.19592893544E+02  0.22422213694E+02  0.51100000000E-03 0. -1.
        -11    1    3    3    0    0  0.19251584719E+02  0.55675330994E+01  0.15919076843E+02  0.25593709126E+02  0.51100000000E-03 0.  1.
        -12    1    3    3    0    0 -0.17234485227E+02 -0.40512997555E+01  0.16857277912E+02  0.24446028908E+02  0.00000000000E+00 0.  1.
</event>
<event>
 7    1  0.3020651E-013  0.7246156E+02  0.7816164E-02  0.1226708E+00
        -11   -1    0    0    0    0  0.00000000000E+00  0.00000000000E+00  0.45593999997E+02  0.45594000000E+02  0.51100000000E-03 0.  1.
         11   -1    0    0    0    0 -0.00000000000E+00 -0.00000000000E+00 -0.45593999997E+02  0.45594000000E+02  0.51100000000E-03 0. -1.
    9900012    2    1    2    0    0 -0.11303653990E+02 -0.80545332341E+01  0.12571050908E+02  0.72461563604E+02  0.69999991285E+02 0.  0.
         12    1    1    2    0    0  0.11303653990E+02  0.80545332341E+01 -0.12571050908E+02  0.18726436396E+02  0.00000000000E+00 0. -1.
         11    1    3    3    0    0 -0.16845873292E+02  0.18238487470E+02  0.19823074964E+02  0.31770743987E+02  0.51100000000E-03 0. -1.
        -11    1    3    3    0    0 -0.84775048623E+01  0.16153011782E+01 -0.31678923614E+01  0.91930859270E+01  0.51100000000E-03 0.  1.
        -12    1    3    3    0    0  0.14019724164E+02 -0.27908321882E+02 -0.40841316948E+01  0.31497733690E+02  0.00000000000E+00 0.  1.
</event>
<event>
 7    1  0.3020651E-013  0.7246156E+02  0.7816164E-02  0.1226708E+00
        -11   -1    0    0    0    0  0.00000000000E+00  0.00000000000E+00  0.45593999997E+02  0.45594000000E+02  0.51100000000E-03 0.  1.
         11   -1    0    0    0    0 -0.00000000000E+00 -0.00000000000E+00 -0.45593999997E+02  0.45594000000E+02  0.51100000000E-03 0. -1.
    9900012    2    1    2    0    0  0.17699972843E+02 -0.18301789620E+01 -0.58344559006E+01  0.72461562290E+02  0.69999989572E+02 0.  0.
         12    1    1    2    0    0 -0.17699972843E+02  0.18301789620E+01  0.58344559006E+01  0.18726437710E+02  0.00000000000E+00 0. -1.
         11    1    3    3    0    0  0.72924283542E+01 -0.70785163806E+01 -0.13242279947E+02  0.16692599675E+02  0.51100000000E-03 0. -1.
        -11    1    3    3    0    0 -0.91654701529E+01 -0.16529329023E+02 -0.10325350303E+02  0.21536885110E+02  0.51100000000E-03 0.  1.
         12    1    3    3    0    0  0.19573014641E+02  0.21777666442E+02  0.17733174350E+02  0.34232077505E+02  0.00000000000E+00 0. -1.
</event>
<event>
 7    1  0.3020651E-013  0.7246155E+02  0.7816164E-02  0.1226708E+00
        -11   -1    0    0    0    0  0.00000000000E+00  0.00000000000E+00  0.45593999997E+02  0.45594000000E+02  0.51100000000E-03 0.  1.
         11   -1    0    0    0    0 -0.00000000000E+00 -0.00000000000E+00 -0.45593999997E+02  0.45594000000E+02  0.51100000000E-03 0. -1.
    9900012    2    1    2    0    0 -0.95769211347E+01  0.15136342702E+02 -0.54638442331E+01  0.72461551254E+02  0.69999975197E+02 0.  0.
         12    1    1    2    0    0  0.95769211347E+01 -0.15136342702E+02  0.54638442331E+01  0.18726448746E+02  0.00000000000E+00 0. -1.
         11    1    3    3    0    0 -0.14350426517E+02 -0.51461301043E+01 -0.15620046552E+02  0.21826663758E+02  0.51100000000E-03 0. -1.
        -11    1    3    3    0    0 -0.17682453315E+02  0.17304809315E+02 -0.21872250282E+01  0.24837663623E+02  0.51100000000E-03 0.  1.
         12    1    3    3    0    0  0.22455958697E+02  0.29776634910E+01  0.12343427347E+02  0.25797223873E+02  0.00000000000E+00 0. -1.
</event>
<event>
 7    1  0.3020651E-013  0.7246160E+02  0.7816164E-02  0.1226708E+00
        -11   -1    0    0    0    0  0.00000000000E+00  0.00000000000E+00  0.45593999997E+02  0.45594000000E+02  0.51100000000E-03 0.  1.
         11   -1    0    0    0    0 -0.00000000000E+00 -0.00000000000E+00 -0.45593999997E+02  0.45594000000E+02  0.51100000000E-03 0. -1.
    9900012    2    1    2    0    0  0.16823770583E+02  0.54869418788E+01  0.61263505883E+01  0.72461602606E+02  0.70000042092E+02 0.  0.
         12    1    1    2    0    0 -0.16823770583E+02 -0.54869418788E+01 -0.61263505883E+01  0.18726397394E+02  0.00000000000E+00 0. -1.
         11    1    3    3    0    0 -0.56455691827E+01  0.12779054769E+02 -0.65356612542E+01  0.15423733675E+02  0.51100000000E-03 0. -1.
        -11    1    3    3    0    0 -0.16293666338E+02 -0.31900088556E+01  0.46737530436E+01  0.17248295192E+02  0.51100000000E-03 0.  1.
        -12    1    3    3    0    0  0.38763006104E+02 -0.41021040348E+01  0.79882587988E+01  0.39789573740E+02  0.00000000000E+00 0.  1.
</event>
<event>
 7    1  0.3020651E-013  0.7246164E+02  0.7816164E-02  0.1226708E+00
        -11   -1    0    0    0    0  0.00000000000E+00  0.00000000000E+00  0.45593999997E+02  0.45594000000E+02  0.51100000000E-03 0.  1.
         11   -1    0    0    0    0 -0.00000000000E+00 -0.00000000000E+00 -0.45593999997E+02  0.45594000000E+02  0.51100000000E-03 0. -1.
    9900012    2    1    2    0    0  0.11288036634E+02  0.67379300125E+01  0.13336310142E+02  0.72461637831E+02  0.70000087978E+02 0.  0.
         12    1    1    2    0    0 -0.11288036634E+02 -0.67379300125E+01 -0.13336310142E+02  0.18726362169E+02  0.00000000000E+00 0. -1.
         11    1    3    3    0    0 -0.59842885397E+01  0.41394066507E+01 -0.19250481982E+02  0.20579782641E+02  0.51100000000E-03 0. -1.
        -11    1    3    3    0    0 -0.54861745123E+01  0.97412647132E+01  0.24094925902E+02  0.26562300417E+02  0.51100000000E-03 0.  1.
        -12    1    3    3    0    0  0.22758499686E+02 -0.71427413515E+01  0.84918662219E+01  0.25319554773E+02  0.00000000000E+00 0.  1.
</event>
<event>
 7    1  0.3020651E-013  0.7246157E+02  0.7816164E-02  0.1226708E+00
        -11   -1    0    0    0    0  0.00000000000E+00  0.00000000000E+00  0.45593999997E+02  0.45594000000E+02  0.51100000000E-03 0.  1.
         11   -1    0    0    0    0 -0.00000000000E+00 -0.00000000000E+00 -0.45593999997E+02  0.45594000000E+02  0.51100000000E-03 0. -1.
    9900012    2    1    2    0    0  0.41905130126E+01 -0.18133889682E+02 -0.20690405591E+01  0.72461567261E+02  0.69999996048E+02 0.  0.
         12    1    1    2    0    0 -0.41905130126E+01  0.18133889682E+02  0.20690405591E+01  0.18726432739E+02  0.00000000000E+00 0. -1.
         11    1    3    3    0    0 -0.76522141888E+01 -0.46576178963E+01 -0.12015960942E+02  0.14987765146E+02  0.51100000000E-03 0. -1.
        -11    1    3    3    0    0  0.94322679716E+01 -0.17119402097E+02  0.30629646845E+02  0.36334788748E+02  0.51100000000E-03 0.  1.
         12    1    3    3    0    0  0.24104592298E+01  0.36431303116E+01 -0.20682726463E+02  0.21139013366E+02  0.00000000000E+00 0. -1.
</event>
<event>
 7    1  0.3020651E-013  0.7246165E+02  0.7816164E-02  0.1226708E+00
        -11   -1    0    0    0    0  0.00000000000E+00  0.00000000000E+00  0.45593999997E+02  0.45594000000E+02  0.51100000000E-03 0.  1.
         11   -1    0    0    0    0 -0.00000000000E+00 -0.00000000000E+00 -0.45593999997E+02  0.45594000000E+02  0.51100000000E-03 0. -1.
    9900012    2    1    2    0    0  0.98808936078E+01  0.15824066193E+02 -0.16257174820E+01  0.72461652606E+02  0.70000107227E+02 0.  0.
         12    1    1    2    0    0 -0.98808936078E+01 -0.15824066193E+02  0.16257174820E+01  0.18726347394E+02  0.00000000000E+00 0. -1.
         11    1    3    3    0    0  0.30741702847E+02  0.23895462852E+02  0.15945873895E+02  0.42075127253E+02  0.51100000000E-03 0. -1.
        -11    1    3    3    0    0  0.10083749613E+01 -0.29083165609E-01  0.26415504266E+00  0.10428058500E+01  0.51100000000E-03 0.  1.
        -12    1    3    3    0    0 -0.21869184201E+02 -0.80423134933E+01 -0.17835746419E+02  0.29343719503E+02  0.00000000000E+00 0.  1.
</event>
<event>
 7    1  0.3020651E-013  0.7246154E+02  0.7816164E-02  0.1226708E+00
        -11   -1    0    0    0    0  0.00000000000E+00  0.00000000000E+00  0.45593999997E+02  0.45594000000E+02  0.51100000000E-03 0.  1.
         11   -1    0    0    0    0 -0.00000000000E+00 -0.00000000000E+00 -0.45593999997E+02  0.45594000000E+02  0.51100000000E-03 0. -1.
    9900012    2    1    2    0    0  0.17230011387E+02  0.30113678805E+01  0.66886903944E+01  0.72461542564E+02  0.69999963877E+02 0.  0.
         12    1    1    2    0    0 -0.17230011387E+02 -0.30113678805E+01 -0.66886903944E+01  0.18726457436E+02  0.00000000000E+00 0. -1.
         11    1    3    3    0    0  0.80988460503E+01 -0.55321554147E+01 -0.13388538579E+01  0.98989181627E+01  0.51100000000E-03 0. -1.
        -11    1    3    3    0    0 -0.76208013061E+01  0.87855367467E+01 -0.23858979323E+02  0.26542666842E+02  0.51100000000E-03 0.  1.
         12    1    3    3    0    0  0.16751966642E+02 -0.24201345153E+00  0.31886523575E+02  0.36019957560E+02  0.00000000000E+00 0. -1.
</event>
<event>
 7    1  0.3020651E-013  0.7246155E+02  0.7816164E-02  0.1226708E+00
        -11   -1    0    0    0    0  0.00000000000E+00  0.00000000000E+00  0.45593999997E+02  0.45594000000E+02  0.51100000000E-03 0.  1.
         11   -1    0    0    0    0 -0.00000000000E+00 -0.00000000000E+00 -0.45593999997E+02  0.45594000000E+02  0.51100000000E-03 0. -1.
    9900012    2    1    2    0    0 -0.78789201068E+01 -0.15161348955E+02  0.76639565315E+01  0.72461545079E+02  0.69999967153E+02 0.  0.
         12    1    1    2    0    0  0.78789201068E+01  0.15161348955E+02 -0.76639565315E+01  0.18726454921E+02  0.00000000000E+00 0. -1.
         11    1    3    3    0    0  0.64801264381E+01  0.15114369135E+02  0.11807599272E+02  0.20244890561E+02  0.51100000000E-03 0. -1.
        -11    1    3    3    0    0 -0.13092567920E+00 -0.20190899737E+01 -0.17687471836E+02  0.17802823542E+02  0.51100000000E-03 0.  1.
        -12    1    3    3    0    0 -0.14228120866E+02 -0.28256628116E+02  0.13543829095E+02  0.34413830976E+02  0.00000000000E+00 0.  1.
</event>
<event>
 7    1  0.3020651E-013  0.7246147E+02  0.7816164E-02  0.1226708E+00
        -11   -1    0    0    0    0  0.00000000000E+00  0.00000000000E+00  0.45593999997E+02  0.45594000000E+02  0.51100000000E-03 0.  1.
         11   -1    0    0    0    0 -0.00000000000E+00 -0.00000000000E+00 -0.45593999997E+02  0.45594000000E+02  0.51100000000E-03 0. -1.
    9900012    2    1    2    0    0  0.11859155708E+02 -0.14402713143E+02  0.16140202503E+01  0.72461473857E+02  0.69999874373E+02 0.  0.
         12    1    1    2    0    0 -0.11859155708E+02  0.14402713143E+02 -0.16140202503E+01  0.18726526143E+02  0.00000000000E+00 0. -1.
         11    1    3    3    0    0 -0.67488500389E+01  0.10004665309E+02  0.39231423631E+01  0.12689812885E+02  0.51100000000E-03 0. -1.
        -11    1    3    3    0    0 -0.61763537089E+01 -0.18500247333E+02 -0.20629792337E+02  0.28390048057E+02  0.51100000000E-03 0.  1.
         12    1    3    3    0    0  0.24784359456E+02 -0.59071311200E+01  0.18320670225E+02  0.31381612916E+02  0.00000000000E+00 0. -1.
</event>
<event>
 7    1  0.3020651E-013  0.7246158E+02  0.7816164E-02  0.1226708E+00
        -11   -1    0    0    0    0  0.00000000000E+00  0.00000000000E+00  0.45593999997E+02  0.45594000000E+02  0.51100000000E-03 0. -1.
         11   -1    0    0    0    0 -0.00000000000E+00 -0.00000000000E+00 -0.45593999997E+02  0.45594000000E+02  0.51100000000E-03 0.  1.
    9900012    2    1    2    0    0 -0.67156506917E+01  0.62115670601E+01 -0.16339987856E+02  0.72461581958E+02  0.70000015194E+02 0.  0.
         12    1    1    2    0    0  0.67156506917E+01 -0.62115670601E+01  0.16339987856E+02  0.18726418042E+02  0.00000000000E+00 0. -1.
         11    1    3    3    0    0  0.54710960130E+01  0.12162486202E+02  0.50001498327E+00  0.13345747541E+02  0.51100000000E-03 0. -1.
        -11    1    3    3    0    0  0.20029912350E+02  0.72506731682E+01 -0.24486125086E+01  0.21442139670E+02  0.51100000000E-03 0.  1.
        -12    1    3    3    0    0 -0.32216659055E+02 -0.13201592310E+02 -0.14391390331E+02  0.37673694746E+02  0.00000000000E+00 0.  1.
</event>
<event>
 7    1  0.3020651E-013  0.7246159E+02  0.7816164E-02  0.1226708E+00
        -11   -1    0    0    0    0  0.00000000000E+00  0.00000000000E+00  0.45593999997E+02  0.45594000000E+02  0.51100000000E-03 0. -1.
         11   -1    0    0    0    0 -0.00000000000E+00 -0.00000000000E+00 -0.45593999997E+02  0.45594000000E+02  0.51100000000E-03 0.  1.
    9900012    2    1    2    0    0 -0.18366037904E+02  0.20238417526E+01 -0.30448263043E+01  0.72461594821E+02  0.70000031950E+02 0.  0.
         12    1    1    2    0    0  0.18366037904E+02 -0.20238417526E+01  0.30448263043E+01  0.18726405179E+02  0.00000000000E+00 0. -1.
         11    1    3    3    0    0  0.37431928716E+01 -0.92710367184E+01  0.70521482485E+01  0.12235048422E+02  0.51100000000E-03 0. -1.
        -11    1    3    3    0    0 -0.28434251136E+02 -0.13378519121E+02  0.30328662242E+01  0.31570392607E+02  0.51100000000E-03 0.  1.
        -12    1    3    3    0    0  0.63250203610E+01  0.24673397592E+02 -0.13129840777E+02  0.28656153792E+02  0.00000000000E+00 0.  1.
</event>
<event>
 7    1  0.3020651E-013  0.7246155E+02  0.7816164E-02  0.1226708E+00
        -11   -1    0    0    0    0  0.00000000000E+00  0.00000000000E+00  0.45593999997E+02  0.45594000000E+02  0.51100000000E-03 0.  1.
         11   -1    0    0    0    0 -0.00000000000E+00 -0.00000000000E+00 -0.45593999997E+02  0.45594000000E+02  0.51100000000E-03 0. -1.
    9900012    2    1    2    0    0 -0.11982486580E+02 -0.13487345933E+02 -0.50191243281E+01  0.72461545611E+02  0.69999967846E+02 0.  0.
         12    1    1    2    0    0  0.11982486580E+02  0.13487345933E+02  0.50191243281E+01  0.18726454389E+02  0.00000000000E+00 0. -1.
         11    1    3    3    0    0 -0.26933572780E+02 -0.13183850229E+02 -0.34357503034E+01  0.30183366777E+02  0.51100000000E-03 0. -1.
        -11    1    3    3    0    0 -0.25165890422E+01  0.10419166360E+02  0.13202127738E+02  0.17005541012E+02  0.51100000000E-03 0.  1.
        -12    1    3    3    0    0  0.17467675243E+02 -0.10722662065E+02 -0.14785501763E+02  0.25272637822E+02  0.00000000000E+00 0.  1.
</event>
<event>
 7    1  0.3020651E-013  0.7246151E+02  0.7816164E-02  0.1226708E+00
        -11   -1    0    0    0    0  0.00000000000E+00  0.00000000000E+00  0.45593999997E+02  0.45594000000E+02  0.51100000000E-03 0.  1.
         11   -1    0    0    0    0 -0.00000000000E+00 -0.00000000000E+00 -0.45593999997E+02  0.45594000000E+02  0.51100000000E-03 0. -1.
    9900012    2    1    2    0    0 -0.11066714445E+01 -0.66917101721E+01  0.17455023646E+02  0.72461506543E+02  0.69999916952E+02 0.  0.
         12    1    1    2    0    0  0.11066714445E+01  0.66917101721E+01 -0.17455023646E+02  0.18726493457E+02  0.00000000000E+00 0. -1.
         11    1    3    3    0    0 -0.34126104663E+01 -0.49643274760E+00  0.96143455705E+01  0.10214107728E+02  0.51100000000E-03 0.  1.
        -11    1    3    3    0    0  0.21961339991E+02  0.21090885510E+01 -0.18186293849E+02  0.28591781913E+02  0.51100000000E-03 0. -1.
         12    1    3    3    0    0 -0.19655400969E+02 -0.83043659755E+01  0.26026971925E+02  0.33655616902E+02  0.00000000000E+00 0. -1.
</event>
<event>
 7    1  0.3020651E-013  0.7246156E+02  0.7816164E-02  0.1226708E+00
        -11   -1    0    0    0    0  0.00000000000E+00  0.00000000000E+00  0.45593999997E+02  0.45594000000E+02  0.51100000000E-03 0. -1.
         11   -1    0    0    0    0 -0.00000000000E+00 -0.00000000000E+00 -0.45593999997E+02  0.45594000000E+02  0.51100000000E-03 0.  1.
    9900012    2    1    2    0    0  0.18222527536E+02 -0.23728159318E+01 -0.36039904602E+01  0.72461561137E+02  0.69999988071E+02 0.  0.
         12    1    1    2    0    0 -0.18222527536E+02  0.23728159318E+01  0.36039904602E+01  0.18726438863E+02  0.00000000000E+00 0. -1.
         11    1    3    3    0    0  0.44477084274E+01 -0.49179222500E+01 -0.56877477999E+01  0.87360485810E+01  0.51100000000E-03 0. -1.
        -11    1    3    3    0    0 -0.20929400167E+02 -0.10242221103E+02 -0.92088133263E+01  0.25054842399E+02  0.51100000000E-03 0.  1.
         12    1    3    3    0    0  0.34704219276E+02  0.12787327422E+02  0.11292570666E+02  0.38670670157E+02  0.00000000000E+00 0. -1.
</event>
<event>
 7    1  0.3020651E-013  0.7246158E+02  0.7816164E-02  0.1226708E+00
        -11   -1    0    0    0    0  0.00000000000E+00  0.00000000000E+00  0.45593999997E+02  0.45594000000E+02  0.51100000000E-03 0. -1.
         11   -1    0    0    0    0 -0.00000000000E+00 -0.00000000000E+00 -0.45593999997E+02  0.45594000000E+02  0.51100000000E-03 0.  1.
    9900012    2    1    2    0    0  0.11762612645E+02 -0.12311359500E+02  0.77942391802E+01  0.72461580338E+02  0.70000013084E+02 0.  0.
         12    1    1    2    0    0 -0.11762612645E+02  0.12311359500E+02 -0.77942391802E+01  0.18726419662E+02  0.00000000000E+00 0. -1.
         11    1    3    3    0    0 -0.14117375354E+02 -0.12854212642E+02  0.29600625194E+02  0.35223970271E+02  0.51100000000E-03 0. -1.
        -11    1    3    3    0    0 -0.14657929736E+01 -0.81685581947E-01  0.87073461108E+00  0.17068686534E+01  0.51100000000E-03 0.  1.
        -12    1    3    3    0    0  0.27345780972E+02  0.62453872437E+00 -0.22677120625E+02  0.35530741414E+02  0.00000000000E+00 0.  1.
</event>
<event>
 7    1  0.3020651E-013  0.7246153E+02  0.7816164E-02  0.1226708E+00
        -11   -1    0    0    0    0  0.00000000000E+00  0.00000000000E+00  0.45593999997E+02  0.45594000000E+02  0.51100000000E-03 0.  1.
         11   -1    0    0    0    0 -0.00000000000E+00 -0.00000000000E+00 -0.45593999997E+02  0.45594000000E+02  0.51100000000E-03 0. -1.
    9900012    2    1    2    0    0 -0.10926962747E+02  0.15044597669E+02  0.22230865304E+01  0.72461533498E+02  0.69999952067E+02 0.  0.
         12    1    1    2    0    0  0.10926962747E+02 -0.15044597669E+02 -0.22230865304E+01  0.18726466502E+02  0.00000000000E+00 0. -1.
         11    1    3    3    0    0 -0.31452186363E+01  0.30824219957E+02 -0.16385608370E+02  0.35050151186E+02  0.51100000000E-03 0. -1.
        -11    1    3    3    0    0  0.48459800969E+01 -0.21917880195E+01 -0.50591995854E+01  0.73405012450E+01  0.51100000000E-03 0.  1.
        -12    1    3    3    0    0 -0.12627724208E+02 -0.13587834269E+02  0.23667894486E+02  0.30070881067E+02  0.00000000000E+00 0.  1.
</event>
<event>
 7    1  0.3020651E-013  0.7246161E+02  0.7816164E-02  0.1226708E+00
        -11   -1    0    0    0    0  0.00000000000E+00  0.00000000000E+00  0.45593999997E+02  0.45594000000E+02  0.51100000000E-03 0. -1.
         11   -1    0    0    0    0 -0.00000000000E+00 -0.00000000000E+00 -0.45593999997E+02  0.45594000000E+02  0.51100000000E-03 0.  1.
    9900012    2    1    2    0    0  0.98976505560E+01 -0.21552537952E+01 -0.15750212445E+02  0.72461606927E+02  0.70000047721E+02 0.  0.
         12    1    1    2    0    0 -0.98976505560E+01  0.21552537952E+01  0.15750212445E+02  0.18726393073E+02  0.00000000000E+00 0. -1.
         11    1    3    3    0    0  0.49916118599E+01  0.43439213030E+01 -0.26972250855E+01  0.71456885371E+01  0.51100000000E-03 0. -1.
        -11    1    3    3    0    0  0.31736387679E+02  0.79313727707E+01 -0.15416399155E+01  0.32748765333E+02  0.51100000000E-03 0.  1.
         12    1    3    3    0    0 -0.26830348982E+02 -0.14430547869E+02 -0.11511347444E+02  0.32567153058E+02  0.00000000000E+00 0. -1.
</event>
<event>
 7    1  0.3020651E-013  0.7246158E+02  0.7816164E-02  0.1226708E+00
        -11   -1    0    0    0    0  0.00000000000E+00  0.00000000000E+00  0.45593999997E+02  0.45594000000E+02  0.51100000000E-03 0.  1.
         11   -1    0    0    0    0 -0.00000000000E+00 -0.00000000000E+00 -0.45593999997E+02  0.45594000000E+02  0.51100000000E-03 0. -1.
    9900012    2    1    2    0    0  0.91465455332E+01  0.42456681622E+01  0.15779542183E+02  0.72461576294E+02  0.70000007815E+02 0.  0.
         12    1    1    2    0    0 -0.91465455332E+01 -0.42456681622E+01 -0.15779542183E+02  0.18726423706E+02  0.00000000000E+00 0. -1.
         11    1    3    3    0    0  0.26170407193E+01  0.22371038002E+02 -0.36190776049E+01  0.22812495839E+02  0.51100000000E-03 0. -1.
        -11    1    3    3    0    0  0.14679527728E+02  0.76033140639E+01  0.14964139750E+02  0.22298529050E+02  0.51100000000E-03 0.  1.
         12    1    3    3    0    0 -0.81500229140E+01 -0.25728683904E+02  0.44344800380E+01  0.27350551405E+02  0.00000000000E+00 0. -1.
</event>
<event>
 7    1  0.3020651E-013  0.7246158E+02  0.7816164E-02  0.1226708E+00
        -11   -1    0    0    0    0  0.00000000000E+00  0.00000000000E+00  0.45593999997E+02  0.45594000000E+02  0.51100000000E-03 0.  1.
         11   -1    0    0    0    0 -0.00000000000E+00 -0.00000000000E+00 -0.45593999997E+02  0.45594000000E+02  0.51100000000E-03 0. -1.
    9900012    2    1    2    0    0  0.11429345382E+02 -0.14833847560E+02 -0.77181134421E-01  0.72461576790E+02  0.70000008462E+02 0.  0.
         12    1    1    2    0    0 -0.11429345382E+02  0.14833847560E+02  0.77181134421E-01  0.18726423210E+02  0.00000000000E+00 0. -1.
         11    1    3    3    0    0 -0.15830881241E+02 -0.15557717460E+02 -0.51263068429E+01  0.22780219391E+02  0.51100000000E-03 0. -1.
        -11    1    3    3    0    0  0.14520794894E+02  0.14075315633E+02  0.18050721294E+02  0.27107130686E+02  0.51100000000E-03 0.  1.
         12    1    3    3    0    0  0.12739431728E+02 -0.13351445734E+02 -0.13001595585E+02  0.22574226713E+02  0.00000000000E+00 0. -1.
</event>
<event>
 7    1  0.3020651E-013  0.7246161E+02  0.7816164E-02  0.1226708E+00
        -11   -1    0    0    0    0  0.00000000000E+00  0.00000000000E+00  0.45593999997E+02  0.45594000000E+02  0.51100000000E-03 0. -1.
         11   -1    0    0    0    0 -0.00000000000E+00 -0.00000000000E+00 -0.45593999997E+02  0.45594000000E+02  0.51100000000E-03 0.  1.
    9900012    2    1    2    0    0 -0.29101257101E+01  0.12735600834E+02 -0.13416898378E+02  0.72461614275E+02  0.70000057292E+02 0.  0.
         12    1    1    2    0    0  0.29101257101E+01 -0.12735600834E+02  0.13416898378E+02  0.18726385725E+02  0.00000000000E+00 0. -1.
         11    1    3    3    0    0  0.98404234475E+01  0.88198532904E+01 -0.12543277614E+02  0.18219702502E+02  0.51100000000E-03 0. -1.
        -11    1    3    3    0    0  0.56726143010E+01  0.10529748274E+02 -0.22247733440E+02  0.25258974548E+02  0.51100000000E-03 0.  1.
         12    1    3    3    0    0 -0.18423163459E+02 -0.66140007295E+01  0.21374112677E+02  0.28982937225E+02  0.00000000000E+00 0. -1.
</event>
<event>
 7    1  0.3020651E-013  0.7246156E+02  0.7816164E-02  0.1226708E+00
        -11   -1    0    0    0    0  0.00000000000E+00  0.00000000000E+00  0.45593999997E+02  0.45594000000E+02  0.51100000000E-03 0. -1.
         11   -1    0    0    0    0 -0.00000000000E+00 -0.00000000000E+00 -0.45593999997E+02  0.45594000000E+02  0.51100000000E-03 0.  1.
    9900012    2    1    2    0    0 -0.42166477230E+01  0.50598780608E+01 -0.17529891256E+02  0.72461559562E+02  0.69999986019E+02 0.  0.
         12    1    1    2    0    0  0.42166477230E+01 -0.50598780608E+01  0.17529891256E+02  0.18726440438E+02  0.00000000000E+00 0. -1.
         11    1    3    3    0    0 -0.10811712907E+02  0.25127875212E+00 -0.31822274289E+01  0.11273102885E+02  0.51100000000E-03 0. -1.
        -11    1    3    3    0    0 -0.16682022103E+02  0.16312545718E+02 -0.24014544075E+02  0.33482642318E+02  0.51100000000E-03 0.  1.
         12    1    3    3    0    0  0.23277087287E+02 -0.11503946409E+02  0.96668802471E+01  0.27705814358E+02  0.00000000000E+00 0. -1.
</event>
<event>
 7    1  0.3020651E-013  0.7246157E+02  0.7816164E-02  0.1226708E+00
        -11   -1    0    0    0    0  0.00000000000E+00  0.00000000000E+00  0.45593999997E+02  0.45594000000E+02  0.51100000000E-03 0.  1.
         11   -1    0    0    0    0 -0.00000000000E+00 -0.00000000000E+00 -0.45593999997E+02  0.45594000000E+02  0.51100000000E-03 0. -1.
    9900012    2    1    2    0    0  0.97823676103E+01 -0.15678025115E+02  0.30305091535E+01  0.72461570193E+02  0.69999999868E+02 0.  0.
         12    1    1    2    0    0 -0.97823676103E+01  0.15678025115E+02 -0.30305091535E+01  0.18726429807E+02  0.00000000000E+00 0. -1.
         11    1    3    3    0    0 -0.85766521009E+01 -0.29447915453E+02 -0.17976853425E+02  0.35551454894E+02  0.51100000000E-03 0. -1.
        -11    1    3    3    0    0  0.86304696961E+01 -0.27938691257E+01  0.92291714990E+00  0.91182502814E+01  0.51100000000E-03 0.  1.
        -12    1    3    3    0    0  0.97285500150E+01  0.16563759463E+02  0.20084445429E+02  0.27791865017E+02  0.00000000000E+00 0.  1.
</event>
<event>
 7    1  0.3020651E-013  0.7246163E+02  0.7816164E-02  0.1226708E+00
        -11   -1    0    0    0    0  0.00000000000E+00  0.00000000000E+00  0.45593999997E+02  0.45594000000E+02  0.51100000000E-03 0.  1.
         11   -1    0    0    0    0 -0.00000000000E+00 -0.00000000000E+00 -0.45593999997E+02  0.45594000000E+02  0.51100000000E-03 0. -1.
    9900012    2    1    2    0    0 -0.33792560045E+01 -0.17982073139E+02 -0.39878060766E+01  0.72461630282E+02  0.70000078145E+02 0.  0.
         12    1    1    2    0    0  0.33792560045E+01  0.17982073139E+02  0.39878060766E+01  0.18726369718E+02  0.00000000000E+00 0. -1.
         11    1    3    3    0    0 -0.15774299841E+02 -0.16642508028E+02 -0.25616860882E+02  0.34380592937E+02  0.51100000000E-03 0. -1.
        -11    1    3    3    0    0  0.51026141128E+01 -0.14999205780E+02  0.10355069874E+02  0.18927237441E+02  0.51100000000E-03 0.  1.
        -12    1    3    3    0    0  0.72924297242E+01  0.13659640670E+02  0.11273984932E+02  0.19153799904E+02  0.00000000000E+00 0.  1.
</event>
<event>
 7    1  0.3020651E-013  0.7246156E+02  0.7816164E-02  0.1226708E+00
        -11   -1    0    0    0    0  0.00000000000E+00  0.00000000000E+00  0.45593999997E+02  0.45594000000E+02  0.51100000000E-03 0. -1.
         11   -1    0    0    0    0 -0.00000000000E+00 -0.00000000000E+00 -0.45593999997E+02  0.45594000000E+02  0.51100000000E-03 0.  1.
    9900012    2    1    2    0    0 -0.14936326934E+02 -0.10704930819E+02 -0.36042042792E+01  0.72461556274E+02  0.69999981736E+02 0.  0.
         12    1    1    2    0    0  0.14936326934E+02  0.10704930819E+02  0.36042042792E+01  0.18726443726E+02  0.00000000000E+00 0. -1.
         11    1    3    3    0    0 -0.15721181266E+02 -0.22382294584E+02  0.23075097033E+02  0.35785230956E+02  0.51100000000E-03 0. -1.
        -11    1    3    3    0    0 -0.57014671617E+01 -0.25748361745E+01 -0.63623421096E+00  0.62881876048E+01  0.51100000000E-03 0.  1.
        -12    1    3    3    0    0  0.64863214934E+01  0.14252199940E+02 -0.26043067101E+02  0.30388137713E+02  0.00000000000E+00 0.  1.
</event>
<event>
 7    1  0.3020651E-013  0.7246153E+02  0.7816164E-02  0.1226708E+00
        -11   -1    0    0    0    0  0.00000000000E+00  0.00000000000E+00  0.45593999997E+02  0.45594000000E+02  0.51100000000E-03 0.  1.
         11   -1    0    0    0    0 -0.00000000000E+00 -0.00000000000E+00 -0.45593999997E+02  0.45594000000E+02  0.51100000000E-03 0. -1.
    9900012    2    1    2    0    0  0.51008225642E+01 -0.17884166032E+02  0.21951795744E+01  0.72461532131E+02  0.69999950285E+02 0.  0.
         12    1    1    2    0    0 -0.51008225642E+01  0.17884166032E+02 -0.21951795744E+01  0.18726467869E+02  0.00000000000E+00 0. -1.
         11    1    3    3    0    0  0.55207688767E+01 -0.26303571236E+02 -0.66450141757E+01  0.27685970498E+02  0.51100000000E-03 0. -1.
        -11    1    3    3    0    0  0.12601224991E+02 -0.11821433706E+02  0.11203096668E+02  0.20592390375E+02  0.51100000000E-03 0.  1.
        -12    1    3    3    0    0 -0.13021171303E+02  0.20240838910E+02 -0.23629029182E+01  0.24183171258E+02  0.00000000000E+00 0.  1.
</event>
<event>
 7    1  0.3020651E-013  0.7246148E+02  0.7816164E-02  0.1226708E+00
        -11   -1    0    0    0    0  0.00000000000E+00  0.00000000000E+00  0.45593999997E+02  0.45594000000E+02  0.51100000000E-03 0. -1.
         11   -1    0    0    0    0 -0.00000000000E+00 -0.00000000000E+00 -0.45593999997E+02  0.45594000000E+02  0.51100000000E-03 0.  1.
    9900012    2    1    2    0    0  0.61467166803E+01  0.17005916816E+02 -0.48681800172E+01  0.72461481120E+02  0.69999883834E+02 0.  0.
         12    1    1    2    0    0 -0.61467166803E+01 -0.17005916816E+02  0.48681800172E+01  0.18726518880E+02  0.00000000000E+00 0. -1.
         11    1    3    3    0    0  0.50812833100E+01 -0.45441498227E+01  0.12045578338E+02  0.13840689847E+02  0.51100000000E-03 0. -1.
        -11    1    3    3    0    0  0.60740407975E+01 -0.10962120659E+02 -0.22014656721E+02  0.25331939755E+02  0.51100000000E-03 0.  1.
        -12    1    3    3    0    0 -0.50086074271E+01  0.32512187297E+02  0.51008983656E+01  0.33288851518E+02  0.00000000000E+00 0.  1.
</event>
<event>
 7    1  0.3020651E-013  0.7246156E+02  0.7816164E-02  0.1226708E+00
        -11   -1    0    0    0    0  0.00000000000E+00  0.00000000000E+00  0.45593999997E+02  0.45594000000E+02  0.51100000000E-03 0.  1.
         11   -1    0    0    0    0 -0.00000000000E+00 -0.00000000000E+00 -0.45593999997E+02  0.45594000000E+02  0.51100000000E-03 0. -1.
    9900012    2    1    2    0    0  0.71162662078E+01  0.15024536411E+02  0.86198397875E+01  0.72461559413E+02  0.69999985825E+02 0.  0.
         12    1    1    2    0    0 -0.71162662078E+01 -0.15024536411E+02 -0.86198397875E+01  0.18726440587E+02  0.00000000000E+00 0. -1.
         11    1    3    3    0    0 -0.19691213638E+02  0.37271662346E+01  0.34877944470E+01  0.20342083793E+02  0.51100000000E-03 0. -1.
        -11    1    3    3    0    0 -0.10207905250E+02  0.85659989389E+00  0.87740260322E+01  0.13487721307E+02  0.51100000000E-03 0.  1.
        -12    1    3    3    0    0  0.37015385096E+02  0.10440770282E+02 -0.36419806916E+01  0.38631754313E+02  0.00000000000E+00 0.  1.
</event>
<event>
 7    1  0.3020651E-013  0.7246160E+02  0.7816164E-02  0.1226708E+00
        -11   -1    0    0    0    0  0.00000000000E+00  0.00000000000E+00  0.45593999997E+02  0.45594000000E+02  0.51100000000E-03 0. -1.
         11   -1    0    0    0    0 -0.00000000000E+00 -0.00000000000E+00 -0.45593999997E+02  0.45594000000E+02  0.51100000000E-03 0.  1.
    9900012    2    1    2    0    0 -0.17164032237E+02  0.67028170949E+01  0.33385907390E+01  0.72461602915E+02  0.70000042495E+02 0.  0.
         12    1    1    2    0    0  0.17164032237E+02 -0.67028170949E+01 -0.33385907390E+01  0.18726397085E+02  0.00000000000E+00 0. -1.
         11    1    3    3    0    0 -0.33764382873E+02  0.19816025214E+02  0.13523170237E+02  0.41419615396E+02  0.51100000000E-03 0. -1.
        -11    1    3    3    0    0  0.24941970956E+01  0.39688911667E+01  0.27044442178E+01  0.54117589593E+01  0.51100000000E-03 0.  1.
        -12    1    3    3    0    0  0.14106153540E+02 -0.17082099286E+02 -0.12889023716E+02  0.25630228560E+02  0.00000000000E+00 0.  1.
</event>
<event>
 7    1  0.3020651E-013  0.7246169E+02  0.7816164E-02  0.1226708E+00
        -11   -1    0    0    0    0  0.00000000000E+00  0.00000000000E+00  0.45593999997E+02  0.45594000000E+02  0.51100000000E-03 0.  1.
         11   -1    0    0    0    0 -0.00000000000E+00 -0.00000000000E+00 -0.45593999997E+02  0.45594000000E+02  0.51100000000E-03 0. -1.
    9900012    2    1    2    0    0 -0.31820842703E+01 -0.17031873925E+02 -0.71038234760E+01  0.72461689694E+02  0.70000155541E+02 0.  0.
         12    1    1    2    0    0  0.31820842703E+01  0.17031873925E+02  0.71038234760E+01  0.18726310306E+02  0.00000000000E+00 0. -1.
         11    1    3    3    0    0 -0.45880361563E+01  0.85766540802E+00  0.32749066600E+01  0.57018137129E+01  0.51100000000E-03 0. -1.
        -11    1    3    3    0    0 -0.20085798732E+02 -0.12006721045E+02  0.18820235935E+02  0.30030017347E+02  0.51100000000E-03 0.  1.
         12    1    3    3    0    0  0.21491750618E+02 -0.58828182879E+01 -0.29198966071E+02  0.36729858634E+02  0.00000000000E+00 0. -1.
</event>
<event>
 7    1  0.3020651E-013  0.7246157E+02  0.7816164E-02  0.1226708E+00
        -11   -1    0    0    0    0  0.00000000000E+00  0.00000000000E+00  0.45593999997E+02  0.45594000000E+02  0.51100000000E-03 0.  1.
         11   -1    0    0    0    0 -0.00000000000E+00 -0.00000000000E+00 -0.45593999997E+02  0.45594000000E+02  0.51100000000E-03 0. -1.
    9900012    2    1    2    0    0  0.16728732970E+02 -0.54878838308E+01  0.63805675190E+01  0.72461574351E+02  0.70000005285E+02 0.  0.
         12    1    1    2    0    0 -0.16728732970E+02  0.54878838308E+01 -0.63805675190E+01  0.18726425649E+02  0.00000000000E+00 0. -1.
         11    1    3    3    0    0 -0.14798182084E+02 -0.90348528361E+01 -0.10862052093E+02  0.20459690484E+02  0.51100000000E-03 0. -1.
        -11    1    3    3    0    0 -0.83258742955E+01  0.19980939069E+00  0.65739639421E+01  0.10610236037E+02  0.51100000000E-03 0.  1.
        -12    1    3    3    0    0  0.39852789349E+02  0.33471596146E+01  0.10668655670E+02  0.41391647831E+02  0.00000000000E+00 0.  1.
</event>
<event>
 7    1  0.3020651E-013  0.7246165E+02  0.7816164E-02  0.1226708E+00
        -11   -1    0    0    0    0  0.00000000000E+00  0.00000000000E+00  0.45593999997E+02  0.45594000000E+02  0.51100000000E-03 0.  1.
         11   -1    0    0    0    0 -0.00000000000E+00 -0.00000000000E+00 -0.45593999997E+02  0.45594000000E+02  0.51100000000E-03 0. -1.
    9900012    2    1    2    0    0  0.17004977981E+02  0.37934366852E-03  0.78426344149E+01  0.72461649826E+02  0.70000103604E+02 0.  0.
         12    1    1    2    0    0 -0.17004977981E+02 -0.37934366852E-03 -0.78426344149E+01  0.18726350174E+02  0.00000000000E+00 0. -1.
         11    1    3    3    0    0 -0.88587151255E+01 -0.16431323338E+02  0.13178955398E+02  0.22850603624E+02  0.51100000000E-03 0. -1.
        -11    1    3    3    0    0  0.32748641421E+01  0.19748558341E+02 -0.14801154773E+02  0.24895872642E+02  0.51100000000E-03 0.  1.
         12    1    3    3    0    0  0.22588828965E+02 -0.33168556594E+01  0.94648337900E+01  0.24715173561E+02  0.00000000000E+00 0. -1.
</event>
<event>
 7    1  0.3020651E-013  0.7246157E+02  0.7816164E-02  0.1226708E+00
        -11   -1    0    0    0    0  0.00000000000E+00  0.00000000000E+00  0.45593999997E+02  0.45594000000E+02  0.51100000000E-03 0.  1.
         11   -1    0    0    0    0 -0.00000000000E+00 -0.00000000000E+00 -0.45593999997E+02  0.45594000000E+02  0.51100000000E-03 0. -1.
    9900012    2    1    2    0    0  0.18043506861E+02  0.61218020259E+00 -0.49735405218E+01  0.72461574560E+02  0.70000005556E+02 0.  0.
         12    1    1    2    0    0 -0.18043506861E+02 -0.61218020259E+00  0.49735405218E+01  0.18726425440E+02  0.00000000000E+00 0. -1.
         11    1    3    3    0    0 -0.24825762212E+02 -0.45302143873E+01 -0.67513383354E+01  0.26123205803E+02  0.51100000000E-03 0. -1.
        -11    1    3    3    0    0  0.13106236681E+02 -0.42194114946E+01 -0.45529009335E+01  0.14501923337E+02  0.51100000000E-03 0.  1.
        -12    1    3    3    0    0  0.29763032392E+02  0.93618060845E+01  0.63306987471E+01  0.31836445420E+02  0.00000000000E+00 0.  1.
</event>
<event>
 7    1  0.3020651E-013  0.7246151E+02  0.7816164E-02  0.1226708E+00
        -11   -1    0    0    0    0  0.00000000000E+00  0.00000000000E+00  0.45593999997E+02  0.45594000000E+02  0.51100000000E-03 0.  1.
         11   -1    0    0    0    0 -0.00000000000E+00 -0.00000000000E+00 -0.45593999997E+02  0.45594000000E+02  0.51100000000E-03 0. -1.
    9900012    2    1    2    0    0  0.11825268039E+02 -0.10632493459E+02  0.98891078044E+01  0.72461512489E+02  0.69999924698E+02 0.  0.
         12    1    1    2    0    0 -0.11825268039E+02  0.10632493459E+02 -0.98891078044E+01  0.18726487511E+02  0.00000000000E+00 0. -1.
         11    1    3    3    0    0 -0.14716254596E+02 -0.54156093210E+01  0.26215017258E+01  0.15898718352E+02  0.51100000000E-03 0. -1.
        -11    1    3    3    0    0  0.27173878432E+02  0.15623443116E+01  0.25378325568E+02  0.37214513266E+02  0.51100000000E-03 0.  1.
         12    1    3    3    0    0 -0.63235579665E+00 -0.67792284497E+01 -0.18110719490E+02  0.19348280871E+02  0.00000000000E+00 0. -1.
</event>
<event>
 7    1  0.3020651E-013  0.7246155E+02  0.7816164E-02  0.1226708E+00
        -11   -1    0    0    0    0  0.00000000000E+00  0.00000000000E+00  0.45593999997E+02  0.45594000000E+02  0.51100000000E-03 0.  1.
         11   -1    0    0    0    0 -0.00000000000E+00 -0.00000000000E+00 -0.45593999997E+02  0.45594000000E+02  0.51100000000E-03 0. -1.
    9900012    2    1    2    0    0  0.77173008441E+00  0.18647784399E+02  0.15312094301E+01  0.72461547249E+02  0.69999969980E+02 0.  0.
         12    1    1    2    0    0 -0.77173008441E+00 -0.18647784399E+02 -0.15312094301E+01  0.18726452751E+02  0.00000000000E+00 0. -1.
         11    1    3    3    0    0  0.22708679905E+02  0.17284477500E+02 -0.80405979069E+01  0.29649426983E+02  0.51100000000E-03 0. -1.
        -11    1    3    3    0    0 -0.94671428915E+00 -0.10993458937E+02 -0.72569026029E+01  0.13206628752E+02  0.51100000000E-03 0.  1.
        -12    1    3    3    0    0 -0.20990235531E+02  0.12356765835E+02  0.16828709940E+02  0.29605491514E+02  0.00000000000E+00 0.  1.
</event>
<event>
 7    1  0.3020651E-013  0.7246154E+02  0.7816164E-02  0.1226708E+00
        -11   -1    0    0    0    0  0.00000000000E+00  0.00000000000E+00  0.45593999997E+02  0.45594000000E+02  0.51100000000E-03 0.  1.
         11   -1    0    0    0    0 -0.00000000000E+00 -0.00000000000E+00 -0.45593999997E+02  0.45594000000E+02  0.51100000000E-03 0. -1.
    9900012    2    1    2    0    0 -0.33135007998E+01 -0.19461084808E+01  0.18327949520E+02  0.72461538525E+02  0.69999958614E+02 0.  0.
         12    1    1    2    0    0  0.33135007998E+01  0.19461084808E+01 -0.18327949520E+02  0.18726461475E+02  0.00000000000E+00 0. -1.
         11    1    3    3    0    0  0.21567340181E+01  0.17596253329E+01  0.13557703005E+01  0.30961098665E+01  0.51100000000E-03 0. -1.
        -11    1    3    3    0    0  0.28194881800E+02  0.12134613193E+01  0.20899159162E+02  0.35116928995E+02  0.51100000000E-03 0.  1.
         12    1    3    3    0    0 -0.33665116618E+02 -0.49191951329E+01 -0.39269799425E+01  0.34248499663E+02  0.00000000000E+00 0. -1.
</event>
<event>
 7    1  0.3020651E-013  0.7246152E+02  0.7816164E-02  0.1226708E+00
        -11   -1    0    0    0    0  0.00000000000E+00  0.00000000000E+00  0.45593999997E+02  0.45594000000E+02  0.51100000000E-03 0. -1.
         11   -1    0    0    0    0 -0.00000000000E+00 -0.00000000000E+00 -0.45593999997E+02  0.45594000000E+02  0.51100000000E-03 0.  1.
    9900012    2    1    2    0    0  0.13619773661E+02 -0.12696180756E+02  0.19974116092E+01  0.72461524264E+02  0.69999940037E+02 0.  0.
         12    1    1    2    0    0 -0.13619773661E+02  0.12696180756E+02 -0.19974116092E+01  0.18726475736E+02  0.00000000000E+00 0. -1.
         11    1    3    3    0    0  0.86814760959E+01  0.99976965930E+01 -0.89589432736E+01  0.15987014393E+02  0.51100000000E-03 0. -1.
        -11    1    3    3    0    0  0.27121341515E+02 -0.95258436059E+01  0.10711212356E+02  0.30676357874E+02  0.51100000000E-03 0.  1.
         12    1    3    3    0    0 -0.22183043951E+02 -0.13168033743E+02  0.24514252629E+00  0.25798151997E+02  0.00000000000E+00 0. -1.
</event>
<event>
 7    1  0.3020651E-013  0.7246165E+02  0.7816164E-02  0.1226708E+00
        -11   -1    0    0    0    0  0.00000000000E+00  0.00000000000E+00  0.45593999997E+02  0.45594000000E+02  0.51100000000E-03 0. -1.
         11   -1    0    0    0    0 -0.00000000000E+00 -0.00000000000E+00 -0.45593999997E+02  0.45594000000E+02  0.51100000000E-03 0.  1.
    9900012    2    1    2    0    0 -0.86524163262E+01  0.10856535310E+02 -0.12567723504E+02  0.72461645808E+02  0.70000098371E+02 0.  0.
         12    1    1    2    0    0  0.86524163262E+01 -0.10856535310E+02  0.12567723504E+02  0.18726354192E+02  0.00000000000E+00 0. -1.
         11    1    3    3    0    0  0.49866839405E+01  0.14001133953E+01  0.30627719957E+01  0.60173006241E+01  0.51100000000E-03 0. -1.
        -11    1    3    3    0    0  0.21195157620E+02  0.16552607150E+01 -0.21536333603E+02  0.30261993654E+02  0.51100000000E-03 0.  1.
         12    1    3    3    0    0 -0.34834257887E+02  0.78011612000E+01  0.59058381028E+01  0.36182351531E+02  0.00000000000E+00 0. -1.
</event>
<event>
 7    1  0.3020651E-013  0.7246157E+02  0.7816164E-02  0.1226708E+00
        -11   -1    0    0    0    0  0.00000000000E+00  0.00000000000E+00  0.45593999997E+02  0.45594000000E+02  0.51100000000E-03 0. -1.
         11   -1    0    0    0    0 -0.00000000000E+00 -0.00000000000E+00 -0.45593999997E+02  0.45594000000E+02  0.51100000000E-03 0.  1.
    9900012    2    1    2    0    0 -0.50259920933E+01 -0.57189267511E+01 -0.17108844927E+02  0.72461566959E+02  0.69999995654E+02 0.  0.
         12    1    1    2    0    0  0.50259920933E+01  0.57189267511E+01  0.17108844927E+02  0.18726433041E+02  0.00000000000E+00 0. -1.
         11    1    3    3    0    0  0.24523669746E+01 -0.89835214592E+01 -0.54558690834E+01  0.10792787837E+02  0.51100000000E-03 0. -1.
        -11    1    3    3    0    0  0.31153293393E+01 -0.22162257212E+02 -0.22804385804E+02  0.31951696884E+02  0.51100000000E-03 0.  1.
         12    1    3    3    0    0 -0.10593688407E+02  0.25426851920E+02  0.11151409960E+02  0.29717082237E+02  0.00000000000E+00 0. -1.
</event>
<event>
 7    1  0.3020651E-013  0.7246159E+02  0.7816164E-02  0.1226708E+00
        -11   -1    0    0    0    0  0.00000000000E+00  0.00000000000E+00  0.45593999997E+02  0.45594000000E+02  0.51100000000E-03 0.  1.
         11   -1    0    0    0    0 -0.00000000000E+00 -0.00000000000E+00 -0.45593999997E+02  0.45594000000E+02  0.51100000000E-03 0. -1.
    9900012    2    1    2    0    0  0.91483667763E+01  0.36652644682E+01  0.15923310343E+02  0.72461585753E+02  0.70000020137E+02 0.  0.
         12    1    1    2    0    0 -0.91483667763E+01 -0.36652644682E+01 -0.15923310343E+02  0.18726414247E+02  0.00000000000E+00 0. -1.
         11    1    3    3    0    0  0.19669914827E+00  0.25117871669E+02 -0.15594570962E+02  0.29565804767E+02  0.51100000000E-03 0. -1.
        -11    1    3    3    0    0  0.81943770241E-01  0.67381102451E+00 -0.18026331820E+01  0.19261938449E+01  0.51100000000E-03 0.  1.
        -12    1    3    3    0    0  0.88697238578E+01 -0.22126418225E+02  0.33320514487E+02  0.40969587141E+02  0.00000000000E+00 0.  1.
</event>
<event>
 7    1  0.3020651E-013  0.7246158E+02  0.7816164E-02  0.1226708E+00
        -11   -1    0    0    0    0  0.00000000000E+00  0.00000000000E+00  0.45593999997E+02  0.45594000000E+02  0.51100000000E-03 0.  1.
         11   -1    0    0    0    0 -0.00000000000E+00 -0.00000000000E+00 -0.45593999997E+02  0.45594000000E+02  0.51100000000E-03 0. -1.
    9900012    2    1    2    0    0 -0.88234958153E+01 -0.16235798806E+02 -0.30370442655E+01  0.72461578048E+02  0.70000010100E+02 0.  0.
         12    1    1    2    0    0  0.88234958153E+01  0.16235798806E+02  0.30370442655E+01  0.18726421952E+02  0.00000000000E+00 0. -1.
         11    1    3    3    0    0  0.33506005271E+01 -0.30788500885E+02 -0.24216139391E+02  0.39313861651E+02  0.51100000000E-03 0. -1.
        -11    1    3    3    0    0  0.34834217531E+01  0.76124512522E+01  0.68142918266E+01  0.10794360312E+02  0.51100000000E-03 0.  1.
        -12    1    3    3    0    0 -0.15657518095E+02  0.69402508271E+01  0.14364803299E+02  0.22353356085E+02  0.00000000000E+00 0.  1.
</event>
<event>
 7    1  0.3020651E-013  0.7246155E+02  0.7816164E-02  0.1226708E+00
        -11   -1    0    0    0    0  0.00000000000E+00  0.00000000000E+00  0.45593999997E+02  0.45594000000E+02  0.51100000000E-03 0.  1.
         11   -1    0    0    0    0 -0.00000000000E+00 -0.00000000000E+00 -0.45593999997E+02  0.45594000000E+02  0.51100000000E-03 0. -1.
    9900012    2    1    2    0    0  0.64898237397E+01  0.13542362690E+02  0.11187777910E+02  0.72461554155E+02  0.69999978976E+02 0.  0.
         12    1    1    2    0    0 -0.64898237397E+01 -0.13542362690E+02 -0.11187777910E+02  0.18726445845E+02  0.00000000000E+00 0. -1.
         11    1    3    3    0    0  0.81493309125E+01  0.18076113220E+02  0.20097062832E+02  0.28232063300E+02  0.51100000000E-03 0. -1.
        -11    1    3    3    0    0 -0.91255229950E+01 -0.18634784656E+01  0.15765956815E+02  0.18311556911E+02  0.51100000000E-03 0.  1.
         12    1    3    3    0    0  0.74660158222E+01 -0.26702720637E+01 -0.24675241737E+02  0.25917933944E+02  0.00000000000E+00 0. -1.
</event>
<event>
 7    1  0.3020651E-013  0.7246155E+02  0.7816164E-02  0.1226708E+00
        -11   -1    0    0    0    0  0.00000000000E+00  0.00000000000E+00  0.45593999997E+02  0.45594000000E+02  0.51100000000E-03 0. -1.
         11   -1    0    0    0    0 -0.00000000000E+00 -0.00000000000E+00 -0.45593999997E+02  0.45594000000E+02  0.51100000000E-03 0.  1.
    9900012    2    1    2    0    0  0.18216698366E+02 -0.28733478909E+01 -0.32520456461E+01  0.72461547364E+02  0.69999970129E+02 0.  0.
         12    1    1    2    0    0 -0.18216698366E+02  0.28733478909E+01  0.32520456461E+01  0.18726452636E+02  0.00000000000E+00 0. -1.
         11    1    3    3    0    0 -0.13528402836E+02  0.38074761321E+01 -0.43797856692E+01  0.14720634516E+02  0.51100000000E-03 0. -1.
        -11    1    3    3    0    0  0.22090170911E+02  0.11139326818E+02 -0.17427906056E+02  0.30262058135E+02  0.51100000000E-03 0.  1.
        -12    1    3    3    0    0  0.96549302907E+01 -0.17820150841E+02  0.18555646079E+02  0.27478854713E+02  0.00000000000E+00 0.  1.
</event>
<event>
 7    1  0.3020651E-013  0.7246158E+02  0.7816164E-02  0.1226708E+00
        -11   -1    0    0    0    0  0.00000000000E+00  0.00000000000E+00  0.45593999997E+02  0.45594000000E+02  0.51100000000E-03 0.  1.
         11   -1    0    0    0    0 -0.00000000000E+00 -0.00000000000E+00 -0.45593999997E+02  0.45594000000E+02  0.51100000000E-03 0. -1.
    9900012    2    1    2    0    0  0.13785803367E+02 -0.60662737497E+01 -0.11127920592E+02  0.72461583674E+02  0.70000017430E+02 0.  0.
         12    1    1    2    0    0 -0.13785803367E+02  0.60662737497E+01  0.11127920592E+02  0.18726416326E+02  0.00000000000E+00 0. -1.
         11    1    3    3    0    0 -0.67894912969E+01  0.32250704433E+01  0.14083756440E+02  0.15964036681E+02  0.51100000000E-03 0. -1.
        -11    1    3    3    0    0 -0.12894376918E+02 -0.58961591175E+01 -0.16483143447E+02  0.21742209330E+02  0.51100000000E-03 0.  1.
        -12    1    3    3    0    0  0.33469671582E+02 -0.33951850755E+01 -0.87285335857E+01  0.34755337663E+02  0.00000000000E+00 0.  1.
</event>
<event>
 7    1  0.3020651E-013  0.7246166E+02  0.7816164E-02  0.1226708E+00
        -11   -1    0    0    0    0  0.00000000000E+00  0.00000000000E+00  0.45593999997E+02  0.45594000000E+02  0.51100000000E-03 0.  1.
         11   -1    0    0    0    0 -0.00000000000E+00 -0.00000000000E+00 -0.45593999997E+02  0.45594000000E+02  0.51100000000E-03 0. -1.
    9900012    2    1    2    0    0 -0.91583546692E+01  0.16246230737E+02  0.16912463095E+01  0.72461660595E+02  0.70000117634E+02 0.  0.
         12    1    1    2    0    0  0.91583546692E+01 -0.16246230737E+02 -0.16912463095E+01  0.18726339405E+02  0.00000000000E+00 0. -1.
         11    1    3    3    0    0  0.15999346486E+02  0.18013920460E+02  0.55482945378E+00  0.24099548840E+02  0.51100000000E-03 0. -1.
        -11    1    3    3    0    0  0.40931152191E+01  0.14061174703E+02  0.33721210333E+01  0.15028021385E+02  0.51100000000E-03 0.  1.
        -12    1    3    3    0    0 -0.29250816374E+02 -0.15828864426E+02 -0.22357041776E+01  0.33334090369E+02  0.00000000000E+00 0.  1.
</event>
<event>
 7    1  0.3020651E-013  0.7246159E+02  0.7816164E-02  0.1226708E+00
        -11   -1    0    0    0    0  0.00000000000E+00  0.00000000000E+00  0.45593999997E+02  0.45594000000E+02  0.51100000000E-03 0. -1.
         11   -1    0    0    0    0 -0.00000000000E+00 -0.00000000000E+00 -0.45593999997E+02  0.45594000000E+02  0.51100000000E-03 0.  1.
    9900012    2    1    2    0    0 -0.14302945835E+02  0.10748339141E+02 -0.55296953853E+01  0.72461585904E+02  0.70000020334E+02 0.  0.
         12    1    1    2    0    0  0.14302945835E+02 -0.10748339141E+02  0.55296953853E+01  0.18726414096E+02  0.00000000000E+00 0. -1.
         11    1    3    3    0    0 -0.59040403883E+01  0.41203214561E+01  0.26511801369E+02  0.27471992172E+02  0.51100000000E-03 0. -1.
        -11    1    3    3    0    0  0.20847248454E+01  0.54057371667E+01  0.42558017482E+01  0.71888747921E+01  0.51100000000E-03 0.  1.
        -12    1    3    3    0    0 -0.10483630292E+02  0.12222805181E+01 -0.36297298503E+02  0.37800718940E+02  0.00000000000E+00 0.  1.
</event>
<event>
 7    1  0.3020651E-013  0.7246154E+02  0.7816164E-02  0.1226708E+00
        -11   -1    0    0    0    0  0.00000000000E+00  0.00000000000E+00  0.45593999997E+02  0.45594000000E+02  0.51100000000E-03 0.  1.
         11   -1    0    0    0    0 -0.00000000000E+00 -0.00000000000E+00 -0.45593999997E+02  0.45594000000E+02  0.51100000000E-03 0. -1.
    9900012    2    1    2    0    0  0.10220990822E+02  0.14870875676E+01  0.15620505887E+02  0.72461540458E+02  0.69999961132E+02 0.  0.
         12    1    1    2    0    0 -0.10220990822E+02 -0.14870875676E+01 -0.15620505887E+02  0.18726459542E+02  0.00000000000E+00 0. -1.
         11    1    3    3    0    0 -0.25226370552E+01  0.17922484240E+02  0.92731040745E+01  0.20336410659E+02  0.51100000000E-03 0. -1.
        -11    1    3    3    0    0 -0.30413164526E+01  0.15645330377E+02  0.95331310349E+00  0.15966677003E+02  0.51100000000E-03 0.  1.
         12    1    3    3    0    0  0.15784944330E+02 -0.32080727050E+02  0.53940887088E+01  0.36158452796E+02  0.00000000000E+00 0. -1.
</event>
<event>
 7    1  0.3020651E-013  0.7246150E+02  0.7816164E-02  0.1226708E+00
        -11   -1    0    0    0    0  0.00000000000E+00  0.00000000000E+00  0.45593999997E+02  0.45594000000E+02  0.51100000000E-03 0. -1.
         11   -1    0    0    0    0 -0.00000000000E+00 -0.00000000000E+00 -0.45593999997E+02  0.45594000000E+02  0.51100000000E-03 0.  1.
    9900012    2    1    2    0    0  0.23106791798E+01  0.11675326560E+02 -0.14457848300E+02  0.72461498297E+02  0.69999906211E+02 0.  0.
         12    1    1    2    0    0 -0.23106791798E+01 -0.11675326560E+02  0.14457848300E+02  0.18726501703E+02  0.00000000000E+00 0. -1.
         11    1    3    3    0    0 -0.62909871927E+01  0.30006302234E+01  0.21075150124E+02  0.22197798418E+02  0.51100000000E-03 0. -1.
        -11    1    3    3    0    0  0.19047787042E+01 -0.12694893139E+02 -0.16269816662E+02  0.20724271476E+02  0.51100000000E-03 0.  1.
         12    1    3    3    0    0  0.66968876683E+01  0.21369589476E+02 -0.19263181762E+02  0.29539428404E+02  0.00000000000E+00 0. -1.
</event>
<event>
 7    1  0.3020651E-013  0.7246160E+02  0.7816164E-02  0.1226708E+00
        -11   -1    0    0    0    0  0.00000000000E+00  0.00000000000E+00  0.45593999997E+02  0.45594000000E+02  0.51100000000E-03 0. -1.
         11   -1    0    0    0    0 -0.00000000000E+00 -0.00000000000E+00 -0.45593999997E+02  0.45594000000E+02  0.51100000000E-03 0.  1.
    9900012    2    1    2    0    0 -0.13683255969E+02 -0.95333642416E+01 -0.85183049594E+01  0.72461600265E+02  0.70000039042E+02 0.  0.
         12    1    1    2    0    0  0.13683255969E+02  0.95333642416E+01  0.85183049594E+01  0.18726399735E+02  0.00000000000E+00 0. -1.
         11    1    3    3    0    0 -0.16720681196E+02  0.34968595991E+01 -0.19714524475E+01  0.17195808552E+02  0.51100000000E-03 0. -1.
        -11    1    3    3    0    0 -0.20447524965E+02  0.59411567579E+01 -0.12214951942E+02  0.24547987128E+02  0.51100000000E-03 0.  1.
         12    1    3    3    0    0  0.23484950193E+02 -0.18971380599E+02  0.56680994299E+01  0.30717804585E+02  0.00000000000E+00 0. -1.
</event>
<event>
 7    1  0.3020651E-013  0.7246158E+02  0.7816164E-02  0.1226708E+00
        -11   -1    0    0    0    0  0.00000000000E+00  0.00000000000E+00  0.45593999997E+02  0.45594000000E+02  0.51100000000E-03 0.  1.
         11   -1    0    0    0    0 -0.00000000000E+00 -0.00000000000E+00 -0.45593999997E+02  0.45594000000E+02  0.51100000000E-03 0. -1.
    9900012    2    1    2    0    0  0.46346447951E+01 -0.59004460926E+01  0.17157607414E+02  0.72461583134E+02  0.70000016726E+02 0.  0.
         12    1    1    2    0    0 -0.46346447951E+01  0.59004460926E+01 -0.17157607414E+02  0.18726416866E+02  0.00000000000E+00 0. -1.
         11    1    3    3    0    0 -0.90411422553E+01 -0.10475518965E+02 -0.16361960993E+02  0.21428777815E+02  0.51100000000E-03 0. -1.
        -11    1    3    3    0    0  0.12475500132E+02 -0.84300375083E+01 -0.21848369073E-02  0.15056680942E+02  0.51100000000E-03 0.  1.
        -12    1    3    3    0    0  0.12002869181E+01  0.13005110381E+02  0.33521753243E+02  0.35976124377E+02  0.00000000000E+00 0.  1.
</event>
<event>
 7    1  0.3020651E-013  0.7246187E+02  0.7816164E-02  0.1226707E+00
        -11   -1    0    0    0    0  0.00000000000E+00  0.00000000000E+00  0.45593999997E+02  0.45594000000E+02  0.51100000000E-03 0.  1.
         11   -1    0    0    0    0 -0.00000000000E+00 -0.00000000000E+00 -0.45593999997E+02  0.45594000000E+02  0.51100000000E-03 0. -1.
    9900012    2    1    2    0    0  0.41442993460E+01 -0.99184524627E-01  0.18261516861E+02  0.72461867118E+02  0.70000386667E+02 0.  0.
         12    1    1    2    0    0 -0.41442993460E+01  0.99184524627E-01 -0.18261516861E+02  0.18726132882E+02  0.00000000000E+00 0. -1.
         11    1    3    3    0    0 -0.48050615975E+01 -0.26199061578E+02 -0.12028671716E+02  0.29226159311E+02  0.51100000000E-03 0. -1.
        -11    1    3    3    0    0  0.60898813342E+01  0.21226833161E+01  0.88030402094E+01  0.10912651205E+02  0.51100000000E-03 0.  1.
        -12    1    3    3    0    0  0.28594796093E+01  0.23977193738E+02  0.21487148368E+02  0.32323056603E+02  0.00000000000E+00 0.  1.
</event>
<event>
 7    1  0.3020651E-013  0.7246160E+02  0.7816164E-02  0.1226708E+00
        -11   -1    0    0    0    0  0.00000000000E+00  0.00000000000E+00  0.45593999997E+02  0.45594000000E+02  0.51100000000E-03 0. -1.
         11   -1    0    0    0    0 -0.00000000000E+00 -0.00000000000E+00 -0.45593999997E+02  0.45594000000E+02  0.51100000000E-03 0.  1.
    9900012    2    1    2    0    0  0.18203188505E+02 -0.37097035424E+01  0.23580187818E+01  0.72461595521E+02  0.70000032863E+02 0.  0.
         12    1    1    2    0    0 -0.18203188505E+02  0.37097035424E+01 -0.23580187818E+01  0.18726404479E+02  0.00000000000E+00 0. -1.
         11    1    3    3    0    0  0.52586615678E+01 -0.21108497526E+02 -0.59363403095E+01  0.22549109203E+02  0.51100000000E-03 0. -1.
        -11    1    3    3    0    0  0.18248969596E+02 -0.10334261553E+02  0.40517745035E+01  0.21359745552E+02  0.51100000000E-03 0.  1.
        -12    1    3    3    0    0 -0.53044426581E+01  0.27733055537E+02  0.42425845878E+01  0.28552740767E+02  0.00000000000E+00 0.  1.
</event>
<event>
 7    1  0.3020651E-013  0.7246155E+02  0.7816164E-02  0.1226708E+00
        -11   -1    0    0    0    0  0.00000000000E+00  0.00000000000E+00  0.45593999997E+02  0.45594000000E+02  0.51100000000E-03 0. -1.
         11   -1    0    0    0    0 -0.00000000000E+00 -0.00000000000E+00 -0.45593999997E+02  0.45594000000E+02  0.51100000000E-03 0.  1.
    9900012    2    1    2    0    0  0.16082587621E+02  0.44731205809E-01 -0.95931298618E+01  0.72461554368E+02  0.69999979252E+02 0.  0.
         12    1    1    2    0    0 -0.16082587621E+02 -0.44731205809E-01  0.95931298618E+01  0.18726445632E+02  0.00000000000E+00 0. -1.
         11    1    3    3    0    0  0.91174653026E+01  0.19220901351E+02  0.12337862138E+01  0.21309468576E+02  0.51100000000E-03 0. -1.
        -11    1    3    3    0    0  0.20282983975E+02 -0.22756926155E+00  0.74908128029E+01  0.21623216768E+02  0.51100000000E-03 0.  1.
        -12    1    3    3    0    0 -0.13317861656E+02 -0.18948600884E+02 -0.18317728878E+02  0.29528869024E+02  0.00000000000E+00 0.  1.
</event>
<event>
 7    1  0.3020651E-013  0.7246156E+02  0.7816164E-02  0.1226708E+00
        -11   -1    0    0    0    0  0.00000000000E+00  0.00000000000E+00  0.45593999997E+02  0.45594000000E+02  0.51100000000E-03 0.  1.
         11   -1    0    0    0    0 -0.00000000000E+00 -0.00000000000E+00 -0.45593999997E+02  0.45594000000E+02  0.51100000000E-03 0. -1.
    9900012    2    1    2    0    0 -0.71964905929E+00 -0.18240318501E+02  0.41776079387E+01  0.72461560887E+02  0.69999987745E+02 0.  0.
         12    1    1    2    0    0  0.71964905929E+00  0.18240318501E+02 -0.41776079387E+01  0.18726439113E+02  0.00000000000E+00 0. -1.
         11    1    3    3    0    0 -0.83714809264E+01 -0.27484075450E+02 -0.21098975356E+02  0.35645797194E+02  0.51100000000E-03 0. -1.
        -11    1    3    3    0    0  0.30566548629E+01 -0.62750927317E+01  0.21616035804E+00  0.69833124879E+01  0.51100000000E-03 0.  1.
        -12    1    3    3    0    0  0.45951770042E+01  0.15518849680E+02  0.25060422937E+02  0.29832451205E+02  0.00000000000E+00 0.  1.
</event>
<event>
 7    1  0.3020651E-013  0.7246160E+02  0.7816164E-02  0.1226708E+00
        -11   -1    0    0    0    0  0.00000000000E+00  0.00000000000E+00  0.45593999997E+02  0.45594000000E+02  0.51100000000E-03 0.  1.
         11   -1    0    0    0    0 -0.00000000000E+00 -0.00000000000E+00 -0.45593999997E+02  0.45594000000E+02  0.51100000000E-03 0. -1.
    9900012    2    1    2    0    0  0.99178706140E+01 -0.13970648808E+02  0.75587573717E+01  0.72461601557E+02  0.70000040726E+02 0.  0.
         12    1    1    2    0    0 -0.99178706140E+01  0.13970648808E+02 -0.75587573717E+01  0.18726398443E+02  0.00000000000E+00 0. -1.
         11    1    3    3    0    0 -0.16625385461E+02  0.28902375354E+01 -0.82044615332E+01  0.18763531226E+02  0.51100000000E-03 0. -1.
        -11    1    3    3    0    0  0.11634451315E+02  0.11362632919E+02 -0.31947484761E+01  0.16573361227E+02  0.51100000000E-03 0.  1.
         12    1    3    3    0    0  0.14908804760E+02 -0.28223519262E+02  0.18957967381E+02  0.37124709105E+02  0.00000000000E+00 0. -1.
</event>
<event>
 7    1  0.3020651E-013  0.7246157E+02  0.7816164E-02  0.1226708E+00
        -11   -1    0    0    0    0  0.00000000000E+00  0.00000000000E+00  0.45593999997E+02  0.45594000000E+02  0.51100000000E-03 0.  1.
         11   -1    0    0    0    0 -0.00000000000E+00 -0.00000000000E+00 -0.45593999997E+02  0.45594000000E+02  0.51100000000E-03 0. -1.
    9900012    2    1    2    0    0  0.17688770848E+02  0.59897921770E+01  0.13816712372E+01  0.72461568416E+02  0.69999997553E+02 0.  0.
         12    1    1    2    0    0 -0.17688770848E+02 -0.59897921770E+01 -0.13816712372E+01  0.18726431584E+02  0.00000000000E+00 0. -1.
         11    1    3    3    0    0  0.10561709930E+02 -0.15216964167E+02 -0.10836134903E+02  0.21459905288E+02  0.51100000000E-03 0. -1.
        -11    1    3    3    0    0  0.86334139078E+01 -0.11867026927E+02 -0.22929417360E+01  0.14853273910E+02  0.51100000000E-03 0.  1.
        -12    1    3    3    0    0 -0.15063529889E+01  0.33073783270E+02  0.14510747876E+02  0.36148389218E+02  0.00000000000E+00 0.  1.
</event>
<event>
 7    1  0.3020651E-013  0.7246134E+02  0.7816164E-02  0.1226709E+00
        -11   -1    0    0    0    0  0.00000000000E+00  0.00000000000E+00  0.45593999997E+02  0.45594000000E+02  0.51100000000E-03 0.  1.
         11   -1    0    0    0    0 -0.00000000000E+00 -0.00000000000E+00 -0.45593999997E+02  0.45594000000E+02  0.51100000000E-03 0. -1.
    9900012    2    1    2    0    0  0.57817137928E+01 -0.12137337865E+02  0.13036276897E+02  0.72461342525E+02  0.69999703288E+02 0.  0.
         12    1    1    2    0    0 -0.57817137928E+01  0.12137337865E+02 -0.13036276897E+02  0.18726657475E+02  0.00000000000E+00 0. -1.
         11    1    3    3    0    0 -0.18009703662E+02  0.81180909532E+01 -0.10024526170E+02  0.22152741408E+02  0.51100000000E-03 0. -1.
        -11    1    3    3    0    0 -0.76931053987E+01 -0.12348923536E+01  0.55713070641E+01  0.95785328973E+01  0.51100000000E-03 0.  1.
         12    1    3    3    0    0  0.31484522853E+02 -0.19020536465E+02  0.17489496003E+02  0.40730068219E+02  0.00000000000E+00 0. -1.
</event>
<event>
 7    1  0.3020651E-013  0.7246156E+02  0.7816164E-02  0.1226708E+00
        -11   -1    0    0    0    0  0.00000000000E+00  0.00000000000E+00  0.45593999997E+02  0.45594000000E+02  0.51100000000E-03 0.  1.
         11   -1    0    0    0    0 -0.00000000000E+00 -0.00000000000E+00 -0.45593999997E+02  0.45594000000E+02  0.51100000000E-03 0. -1.
    9900012    2    1    2    0    0 -0.11727636833E+02  0.14428221572E+02 -0.22289908440E+01  0.72461562976E+02  0.69999990466E+02 0.  0.
         12    1    1    2    0    0  0.11727636833E+02 -0.14428221572E+02  0.22289908440E+01  0.18726437024E+02  0.00000000000E+00 0. -1.
         11    1    3    3    0    0  0.18235281051E+01  0.85659955233E+01  0.18067161872E+02  0.20077944925E+02  0.51100000000E-03 0.  1.
        -11    1    3    3    0    0  0.82304849060E+01  0.19379510481E+02 -0.25574149332E+01  0.21209589333E+02  0.51100000000E-03 0. -1.
         12    1    3    3    0    0 -0.21781649844E+02 -0.13517284432E+02 -0.17738737783E+02  0.31174028718E+02  0.00000000000E+00 0. -1.
</event>
<event>
 7    1  0.3020651E-013  0.7246151E+02  0.7816164E-02  0.1226708E+00
        -11   -1    0    0    0    0  0.00000000000E+00  0.00000000000E+00  0.45593999997E+02  0.45594000000E+02  0.51100000000E-03 0.  1.
         11   -1    0    0    0    0 -0.00000000000E+00 -0.00000000000E+00 -0.45593999997E+02  0.45594000000E+02  0.51100000000E-03 0. -1.
    9900012    2    1    2    0    0 -0.18625286936E+02  0.19275621783E+01 -0.25430431005E+00  0.72461508602E+02  0.69999919635E+02 0.  0.
         12    1    1    2    0    0  0.18625286936E+02 -0.19275621783E+01  0.25430431005E+00  0.18726491398E+02  0.00000000000E+00 0. -1.
         11    1    3    3    0    0 -0.41718487417E+00 -0.12452201487E+02 -0.32610032658E+01  0.12878878354E+02  0.51100000000E-03 0. -1.
        -11    1    3    3    0    0 -0.95562009336E+00 -0.12846915929E+02  0.19503303528E+02  0.23373816706E+02  0.51100000000E-03 0.  1.
         12    1    3    3    0    0 -0.17252481968E+02  0.27226679594E+02 -0.16496604572E+02  0.36208813543E+02  0.00000000000E+00 0. -1.
</event>
<event>
 7    1  0.3020651E-013  0.7246129E+02  0.7816164E-02  0.1226709E+00
        -11   -1    0    0    0    0  0.00000000000E+00  0.00000000000E+00  0.45593999997E+02  0.45594000000E+02  0.51100000000E-03 0.  1.
         11   -1    0    0    0    0 -0.00000000000E+00 -0.00000000000E+00 -0.45593999997E+02  0.45594000000E+02  0.51100000000E-03 0. -1.
    9900012    2    1    2    0    0  0.16996303894E+02 -0.78222151057E+01  0.79267772631E+00  0.72461288244E+02  0.69999632577E+02 0.  0.
         12    1    1    2    0    0 -0.16996303894E+02  0.78222151057E+01 -0.79267772631E+00  0.18726711756E+02  0.00000000000E+00 0. -1.
         11    1    3    3    0    0  0.53249912228E+01 -0.19600431039E+02 -0.18673442244E+02  0.27590394596E+02  0.51100000000E-03 0. -1.
        -11    1    3    3    0    0  0.20780224273E+02 -0.48417209696E+01  0.84475682792E+01  0.22948232892E+02  0.51100000000E-03 0.  1.
        -12    1    3    3    0    0 -0.91089116021E+01  0.16619936903E+02  0.11018551692E+02  0.21922660756E+02  0.00000000000E+00 0.  1.
</event>
<event>
 7    1  0.3020651E-013  0.7246142E+02  0.7816164E-02  0.1226708E+00
        -11   -1    0    0    0    0  0.00000000000E+00  0.00000000000E+00  0.45593999997E+02  0.45594000000E+02  0.51100000000E-03 0.  1.
         11   -1    0    0    0    0 -0.00000000000E+00 -0.00000000000E+00 -0.45593999997E+02  0.45594000000E+02  0.51100000000E-03 0. -1.
    9900012    2    1    2    0    0  0.10827353516E+01  0.89108584229E+01  0.16434996866E+02  0.72461419008E+02  0.69999802921E+02 0.  0.
         12    1    1    2    0    0 -0.10827353516E+01 -0.89108584229E+01 -0.16434996866E+02  0.18726580992E+02  0.00000000000E+00 0. -1.
         11    1    3    3    0    0  0.18435361704E+02 -0.17440396609E+02  0.15478340323E+02  0.29725561634E+02  0.51100000000E-03 0. -1.
        -11    1    3    3    0    0 -0.96323217533E+01 -0.46957347079E+01 -0.27815747616E+00  0.10719557764E+02  0.51100000000E-03 0.  1.
        -12    1    3    3    0    0 -0.77203045994E+01  0.31046989740E+02  0.12348140188E+01  0.32016299610E+02  0.00000000000E+00 0.  1.
</event>
<event>
 7    1  0.3020651E-013  0.7246156E+02  0.7816164E-02  0.1226708E+00
        -11   -1    0    0    0    0  0.00000000000E+00  0.00000000000E+00  0.45593999997E+02  0.45594000000E+02  0.51100000000E-03 0.  1.
         11   -1    0    0    0    0 -0.00000000000E+00 -0.00000000000E+00 -0.45593999997E+02  0.45594000000E+02  0.51100000000E-03 0. -1.
    9900012    2    1    2    0    0 -0.28977690443E+01  0.14879428642E+02  0.10994767962E+02  0.72461564549E+02  0.69999992516E+02 0.  0.
         12    1    1    2    0    0  0.28977690443E+01 -0.14879428642E+02 -0.10994767962E+02  0.18726435451E+02  0.00000000000E+00 0. -1.
         11    1    3    3    0    0 -0.70727367417E+00  0.15304579472E+02  0.16570806065E+02  0.22568163478E+02  0.51100000000E-03 0. -1.
        -11    1    3    3    0    0 -0.21305060137E+02  0.12965312760E+02  0.28020953319E+01  0.25096945251E+02  0.51100000000E-03 0.  1.
         12    1    3    3    0    0  0.19114564767E+02 -0.13390463590E+02 -0.83781334346E+01  0.24796455820E+02  0.00000000000E+00 0. -1.
</event>
<event>
 7    1  0.3020651E-013  0.7246159E+02  0.7816164E-02  0.1226708E+00
        -11   -1    0    0    0    0  0.00000000000E+00  0.00000000000E+00  0.45593999997E+02  0.45594000000E+02  0.51100000000E-03 0. -1.
         11   -1    0    0    0    0 -0.00000000000E+00 -0.00000000000E+00 -0.45593999997E+02  0.45594000000E+02  0.51100000000E-03 0.  1.
    9900012    2    1    2    0    0 -0.13842222980E+02  0.13282306620E+01 -0.12542217335E+02  0.72461586852E+02  0.70000021570E+02 0.  0.
         12    1    1    2    0    0  0.13842222980E+02 -0.13282306620E+01  0.12542217335E+02  0.18726413148E+02  0.00000000000E+00 0. -1.
         11    1    3    3    0    0  0.15383026691E+02 -0.21876041838E+01 -0.12828908054E+02  0.20149541046E+02  0.51100000000E-03 0. -1.
        -11    1    3    3    0    0 -0.37401121843E+02  0.82736433014E+01 -0.86818398806E+01  0.39276856195E+02  0.51100000000E-03 0.  1.
         12    1    3    3    0    0  0.81758721720E+01 -0.47578084556E+01  0.89685306001E+01  0.13035189611E+02  0.00000000000E+00 0. -1.
</event>
<event>
 7    1  0.3020651E-013  0.7246131E+02  0.7816164E-02  0.1226709E+00
        -11   -1    0    0    0    0  0.00000000000E+00  0.00000000000E+00  0.45593999997E+02  0.45594000000E+02  0.51100000000E-03 0. -1.
         11   -1    0    0    0    0 -0.00000000000E+00 -0.00000000000E+00 -0.45593999997E+02  0.45594000000E+02  0.51100000000E-03 0.  1.
    9900012    2    1    2    0    0 -0.13157607234E+02 -0.44979807680E+01 -0.12543304799E+02  0.72461309038E+02  0.69999659664E+02 0.  0.
         12    1    1    2    0    0  0.13157607234E+02  0.44979807680E+01  0.12543304799E+02  0.18726690962E+02  0.00000000000E+00 0. -1.
         11    1    3    3    0    0  0.80532703480E+01  0.69633016189E+01  0.38598050318E+01  0.11324346687E+02  0.51100000000E-03 0.  1.
        -11    1    3    3    0    0 -0.18983555562E+01  0.18307610143E+02 -0.17827066878E+02  0.25623751808E+02  0.51100000000E-03 0. -1.
        -12    1    3    3    0    0 -0.19312522025E+02 -0.29768892530E+02  0.14239570472E+01  0.35513210543E+02  0.00000000000E+00 0.  1.
</event>
<event>
 7    1  0.3020651E-013  0.7246171E+02  0.7816164E-02  0.1226708E+00
        -11   -1    0    0    0    0  0.00000000000E+00  0.00000000000E+00  0.45593999997E+02  0.45594000000E+02  0.51100000000E-03 0. -1.
         11   -1    0    0    0    0 -0.00000000000E+00 -0.00000000000E+00 -0.45593999997E+02  0.45594000000E+02  0.51100000000E-03 0.  1.
    9900012    2    1    2    0    0 -0.65855339239E+01 -0.37723347942E+01 -0.17119409337E+02  0.72461709847E+02  0.70000181793E+02 0.  0.
         12    1    1    2    0    0  0.65855339239E+01  0.37723347942E+01  0.17119409337E+02  0.18726290153E+02  0.00000000000E+00 0. -1.
         11    1    3    3    0    0  0.11588679345E+01  0.11912040569E+02 -0.71279388758E+01  0.13930082493E+02  0.51100000000E-03 0. -1.
        -11    1    3    3    0    0  0.27225142497E+01  0.54826358646E+01 -0.28109432926E+02  0.28768239424E+02  0.51100000000E-03 0.  1.
        -12    1    3    3    0    0 -0.10466916108E+02 -0.21167011227E+02  0.18117962465E+02  0.29763387929E+02  0.00000000000E+00 0.  1.
</event>
<event>
 7    1  0.3020651E-013  0.7246158E+02  0.7816164E-02  0.1226708E+00
        -11   -1    0    0    0    0  0.00000000000E+00  0.00000000000E+00  0.45593999997E+02  0.45594000000E+02  0.51100000000E-03 0.  1.
         11   -1    0    0    0    0 -0.00000000000E+00 -0.00000000000E+00 -0.45593999997E+02  0.45594000000E+02  0.51100000000E-03 0. -1.
    9900012    2    1    2    0    0  0.92692008670E+01 -0.15989673301E+02  0.30151442419E+01  0.72461579312E+02  0.70000011747E+02 0.  0.
         12    1    1    2    0    0 -0.92692008670E+01  0.15989673301E+02 -0.30151442419E+01  0.18726420688E+02  0.00000000000E+00 0. -1.
         11    1    3    3    0    0  0.46824158808E+01 -0.13510470174E+02  0.76222989201E+01  0.16203618852E+02  0.51100000000E-03 0. -1.
        -11    1    3    3    0    0 -0.13611336168E+02 -0.23855748522E+02  0.15781984819E+01  0.27511014531E+02  0.51100000000E-03 0.  1.
         12    1    3    3    0    0  0.18198121154E+02  0.21376545394E+02 -0.61853531602E+01  0.28746945929E+02  0.00000000000E+00 0. -1.
</event>
<event>
 7    1  0.3020651E-013  0.7246169E+02  0.7816164E-02  0.1226708E+00
        -11   -1    0    0    0    0  0.00000000000E+00  0.00000000000E+00  0.45593999997E+02  0.45594000000E+02  0.51100000000E-03 0.  1.
         11   -1    0    0    0    0 -0.00000000000E+00 -0.00000000000E+00 -0.45593999997E+02  0.45594000000E+02  0.51100000000E-03 0. -1.
    9900012    2    1    2    0    0  0.92233818800E+01  0.90089454638E+01  0.13580969674E+02  0.72461692063E+02  0.70000158626E+02 0.  0.
         12    1    1    2    0    0 -0.92233818800E+01 -0.90089454638E+01 -0.13580969674E+02  0.18726307937E+02  0.00000000000E+00 0. -1.
         11    1    3    3    0    0  0.14363693335E+02  0.15032475870E+02  0.15267837427E+01  0.20847591848E+02  0.51100000000E-03 0. -1.
        -11    1    3    3    0    0  0.10371671398E+02  0.14291223257E+02  0.18165515934E+02  0.25333704806E+02  0.51100000000E-03 0.  1.
         12    1    3    3    0    0 -0.15511982853E+02 -0.20314753663E+02 -0.61113300027E+01  0.26280395409E+02  0.00000000000E+00 0. -1.
</event>
<event>
 7    1  0.3063118E-013  0.7246155E+02  0.7816164E-02  0.1226708E+00
        -11   -1    0    0    0    0  0.00000000000E+00  0.00000000000E+00  0.45593999997E+02  0.45594000000E+02  0.51100000000E-03 0. -1.
         11   -1    0    0    0    0 -0.00000000000E+00 -0.00000000000E+00 -0.45593999997E+02  0.45594000000E+02  0.51100000000E-03 0.  1.
    9900012    2    1    2    0    0  0.87218864159E+01  0.61399512051E+01 -0.15391864027E+02  0.72461553950E+02  0.69999978708E+02 0.  0.
         12    1    1    2    0    0 -0.87218864159E+01 -0.61399512051E+01  0.15391864027E+02  0.18726446050E+02  0.00000000000E+00 0. -1.
         11    1    3    3    0    0 -0.11515216082E+02  0.32303594548E+01  0.40569181192E-01  0.11959810606E+02  0.51100000000E-03 0. -1.
        -11    1    3    3    0    0 -0.58937090234E+00  0.12972072717E+00 -0.33066061460E+02  0.33071567943E+02  0.51100000000E-03 0.  1.
         12    1    3    3    0    0  0.20826473400E+02  0.27798710232E+01  0.17633628252E+02  0.27430175400E+02  0.00000000000E+00 0. -1.
</event>
<event>
 7    1  0.3020651E-013  0.7246159E+02  0.7816164E-02  0.1226708E+00
        -11   -1    0    0    0    0  0.00000000000E+00  0.00000000000E+00  0.45593999997E+02  0.45594000000E+02  0.51100000000E-03 0.  1.
         11   -1    0    0    0    0 -0.00000000000E+00 -0.00000000000E+00 -0.45593999997E+02  0.45594000000E+02  0.51100000000E-03 0. -1.
    9900012    2    1    2    0    0 -0.87396564452E+01 -0.67406549117E+01 -0.15128136632E+02  0.72461587066E+02  0.70000021848E+02 0.  0.
         12    1    1    2    0    0  0.87396564452E+01  0.67406549117E+01  0.15128136632E+02  0.18726412934E+02  0.00000000000E+00 0. -1.
         11    1    3    3    0    0  0.88142578828E-01 -0.70165142313E+01 -0.12938345984E+01  0.71353520797E+01  0.51100000000E-03 0. -1.
        -11    1    3    3    0    0 -0.31261683173E+02 -0.14296769723E+02 -0.17068468541E+02  0.38379982776E+02  0.51100000000E-03 0.  1.
         12    1    3    3    0    0  0.22433884149E+02  0.14572629042E+02  0.32341665072E+01  0.26946252211E+02  0.00000000000E+00 0. -1.
</event>
<event>
 7    1  0.3020651E-013  0.7246156E+02  0.7816164E-02  0.1226708E+00
        -11   -1    0    0    0    0  0.00000000000E+00  0.00000000000E+00  0.45593999997E+02  0.45594000000E+02  0.51100000000E-03 0.  1.
         11   -1    0    0    0    0 -0.00000000000E+00 -0.00000000000E+00 -0.45593999997E+02  0.45594000000E+02  0.51100000000E-03 0. -1.
    9900012    2    1    2    0    0  0.99435564024E+01 -0.71062466552E+01  0.14188257307E+02  0.72461556107E+02  0.69999981519E+02 0.  0.
         12    1    1    2    0    0 -0.99435564024E+01  0.71062466552E+01 -0.14188257307E+02  0.18726443893E+02  0.00000000000E+00 0. -1.
         11    1    3    3    0    0  0.37330549348E-01  0.87152191037E+00  0.77549257007E+01  0.78038334743E+01  0.51100000000E-03 0. -1.
        -11    1    3    3    0    0  0.29889319737E+02 -0.12774716648E+02  0.21677551067E+02  0.39070206555E+02  0.51100000000E-03 0.  1.
         12    1    3    3    0    0 -0.19983093884E+02  0.47969480828E+01 -0.15244219460E+02  0.25587516078E+02  0.00000000000E+00 0. -1.
</event>
<event>
 7    1  0.3020651E-013  0.7246161E+02  0.7816164E-02  0.1226708E+00
        -11   -1    0    0    0    0  0.00000000000E+00  0.00000000000E+00  0.45593999997E+02  0.45594000000E+02  0.51100000000E-03 0. -1.
         11   -1    0    0    0    0 -0.00000000000E+00 -0.00000000000E+00 -0.45593999997E+02  0.45594000000E+02  0.51100000000E-03 0.  1.
    9900012    2    1    2    0    0  0.10322011221E+02 -0.33324259589E+01 -0.15265273756E+02  0.72461613236E+02  0.70000055939E+02 0.  0.
         12    1    1    2    0    0 -0.10322011221E+02  0.33324259589E+01  0.15265273756E+02  0.18726386764E+02  0.00000000000E+00 0. -1.
         11    1    3    3    0    0  0.61964334961E+01 -0.13208806939E+02 -0.36032201727E+01  0.15028358682E+02  0.51100000000E-03 0. -1.
        -11    1    3    3    0    0  0.10518853889E+02 -0.11539256170E+02 -0.26392900066E+02  0.30665712029E+02  0.51100000000E-03 0.  1.
         12    1    3    3    0    0 -0.63932761648E+01  0.21415637150E+02  0.14730846483E+02  0.26767542524E+02  0.00000000000E+00 0. -1.
</event>
<event>
 7    1  0.3020651E-013  0.7246153E+02  0.7816164E-02  0.1226708E+00
        -11   -1    0    0    0    0  0.00000000000E+00  0.00000000000E+00  0.45593999997E+02  0.45594000000E+02  0.51100000000E-03 0. -1.
         11   -1    0    0    0    0 -0.00000000000E+00 -0.00000000000E+00 -0.45593999997E+02  0.45594000000E+02  0.51100000000E-03 0.  1.
    9900012    2    1    2    0    0 -0.15854035734E+02  0.62901282546E+01 -0.77307542457E+01  0.72461528797E+02  0.69999945941E+02 0.  0.
         12    1    1    2    0    0  0.15854035734E+02 -0.62901282546E+01  0.77307542457E+01  0.18726471203E+02  0.00000000000E+00 0. -1.
         11    1    3    3    0    0 -0.28186975171E+02  0.71779374842E+01 -0.57038884971E+01  0.29640558363E+02  0.51100000000E-03 0. -1.
        -11    1    3    3    0    0  0.15233003378E+01 -0.83948134597E+01 -0.19302160715E+02  0.21103714021E+02  0.51100000000E-03 0.  1.
         12    1    3    3    0    0  0.10809639099E+02  0.75070042302E+01  0.17275294966E+02  0.21717256413E+02  0.00000000000E+00 0. -1.
</event>
<event>
 7    1  0.3020651E-013  0.7246161E+02  0.7816164E-02  0.1226708E+00
        -11   -1    0    0    0    0  0.00000000000E+00  0.00000000000E+00  0.45593999997E+02  0.45594000000E+02  0.51100000000E-03 0. -1.
         11   -1    0    0    0    0 -0.00000000000E+00 -0.00000000000E+00 -0.45593999997E+02  0.45594000000E+02  0.51100000000E-03 0.  1.
    9900012    2    1    2    0    0 -0.47007705981E+01  0.12267776693E+02 -0.13344737645E+02  0.72461611880E+02  0.70000054173E+02 0.  0.
         12    1    1    2    0    0  0.47007705981E+01 -0.12267776693E+02  0.13344737645E+02  0.18726388120E+02  0.00000000000E+00 0. -1.
         11    1    3    3    0    0 -0.11101796067E+02  0.10876157408E+02  0.71413729759E+01  0.17103797359E+02  0.51100000000E-03 0. -1.
        -11    1    3    3    0    0 -0.17355686043E+02 -0.13901517969E+02 -0.38418768068E+01  0.22566170644E+02  0.51100000000E-03 0.  1.
        -12    1    3    3    0    0  0.23756711511E+02  0.15293137255E+02 -0.16644233814E+02  0.32791643877E+02  0.00000000000E+00 0.  1.
</event>
<event>
 7    1  0.3020651E-013  0.7246160E+02  0.7816164E-02  0.1226708E+00
        -11   -1    0    0    0    0  0.00000000000E+00  0.00000000000E+00  0.45593999997E+02  0.45594000000E+02  0.51100000000E-03 0.  1.
         11   -1    0    0    0    0 -0.00000000000E+00 -0.00000000000E+00 -0.45593999997E+02  0.45594000000E+02  0.51100000000E-03 0. -1.
    9900012    2    1    2    0    0  0.43691578305E+01  0.29802491102E+01  0.17964038631E+02  0.72461598614E+02  0.70000036892E+02 0.  0.
         12    1    1    2    0    0 -0.43691578305E+01 -0.29802491102E+01 -0.17964038631E+02  0.18726401386E+02  0.00000000000E+00 0. -1.
         11    1    3    3    0    0  0.10021037351E+02  0.14710113199E+02 -0.25420160200E+01  0.17979723736E+02  0.51100000000E-03 0. -1.
        -11    1    3    3    0    0 -0.64375187691E-02  0.18323679794E+02  0.14386111649E+02  0.23296297802E+02  0.51100000000E-03 0.  1.
        -12    1    3    3    0    0 -0.56454420015E+01 -0.30053543882E+02  0.61199430025E+01  0.31185577077E+02  0.00000000000E+00 0.  1.
</event>
<event>
 7    1  0.3020651E-013  0.7246157E+02  0.7816164E-02  0.1226708E+00
        -11   -1    0    0    0    0  0.00000000000E+00  0.00000000000E+00  0.45593999997E+02  0.45594000000E+02  0.51100000000E-03 0. -1.
         11   -1    0    0    0    0 -0.00000000000E+00 -0.00000000000E+00 -0.45593999997E+02  0.45594000000E+02  0.51100000000E-03 0.  1.
    9900012    2    1    2    0    0  0.97586126867E+01 -0.31691740760E+01 -0.15665403976E+02  0.72461573015E+02  0.70000003544E+02 0.  0.
         12    1    1    2    0    0 -0.97586126867E+01  0.31691740760E+01  0.15665403976E+02  0.18726426985E+02  0.00000000000E+00 0. -1.
         11    1    3    3    0    0  0.68079407693E+01 -0.45016301561E+01  0.17446851692E+02  0.19261499573E+02  0.51100000000E-03 0. -1.
        -11    1    3    3    0    0  0.95787720806E+01 -0.10216295637E+02  0.33354430105E+01  0.14396206148E+02  0.51100000000E-03 0.  1.
        -12    1    3    3    0    0 -0.66281001632E+01  0.11548751717E+02 -0.36447698679E+02  0.38803867294E+02  0.00000000000E+00 0.  1.
</event>
<event>
 7    1  0.3020651E-013  0.7246157E+02  0.7816164E-02  0.1226708E+00
        -11   -1    0    0    0    0  0.00000000000E+00  0.00000000000E+00  0.45593999997E+02  0.45594000000E+02  0.51100000000E-03 0. -1.
         11   -1    0    0    0    0 -0.00000000000E+00 -0.00000000000E+00 -0.45593999997E+02  0.45594000000E+02  0.51100000000E-03 0.  1.
    9900012    2    1    2    0    0  0.12622393613E+02 -0.80052032432E+01 -0.11281453942E+02  0.72461566743E+02  0.69999995373E+02 0.  0.
         12    1    1    2    0    0 -0.12622393613E+02  0.80052032432E+01  0.11281453942E+02  0.18726433257E+02  0.00000000000E+00 0. -1.
         11    1    3    3    0    0 -0.86071917064E+00 -0.72460243687E+01  0.56366943171E+01  0.92205222048E+01  0.51100000000E-03 0. -1.
        -11    1    3    3    0    0  0.26880311767E+02 -0.17929573114E+02 -0.24099607628E+02  0.40308954847E+02  0.51100000000E-03 0.  1.
        -12    1    3    3    0    0 -0.13397198983E+02  0.17170394240E+02  0.71814593689E+01  0.22932089691E+02  0.00000000000E+00 0.  1.
</event>
<event>
 7    1  0.3020651E-013  0.7246162E+02  0.7816164E-02  0.1226708E+00
        -11   -1    0    0    0    0  0.00000000000E+00  0.00000000000E+00  0.45593999997E+02  0.45594000000E+02  0.51100000000E-03 0. -1.
         11   -1    0    0    0    0 -0.00000000000E+00 -0.00000000000E+00 -0.45593999997E+02  0.45594000000E+02  0.51100000000E-03 0.  1.
    9900012    2    1    2    0    0  0.14904739903E+02 -0.70543115310E+01 -0.88748266651E+01  0.72461624721E+02  0.70000070901E+02 0.  0.
         12    1    1    2    0    0 -0.14904739903E+02  0.70543115310E+01  0.88748266651E+01  0.18726375279E+02  0.00000000000E+00 0. -1.
         11    1    3    3    0    0  0.20866968780E+02  0.10582041623E+02  0.45757056177E+01  0.23840030896E+02  0.51100000000E-03 0. -1.
        -11    1    3    3    0    0  0.10089383528E+02  0.88529388649E+01 -0.11348438582E+02  0.17577179667E+02  0.51100000000E-03 0.  1.
         12    1    3    3    0    0 -0.16051612405E+02 -0.26489292019E+02 -0.21020937009E+01  0.31044414158E+02  0.00000000000E+00 0. -1.
</event>
<event>
 7    1  0.3020651E-013  0.7246138E+02  0.7816164E-02  0.1226709E+00
        -11   -1    0    0    0    0  0.00000000000E+00  0.00000000000E+00  0.45593999997E+02  0.45594000000E+02  0.51100000000E-03 0. -1.
         11   -1    0    0    0    0 -0.00000000000E+00 -0.00000000000E+00 -0.45593999997E+02  0.45594000000E+02  0.51100000000E-03 0.  1.
    9900012    2    1    2    0    0 -0.12902228406E+02 -0.12984075922E+02  0.39538155331E+01  0.72461377703E+02  0.69999749113E+02 0.  0.
         12    1    1    2    0    0  0.12902228406E+02  0.12984075922E+02 -0.39538155331E+01  0.18726622297E+02  0.00000000000E+00 0. -1.
         11    1    3    3    0    0 -0.24889658721E+02 -0.36760792545E+01  0.16460104068E+02  0.30065656422E+02  0.51100000000E-03 0. -1.
        -11    1    3    3    0    0  0.72652832374E+01 -0.80915433790E+01  0.12701388041E+02  0.16720725858E+02  0.51100000000E-03 0.  1.
        -12    1    3    3    0    0  0.47221470769E+01 -0.12164532884E+01 -0.25207676576E+02  0.25674995423E+02  0.00000000000E+00 0.  1.
</event>
<event>
 7    1  0.3020651E-013  0.7246157E+02  0.7816164E-02  0.1226708E+00
        -11   -1    0    0    0    0  0.00000000000E+00  0.00000000000E+00  0.45593999997E+02  0.45594000000E+02  0.51100000000E-03 0. -1.
         11   -1    0    0    0    0 -0.00000000000E+00 -0.00000000000E+00 -0.45593999997E+02  0.45594000000E+02  0.51100000000E-03 0.  1.
    9900012    2    1    2    0    0  0.14625189190E+02  0.10310543564E+02 -0.55204866786E+01  0.72461568396E+02  0.69999997527E+02 0.  0.
         12    1    1    2    0    0 -0.14625189190E+02 -0.10310543564E+02  0.55204866786E+01  0.18726431604E+02  0.00000000000E+00 0. -1.
         11    1    3    3    0    0  0.17261141670E+02 -0.14829045199E+02  0.17312789464E+02  0.28593360637E+02  0.51100000000E-03 0. -1.
        -11    1    3    3    0    0  0.45922631924E+01 -0.37614277248E+01  0.59848102632E+00  0.59661880256E+01  0.51100000000E-03 0.  1.
        -12    1    3    3    0    0 -0.72282156718E+01  0.28901016488E+02 -0.23431757169E+02  0.37902019733E+02  0.00000000000E+00 0.  1.
</event>
<event>
 7    1  0.3020651E-013  0.7246148E+02  0.7816164E-02  0.1226708E+00
        -11   -1    0    0    0    0  0.00000000000E+00  0.00000000000E+00  0.45593999997E+02  0.45594000000E+02  0.51100000000E-03 0. -1.
         11   -1    0    0    0    0 -0.00000000000E+00 -0.00000000000E+00 -0.45593999997E+02  0.45594000000E+02  0.51100000000E-03 0.  1.
    9900012    2    1    2    0    0 -0.37987044931E+01  0.16246803032E+02 -0.85025728487E+01  0.72461481112E+02  0.69999883824E+02 0.  0.
         12    1    1    2    0    0  0.37987044931E+01 -0.16246803032E+02  0.85025728487E+01  0.18726518888E+02  0.00000000000E+00 0. -1.
         11    1    3    3    0    0  0.13383108140E+02 -0.14163188437E+02  0.10917174163E+02  0.22335804936E+02  0.51100000000E-03 0. -1.
        -11    1    3    3    0    0  0.56577870265E+01 -0.15926695091E+01  0.76999082271E+00  0.59279031985E+01  0.51100000000E-03 0.  1.
        -12    1    3    3    0    0 -0.22839599660E+02  0.32002660978E+02 -0.20189737835E+02  0.44197772977E+02  0.00000000000E+00 0.  1.
</event>
<event>
 7    1  0.3020651E-013  0.7246156E+02  0.7816164E-02  0.1226708E+00
        -11   -1    0    0    0    0  0.00000000000E+00  0.00000000000E+00  0.45593999997E+02  0.45594000000E+02  0.51100000000E-03 0.  1.
         11   -1    0    0    0    0 -0.00000000000E+00 -0.00000000000E+00 -0.45593999997E+02  0.45594000000E+02  0.51100000000E-03 0. -1.
    9900012    2    1    2    0    0 -0.10462210971E+02  0.10645815537E+02  0.11308778994E+02  0.72461555351E+02  0.69999980534E+02 0.  0.
         12    1    1    2    0    0  0.10462210971E+02 -0.10645815537E+02 -0.11308778994E+02  0.18726444649E+02  0.00000000000E+00 0. -1.
         11    1    3    3    0    0  0.59547448663E+01  0.34849379782E+02  0.10258472738E+01  0.35369345774E+02  0.51100000000E-03 0. -1.
        -11    1    3    3    0    0  0.16316969865E+01  0.20717977206E+01 -0.15858227243E+01  0.30772739275E+01  0.51100000000E-03 0.  1.
        -12    1    3    3    0    0 -0.18048652824E+02 -0.26275361966E+02  0.11868754444E+02  0.34014935650E+02  0.00000000000E+00 0.  1.
</event>
<event>
 7    1  0.3020651E-013  0.7246155E+02  0.7816164E-02  0.1226708E+00
        -11   -1    0    0    0    0  0.00000000000E+00  0.00000000000E+00  0.45593999997E+02  0.45594000000E+02  0.51100000000E-03 0. -1.
         11   -1    0    0    0    0 -0.00000000000E+00 -0.00000000000E+00 -0.45593999997E+02  0.45594000000E+02  0.51100000000E-03 0.  1.
    9900012    2    1    2    0    0  0.24020481895E+01 -0.17066727079E+02  0.73237341146E+01  0.72461545715E+02  0.69999967981E+02 0.  0.
         12    1    1    2    0    0 -0.24020481895E+01  0.17066727079E+02 -0.73237341146E+01  0.18726454285E+02  0.00000000000E+00 0. -1.
         11    1    3    3    0    0 -0.65747776349E+01  0.13231089875E+02 -0.58827715380E+01  0.15902718052E+02  0.51100000000E-03 0. -1.
        -11    1    3    3    0    0  0.20551890931E+02 -0.20590628427E+02 -0.83218314031E+01  0.30258999951E+02  0.51100000000E-03 0.  1.
         12    1    3    3    0    0 -0.11575065107E+02 -0.97071885268E+01  0.21528337056E+02  0.26299827712E+02  0.00000000000E+00 0. -1.
</event>
<event>
 7    1  0.3020651E-013  0.7246157E+02  0.7816164E-02  0.1226708E+00
        -11   -1    0    0    0    0  0.00000000000E+00  0.00000000000E+00  0.45593999997E+02  0.45594000000E+02  0.51100000000E-03 0. -1.
         11   -1    0    0    0    0 -0.00000000000E+00 -0.00000000000E+00 -0.45593999997E+02  0.45594000000E+02  0.51100000000E-03 0.  1.
    9900012    2    1    2    0    0 -0.13029249415E+02  0.10528554639E+02 -0.83706238615E+01  0.72461570897E+02  0.70000000785E+02 0.  0.
         12    1    1    2    0    0  0.13029249415E+02 -0.10528554639E+02  0.83706238615E+01  0.18726429103E+02  0.00000000000E+00 0. -1.
         11    1    3    3    0    0  0.27604486557E+00  0.20466238274E+02  0.17523460457E+02  0.26944661373E+02  0.51100000000E-03 0. -1.
        -11    1    3    3    0    0  0.71374250702E+00 -0.95819528649E+01  0.55437778381E+01  0.11093093439E+02  0.51100000000E-03 0.  1.
        -12    1    3    3    0    0 -0.14019036788E+02 -0.35573077020E+00 -0.31437862157E+02  0.34423816085E+02  0.00000000000E+00 0.  1.
</event>
<event>
 7    1  0.3020651E-013  0.7246153E+02  0.7816164E-02  0.1226708E+00
        -11   -1    0    0    0    0  0.00000000000E+00  0.00000000000E+00  0.45593999997E+02  0.45594000000E+02  0.51100000000E-03 0.  1.
         11   -1    0    0    0    0 -0.00000000000E+00 -0.00000000000E+00 -0.45593999997E+02  0.45594000000E+02  0.51100000000E-03 0. -1.
    9900012    2    1    2    0    0  0.56359989299E+01  0.11681172611E+02  0.13508012019E+02  0.72461530333E+02  0.69999947942E+02 0.  0.
         12    1    1    2    0    0 -0.56359989299E+01 -0.11681172611E+02 -0.13508012019E+02  0.18726469667E+02  0.00000000000E+00 0. -1.
         11    1    3    3    0    0  0.64695159212E+01 -0.20073340007E+02  0.17070825621E+02  0.27133129251E+02  0.51100000000E-03 0. -1.
        -11    1    3    3    0    0  0.12568796932E+02  0.32982425666E+01  0.26613139281E+01  0.13264073749E+02  0.51100000000E-03 0.  1.
        -12    1    3    3    0    0 -0.13402313923E+02  0.28456270051E+02 -0.62241275306E+01  0.32064327332E+02  0.00000000000E+00 0.  1.
</event>
<event>
 7    1  0.3020651E-013  0.7246165E+02  0.7816164E-02  0.1226708E+00
        -11   -1    0    0    0    0  0.00000000000E+00  0.00000000000E+00  0.45593999997E+02  0.45594000000E+02  0.51100000000E-03 0.  1.
         11   -1    0    0    0    0 -0.00000000000E+00 -0.00000000000E+00 -0.45593999997E+02  0.45594000000E+02  0.51100000000E-03 0. -1.
    9900012    2    1    2    0    0 -0.53788668985E+01 -0.47868459854E+01  0.17286705902E+02  0.72461646790E+02  0.70000099650E+02 0.  0.
         12    1    1    2    0    0  0.53788668985E+01  0.47868459854E+01 -0.17286705902E+02  0.18726353210E+02  0.00000000000E+00 0. -1.
         11    1    3    3    0    0  0.13324981681E+01 -0.15547129607E+00 -0.11630401231E+02  0.11707517061E+02  0.51100000000E-03 0. -1.
        -11    1    3    3    0    0  0.96119627664E+01  0.18324498674E+02  0.43646352934E+00  0.20697042797E+02  0.51100000000E-03 0.  1.
        -12    1    3    3    0    0 -0.16323327833E+02 -0.22955873363E+02  0.28480643603E+02  0.40057086932E+02  0.00000000000E+00 0.  1.
</event>
<event>
 7    1  0.3020651E-013  0.7246155E+02  0.7816164E-02  0.1226708E+00
        -11   -1    0    0    0    0  0.00000000000E+00  0.00000000000E+00  0.45593999997E+02  0.45594000000E+02  0.51100000000E-03 0.  1.
         11   -1    0    0    0    0 -0.00000000000E+00 -0.00000000000E+00 -0.45593999997E+02  0.45594000000E+02  0.51100000000E-03 0. -1.
    9900012    2    1    2    0    0 -0.11192274404E+02  0.68551233465E+01  0.13357398161E+02  0.72461553245E+02  0.69999977790E+02 0.  0.
         12    1    1    2    0    0  0.11192274404E+02 -0.68551233465E+01 -0.13357398161E+02  0.18726446755E+02  0.00000000000E+00 0. -1.
         11    1    3    3    0    0 -0.63097266297E+01  0.18047180088E+02 -0.14535193663E+01  0.19173577603E+02  0.51100000000E-03 0. -1.
        -11    1    3    3    0    0 -0.24203374240E+02  0.49302172431E+01  0.13360610793E+02  0.28082312720E+02  0.51100000000E-03 0.  1.
        -12    1    3    3    0    0  0.19320826466E+02 -0.16122273985E+02  0.14503067344E+01  0.25205662923E+02  0.00000000000E+00 0.  1.
</event>
<event>
 7    1  0.3020651E-013  0.7246153E+02  0.7816164E-02  0.1226708E+00
        -11   -1    0    0    0    0  0.00000000000E+00  0.00000000000E+00  0.45593999997E+02  0.45594000000E+02  0.51100000000E-03 0. -1.
         11   -1    0    0    0    0 -0.00000000000E+00 -0.00000000000E+00 -0.45593999997E+02  0.45594000000E+02  0.51100000000E-03 0.  1.
    9900012    2    1    2    0    0  0.12261029039E+01 -0.60650700056E+01 -0.17674618161E+02  0.72461533978E+02  0.69999952692E+02 0.  0.
         12    1    1    2    0    0 -0.12261029039E+01  0.60650700056E+01  0.17674618161E+02  0.18726466022E+02  0.00000000000E+00 0. -1.
         11    1    3    3    0    0 -0.93730253463E+01 -0.11411515211E+02  0.98473295413E+01  0.17749540358E+02  0.51100000000E-03 0. -1.
        -11    1    3    3    0    0 -0.17390143095E+02  0.72679979407E+00 -0.17349271577E+02  0.24575242407E+02  0.51100000000E-03 0.  1.
         12    1    3    3    0    0  0.27989271345E+02  0.46196454118E+01 -0.10172676125E+02  0.30136751214E+02  0.00000000000E+00 0. -1.
</event>
<event>
 7    1  0.3020651E-013  0.7246158E+02  0.7816164E-02  0.1226708E+00
        -11   -1    0    0    0    0  0.00000000000E+00  0.00000000000E+00  0.45593999997E+02  0.45594000000E+02  0.51100000000E-03 0.  1.
         11   -1    0    0    0    0 -0.00000000000E+00 -0.00000000000E+00 -0.45593999997E+02  0.45594000000E+02  0.51100000000E-03 0. -1.
    9900012    2    1    2    0    0  0.17440087077E+02  0.28209174447E+01  0.62100475503E+01  0.72461577409E+02  0.70000009269E+02 0.  0.
         12    1    1    2    0    0 -0.17440087077E+02 -0.28209174447E+01 -0.62100475503E+01  0.18726422591E+02  0.00000000000E+00 0. -1.
         11    1    3    3    0    0  0.15865917194E+02 -0.14141462407E+02  0.97762789401E+01  0.23394100060E+02  0.51100000000E-03 0. -1.
        -11    1    3    3    0    0  0.12004998812E+02  0.99682082462E+00  0.17118898945E+02  0.20932518950E+02  0.51100000000E-03 0.  1.
         12    1    3    3    0    0 -0.10430828930E+02  0.15965559027E+02 -0.20685130335E+02  0.28134958400E+02  0.00000000000E+00 0. -1.
</event>
<event>
 7    1  0.3020651E-013  0.7246156E+02  0.7816164E-02  0.1226708E+00
        -11   -1    0    0    0    0  0.00000000000E+00  0.00000000000E+00  0.45593999997E+02  0.45594000000E+02  0.51100000000E-03 0.  1.
         11   -1    0    0    0    0 -0.00000000000E+00 -0.00000000000E+00 -0.45593999997E+02  0.45594000000E+02  0.51100000000E-03 0. -1.
    9900012    2    1    2    0    0 -0.19793376970E+01 -0.16772385294E+02  0.80900401921E+01  0.72461563167E+02  0.69999990715E+02 0.  0.
         12    1    1    2    0    0  0.19793376970E+01  0.16772385294E+02 -0.80900401921E+01  0.18726436833E+02  0.00000000000E+00 0. -1.
         11    1    3    3    0    0  0.86958768655E+01  0.60501891205E+01  0.12830986480E+02  0.16639028733E+02  0.51100000000E-03 0. -1.
        -11    1    3    3    0    0  0.37281079417E+01 -0.11725498025E+02  0.20981256027E+02  0.24322812286E+02  0.51100000000E-03 0.  1.
         12    1    3    3    0    0 -0.14403322504E+02 -0.11097076389E+02 -0.25722202314E+02  0.31499722149E+02  0.00000000000E+00 0. -1.
</event>
<event>
 7    1  0.3020651E-013  0.7246158E+02  0.7816164E-02  0.1226708E+00
        -11   -1    0    0    0    0  0.00000000000E+00  0.00000000000E+00  0.45593999997E+02  0.45594000000E+02  0.51100000000E-03 0. -1.
         11   -1    0    0    0    0 -0.00000000000E+00 -0.00000000000E+00 -0.45593999997E+02  0.45594000000E+02  0.51100000000E-03 0.  1.
    9900012    2    1    2    0    0 -0.18225114918E+02  0.41739641502E+01  0.10498126451E+01  0.72461577569E+02  0.70000009476E+02 0.  0.
         12    1    1    2    0    0  0.18225114918E+02 -0.41739641502E+01 -0.10498126451E+01  0.18726422431E+02  0.00000000000E+00 0. -1.
         11    1    3    3    0    0 -0.84193019861E+01  0.39579172876E+01  0.20930317808E+02  0.22904758435E+02  0.51100000000E-03 0. -1.
        -11    1    3    3    0    0 -0.25135543576E+02 -0.59527722497E+01 -0.31171251927E+01  0.26018215120E+02  0.51100000000E-03 0.  1.
         12    1    3    3    0    0  0.15329730644E+02  0.61688191122E+01 -0.16763379970E+02  0.23538604013E+02  0.00000000000E+00 0. -1.
</event>
<event>
 7    1  0.3020651E-013  0.7246151E+02  0.7816164E-02  0.1226708E+00
        -11   -1    0    0    0    0  0.00000000000E+00  0.00000000000E+00  0.45593999997E+02  0.45594000000E+02  0.51100000000E-03 0.  1.
         11   -1    0    0    0    0 -0.00000000000E+00 -0.00000000000E+00 -0.45593999997E+02  0.45594000000E+02  0.51100000000E-03 0. -1.
    9900012    2    1    2    0    0  0.30959236528E+01 -0.10744060677E+02  0.15022040744E+02  0.72461513645E+02  0.69999926203E+02 0.  0.
         12    1    1    2    0    0 -0.30959236528E+01  0.10744060677E+02 -0.15022040744E+02  0.18726486355E+02  0.00000000000E+00 0. -1.
         11    1    3    3    0    0 -0.93375203386E+01 -0.19794634191E+02  0.31379472470E+02  0.38258177186E+02  0.51100000000E-03 0.  1.
        -11    1    3    3    0    0 -0.49326077944E+01  0.11487877971E+02 -0.68278226221E+01  0.14245038503E+02  0.51100000000E-03 0. -1.
        -12    1    3    3    0    0  0.17366051786E+02 -0.24373044569E+01 -0.95296091033E+01  0.19958297956E+02  0.00000000000E+00 0.  1.
</event>
<event>
 7    1  0.3020651E-013  0.7246155E+02  0.7816164E-02  0.1226708E+00
        -11   -1    0    0    0    0  0.00000000000E+00  0.00000000000E+00  0.45593999997E+02  0.45594000000E+02  0.51100000000E-03 0. -1.
         11   -1    0    0    0    0 -0.00000000000E+00 -0.00000000000E+00 -0.45593999997E+02  0.45594000000E+02  0.51100000000E-03 0.  1.
    9900012    2    1    2    0    0  0.17218170265E+02  0.72646913903E+01  0.11994363188E+01  0.72461554108E+02  0.69999978914E+02 0.  0.
         12    1    1    2    0    0 -0.17218170265E+02 -0.72646913903E+01 -0.11994363188E+01  0.18726445892E+02  0.00000000000E+00 0. -1.
         11    1    3    3    0    0  0.11849628855E+01  0.48191885717E+01  0.23380661730E+02  0.23901549296E+02  0.51100000000E-03 0. -1.
        -11    1    3    3    0    0 -0.12060002426E+02 -0.10469268385E+01  0.74965907010E+00  0.12128549102E+02  0.51100000000E-03 0.  1.
        -12    1    3    3    0    0  0.28093209806E+02  0.34924296571E+01 -0.22930884481E+02  0.36431455711E+02  0.00000000000E+00 0.  1.
</event>
<event>
 7    1  0.3020651E-013  0.7246157E+02  0.7816164E-02  0.1226708E+00
        -11   -1    0    0    0    0  0.00000000000E+00  0.00000000000E+00  0.45593999997E+02  0.45594000000E+02  0.51100000000E-03 0. -1.
         11   -1    0    0    0    0 -0.00000000000E+00 -0.00000000000E+00 -0.45593999997E+02  0.45594000000E+02  0.51100000000E-03 0.  1.
    9900012    2    1    2    0    0  0.18422439516E+02  0.28687372989E+01 -0.17501921096E+01  0.72461572048E+02  0.70000002284E+02 0.  0.
         12    1    1    2    0    0 -0.18422439516E+02 -0.28687372989E+01  0.17501921096E+01  0.18726427952E+02  0.00000000000E+00 0. -1.
         11    1    3    3    0    0  0.80111357394E+01 -0.19810729491E+01  0.17782762925E+02  0.19604326139E+02  0.51100000000E-03 0. -1.
        -11    1    3    3    0    0  0.20525607274E+02 -0.43126036338E+01 -0.29329962073E+02  0.36057534296E+02  0.51100000000E-03 0.  1.
         12    1    3    3    0    0 -0.10114303497E+02  0.91624138818E+01  0.97970070379E+01  0.16799711613E+02  0.00000000000E+00 0. -1.
</event>
<event>
 7    1  0.3020651E-013  0.7246153E+02  0.7816164E-02  0.1226708E+00
        -11   -1    0    0    0    0  0.00000000000E+00  0.00000000000E+00  0.45593999997E+02  0.45594000000E+02  0.51100000000E-03 0.  1.
         11   -1    0    0    0    0 -0.00000000000E+00 -0.00000000000E+00 -0.45593999997E+02  0.45594000000E+02  0.51100000000E-03 0. -1.
    9900012    2    1    2    0    0 -0.51999593589E+01  0.17923974790E+02  0.15401722295E+01  0.72461532632E+02  0.69999950937E+02 0.  0.
         12    1    1    2    0    0  0.51999593589E+01 -0.17923974790E+02 -0.15401722295E+01  0.18726467368E+02  0.00000000000E+00 0. -1.
         11    1    3    3    0    0  0.11221932335E+02  0.19332126256E+01 -0.49751884477E+01  0.12426647848E+02  0.51100000000E-03 0. -1.
        -11    1    3    3    0    0  0.18501225474E+02  0.16259851156E+02  0.46119954476E+01  0.25058902727E+02  0.51100000000E-03 0.  1.
         12    1    3    3    0    0 -0.34923117168E+02 -0.26908899135E+00  0.19033652296E+01  0.34975982056E+02  0.00000000000E+00 0. -1.
</event>
<event>
 7    1  0.3020651E-013  0.7246150E+02  0.7816164E-02  0.1226708E+00
        -11   -1    0    0    0    0  0.00000000000E+00  0.00000000000E+00  0.45593999997E+02  0.45594000000E+02  0.51100000000E-03 0.  1.
         11   -1    0    0    0    0 -0.00000000000E+00 -0.00000000000E+00 -0.45593999997E+02  0.45594000000E+02  0.51100000000E-03 0. -1.
    9900012    2    1    2    0    0 -0.29726406060E-01  0.47854027942E+01  0.18104714008E+02  0.72461504522E+02  0.69999914320E+02 0.  0.
         12    1    1    2    0    0  0.29726406060E-01 -0.47854027942E+01 -0.18104714008E+02  0.18726495478E+02  0.00000000000E+00 0. -1.
         11    1    3    3    0    0 -0.15100955257E+02  0.27918128041E+02  0.59478920352E+01  0.32293004550E+02  0.51100000000E-03 0. -1.
        -11    1    3    3    0    0 -0.52849345966E+01 -0.15273972283E+02  0.26979737567E+01  0.16386086343E+02  0.51100000000E-03 0.  1.
        -12    1    3    3    0    0  0.20356163448E+02 -0.78587529637E+01  0.94588482160E+01  0.23782413629E+02  0.00000000000E+00 0.  1.
</event>
<event>
 7    1  0.3020651E-013  0.7246152E+02  0.7816164E-02  0.1226708E+00
        -11   -1    0    0    0    0  0.00000000000E+00  0.00000000000E+00  0.45593999997E+02  0.45594000000E+02  0.51100000000E-03 0. -1.
         11   -1    0    0    0    0 -0.00000000000E+00 -0.00000000000E+00 -0.45593999997E+02  0.45594000000E+02  0.51100000000E-03 0.  1.
    9900012    2    1    2    0    0 -0.14641470216E+02  0.10692515330E+02 -0.46881303285E+01  0.72461518747E+02  0.69999932850E+02 0.  0.
         12    1    1    2    0    0  0.14641470216E+02 -0.10692515330E+02  0.46881303285E+01  0.18726481253E+02  0.00000000000E+00 0. -1.
         11    1    3    3    0    0 -0.18228973234E+02 -0.24673072948E+01  0.25653460570E+02  0.31567120710E+02  0.51100000000E-03 0. -1.
        -11    1    3    3    0    0  0.41246035271E+00 -0.55713250100E+01 -0.62170407783E+00  0.56210588087E+01  0.51100000000E-03 0.  1.
        -12    1    3    3    0    0  0.31750426658E+01  0.18731147634E+02 -0.29719886821E+02  0.35273339228E+02  0.00000000000E+00 0.  1.
</event>
<event>
 7    1  0.3020651E-013  0.7246133E+02  0.7816164E-02  0.1226709E+00
        -11   -1    0    0    0    0  0.00000000000E+00  0.00000000000E+00  0.45593999997E+02  0.45594000000E+02  0.51100000000E-03 0.  1.
         11   -1    0    0    0    0 -0.00000000000E+00 -0.00000000000E+00 -0.45593999997E+02  0.45594000000E+02  0.51100000000E-03 0. -1.
    9900012    2    1    2    0    0  0.96322262576E+01 -0.19888437359E+01  0.15935901667E+02  0.72461328004E+02  0.69999684372E+02 0.  0.
         12    1    1    2    0    0 -0.96322262576E+01  0.19888437359E+01 -0.15935901667E+02  0.18726671996E+02  0.00000000000E+00 0. -1.
         11    1    3    3    0    0 -0.26571478597E+02 -0.36097917564E+01 -0.26214548267E+00  0.26816837843E+02  0.51100000000E-03 0. -1.
        -11    1    3    3    0    0  0.18593405143E+01 -0.44673905176E+01  0.87191141930E+01  0.99718442505E+01  0.51100000000E-03 0.  1.
         12    1    3    3    0    0  0.34344364341E+02  0.60883385382E+01  0.74789329570E+01  0.35672645911E+02  0.00000000000E+00 0. -1.
</event>
<event>
 7    1  0.3020651E-013  0.7246144E+02  0.7816164E-02  0.1226708E+00
        -11   -1    0    0    0    0  0.00000000000E+00  0.00000000000E+00  0.45593999997E+02  0.45594000000E+02  0.51100000000E-03 0. -1.
         11   -1    0    0    0    0 -0.00000000000E+00 -0.00000000000E+00 -0.45593999997E+02  0.45594000000E+02  0.51100000000E-03 0.  1.
    9900012    2    1    2    0    0  0.54410884727E+01  0.16835257791E+02 -0.61361907449E+01  0.72461436366E+02  0.69999825534E+02 0.  0.
         12    1    1    2    0    0 -0.54410884727E+01 -0.16835257791E+02  0.61361907449E+01  0.18726563634E+02  0.00000000000E+00 0. -1.
         11    1    3    3    0    0  0.83689433285E+01 -0.19486741297E+02  0.46215960588E+01  0.21705562633E+02  0.51100000000E-03 0. -1.
        -11    1    3    3    0    0  0.80785404156E+01 -0.31139654157E+01 -0.20377781815E+01  0.88945003252E+01  0.51100000000E-03 0.  1.
        -12    1    3    3    0    0 -0.11006395271E+02  0.39435964504E+02 -0.87200086222E+01  0.41861373408E+02  0.00000000000E+00 0.  1.
</event>
<event>
 7    1  0.3020651E-013  0.7246157E+02  0.7816164E-02  0.1226708E+00
        -11   -1    0    0    0    0  0.00000000000E+00  0.00000000000E+00  0.45593999997E+02  0.45594000000E+02  0.51100000000E-03 0. -1.
         11   -1    0    0    0    0 -0.00000000000E+00 -0.00000000000E+00 -0.45593999997E+02  0.45594000000E+02  0.51100000000E-03 0.  1.
    9900012    2    1    2    0    0  0.17413995251E+02  0.60712610778E+01 -0.32513992017E+01  0.72461573794E+02  0.70000004559E+02 0.  0.
         12    1    1    2    0    0 -0.17413995251E+02 -0.60712610778E+01  0.32513992017E+01  0.18726426206E+02  0.00000000000E+00 0. -1.
         11    1    3    3    0    0 -0.38623587142E+01 -0.12326130738E+01  0.79288137395E+01  0.89052365159E+01  0.51100000000E-03 0. -1.
        -11    1    3    3    0    0  0.28679905622E+02 -0.19550086509E+02 -0.62178222204E+01  0.35261936737E+02  0.51100000000E-03 0.  1.
         12    1    3    3    0    0 -0.74035516566E+01  0.26853960661E+02 -0.49623907208E+01  0.28294400541E+02  0.00000000000E+00 0. -1.
</event>
<event>
 7    1  0.3020651E-013  0.7246166E+02  0.7816164E-02  0.1226708E+00
        -11   -1    0    0    0    0  0.00000000000E+00  0.00000000000E+00  0.45593999997E+02  0.45594000000E+02  0.51100000000E-03 0.  1.
         11   -1    0    0    0    0 -0.00000000000E+00 -0.00000000000E+00 -0.45593999997E+02  0.45594000000E+02  0.51100000000E-03 0. -1.
    9900012    2    1    2    0    0 -0.15717357365E+02 -0.87127972295E+01  0.52657191025E+01  0.72461656103E+02  0.70000111781E+02 0.  0.
         12    1    1    2    0    0  0.15717357365E+02  0.87127972295E+01 -0.52657191025E+01  0.18726343897E+02  0.00000000000E+00 0. -1.
         11    1    3    3    0    0 -0.10826702057E+02  0.26692475650E+02 -0.33011791146E+01  0.28993163290E+02  0.51100000000E-03 0. -1.
        -11    1    3    3    0    0 -0.11705568742E+02 -0.76867149429E+01  0.16695598042E+01  0.14102955591E+02  0.51100000000E-03 0.  1.
         12    1    3    3    0    0  0.68149134345E+01 -0.27718557936E+02  0.68973384129E+01  0.29365537222E+02  0.00000000000E+00 0. -1.
</event>
<event>
 7    1  0.3020651E-013  0.7246157E+02  0.7816164E-02  0.1226708E+00
        -11   -1    0    0    0    0  0.00000000000E+00  0.00000000000E+00  0.45593999997E+02  0.45594000000E+02  0.51100000000E-03 0.  1.
         11   -1    0    0    0    0 -0.00000000000E+00 -0.00000000000E+00 -0.45593999997E+02  0.45594000000E+02  0.51100000000E-03 0. -1.
    9900012    2    1    2    0    0 -0.78411579391E+00  0.10312649006E+02  0.15611325627E+02  0.72461573354E+02  0.70000003986E+02 0.  0.
         12    1    1    2    0    0  0.78411579391E+00 -0.10312649006E+02 -0.15611325627E+02  0.18726426646E+02  0.00000000000E+00 0. -1.
         11    1    3    3    0    0  0.13312021653E+02  0.15292554148E+02 -0.61810679505E+01  0.21196172629E+02  0.51100000000E-03 0. -1.
        -11    1    3    3    0    0  0.14952990337E+02 -0.48164756678E+01  0.13980891213E+01  0.15771652143E+02  0.51100000000E-03 0.  1.
        -12    1    3    3    0    0 -0.29049127783E+02 -0.16342947406E+00  0.20394304456E+02  0.35493748582E+02  0.00000000000E+00 0.  1.
</event>
<event>
 7    1  0.3020651E-013  0.7246154E+02  0.7816164E-02  0.1226708E+00
        -11   -1    0    0    0    0  0.00000000000E+00  0.00000000000E+00  0.45593999997E+02  0.45594000000E+02  0.51100000000E-03 0. -1.
         11   -1    0    0    0    0 -0.00000000000E+00 -0.00000000000E+00 -0.45593999997E+02  0.45594000000E+02  0.51100000000E-03 0.  1.
    9900012    2    1    2    0    0 -0.13711768374E+02 -0.89057342401E+01 -0.91299343529E+01  0.72461537558E+02  0.69999957355E+02 0.  0.
         12    1    1    2    0    0  0.13711768374E+02  0.89057342401E+01  0.91299343529E+01  0.18726462442E+02  0.00000000000E+00 0. -1.
         11    1    3    3    0    0  0.78888996955E+01 -0.18192014103E+02  0.21960810323E+01  0.19950109967E+02  0.51100000000E-03 0. -1.
        -11    1    3    3    0    0 -0.12570648057E+02 -0.68565720225E+01 -0.25475053847E+02  0.29223486124E+02  0.51100000000E-03 0.  1.
         12    1    3    3    0    0 -0.90300200128E+01  0.16142851885E+02  0.14149038462E+02  0.23287941468E+02  0.00000000000E+00 0. -1.
</event>
<event>
 7    1  0.3020651E-013  0.7246166E+02  0.7816164E-02  0.1226708E+00
        -11   -1    0    0    0    0  0.00000000000E+00  0.00000000000E+00  0.45593999997E+02  0.45594000000E+02  0.51100000000E-03 0. -1.
         11   -1    0    0    0    0 -0.00000000000E+00 -0.00000000000E+00 -0.45593999997E+02  0.45594000000E+02  0.51100000000E-03 0.  1.
    9900012    2    1    2    0    0  0.13390528638E+02  0.70209028899E+01 -0.11048827237E+02  0.72461657113E+02  0.70000113098E+02 0.  0.
         12    1    1    2    0    0 -0.13390528638E+02 -0.70209028899E+01  0.11048827237E+02  0.18726342887E+02  0.00000000000E+00 0. -1.
         11    1    3    3    0    0  0.26998450805E+00  0.46799909299E+00  0.73005986304E+01  0.73205638724E+01  0.51100000000E-03 0. -1.
        -11    1    3    3    0    0  0.67060970871E+00 -0.23629071216E+02  0.60283907820E+01  0.24395167956E+02  0.51100000000E-03 0.  1.
        -12    1    3    3    0    0  0.12449934421E+02  0.30181975013E+02 -0.24377816650E+02  0.40745925285E+02  0.00000000000E+00 0.  1.
</event>
<event>
 7    1  0.3020651E-013  0.7246138E+02  0.7816164E-02  0.1226709E+00
        -11   -1    0    0    0    0  0.00000000000E+00  0.00000000000E+00  0.45593999997E+02  0.45594000000E+02  0.51100000000E-03 0.  1.
         11   -1    0    0    0    0 -0.00000000000E+00 -0.00000000000E+00 -0.45593999997E+02  0.45594000000E+02  0.51100000000E-03 0. -1.
    9900012    2    1    2    0    0 -0.11336181999E+02  0.57383804309E+01 -0.13756747340E+02  0.72461384458E+02  0.69999757913E+02 0.  0.
         12    1    1    2    0    0  0.11336181999E+02 -0.57383804309E+01  0.13756747340E+02  0.18726615542E+02  0.00000000000E+00 0. -1.
         11    1    3    3    0    0 -0.22320556128E+02 -0.21994539165E+02 -0.16288521630E+02  0.35316892786E+02  0.51100000000E-03 0. -1.
        -11    1    3    3    0    0  0.51014802848E+01  0.51600921740E+01 -0.86380357794E+01  0.11281281608E+02  0.51100000000E-03 0.  1.
        -12    1    3    3    0    0  0.58828938444E+01  0.22572827422E+02  0.11169810069E+02  0.25863210063E+02  0.00000000000E+00 0.  1.
</event>
<event>
 7    1  0.3020651E-013  0.7246154E+02  0.7816164E-02  0.1226708E+00
        -11   -1    0    0    0    0  0.00000000000E+00  0.00000000000E+00  0.45593999997E+02  0.45594000000E+02  0.51100000000E-03 0. -1.
         11   -1    0    0    0    0 -0.00000000000E+00 -0.00000000000E+00 -0.45593999997E+02  0.45594000000E+02  0.51100000000E-03 0.  1.
    9900012    2    1    2    0    0 -0.14539491595E+02 -0.74995900523E+01 -0.91126119224E+01  0.72461538433E+02  0.69999958494E+02 0.  0.
         12    1    1    2    0    0  0.14539491595E+02  0.74995900523E+01  0.91126119224E+01  0.18726461567E+02  0.00000000000E+00 0. -1.
         11    1    3    3    0    0 -0.53886608359E+01  0.19060181014E+01  0.31065202251E+01  0.65054622262E+01  0.51100000000E-03 0. -1.
        -11    1    3    3    0    0  0.25239499664E+02  0.41995971217E+01  0.33961818841E+01  0.25810908758E+02  0.51100000000E-03 0.  1.
         12    1    3    3    0    0 -0.34390330423E+02 -0.13605205275E+02 -0.15615314032E+02  0.40145167448E+02  0.00000000000E+00 0. -1.
</event>
<event>
 7    1  0.3020651E-013  0.7246162E+02  0.7816164E-02  0.1226708E+00
        -11   -1    0    0    0    0  0.00000000000E+00  0.00000000000E+00  0.45593999997E+02  0.45594000000E+02  0.51100000000E-03 0. -1.
         11   -1    0    0    0    0 -0.00000000000E+00 -0.00000000000E+00 -0.45593999997E+02  0.45594000000E+02  0.51100000000E-03 0.  1.
    9900012    2    1    2    0    0  0.52733164727E+01 -0.17950255990E+02  0.81094962596E+00  0.72461622988E+02  0.70000068643E+02 0.  0.
         12    1    1    2    0    0 -0.52733164727E+01  0.17950255990E+02 -0.81094962596E+00  0.18726377012E+02  0.00000000000E+00 0. -1.
         11    1    3    3    0    0 -0.72288463505E+01  0.38938151279E+01 -0.44580060827E+00  0.82229407303E+01  0.51100000000E-03 0. -1.
        -11    1    3    3    0    0 -0.24961905265E+01  0.13303458227E+02  0.17996972188E+02  0.22518969251E+02  0.51100000000E-03 0.  1.
        -12    1    3    3    0    0  0.14998353350E+02 -0.35147529345E+02 -0.16740221954E+02  0.41719713006E+02  0.00000000000E+00 0.  1.
</event>
<event>
 7    1  0.3020651E-013  0.7246185E+02  0.7816164E-02  0.1226707E+00
        -11   -1    0    0    0    0  0.00000000000E+00  0.00000000000E+00  0.45593999997E+02  0.45594000000E+02  0.51100000000E-03 0.  1.
         11   -1    0    0    0    0 -0.00000000000E+00 -0.00000000000E+00 -0.45593999997E+02  0.45594000000E+02  0.51100000000E-03 0. -1.
    9900012    2    1    2    0    0  0.65992985967E+01 -0.17440992934E+02  0.17116241164E+01  0.72461851607E+02  0.70000366462E+02 0.  0.
         12    1    1    2    0    0 -0.65992985967E+01  0.17440992934E+02 -0.17116241164E+01  0.18726148393E+02  0.00000000000E+00 0. -1.
         11    1    3    3    0    0  0.56930818064E+01 -0.24853022056E+02 -0.26564467363E+02  0.36820575937E+02  0.51100000000E-03 0. -1.
        -11    1    3    3    0    0  0.68598791069E+01  0.59920357768E+01  0.29321045098E+01  0.95686817916E+01  0.51100000000E-03 0.  1.
        -12    1    3    3    0    0 -0.59536623166E+01  0.14199933451E+01  0.25343986969E+02  0.26072593879E+02  0.00000000000E+00 0.  1.
</event>
<event>
 7    1  0.3020651E-013  0.7246142E+02  0.7816164E-02  0.1226708E+00
        -11   -1    0    0    0    0  0.00000000000E+00  0.00000000000E+00  0.45593999997E+02  0.45594000000E+02  0.51100000000E-03 0.  1.
         11   -1    0    0    0    0 -0.00000000000E+00 -0.00000000000E+00 -0.45593999997E+02  0.45594000000E+02  0.51100000000E-03 0. -1.
    9900012    2    1    2    0    0  0.14969495650E+02 -0.26854588550E+01 -0.10926445360E+02  0.72461422697E+02  0.69999807727E+02 0.  0.
         12    1    1    2    0    0 -0.14969495650E+02  0.26854588550E+01  0.10926445360E+02  0.18726577303E+02  0.00000000000E+00 0. -1.
         11    1    3    3    0    0 -0.47053081141E+01  0.12131180137E+02 -0.11317004415E+01  0.13060865290E+02  0.51100000000E-03 0. -1.
        -11    1    3    3    0    0 -0.62478261893E+01 -0.11316719414E+02  0.17394177123E+02  0.21671660491E+02  0.51100000000E-03 0.  1.
         12    1    3    3    0    0  0.25922629953E+02 -0.34999195783E+01 -0.27188922042E+02  0.37728896916E+02  0.00000000000E+00 0. -1.
</event>
<event>
 7    1  0.3020651E-013  0.7246165E+02  0.7816164E-02  0.1226708E+00
        -11   -1    0    0    0    0  0.00000000000E+00  0.00000000000E+00  0.45593999997E+02  0.45594000000E+02  0.51100000000E-03 0.  1.
         11   -1    0    0    0    0 -0.00000000000E+00 -0.00000000000E+00 -0.45593999997E+02  0.45594000000E+02  0.51100000000E-03 0. -1.
    9900012    2    1    2    0    0  0.94798379216E+01  0.73749866235E+01  0.14367270177E+02  0.72461649393E+02  0.70000103041E+02 0.  0.
         12    1    1    2    0    0 -0.94798379216E+01 -0.73749866235E+01 -0.14367270177E+02  0.18726350607E+02  0.00000000000E+00 0. -1.
         11    1    3    3    0    0 -0.13938790258E+02  0.96639385905E+01 -0.13182569344E+02  0.21481660032E+02  0.51100000000E-03 0. -1.
        -11    1    3    3    0    0 -0.92886848560E+01 -0.40581580326E+01  0.62469833030E+01  0.11906851541E+02  0.51100000000E-03 0.  1.
        -12    1    3    3    0    0  0.32707313036E+02  0.17692060656E+01  0.21302856218E+02  0.39073137821E+02  0.00000000000E+00 0.  1.
</event>
<event>
 7    1  0.3020651E-013  0.7246156E+02  0.7816164E-02  0.1226708E+00
        -11   -1    0    0    0    0  0.00000000000E+00  0.00000000000E+00  0.45593999997E+02  0.45594000000E+02  0.51100000000E-03 0. -1.
         11   -1    0    0    0    0 -0.00000000000E+00 -0.00000000000E+00 -0.45593999997E+02  0.45594000000E+02  0.51100000000E-03 0.  1.
    9900012    2    1    2    0    0  0.21006097790E+01 -0.15212975798E+02 -0.10715979724E+02  0.72461563726E+02  0.69999991443E+02 0.  0.
         12    1    1    2    0    0 -0.21006097790E+01  0.15212975798E+02  0.10715979724E+02  0.18726436274E+02  0.00000000000E+00 0. -1.
         11    1    3    3    0    0 -0.12185541603E+02  0.16364169319E+02  0.60749233707E+01  0.21287981490E+02  0.51100000000E-03 0. -1.
        -11    1    3    3    0    0 -0.57937992546E+01 -0.50338132058E+01 -0.16153956902E+02  0.17884566225E+02  0.51100000000E-03 0.  1.
        -12    1    3    3    0    0  0.20079950637E+02 -0.26543331912E+02 -0.63694619268E+00  0.33289016011E+02  0.00000000000E+00 0.  1.
</event>
<event>
 7    1  0.3020651E-013  0.7246140E+02  0.7816164E-02  0.1226708E+00
        -11   -1    0    0    0    0  0.00000000000E+00  0.00000000000E+00  0.45593999997E+02  0.45594000000E+02  0.51100000000E-03 0. -1.
         11   -1    0    0    0    0 -0.00000000000E+00 -0.00000000000E+00 -0.45593999997E+02  0.45594000000E+02  0.51100000000E-03 0.  1.
    9900012    2    1    2    0    0 -0.10510553424E+02 -0.15454266634E+02  0.11745322693E+01  0.72461398159E+02  0.69999775761E+02 0.  0.
         12    1    1    2    0    0  0.10510553424E+02  0.15454266634E+02 -0.11745322693E+01  0.18726601841E+02  0.00000000000E+00 0. -1.
         11    1    3    3    0    0  0.44514647505E+01 -0.33107078363E+01  0.81172777758E+00  0.56067126776E+01  0.51100000000E-03 0. -1.
        -11    1    3    3    0    0 -0.26088937897E+02 -0.33646634284E+02  0.16609346953E+01  0.42608536510E+02  0.51100000000E-03 0.  1.
         12    1    3    3    0    0  0.11126919722E+02  0.21503075487E+02 -0.12981302036E+01  0.24246148971E+02  0.00000000000E+00 0. -1.
</event>
<event>
 7    1  0.3020651E-013  0.7246157E+02  0.7816164E-02  0.1226708E+00
        -11   -1    0    0    0    0  0.00000000000E+00  0.00000000000E+00  0.45593999997E+02  0.45594000000E+02  0.51100000000E-03 0. -1.
         11   -1    0    0    0    0 -0.00000000000E+00 -0.00000000000E+00 -0.45593999997E+02  0.45594000000E+02  0.51100000000E-03 0.  1.
    9900012    2    1    2    0    0  0.16238130249E+02  0.44710388911E+01 -0.81860832357E+01  0.72461574247E+02  0.70000005149E+02 0.  0.
         12    1    1    2    0    0 -0.16238130249E+02 -0.44710388911E+01  0.81860832357E+01  0.18726425753E+02  0.00000000000E+00 0. -1.
         11    1    3    3    0    0 -0.69651402463E+01 -0.65654943258E+01  0.88414808621E+01  0.13030375224E+02  0.51100000000E-03 0. -1.
        -11    1    3    3    0    0 -0.14067397698E+02  0.95165952558E+01 -0.13993690035E+02  0.22006376901E+02  0.51100000000E-03 0.  1.
        -12    1    3    3    0    0  0.37270668193E+02  0.15199379610E+01 -0.30338740625E+01  0.37424822121E+02  0.00000000000E+00 0.  1.
</event>
<event>
 7    1  0.3020651E-013  0.7246154E+02  0.7816164E-02  0.1226708E+00
        -11   -1    0    0    0    0  0.00000000000E+00  0.00000000000E+00  0.45593999997E+02  0.45594000000E+02  0.51100000000E-03 0.  1.
         11   -1    0    0    0    0 -0.00000000000E+00 -0.00000000000E+00 -0.45593999997E+02  0.45594000000E+02  0.51100000000E-03 0. -1.
    9900012    2    1    2    0    0 -0.15512741050E+02 -0.64569232786E+01  0.82669901358E+01  0.72461544942E+02  0.69999966974E+02 0.  0.
         12    1    1    2    0    0  0.15512741050E+02  0.64569232786E+01 -0.82669901358E+01  0.18726455058E+02  0.00000000000E+00 0. -1.
         11    1    3    3    0    0 -0.20297210028E+02  0.48900673309E+01 -0.16748010496E+02  0.26765375941E+02  0.51100000000E-03 0. -1.
        -11    1    3    3    0    0 -0.76760363013E+01  0.50963669473E+01  0.23226804317E+02  0.24987575481E+02  0.51100000000E-03 0.  1.
         12    1    3    3    0    0  0.12460505279E+02 -0.16443357557E+02  0.17881963149E+01  0.20708593521E+02  0.00000000000E+00 0. -1.
</event>
<event>
 7    1  0.3020651E-013  0.7246156E+02  0.7816164E-02  0.1226708E+00
        -11   -1    0    0    0    0  0.00000000000E+00  0.00000000000E+00  0.45593999997E+02  0.45594000000E+02  0.51100000000E-03 0.  1.
         11   -1    0    0    0    0 -0.00000000000E+00 -0.00000000000E+00 -0.45593999997E+02  0.45594000000E+02  0.51100000000E-03 0. -1.
    9900012    2    1    2    0    0  0.88882771819E+01  0.88369156590E+01  0.13913552220E+02  0.72461561871E+02  0.69999989027E+02 0.  0.
         12    1    1    2    0    0 -0.88882771819E+01 -0.88369156590E+01 -0.13913552220E+02  0.18726438129E+02  0.00000000000E+00 0. -1.
         11    1    3    3    0    0  0.13117429148E+01  0.26718650870E+02  0.23845201670E+02  0.35835744958E+02  0.51100000000E-03 0. -1.
        -11    1    3    3    0    0  0.46734791396E+01  0.74567742444E+01  0.10404022332E+01  0.88615645610E+01  0.51100000000E-03 0.  1.
        -12    1    3    3    0    0  0.29030551276E+01 -0.25338509456E+02 -0.10972051683E+02  0.27764252352E+02  0.00000000000E+00 0.  1.
</event>
<event>
 7    1  0.3020651E-013  0.7246155E+02  0.7816164E-02  0.1226708E+00
        -11   -1    0    0    0    0  0.00000000000E+00  0.00000000000E+00  0.45593999997E+02  0.45594000000E+02  0.51100000000E-03 0.  1.
         11   -1    0    0    0    0 -0.00000000000E+00 -0.00000000000E+00 -0.45593999997E+02  0.45594000000E+02  0.51100000000E-03 0. -1.
    9900012    2    1    2    0    0 -0.15759497109E+02  0.43221889014E+01  0.91453106232E+01  0.72461554197E+02  0.69999979030E+02 0.  0.
         12    1    1    2    0    0  0.15759497109E+02 -0.43221889014E+01 -0.91453106232E+01  0.18726445803E+02  0.00000000000E+00 0. -1.
         11    1    3    3    0    0  0.31711385877E+01  0.20462715771E+02  0.62281922279E+01  0.21623349309E+02  0.51100000000E-03 0. -1.
        -11    1    3    3    0    0  0.11385097247E+02 -0.16556928067E+02  0.40533016769E+01  0.20498330690E+02  0.51100000000E-03 0.  1.
        -12    1    3    3    0    0 -0.30315732944E+02  0.41640119702E+00 -0.11361832816E+01  0.30339874198E+02  0.00000000000E+00 0.  1.
</event>
<event>
 7    1  0.3020651E-013  0.7246159E+02  0.7816164E-02  0.1226708E+00
        -11   -1    0    0    0    0  0.00000000000E+00  0.00000000000E+00  0.45593999997E+02  0.45594000000E+02  0.51100000000E-03 0. -1.
         11   -1    0    0    0    0 -0.00000000000E+00 -0.00000000000E+00 -0.45593999997E+02  0.45594000000E+02  0.51100000000E-03 0.  1.
    9900012    2    1    2    0    0  0.10610507405E+02  0.10250184963E+02 -0.11533824426E+02  0.72461594444E+02  0.70000031459E+02 0.  0.
         12    1    1    2    0    0 -0.10610507405E+02 -0.10250184963E+02  0.11533824426E+02  0.18726405556E+02  0.00000000000E+00 0. -1.
         11    1    3    3    0    0  0.38660530460E+01 -0.11918919337E+02 -0.25728532826E+01  0.12791660509E+02  0.51100000000E-03 0. -1.
        -11    1    3    3    0    0 -0.12723509527E+02 -0.11569572238E+02 -0.11413893009E+02  0.20640243466E+02  0.51100000000E-03 0.  1.
        -12    1    3    3    0    0  0.19467963886E+02  0.33738676537E+02  0.24529218654E+01  0.39029690468E+02  0.00000000000E+00 0.  1.
</event>
<event>
 7    1  0.3020651E-013  0.7246152E+02  0.7816164E-02  0.1226708E+00
        -11   -1    0    0    0    0  0.00000000000E+00  0.00000000000E+00  0.45593999997E+02  0.45594000000E+02  0.51100000000E-03 0. -1.
         11   -1    0    0    0    0 -0.00000000000E+00 -0.00000000000E+00 -0.45593999997E+02  0.45594000000E+02  0.51100000000E-03 0.  1.
    9900012    2    1    2    0    0  0.54158613950E-01  0.18618129201E+02  0.20108094213E+01  0.72461520816E+02  0.69999935545E+02 0.  0.
         12    1    1    2    0    0 -0.54158613950E-01 -0.18618129201E+02 -0.20108094213E+01  0.18726479184E+02  0.00000000000E+00 0. -1.
         11    1    3    3    0    0 -0.20164749669E+02  0.15049958045E+02  0.11097531464E+02  0.27500428565E+02  0.51100000000E-03 0. -1.
        -11    1    3    3    0    0 -0.49709112470E+01  0.14816903345E+02  0.81716297733E+00  0.15649867058E+02  0.51100000000E-03 0.  1.
        -12    1    3    3    0    0  0.25189819530E+02 -0.11248732189E+02 -0.99038850201E+01  0.29311225193E+02  0.00000000000E+00 0.  1.
</event>
<event>
 7    1  0.3020651E-013  0.7246156E+02  0.7816164E-02  0.1226708E+00
        -11   -1    0    0    0    0  0.00000000000E+00  0.00000000000E+00  0.45593999997E+02  0.45594000000E+02  0.51100000000E-03 0.  1.
         11   -1    0    0    0    0 -0.00000000000E+00 -0.00000000000E+00 -0.45593999997E+02  0.45594000000E+02  0.51100000000E-03 0. -1.
    9900012    2    1    2    0    0  0.17578636784E+02 -0.30790753316E+01 -0.56736478626E+01  0.72461562642E+02  0.69999990031E+02 0.  0.
         12    1    1    2    0    0 -0.17578636784E+02  0.30790753316E+01  0.56736478626E+01  0.18726437358E+02  0.00000000000E+00 0. -1.
         11    1    3    3    0    0 -0.11710077354E+01 -0.18529272051E+02 -0.76451815507E+00  0.18581971643E+02  0.51100000000E-03 0. -1.
        -11    1    3    3    0    0 -0.67786872508E+01  0.22112383065E+01  0.16535345639E+02  0.18007160558E+02  0.51100000000E-03 0.  1.
         12    1    3    3    0    0  0.25528331770E+02  0.13238958413E+02 -0.21444475347E+02  0.35872430441E+02  0.00000000000E+00 0. -1.
</event>
<event>
 7    1  0.3020651E-013  0.7246155E+02  0.7816164E-02  0.1226708E+00
        -11   -1    0    0    0    0  0.00000000000E+00  0.00000000000E+00  0.45593999997E+02  0.45594000000E+02  0.51100000000E-03 0. -1.
         11   -1    0    0    0    0 -0.00000000000E+00 -0.00000000000E+00 -0.45593999997E+02  0.45594000000E+02  0.51100000000E-03 0.  1.
    9900012    2    1    2    0    0  0.88973994902E+01 -0.14762478112E+02 -0.73201991115E+01  0.72461553655E+02  0.69999978324E+02 0.  0.
         12    1    1    2    0    0 -0.88973994902E+01  0.14762478112E+02  0.73201991115E+01  0.18726446345E+02  0.00000000000E+00 0. -1.
         11    1    3    3    0    0  0.38438182823E+01 -0.40031118376E+01  0.13316281467E+02  0.14426475513E+02  0.51100000000E-03 0. -1.
        -11    1    3    3    0    0  0.81307848314E+01  0.13940676379E+02 -0.27790288644E+02  0.32136463139E+02  0.51100000000E-03 0.  1.
         12    1    3    3    0    0 -0.30772036235E+01 -0.24700042653E+02  0.71538080659E+01  0.25898615003E+02  0.00000000000E+00 0. -1.
</event>
<event>
 7    1  0.3020651E-013  0.7246148E+02  0.7816164E-02  0.1226708E+00
        -11   -1    0    0    0    0  0.00000000000E+00  0.00000000000E+00  0.45593999997E+02  0.45594000000E+02  0.51100000000E-03 0. -1.
         11   -1    0    0    0    0 -0.00000000000E+00 -0.00000000000E+00 -0.45593999997E+02  0.45594000000E+02  0.51100000000E-03 0.  1.
    9900012    2    1    2    0    0  0.29528534842E+01 -0.93276565858E+01 -0.15967411029E+02  0.72461475067E+02  0.69999875949E+02 0.  0.
         12    1    1    2    0    0 -0.29528534842E+01  0.93276565858E+01  0.15967411029E+02  0.18726524933E+02  0.00000000000E+00 0. -1.
         11    1    3    3    0    0 -0.18382192575E+02  0.11234821537E+02  0.44527647265E+00  0.21548189953E+02  0.51100000000E-03 0. -1.
        -11    1    3    3    0    0 -0.68391497802E+01 -0.13506570659E+02  0.36999686293E+01  0.15584966757E+02  0.51100000000E-03 0.  1.
        -12    1    3    3    0    0  0.28174195840E+02 -0.70559074637E+01 -0.20112656131E+02  0.35328318358E+02  0.00000000000E+00 0.  1.
</event>
<event>
 7    1  0.3020651E-013  0.7246163E+02  0.7816164E-02  0.1226708E+00
        -11   -1    0    0    0    0  0.00000000000E+00  0.00000000000E+00  0.45593999997E+02  0.45594000000E+02  0.51100000000E-03 0.  1.
         11   -1    0    0    0    0 -0.00000000000E+00 -0.00000000000E+00 -0.45593999997E+02  0.45594000000E+02  0.51100000000E-03 0. -1.
    9900012    2    1    2    0    0  0.14981449935E+02  0.10045671038E+02  0.50316608747E+01  0.72461629291E+02  0.70000076854E+02 0.  0.
         12    1    1    2    0    0 -0.14981449935E+02 -0.10045671038E+02 -0.50316608747E+01  0.18726370709E+02  0.00000000000E+00 0. -1.
         11    1    3    3    0    0  0.10462948445E+01 -0.99616085802E+01 -0.10737218057E+02  0.14683876541E+02  0.51100000000E-03 0. -1.
        -11    1    3    3    0    0  0.20417357406E+02 -0.59335508944E+01 -0.72824520633E+01  0.22474643890E+02  0.51100000000E-03 0.  1.
        -12    1    3    3    0    0 -0.64822023156E+01  0.25940830512E+02  0.23051330995E+02  0.35303108860E+02  0.00000000000E+00 0.  1.
</event>
<event>
 7    1  0.3020651E-013  0.7246156E+02  0.7816164E-02  0.1226708E+00
        -11   -1    0    0    0    0  0.00000000000E+00  0.00000000000E+00  0.45593999997E+02  0.45594000000E+02  0.51100000000E-03 0. -1.
         11   -1    0    0    0    0 -0.00000000000E+00 -0.00000000000E+00 -0.45593999997E+02  0.45594000000E+02  0.51100000000E-03 0.  1.
    9900012    2    1    2    0    0 -0.11007283230E+01 -0.69813643455E+01 -0.17341528233E+02  0.72461557401E+02  0.69999983203E+02 0.  0.
         12    1    1    2    0    0  0.11007283230E+01  0.69813643455E+01  0.17341528233E+02  0.18726442599E+02  0.00000000000E+00 0. -1.
         11    1    3    3    0    0 -0.21696178522E+02 -0.45302220870E+01  0.14614338448E+02  0.26548558589E+02  0.51100000000E-03 0. -1.
        -11    1    3    3    0    0  0.61009886695E+01 -0.99569956231E+01 -0.20690461643E+01  0.11859375063E+02  0.51100000000E-03 0.  1.
        -12    1    3    3    0    0  0.14494461530E+02  0.75058533646E+01 -0.29886820517E+02  0.34053623749E+02  0.00000000000E+00 0.  1.
</event>
<event>
 7    1  0.3020651E-013  0.7246157E+02  0.7816164E-02  0.1226708E+00
        -11   -1    0    0    0    0  0.00000000000E+00  0.00000000000E+00  0.45593999997E+02  0.45594000000E+02  0.51100000000E-03 0. -1.
         11   -1    0    0    0    0 -0.00000000000E+00 -0.00000000000E+00 -0.45593999997E+02  0.45594000000E+02  0.51100000000E-03 0.  1.
    9900012    2    1    2    0    0 -0.11671377244E+02 -0.14242380937E+02 -0.34077169694E+01  0.72461574915E+02  0.70000006019E+02 0.  0.
         12    1    1    2    0    0  0.11671377244E+02  0.14242380937E+02  0.34077169694E+01  0.18726425085E+02  0.00000000000E+00 0. -1.
         11    1    3    3    0    0 -0.63029980785E+01 -0.35251896439E+02  0.14408082688E+02  0.38600736189E+02  0.51100000000E-03 0. -1.
        -11    1    3    3    0    0  0.29818312877E+01 -0.22885676816E+01 -0.84707773331E+00  0.38531027509E+01  0.51100000000E-03 0.  1.
        -12    1    3    3    0    0 -0.83502104534E+01  0.23298083184E+02 -0.16968721924E+02  0.30007735976E+02  0.00000000000E+00 0.  1.
</event>
<event>
 7    1  0.3020651E-013  0.7246154E+02  0.7816164E-02  0.1226708E+00
        -11   -1    0    0    0    0  0.00000000000E+00  0.00000000000E+00  0.45593999997E+02  0.45594000000E+02  0.51100000000E-03 0. -1.
         11   -1    0    0    0    0 -0.00000000000E+00 -0.00000000000E+00 -0.45593999997E+02  0.45594000000E+02  0.51100000000E-03 0.  1.
    9900012    2    1    2    0    0  0.27249009781E+01  0.15476148728E+01 -0.18462396525E+02  0.72461540575E+02  0.69999961285E+02 0.  0.
         12    1    1    2    0    0 -0.27249009781E+01 -0.15476148728E+01  0.18462396525E+02  0.18726459425E+02  0.00000000000E+00 0. -1.
         11    1    3    3    0    0 -0.17162516785E+02  0.18688807573E+02  0.12040911300E+02  0.28085709108E+02  0.51100000000E-03 0. -1.
        -11    1    3    3    0    0  0.11137184965E+02 -0.17820015923E+02 -0.12770949062E+02  0.24590384231E+02  0.51100000000E-03 0.  1.
        -12    1    3    3    0    0  0.87502327986E+01  0.67882322212E+00 -0.17732358764E+02  0.19785447236E+02  0.00000000000E+00 0.  1.
</event>
<event>
 7    1  0.3020651E-013  0.7246156E+02  0.7816164E-02  0.1226708E+00
        -11   -1    0    0    0    0  0.00000000000E+00  0.00000000000E+00  0.45593999997E+02  0.45594000000E+02  0.51100000000E-03 0.  1.
         11   -1    0    0    0    0 -0.00000000000E+00 -0.00000000000E+00 -0.45593999997E+02  0.45594000000E+02  0.51100000000E-03 0. -1.
    9900012    2    1    2    0    0  0.60574610387E+01 -0.33779616971E+01  0.17394709896E+02  0.72461564359E+02  0.69999992268E+02 0.  0.
         12    1    1    2    0    0 -0.60574610387E+01  0.33779616971E+01 -0.17394709896E+02  0.18726435641E+02  0.00000000000E+00 0. -1.
         11    1    3    3    0    0 -0.16453175673E+02 -0.11217601729E+02  0.29245820388E+02  0.35381627841E+02  0.51100000000E-03 0.  1.
        -11    1    3    3    0    0  0.62549602547E+01 -0.25100185725E+01  0.72832579552E+01  0.99232337333E+01  0.51100000000E-03 0. -1.
         12    1    3    3    0    0  0.16255676457E+02  0.10349658604E+02 -0.19134368447E+02  0.27156702785E+02  0.00000000000E+00 0. -1.
</event>
<event>
 7    1  0.3020651E-013  0.7246141E+02  0.7816164E-02  0.1226708E+00
        -11   -1    0    0    0    0  0.00000000000E+00  0.00000000000E+00  0.45593999997E+02  0.45594000000E+02  0.51100000000E-03 0.  1.
         11   -1    0    0    0    0 -0.00000000000E+00 -0.00000000000E+00 -0.45593999997E+02  0.45594000000E+02  0.51100000000E-03 0. -1.
    9900012    2    1    2    0    0 -0.11026408505E+02 -0.36726588212E+01 -0.14683834308E+02  0.72461412021E+02  0.69999793820E+02 0.  0.
         12    1    1    2    0    0  0.11026408505E+02  0.36726588212E+01  0.14683834308E+02  0.18726587979E+02  0.00000000000E+00 0. -1.
         11    1    3    3    0    0 -0.38364918054E+01  0.23226321409E+01 -0.13986434285E+01  0.46978179122E+01  0.51100000000E-03 0. -1.
        -11    1    3    3    0    0 -0.16492674816E+02  0.21342486459E+02  0.11867738097E+02  0.29467834305E+02  0.51100000000E-03 0.  1.
         12    1    3    3    0    0  0.93027581167E+01 -0.27337777421E+02 -0.25152928977E+02  0.38295759804E+02  0.00000000000E+00 0. -1.
</event>
<event>
 7    1  0.3020651E-013  0.7246157E+02  0.7816164E-02  0.1226708E+00
        -11   -1    0    0    0    0  0.00000000000E+00  0.00000000000E+00  0.45593999997E+02  0.45594000000E+02  0.51100000000E-03 0.  1.
         11   -1    0    0    0    0 -0.00000000000E+00 -0.00000000000E+00 -0.45593999997E+02  0.45594000000E+02  0.51100000000E-03 0. -1.
    9900012    2    1    2    0    0 -0.17940769601E+02  0.44483434313E+01 -0.30033889233E+01  0.72461566325E+02  0.69999994830E+02 0.  0.
         12    1    1    2    0    0  0.17940769601E+02 -0.44483434313E+01  0.30033889233E+01  0.18726433675E+02  0.00000000000E+00 0. -1.
         11    1    3    3    0    0  0.79752558950E+01  0.27628304775E+00 -0.26212222507E+01  0.83995145849E+01  0.51100000000E-03 0. -1.
        -11    1    3    3    0    0  0.16826657878E+02  0.10345032166E+02 -0.56783672539E+01  0.20552371172E+02  0.51100000000E-03 0.  1.
         12    1    3    3    0    0 -0.42742683373E+02 -0.61729717826E+01  0.52962005813E+01  0.43509680569E+02  0.00000000000E+00 0. -1.
</event>
<event>
 7    1  0.3020651E-013  0.7246153E+02  0.7816164E-02  0.1226708E+00
        -11   -1    0    0    0    0  0.00000000000E+00  0.00000000000E+00  0.45593999997E+02  0.45594000000E+02  0.51100000000E-03 0.  1.
         11   -1    0    0    0    0 -0.00000000000E+00 -0.00000000000E+00 -0.45593999997E+02  0.45594000000E+02  0.51100000000E-03 0. -1.
    9900012    2    1    2    0    0 -0.12539137295E+02  0.48557709702E+01  0.13033496623E+02  0.72461534503E+02  0.69999953375E+02 0.  0.
         12    1    1    2    0    0  0.12539137295E+02 -0.48557709702E+01 -0.13033496623E+02  0.18726465497E+02  0.00000000000E+00 0. -1.
         11    1    3    3    0    0 -0.10579501049E+02  0.17671537326E+01  0.31200492409E+02  0.32992717402E+02  0.51100000000E-03 0. -1.
        -11    1    3    3    0    0 -0.65965164071E+01  0.27372305869E+01  0.92353639709E+01  0.11674690914E+02  0.51100000000E-03 0.  1.
         12    1    3    3    0    0  0.46368801618E+01  0.35138665059E+00 -0.27402359757E+02  0.27794126187E+02  0.00000000000E+00 0. -1.
</event>
<event>
 7    1  0.3020651E-013  0.7246179E+02  0.7816164E-02  0.1226707E+00
        -11   -1    0    0    0    0  0.00000000000E+00  0.00000000000E+00  0.45593999997E+02  0.45594000000E+02  0.51100000000E-03 0.  1.
         11   -1    0    0    0    0 -0.00000000000E+00 -0.00000000000E+00 -0.45593999997E+02  0.45594000000E+02  0.51100000000E-03 0. -1.
    9900012    2    1    2    0    0  0.95873292794E+01  0.91491260550E+01  0.13230546657E+02  0.72461794962E+02  0.70000292671E+02 0.  0.
         12    1    1    2    0    0 -0.95873292794E+01 -0.91491260550E+01 -0.13230546657E+02  0.18726205038E+02  0.00000000000E+00 0. -1.
         11    1    3    3    0    0 -0.74914413951E+01  0.33089919293E+02  0.47890158904E-02  0.33927341131E+02  0.51100000000E-03 0.  1.
        -11    1    3    3    0    0  0.14417427674E+02 -0.11503656491E+02  0.17189323518E+02  0.25212480573E+02  0.51100000000E-03 0. -1.
        -12    1    3    3    0    0  0.26613430005E+01 -0.12437136747E+02 -0.39635658767E+01  0.13321973258E+02  0.00000000000E+00 0.  1.
</event>
<event>
 7    1  0.3020651E-013  0.7246161E+02  0.7816164E-02  0.1226708E+00
        -11   -1    0    0    0    0  0.00000000000E+00  0.00000000000E+00  0.45593999997E+02  0.45594000000E+02  0.51100000000E-03 0.  1.
         11   -1    0    0    0    0 -0.00000000000E+00 -0.00000000000E+00 -0.45593999997E+02  0.45594000000E+02  0.51100000000E-03 0. -1.
    9900012    2    1    2    0    0 -0.84996904532E+01  0.11138586347E+02  0.12424369157E+02  0.72461607059E+02  0.70000047893E+02 0.  0.
         12    1    1    2    0    0  0.84996904532E+01 -0.11138586347E+02 -0.12424369157E+02  0.18726392941E+02  0.00000000000E+00 0. -1.
         11    1    3    3    0    0  0.89110169389E+01 -0.72855188769E+01 -0.39195637620E+01  0.12159275823E+02  0.51100000000E-03 0. -1.
        -11    1    3    3    0    0  0.10194037520E+02  0.10859059721E+02  0.26110066662E+02  0.30059493681E+02  0.51100000000E-03 0.  1.
         12    1    3    3    0    0 -0.27604744912E+02  0.75650455026E+01 -0.97661337427E+01  0.30242837556E+02  0.00000000000E+00 0. -1.
</event>
<event>
 7    1  0.3020651E-013  0.7246163E+02  0.7816164E-02  0.1226708E+00
        -11   -1    0    0    0    0  0.00000000000E+00  0.00000000000E+00  0.45593999997E+02  0.45594000000E+02  0.51100000000E-03 0.  1.
         11   -1    0    0    0    0 -0.00000000000E+00 -0.00000000000E+00 -0.45593999997E+02  0.45594000000E+02  0.51100000000E-03 0. -1.
    9900012    2    1    2    0    0  0.72833467209E+01  0.12084440089E+02  0.12312434396E+02  0.72461631626E+02  0.70000079896E+02 0.  0.
         12    1    1    2    0    0 -0.72833467209E+01 -0.12084440089E+02 -0.12312434396E+02  0.18726368374E+02  0.00000000000E+00 0. -1.
         11    1    3    3    0    0 -0.67819335441E+01  0.16994977538E+01 -0.43169308857E+01  0.82169828857E+01  0.51100000000E-03 0. -1.
        -11    1    3    3    0    0  0.30218080800E+02  0.24780362451E+02  0.42316286443E+01  0.39307829394E+02  0.51100000000E-03 0.  1.
         12    1    3    3    0    0 -0.16152800535E+02 -0.14395420115E+02  0.12397736637E+02  0.24936819347E+02  0.00000000000E+00 0. -1.
</event>
<event>
 7    1  0.3020651E-013  0.7246147E+02  0.7816164E-02  0.1226708E+00
        -11   -1    0    0    0    0  0.00000000000E+00  0.00000000000E+00  0.45593999997E+02  0.45594000000E+02  0.51100000000E-03 0. -1.
         11   -1    0    0    0    0 -0.00000000000E+00 -0.00000000000E+00 -0.45593999997E+02  0.45594000000E+02  0.51100000000E-03 0.  1.
    9900012    2    1    2    0    0 -0.13624494031E+02  0.23316734506E+01 -0.12634053943E+02  0.72461471819E+02  0.69999871717E+02 0.  0.
         12    1    1    2    0    0  0.13624494031E+02 -0.23316734506E+01  0.12634053943E+02  0.18726528181E+02  0.00000000000E+00 0. -1.
         11    1    3    3    0    0  0.25976674686E+01 -0.19123535692E+02  0.26144384581E+01  0.19475440492E+02  0.51100000000E-03 0. -1.
        -11    1    3    3    0    0 -0.21402112642E+02 -0.64337692173E+01 -0.58117075148E+01  0.23091551623E+02  0.51100000000E-03 0.  1.
         12    1    3    3    0    0  0.51799511419E+01  0.27888978360E+02 -0.94367848866E+01  0.29894479704E+02  0.00000000000E+00 0. -1.
</event>
<event>
 7    1  0.3020651E-013  0.7246154E+02  0.7816164E-02  0.1226708E+00
        -11   -1    0    0    0    0  0.00000000000E+00  0.00000000000E+00  0.45593999997E+02  0.45594000000E+02  0.51100000000E-03 0. -1.
         11   -1    0    0    0    0 -0.00000000000E+00 -0.00000000000E+00 -0.45593999997E+02  0.45594000000E+02  0.51100000000E-03 0.  1.
    9900012    2    1    2    0    0 -0.58616002334E+01  0.61120641231E+01 -0.16702234629E+02  0.72461539396E+02  0.69999959749E+02 0.  0.
         12    1    1    2    0    0  0.58616002334E+01 -0.61120641231E+01  0.16702234629E+02  0.18726460604E+02  0.00000000000E+00 0. -1.
         11    1    3    3    0    0  0.51154217315E+01 -0.23825645785E+01 -0.18078994950E+02  0.18939224169E+02  0.51100000000E-03 0. -1.
        -11    1    3    3    0    0  0.11640840390E+02 -0.58393596519E+01 -0.16727186587E+02  0.21199199454E+02  0.51100000000E-03 0.  1.
         12    1    3    3    0    0 -0.22617862355E+02  0.14333988353E+02  0.18103946908E+02  0.32323115773E+02  0.00000000000E+00 0. -1.
</event>
<event>
 7    1  0.3020651E-013  0.7246151E+02  0.7816164E-02  0.1226708E+00
        -11   -1    0    0    0    0  0.00000000000E+00  0.00000000000E+00  0.45593999997E+02  0.45594000000E+02  0.51100000000E-03 0. -1.
         11   -1    0    0    0    0 -0.00000000000E+00 -0.00000000000E+00 -0.45593999997E+02  0.45594000000E+02  0.51100000000E-03 0.  1.
    9900012    2    1    2    0    0 -0.40255553519E+01 -0.31068942344E+01 -0.18022860385E+02  0.72461511164E+02  0.69999922971E+02 0.  0.
         12    1    1    2    0    0  0.40255553519E+01  0.31068942344E+01  0.18022860385E+02  0.18726488836E+02  0.00000000000E+00 0. -1.
         11    1    3    3    0    0 -0.13114603964E+02 -0.54057732099E+01 -0.90455272913E+01  0.16823697137E+02  0.51100000000E-03 0. -1.
        -11    1    3    3    0    0 -0.19925763939E+02  0.12678482101E+02 -0.28218325519E+00  0.23619051729E+02  0.51100000000E-03 0.  1.
        -12    1    3    3    0    0  0.29014812551E+02 -0.10379603125E+02 -0.86951498385E+01  0.32018762298E+02  0.00000000000E+00 0.  1.
</event>
<event>
 7    1  0.3020651E-013  0.7246145E+02  0.7816164E-02  0.1226708E+00
        -11   -1    0    0    0    0  0.00000000000E+00  0.00000000000E+00  0.45593999997E+02  0.45594000000E+02  0.51100000000E-03 0.  1.
         11   -1    0    0    0    0 -0.00000000000E+00 -0.00000000000E+00 -0.45593999997E+02  0.45594000000E+02  0.51100000000E-03 0. -1.
    9900012    2    1    2    0    0 -0.89537569098E+01 -0.14442634980E+02  0.78691880722E+01  0.72461452297E+02  0.69999846287E+02 0.  0.
         12    1    1    2    0    0  0.89537569098E+01  0.14442634980E+02 -0.78691880722E+01  0.18726547703E+02  0.00000000000E+00 0. -1.
         11    1    3    3    0    0 -0.32198897062E+02 -0.88015443936E+01 -0.88593724554E+01  0.34535845672E+02  0.51100000000E-03 0. -1.
        -11    1    3    3    0    0 -0.51063746810E+01 -0.21742991177E+00  0.17296158381E+01  0.53957306602E+01  0.51100000000E-03 0.  1.
        -12    1    3    3    0    0  0.28351514834E+02 -0.54236606742E+01  0.14998944690E+02  0.32529875964E+02  0.00000000000E+00 0.  1.
</event>
<event>
 7    1  0.3020651E-013  0.7246155E+02  0.7816164E-02  0.1226708E+00
        -11   -1    0    0    0    0  0.00000000000E+00  0.00000000000E+00  0.45593999997E+02  0.45594000000E+02  0.51100000000E-03 0.  1.
         11   -1    0    0    0    0 -0.00000000000E+00 -0.00000000000E+00 -0.45593999997E+02  0.45594000000E+02  0.51100000000E-03 0. -1.
    9900012    2    1    2    0    0 -0.16007977363E+02 -0.75019066286E+01  0.61762309992E+01  0.72461554217E+02  0.69999979056E+02 0.  0.
         12    1    1    2    0    0  0.16007977363E+02  0.75019066286E+01 -0.61762309992E+01  0.18726445783E+02  0.00000000000E+00 0. -1.
         11    1    3    3    0    0  0.15428657445E+01 -0.21203379185E+02  0.22779512947E+01  0.21381131540E+02  0.51100000000E-03 0. -1.
        -11    1    3    3    0    0 -0.15640807291E+01 -0.16493882092E+02  0.33857095683E+01  0.16910278665E+02  0.51100000000E-03 0.  1.
         12    1    3    3    0    0 -0.15986762378E+02  0.30195354648E+02  0.51257013612E+00  0.34170144012E+02  0.00000000000E+00 0. -1.
</event>
<event>
 7    1  0.3020651E-013  0.7246154E+02  0.7816164E-02  0.1226708E+00
        -11   -1    0    0    0    0  0.00000000000E+00  0.00000000000E+00  0.45593999997E+02  0.45594000000E+02  0.51100000000E-03 0.  1.
         11   -1    0    0    0    0 -0.00000000000E+00 -0.00000000000E+00 -0.45593999997E+02  0.45594000000E+02  0.51100000000E-03 0. -1.
    9900012    2    1    2    0    0 -0.16975804952E+02  0.10690942662E+01 -0.78332266439E+01  0.72461538616E+02  0.69999958733E+02 0.  0.
         12    1    1    2    0    0  0.16975804952E+02 -0.10690942662E+01  0.78332266439E+01  0.18726461384E+02  0.00000000000E+00 0. -1.
         11    1    3    3    0    0 -0.25732784644E+02 -0.58386032596E+01 -0.32762850993E+01  0.26589462910E+02  0.51100000000E-03 0. -1.
        -11    1    3    3    0    0 -0.85181565877E+01 -0.11175813456E+02  0.97094805504E+01  0.17080158397E+02  0.51100000000E-03 0.  1.
         12    1    3    3    0    0  0.17275136280E+02  0.18083510982E+02 -0.14266422095E+02  0.28791917308E+02  0.00000000000E+00 0. -1.
</event>
<event>
 7    1  0.3020651E-013  0.7246153E+02  0.7816164E-02  0.1226708E+00
        -11   -1    0    0    0    0  0.00000000000E+00  0.00000000000E+00  0.45593999997E+02  0.45594000000E+02  0.51100000000E-03 0.  1.
         11   -1    0    0    0    0 -0.00000000000E+00 -0.00000000000E+00 -0.45593999997E+02  0.45594000000E+02  0.51100000000E-03 0. -1.
    9900012    2    1    2    0    0  0.53053147582E+01 -0.14586992347E+02  0.10476352188E+02  0.72461530349E+02  0.69999947963E+02 0.  0.
         12    1    1    2    0    0 -0.53053147582E+01  0.14586992347E+02 -0.10476352188E+02  0.18726469651E+02  0.00000000000E+00 0. -1.
         11    1    3    3    0    0 -0.73622890475E+01 -0.56816669331E+01 -0.34584930086E+01  0.99219863591E+01  0.51100000000E-03 0. -1.
        -11    1    3    3    0    0 -0.14476384162E+02 -0.24396152933E+02  0.11737198540E+00  0.28368146799E+02  0.51100000000E-03 0.  1.
         12    1    3    3    0    0  0.27143987968E+02  0.15490827519E+02  0.13817473212E+02  0.34171397191E+02  0.00000000000E+00 0. -1.
</event>
<event>
 7    1  0.3020651E-013  0.7246144E+02  0.7816164E-02  0.1226708E+00
        -11   -1    0    0    0    0  0.00000000000E+00  0.00000000000E+00  0.45593999997E+02  0.45594000000E+02  0.51100000000E-03 0. -1.
         11   -1    0    0    0    0 -0.00000000000E+00 -0.00000000000E+00 -0.45593999997E+02  0.45594000000E+02  0.51100000000E-03 0.  1.
    9900012    2    1    2    0    0 -0.49101764911E+01 -0.10272897443E+02 -0.14867476054E+02  0.72461438670E+02  0.69999828534E+02 0.  0.
         12    1    1    2    0    0  0.49101764911E+01  0.10272897443E+02  0.14867476054E+02  0.18726561330E+02  0.00000000000E+00 0. -1.
         11    1    3    3    0    0 -0.62754263626E+01  0.10434412712E+02 -0.13302914301E+02  0.18034008812E+02  0.51100000000E-03 0. -1.
        -11    1    3    3    0    0 -0.32616021297E+01  0.15020154450E+02 -0.87582733237E+01  0.17690405309E+02  0.51100000000E-03 0.  1.
         12    1    3    3    0    0  0.46268520012E+01 -0.35727464605E+02  0.71937115708E+01  0.36737024549E+02  0.00000000000E+00 0. -1.
</event>
<event>
 7    1  0.3020651E-013  0.7246162E+02  0.7816164E-02  0.1226708E+00
        -11   -1    0    0    0    0  0.00000000000E+00  0.00000000000E+00  0.45593999997E+02  0.45594000000E+02  0.51100000000E-03 0. -1.
         11   -1    0    0    0    0 -0.00000000000E+00 -0.00000000000E+00 -0.45593999997E+02  0.45594000000E+02  0.51100000000E-03 0.  1.
    9900012    2    1    2    0    0  0.34226169889E+01  0.17745896539E+02 -0.49037013450E+01  0.72461616529E+02  0.70000060229E+02 0.  0.
         12    1    1    2    0    0 -0.34226169889E+01 -0.17745896539E+02  0.49037013450E+01  0.18726383471E+02  0.00000000000E+00 0. -1.
         11    1    3    3    0    0  0.61481851258E+01  0.14030049156E+02  0.20278787535E+01  0.15451690916E+02  0.51100000000E-03 0. -1.
        -11    1    3    3    0    0  0.10991812451E+02  0.26872529195E+02 -0.78616800109E+01  0.30079208419E+02  0.51100000000E-03 0.  1.
         12    1    3    3    0    0 -0.13717380588E+02 -0.23156681812E+02  0.93009991238E+00  0.26930717194E+02  0.00000000000E+00 0. -1.
</event>
<event>
 7    1  0.3020651E-013  0.7246093E+02  0.7816164E-02  0.1226710E+00
        -11   -1    0    0    0    0  0.00000000000E+00  0.00000000000E+00  0.45593999997E+02  0.45594000000E+02  0.51100000000E-03 0.  1.
         11   -1    0    0    0    0 -0.00000000000E+00 -0.00000000000E+00 -0.45593999997E+02  0.45594000000E+02  0.51100000000E-03 0. -1.
    9900012    2    1    2    0    0 -0.11875898901E+02 -0.81006483084E+01  0.12001901183E+02  0.72460931096E+02  0.69999167320E+02 0.  0.
         12    1    1    2    0    0  0.11875898901E+02  0.81006483084E+01 -0.12001901183E+02  0.18727068904E+02  0.00000000000E+00 0. -1.
         11    1    3    3    0    0  0.15934852040E+02 -0.26045704315E+02  0.15740333210E+02  0.34351947727E+02  0.51100000000E-03 0. -1.
        -11    1    3    3    0    0 -0.63859220386E+01  0.98320712338E+01  0.60536503206E+01  0.13194555979E+02  0.51100000000E-03 0.  1.
        -12    1    3    3    0    0 -0.21424828903E+02  0.81129847733E+01 -0.97920823473E+01  0.24914427389E+02  0.00000000000E+00 0.  1.
</event>
<event>
 7    1  0.3020651E-013  0.7246169E+02  0.7816164E-02  0.1226708E+00
        -11   -1    0    0    0    0  0.00000000000E+00  0.00000000000E+00  0.45593999997E+02  0.45594000000E+02  0.51100000000E-03 0.  1.
         11   -1    0    0    0    0 -0.00000000000E+00 -0.00000000000E+00 -0.45593999997E+02  0.45594000000E+02  0.51100000000E-03 0. -1.
    9900012    2    1    2    0    0 -0.13579686757E+02  0.10118332639E+02  0.79928888856E+01  0.72461686414E+02  0.70000151267E+02 0.  0.
         12    1    1    2    0    0  0.13579686757E+02 -0.10118332639E+02 -0.79928888856E+01  0.18726313586E+02  0.00000000000E+00 0. -1.
         11    1    3    3    0    0  0.16775241918E+02 -0.58544513064E+01 -0.55256981523E+01  0.18606898770E+02  0.51100000000E-03 0. -1.
        -11    1    3    3    0    0  0.26901569452E+01  0.72398412637E+01 -0.98006037578E+01  0.12478144100E+02  0.51100000000E-03 0.  1.
        -12    1    3    3    0    0 -0.33045085620E+02  0.87329426813E+01  0.23319190796E+02  0.41376643543E+02  0.00000000000E+00 0.  1.
</event>
<event>
 7    1  0.3020651E-013  0.7246160E+02  0.7816164E-02  0.1226708E+00
        -11   -1    0    0    0    0  0.00000000000E+00  0.00000000000E+00  0.45593999997E+02  0.45594000000E+02  0.51100000000E-03 0.  1.
         11   -1    0    0    0    0 -0.00000000000E+00 -0.00000000000E+00 -0.45593999997E+02  0.45594000000E+02  0.51100000000E-03 0. -1.
    9900012    2    1    2    0    0 -0.31695913241E+00  0.18468609719E+02  0.30802864164E+01  0.72461596916E+02  0.70000034680E+02 0.  0.
         12    1    1    2    0    0  0.31695913241E+00 -0.18468609719E+02 -0.30802864164E+01  0.18726403084E+02  0.00000000000E+00 0. -1.
         11    1    3    3    0    0  0.65238432307E+01  0.98987119812E+01 -0.96014565166E+00  0.11893986267E+02  0.51100000000E-03 0. -1.
        -11    1    3    3    0    0  0.24679614559E+01 -0.11435047680E+02 -0.22917822452E+02  0.25730871252E+02  0.51100000000E-03 0.  1.
        -12    1    3    3    0    0 -0.93087638190E+01  0.20004945418E+02  0.26958254520E+02  0.34836739397E+02  0.00000000000E+00 0.  1.
</event>
<event>
 7    1  0.3020651E-013  0.7246169E+02  0.7816164E-02  0.1226708E+00
        -11   -1    0    0    0    0  0.00000000000E+00  0.00000000000E+00  0.45593999997E+02  0.45594000000E+02  0.51100000000E-03 0. -1.
         11   -1    0    0    0    0 -0.00000000000E+00 -0.00000000000E+00 -0.45593999997E+02  0.45594000000E+02  0.51100000000E-03 0.  1.
    9900012    2    1    2    0    0  0.50283901794E+01 -0.86182544323E+01 -0.15846632826E+02  0.72461687251E+02  0.70000152358E+02 0.  0.
         12    1    1    2    0    0 -0.50283901794E+01  0.86182544323E+01  0.15846632826E+02  0.18726312749E+02  0.00000000000E+00 0. -1.
         11    1    3    3    0    0  0.90089949324E+01 -0.12454024226E+02  0.37964970413E+01  0.15832817158E+02  0.51100000000E-03 0. -1.
        -11    1    3    3    0    0  0.76061440352E+01 -0.96957088942E+01  0.13944488432E+02  0.18609378172E+02  0.51100000000E-03 0.  1.
        -12    1    3    3    0    0 -0.11586748788E+02  0.13531478688E+02 -0.33587618299E+02  0.38019491922E+02  0.00000000000E+00 0.  1.
</event>
<event>
 7    1  0.3020651E-013  0.7246152E+02  0.7816164E-02  0.1226708E+00
        -11   -1    0    0    0    0  0.00000000000E+00  0.00000000000E+00  0.45593999997E+02  0.45594000000E+02  0.51100000000E-03 0.  1.
         11   -1    0    0    0    0 -0.00000000000E+00 -0.00000000000E+00 -0.45593999997E+02  0.45594000000E+02  0.51100000000E-03 0. -1.
    9900012    2    1    2    0    0 -0.28233203999E+01 -0.18357280079E+02 -0.23917044038E+01  0.72461518218E+02  0.69999932160E+02 0.  0.
         12    1    1    2    0    0  0.28233203999E+01  0.18357280079E+02  0.23917044038E+01  0.18726481782E+02  0.00000000000E+00 0. -1.
         11    1    3    3    0    0 -0.11986013107E+02  0.22235300056E+01 -0.41848863342E+01  0.12888827323E+02  0.51100000000E-03 0. -1.
        -11    1    3    3    0    0  0.15980982155E+02 -0.26323986307E+02 -0.19526596080E+02  0.36464119356E+02  0.51100000000E-03 0.  1.
         12    1    3    3    0    0 -0.68182894482E+01  0.57431762219E+01  0.21319778010E+02  0.23108571538E+02  0.00000000000E+00 0. -1.
</event>
<event>
 7    1  0.3020651E-013  0.7246155E+02  0.7816164E-02  0.1226708E+00
        -11   -1    0    0    0    0  0.00000000000E+00  0.00000000000E+00  0.45593999997E+02  0.45594000000E+02  0.51100000000E-03 0. -1.
         11   -1    0    0    0    0 -0.00000000000E+00 -0.00000000000E+00 -0.45593999997E+02  0.45594000000E+02  0.51100000000E-03 0.  1.
    9900012    2    1    2    0    0  0.55089495027E+00  0.18540275479E+02 -0.25757997107E+01  0.72461546940E+02  0.69999969576E+02 0.  0.
         12    1    1    2    0    0 -0.55089495027E+00 -0.18540275479E+02  0.25757997107E+01  0.18726453060E+02  0.00000000000E+00 0. -1.
         11    1    3    3    0    0 -0.12480513001E+02  0.64340145388E+01  0.12136378206E+02  0.18559402579E+02  0.51100000000E-03 0. -1.
        -11    1    3    3    0    0  0.86434757832E+01 -0.79636085980E+01 -0.27359689756E+02  0.29777195290E+02  0.51100000000E-03 0.  1.
         12    1    3    3    0    0  0.43879321680E+01  0.20069869538E+02  0.12647511839E+02  0.24124949071E+02  0.00000000000E+00 0. -1.
</event>
<event>
 7    1  0.3020651E-013  0.7246172E+02  0.7816164E-02  0.1226708E+00
        -11   -1    0    0    0    0  0.00000000000E+00  0.00000000000E+00  0.45593999997E+02  0.45594000000E+02  0.51100000000E-03 0.  1.
         11   -1    0    0    0    0 -0.00000000000E+00 -0.00000000000E+00 -0.45593999997E+02  0.45594000000E+02  0.51100000000E-03 0. -1.
    9900012    2    1    2    0    0  0.12925671804E+02  0.21322691111E+01  0.13381107830E+02  0.72461718738E+02  0.70000193375E+02 0.  0.
         12    1    1    2    0    0 -0.12925671804E+02 -0.21322691111E+01 -0.13381107830E+02  0.18726281262E+02  0.00000000000E+00 0. -1.
         11    1    3    3    0    0 -0.24604500436E+02 -0.28069746722E+00  0.67059864936E+01  0.25503538733E+02  0.51100000000E-03 0. -1.
        -11    1    3    3    0    0 -0.32903537260E+01 -0.38267224953E+01  0.18819322383E+01  0.53862697583E+01  0.51100000000E-03 0.  1.
        -12    1    3    3    0    0  0.40820525966E+02  0.62396890737E+01  0.47931890981E+01  0.41571910247E+02  0.00000000000E+00 0.  1.
</event>
<event>
 7    1  0.3020651E-013  0.7246152E+02  0.7816164E-02  0.1226708E+00
        -11   -1    0    0    0    0  0.00000000000E+00  0.00000000000E+00  0.45593999997E+02  0.45594000000E+02  0.51100000000E-03 0. -1.
         11   -1    0    0    0    0 -0.00000000000E+00 -0.00000000000E+00 -0.45593999997E+02  0.45594000000E+02  0.51100000000E-03 0.  1.
    9900012    2    1    2    0    0  0.57884630815E+01  0.37359349692E+01 -0.17413146205E+02  0.72461516729E+02  0.69999930221E+02 0.  0.
         12    1    1    2    0    0 -0.57884630815E+01 -0.37359349692E+01  0.17413146205E+02  0.18726483271E+02  0.00000000000E+00 0. -1.
         11    1    3    3    0    0 -0.63653840724E+00  0.10367375436E+02 -0.31908253721E+02  0.33556285705E+02  0.51100000000E-03 0. -1.
        -11    1    3    3    0    0  0.13915607678E+02  0.89260705920E+01  0.27188442938E+00  0.16534593876E+02  0.51100000000E-03 0.  1.
         12    1    3    3    0    0 -0.74906061890E+01 -0.15557511058E+02  0.14223223086E+02  0.22370637147E+02  0.00000000000E+00 0. -1.
</event>
<event>
 7    1  0.3020651E-013  0.7246157E+02  0.7816164E-02  0.1226708E+00
        -11   -1    0    0    0    0  0.00000000000E+00  0.00000000000E+00  0.45593999997E+02  0.45594000000E+02  0.51100000000E-03 0. -1.
         11   -1    0    0    0    0 -0.00000000000E+00 -0.00000000000E+00 -0.45593999997E+02  0.45594000000E+02  0.51100000000E-03 0.  1.
    9900012    2    1    2    0    0  0.13470184381E+02  0.31221725971E+01 -0.12628753818E+02  0.72461568093E+02  0.69999997132E+02 0.  0.
         12    1    1    2    0    0 -0.13470184381E+02 -0.31221725971E+01  0.12628753818E+02  0.18726431907E+02  0.00000000000E+00 0. -1.
         11    1    3    3    0    0  0.45097533053E+01 -0.17908319053E+02 -0.15383675109E+02  0.24035457689E+02  0.51100000000E-03 0. -1.
        -11    1    3    3    0    0 -0.12347253675E-01 -0.11744022785E+02 -0.62072672701E+01  0.13283538341E+02  0.51100000000E-03 0.  1.
         12    1    3    3    0    0  0.89727783292E+01  0.32774514435E+02  0.89621885614E+01  0.35142572063E+02  0.00000000000E+00 0. -1.
</event>
<event>
 7    1  0.3020651E-013  0.7246154E+02  0.7816164E-02  0.1226708E+00
        -11   -1    0    0    0    0  0.00000000000E+00  0.00000000000E+00  0.45593999997E+02  0.45594000000E+02  0.51100000000E-03 0.  1.
         11   -1    0    0    0    0 -0.00000000000E+00 -0.00000000000E+00 -0.45593999997E+02  0.45594000000E+02  0.51100000000E-03 0. -1.
    9900012    2    1    2    0    0 -0.43517989680E+01 -0.13721252456E+02  0.11977865777E+02  0.72461543000E+02  0.69999964444E+02 0.  0.
         12    1    1    2    0    0  0.43517989680E+01  0.13721252456E+02 -0.11977865777E+02  0.18726457000E+02  0.00000000000E+00 0. -1.
         11    1    3    3    0    0  0.14038759407E+02  0.58133224815E+01 -0.68437515677E+00  0.15210189137E+02  0.51100000000E-03 0. -1.
        -11    1    3    3    0    0 -0.87842301441E+01  0.16404229982E+02  0.34174685479E+01  0.18919316903E+02  0.51100000000E-03 0.  1.
         12    1    3    3    0    0 -0.96063282312E+01 -0.35938804919E+02  0.92447723854E+01  0.38332036961E+02  0.00000000000E+00 0. -1.
</event>
<event>
 7    1  0.3020651E-013  0.7246161E+02  0.7816164E-02  0.1226708E+00
        -11   -1    0    0    0    0  0.00000000000E+00  0.00000000000E+00  0.45593999997E+02  0.45594000000E+02  0.51100000000E-03 0. -1.
         11   -1    0    0    0    0 -0.00000000000E+00 -0.00000000000E+00 -0.45593999997E+02  0.45594000000E+02  0.51100000000E-03 0.  1.
    9900012    2    1    2    0    0  0.60424057238E+01  0.17721823397E+02  0.32252289388E+00  0.72461609198E+02  0.70000050679E+02 0.  0.
         12    1    1    2    0    0 -0.60424057238E+01 -0.17721823397E+02 -0.32252289388E+00  0.18726390802E+02  0.00000000000E+00 0. -1.
         11    1    3    3    0    0 -0.24531287435E+01  0.87477605550E+01  0.94334160699E+01  0.13096965082E+02  0.51100000000E-03 0. -1.
        -11    1    3    3    0    0 -0.18124412709E+02  0.22419154503E+02 -0.50161295106E+01  0.29262166362E+02  0.51100000000E-03 0.  1.
        -12    1    3    3    0    0  0.26619947176E+02 -0.13445091660E+02 -0.40947636654E+01  0.30102477754E+02  0.00000000000E+00 0.  1.
</event>
<event>
 7    1  0.3020651E-013  0.7246142E+02  0.7816164E-02  0.1226708E+00
        -11   -1    0    0    0    0  0.00000000000E+00  0.00000000000E+00  0.45593999997E+02  0.45594000000E+02  0.51100000000E-03 0.  1.
         11   -1    0    0    0    0 -0.00000000000E+00 -0.00000000000E+00 -0.45593999997E+02  0.45594000000E+02  0.51100000000E-03 0. -1.
    9900012    2    1    2    0    0  0.67989831698E+01 -0.95584036788E+01  0.14597787907E+02  0.72461423570E+02  0.69999808863E+02 0.  0.
         12    1    1    2    0    0 -0.67989831698E+01  0.95584036788E+01 -0.14597787907E+02  0.18726576430E+02  0.00000000000E+00 0. -1.
         11    1    3    3    0    0 -0.55337070264E+01  0.17523238336E+02  0.19132462028E+02  0.26528039859E+02  0.51100000000E-03 0. -1.
        -11    1    3    3    0    0  0.11061862936E+02 -0.14188886628E+02  0.14362978028E+02  0.23021391214E+02  0.51100000000E-03 0.  1.
         12    1    3    3    0    0  0.12708272602E+01 -0.12892755387E+02 -0.18897652149E+02  0.22911992496E+02  0.00000000000E+00 0. -1.
</event>
<event>
 7    1  0.3020651E-013  0.7246155E+02  0.7816164E-02  0.1226708E+00
        -11   -1    0    0    0    0  0.00000000000E+00  0.00000000000E+00  0.45593999997E+02  0.45594000000E+02  0.51100000000E-03 0. -1.
         11   -1    0    0    0    0 -0.00000000000E+00 -0.00000000000E+00 -0.45593999997E+02  0.45594000000E+02  0.51100000000E-03 0.  1.
    9900012    2    1    2    0    0  0.57856432681E+01 -0.46502239861E+01 -0.17192490257E+02  0.72461548858E+02  0.69999972075E+02 0.  0.
         12    1    1    2    0    0 -0.57856432681E+01  0.46502239861E+01  0.17192490257E+02  0.18726451142E+02  0.00000000000E+00 0. -1.
         11    1    3    3    0    0 -0.59981812347E+01 -0.11070434563E+02 -0.13360997394E+02  0.18358892972E+02  0.51100000000E-03 0.  1.
        -11    1    3    3    0    0  0.10656461683E+01  0.27756584951E+02 -0.98618215190E+01  0.29475738054E+02  0.51100000000E-03 0. -1.
         12    1    3    3    0    0  0.10718178335E+02 -0.21336374373E+02  0.60303286564E+01  0.24626917832E+02  0.00000000000E+00 0. -1.
</event>
<event>
 7    1  0.3020651E-013  0.7246158E+02  0.7816164E-02  0.1226708E+00
        -11   -1    0    0    0    0  0.00000000000E+00  0.00000000000E+00  0.45593999997E+02  0.45594000000E+02  0.51100000000E-03 0. -1.
         11   -1    0    0    0    0 -0.00000000000E+00 -0.00000000000E+00 -0.45593999997E+02  0.45594000000E+02  0.51100000000E-03 0.  1.
    9900012    2    1    2    0    0 -0.18383197189E+02 -0.27343242719E+01  0.22935287672E+01  0.72461581701E+02  0.70000014859E+02 0.  0.
         12    1    1    2    0    0  0.18383197189E+02  0.27343242719E+01 -0.22935287672E+01  0.18726418299E+02  0.00000000000E+00 0. -1.
         11    1    3    3    0    0  0.31143755129E+01  0.15653148352E+02  0.88133711952E+01  0.18231727846E+02  0.51100000000E-03 0. -1.
        -11    1    3    3    0    0 -0.22043312329E+02 -0.12836019283E+02  0.16608267808E+02  0.30438553995E+02  0.51100000000E-03 0.  1.
        -12    1    3    3    0    0  0.54573962702E+00 -0.55514533404E+01 -0.23128110236E+02  0.23791299860E+02  0.00000000000E+00 0.  1.
</event>
<event>
 7    1  0.3020651E-013  0.7246198E+02  0.7816164E-02  0.1226707E+00
        -11   -1    0    0    0    0  0.00000000000E+00  0.00000000000E+00  0.45593999997E+02  0.45594000000E+02  0.51100000000E-03 0.  1.
         11   -1    0    0    0    0 -0.00000000000E+00 -0.00000000000E+00 -0.45593999997E+02  0.45594000000E+02  0.51100000000E-03 0. -1.
    9900012    2    1    2    0    0  0.15959177077E+02  0.97765615715E+01 -0.62246604209E+00  0.72461976581E+02  0.70000529261E+02 0.  0.
         12    1    1    2    0    0 -0.15959177077E+02 -0.97765615715E+01  0.62246604209E+00  0.18726023419E+02  0.00000000000E+00 0. -1.
         11    1    3    3    0    0  0.97183575487E+01  0.14255725313E+02 -0.27221812719E+02  0.32228857653E+02  0.51100000000E-03 0. -1.
        -11    1    3    3    0    0 -0.34480834373E+01  0.61933038645E+00 -0.53864193592E+01  0.64254465442E+01  0.51100000000E-03 0.  1.
        -12    1    3    3    0    0  0.96889029653E+01 -0.50984941276E+01  0.31985766036E+02  0.33807672383E+02  0.00000000000E+00 0.  1.
</event>
<event>
 7    1  0.3020651E-013  0.7246152E+02  0.7816164E-02  0.1226708E+00
        -11   -1    0    0    0    0  0.00000000000E+00  0.00000000000E+00  0.45593999997E+02  0.45594000000E+02  0.51100000000E-03 0.  1.
         11   -1    0    0    0    0 -0.00000000000E+00 -0.00000000000E+00 -0.45593999997E+02  0.45594000000E+02  0.51100000000E-03 0. -1.
    9900012    2    1    2    0    0 -0.14155602539E+02 -0.10345070253E+02  0.65787053048E+01  0.72461523415E+02  0.69999938931E+02 0.  0.
         12    1    1    2    0    0  0.14155602539E+02  0.10345070253E+02 -0.65787053048E+01  0.18726476585E+02  0.00000000000E+00 0. -1.
         11    1    3    3    0    0  0.26085169597E+01 -0.14132050177E+02  0.42495852693E+01  0.14985932676E+02  0.51100000000E-03 0. -1.
        -11    1    3    3    0    0 -0.95374092973E+01  0.20166964147E+02  0.21683686409E+02  0.31110301760E+02  0.51100000000E-03 0.  1.
         12    1    3    3    0    0 -0.72267102018E+01 -0.16379984223E+02 -0.19354566373E+02  0.26365288980E+02  0.00000000000E+00 0. -1.
</event>
<event>
 7    1  0.3020651E-013  0.7246156E+02  0.7816164E-02  0.1226708E+00
        -11   -1    0    0    0    0  0.00000000000E+00  0.00000000000E+00  0.45593999997E+02  0.45594000000E+02  0.51100000000E-03 0.  1.
         11   -1    0    0    0    0 -0.00000000000E+00 -0.00000000000E+00 -0.45593999997E+02  0.45594000000E+02  0.51100000000E-03 0. -1.
    9900012    2    1    2    0    0  0.12929333702E+02  0.13150097042E+02  0.32537417972E+01  0.72461559925E+02  0.69999986492E+02 0.  0.
         12    1    1    2    0    0 -0.12929333702E+02 -0.13150097042E+02 -0.32537417972E+01  0.18726440075E+02  0.00000000000E+00 0. -1.
         11    1    3    3    0    0 -0.41783874148E+01  0.91467882286E+01 -0.27279243005E+01  0.10419415892E+02  0.51100000000E-03 0. -1.
        -11    1    3    3    0    0  0.26114898314E+02  0.11819724434E+02  0.26026519234E+02  0.38717870594E+02  0.51100000000E-03 0.  1.
         12    1    3    3    0    0 -0.90071771969E+01 -0.78164156200E+01 -0.20044853136E+02  0.23324273439E+02  0.00000000000E+00 0. -1.
</event>
<event>
 7    1  0.3020651E-013  0.7246155E+02  0.7816164E-02  0.1226708E+00
        -11   -1    0    0    0    0  0.00000000000E+00  0.00000000000E+00  0.45593999997E+02  0.45594000000E+02  0.51100000000E-03 0. -1.
         11   -1    0    0    0    0 -0.00000000000E+00 -0.00000000000E+00 -0.45593999997E+02  0.45594000000E+02  0.51100000000E-03 0.  1.
    9900012    2    1    2    0    0  0.41795458319E+01  0.51836224693E+01 -0.17502614949E+02  0.72461546110E+02  0.69999968495E+02 0.  0.
         12    1    1    2    0    0 -0.41795458319E+01 -0.51836224693E+01  0.17502614949E+02  0.18726453890E+02  0.00000000000E+00 0. -1.
         11    1    3    3    0    0 -0.63348866589E+01 -0.35239938590E+01  0.10582474911E+02  0.12827240436E+02  0.51100000000E-03 0. -1.
        -11    1    3    3    0    0 -0.13219542602E+01  0.28368285324E+02 -0.90130857950E+01  0.29795014534E+02  0.51100000000E-03 0.  1.
        -12    1    3    3    0    0  0.11836386751E+02 -0.19660668996E+02 -0.19072004065E+02  0.29839291140E+02  0.00000000000E+00 0.  1.
</event>
<event>
 7    1  0.3020651E-013  0.7246156E+02  0.7816164E-02  0.1226708E+00
        -11   -1    0    0    0    0  0.00000000000E+00  0.00000000000E+00  0.45593999997E+02  0.45594000000E+02  0.51100000000E-03 0.  1.
         11   -1    0    0    0    0 -0.00000000000E+00 -0.00000000000E+00 -0.45593999997E+02  0.45594000000E+02  0.51100000000E-03 0. -1.
    9900012    2    1    2    0    0 -0.98256456017E+01 -0.15756158521E+02 -0.24247871064E+01  0.72461563197E+02  0.69999990754E+02 0.  0.
         12    1    1    2    0    0  0.98256456017E+01  0.15756158521E+02  0.24247871064E+01  0.18726436803E+02  0.00000000000E+00 0. -1.
         11    1    3    3    0    0 -0.15589742731E+02 -0.15301023409E+02 -0.16252238230E+02  0.27226763369E+02  0.51100000000E-03 0. -1.
        -11    1    3    3    0    0  0.11615683044E+02 -0.86969806338E+01 -0.11143355310E+02  0.18295790023E+02  0.51100000000E-03 0.  1.
        -12    1    3    3    0    0 -0.58515859145E+01  0.82418455219E+01  0.24970806434E+02  0.26939009805E+02  0.00000000000E+00 0.  1.
</event>
<event>
 7    1  0.3020651E-013  0.7246157E+02  0.7816164E-02  0.1226708E+00
        -11   -1    0    0    0    0  0.00000000000E+00  0.00000000000E+00  0.45593999997E+02  0.45594000000E+02  0.51100000000E-03 0.  1.
         11   -1    0    0    0    0 -0.00000000000E+00 -0.00000000000E+00 -0.45593999997E+02  0.45594000000E+02  0.51100000000E-03 0. -1.
    9900012    2    1    2    0    0  0.79250423628E+01  0.16761837854E+02  0.26293706501E+01  0.72461572292E+02  0.70000002602E+02 0.  0.
         12    1    1    2    0    0 -0.79250423628E+01 -0.16761837854E+02 -0.26293706501E+01  0.18726427708E+02  0.00000000000E+00 0. -1.
         11    1    3    3    0    0 -0.15023801698E+02  0.13717694207E+02  0.33554971832E+00  0.20347047591E+02  0.51100000000E-03 0. -1.
        -11    1    3    3    0    0 -0.63904898214E+01  0.89705051842E+00  0.17747768434E+02  0.18884553064E+02  0.51100000000E-03 0.  1.
        -12    1    3    3    0    0  0.29339333882E+02  0.21470931286E+01 -0.15453947502E+02  0.33229971636E+02  0.00000000000E+00 0.  1.
</event>
<event>
 7    1  0.3020651E-013  0.7246159E+02  0.7816164E-02  0.1226708E+00
        -11   -1    0    0    0    0  0.00000000000E+00  0.00000000000E+00  0.45593999997E+02  0.45594000000E+02  0.51100000000E-03 0. -1.
         11   -1    0    0    0    0 -0.00000000000E+00 -0.00000000000E+00 -0.45593999997E+02  0.45594000000E+02  0.51100000000E-03 0.  1.
    9900012    2    1    2    0    0 -0.30659198956E+01 -0.11322755273E+02 -0.14597048582E+02  0.72461588730E+02  0.70000024015E+02 0.  0.
         12    1    1    2    0    0  0.30659198956E+01  0.11322755273E+02  0.14597048582E+02  0.18726411270E+02  0.00000000000E+00 0. -1.
         11    1    3    3    0    0 -0.11465350955E+01 -0.26150665604E+02  0.17024731993E+02  0.31225203826E+02  0.51100000000E-03 0. -1.
        -11    1    3    3    0    0  0.14663298119E+01 -0.54129068602E+01 -0.43055989634E+01  0.70702097911E+01  0.51100000000E-03 0.  1.
        -12    1    3    3    0    0 -0.33857146120E+01  0.20240817191E+02 -0.27316181611E+02  0.34166175113E+02  0.00000000000E+00 0.  1.
</event>
<event>
 7    1  0.3020651E-013  0.7246159E+02  0.7816164E-02  0.1226708E+00
        -11   -1    0    0    0    0  0.00000000000E+00  0.00000000000E+00  0.45593999997E+02  0.45594000000E+02  0.51100000000E-03 0. -1.
         11   -1    0    0    0    0 -0.00000000000E+00 -0.00000000000E+00 -0.45593999997E+02  0.45594000000E+02  0.51100000000E-03 0.  1.
    9900012    2    1    2    0    0 -0.17490807255E+02  0.48733238042E+01  0.45826532818E+01  0.72461592591E+02  0.70000029046E+02 0.  0.
         12    1    1    2    0    0  0.17490807255E+02 -0.48733238042E+01 -0.45826532818E+01  0.18726407409E+02  0.00000000000E+00 0. -1.
         11    1    3    3    0    0 -0.89243768867E+01  0.15068582317E+01 -0.39078187138E+00  0.90591299405E+01  0.51100000000E-03 0. -1.
        -11    1    3    3    0    0 -0.21838206657E+02  0.51992288590E+01  0.28529729989E+02  0.36302682328E+02  0.51100000000E-03 0.  1.
         12    1    3    3    0    0  0.13271776288E+02 -0.18327632864E+01 -0.23556294836E+02  0.27099780322E+02  0.00000000000E+00 0. -1.
</event>
<event>
 7    1  0.3020651E-013  0.7246155E+02  0.7816164E-02  0.1226708E+00
        -11   -1    0    0    0    0  0.00000000000E+00  0.00000000000E+00  0.45593999997E+02  0.45594000000E+02  0.51100000000E-03 0.  1.
         11   -1    0    0    0    0 -0.00000000000E+00 -0.00000000000E+00 -0.45593999997E+02  0.45594000000E+02  0.51100000000E-03 0. -1.
    9900012    2    1    2    0    0 -0.17655114977E+02 -0.19861609619E+01  0.59187864538E+01  0.72461549367E+02  0.69999972739E+02 0.  0.
         12    1    1    2    0    0  0.17655114977E+02  0.19861609619E+01 -0.59187864538E+01  0.18726450633E+02  0.00000000000E+00 0. -1.
         11    1    3    3    0    0  0.27665223313E+01 -0.20540037090E+02  0.14117812670E+01  0.20773538362E+02  0.51100000000E-03 0. -1.
        -11    1    3    3    0    0  0.90329854872E+00  0.16813376734E+02  0.19348196659E+02  0.25648748502E+02  0.51100000000E-03 0.  1.
         12    1    3    3    0    0 -0.21324935857E+02  0.17404993938E+01 -0.14841191473E+02  0.26039262504E+02  0.00000000000E+00 0. -1.
</event>
<event>
 7    1  0.3020651E-013  0.7246157E+02  0.7816164E-02  0.1226708E+00
        -11   -1    0    0    0    0  0.00000000000E+00  0.00000000000E+00  0.45593999997E+02  0.45594000000E+02  0.51100000000E-03 0. -1.
         11   -1    0    0    0    0 -0.00000000000E+00 -0.00000000000E+00 -0.45593999997E+02  0.45594000000E+02  0.51100000000E-03 0.  1.
    9900012    2    1    2    0    0 -0.72888438465E+01  0.17155631438E+02 -0.17989937935E+01  0.72461566455E+02  0.69999994999E+02 0.  0.
         12    1    1    2    0    0  0.72888438465E+01 -0.17155631438E+02  0.17989937935E+01  0.18726433545E+02  0.00000000000E+00 0. -1.
         11    1    3    3    0    0  0.31630149464E+01  0.12540962670E+02  0.22023063771E+02  0.25540081174E+02  0.51100000000E-03 0. -1.
        -11    1    3    3    0    0 -0.28591333963E+01  0.11018945518E+02  0.77844382288E+01  0.13790913056E+02  0.51100000000E-03 0.  1.
        -12    1    3    3    0    0 -0.75927253965E+01 -0.64042767502E+01 -0.31606495794E+02  0.33130572226E+02  0.00000000000E+00 0.  1.
</event>
<event>
 7    1  0.3020651E-013  0.7246159E+02  0.7816164E-02  0.1226708E+00
        -11   -1    0    0    0    0  0.00000000000E+00  0.00000000000E+00  0.45593999997E+02  0.45594000000E+02  0.51100000000E-03 0.  1.
         11   -1    0    0    0    0 -0.00000000000E+00 -0.00000000000E+00 -0.45593999997E+02  0.45594000000E+02  0.51100000000E-03 0. -1.
    9900012    2    1    2    0    0 -0.33225391396E+01 -0.12875522127E+02  0.13185596344E+02  0.72461593849E+02  0.70000030684E+02 0.  0.
         12    1    1    2    0    0  0.33225391396E+01  0.12875522127E+02 -0.13185596344E+02  0.18726406151E+02  0.00000000000E+00 0. -1.
         11    1    3    3    0    0  0.35790115787E+01 -0.16265355741E+01  0.41114173249E+01  0.56884703159E+01  0.51100000000E-03 0. -1.
        -11    1    3    3    0    0 -0.12290898319E+02 -0.23957627960E+02  0.30876486659E+02  0.40968177255E+02  0.51100000000E-03 0.  1.
         12    1    3    3    0    0  0.53893476004E+01  0.12708641407E+02 -0.21802307640E+02  0.25804946278E+02  0.00000000000E+00 0. -1.
</event>
<event>
 7    1  0.3020651E-013  0.7246158E+02  0.7816164E-02  0.1226708E+00
        -11   -1    0    0    0    0  0.00000000000E+00  0.00000000000E+00  0.45593999997E+02  0.45594000000E+02  0.51100000000E-03 0.  1.
         11   -1    0    0    0    0 -0.00000000000E+00 -0.00000000000E+00 -0.45593999997E+02  0.45594000000E+02  0.51100000000E-03 0. -1.
    9900012    2    1    2    0    0  0.96905051683E+00 -0.16949771476E+02  0.79022097519E+01  0.72461582004E+02  0.70000015255E+02 0.  0.
         12    1    1    2    0    0 -0.96905051683E+00  0.16949771476E+02 -0.79022097519E+01  0.18726417996E+02  0.00000000000E+00 0. -1.
         11    1    3    3    0    0 -0.18162413996E+02 -0.82794460578E+01 -0.53882851861E+01  0.20675012133E+02  0.51100000000E-03 0. -1.
        -11    1    3    3    0    0 -0.31069139927E+01 -0.37519477649E+01  0.25488631738E+02  0.25949959051E+02  0.51100000000E-03 0.  1.
         12    1    3    3    0    0  0.22238378506E+02 -0.49183776530E+01 -0.12198136800E+02  0.25836610821E+02  0.00000000000E+00 0. -1.
</event>
<event>
 7    1  0.3020651E-013  0.7246159E+02  0.7816164E-02  0.1226708E+00
        -11   -1    0    0    0    0  0.00000000000E+00  0.00000000000E+00  0.45593999997E+02  0.45594000000E+02  0.51100000000E-03 0. -1.
         11   -1    0    0    0    0 -0.00000000000E+00 -0.00000000000E+00 -0.45593999997E+02  0.45594000000E+02  0.51100000000E-03 0.  1.
    9900012    2    1    2    0    0  0.57084003273E+01 -0.11544832743E+01 -0.17797745540E+02  0.72461590514E+02  0.70000026340E+02 0.  0.
         12    1    1    2    0    0 -0.57084003273E+01  0.11544832743E+01  0.17797745540E+02  0.18726409486E+02  0.00000000000E+00 0. -1.
         11    1    3    3    0    0  0.24823044004E+02  0.11507569585E+02 -0.40734928057E+01  0.27662266995E+02  0.51100000000E-03 0. -1.
        -11    1    3    3    0    0 -0.65700881344E+01  0.62721639740E+01  0.89173345403E+01  0.12728902332E+02  0.51100000000E-03 0.  1.
         12    1    3    3    0    0 -0.12544555543E+02 -0.18934216834E+02 -0.22641587274E+02  0.32070421188E+02  0.00000000000E+00 0. -1.
</event>
<event>
 7    1  0.3020651E-013  0.7246169E+02  0.7816164E-02  0.1226708E+00
        -11   -1    0    0    0    0  0.00000000000E+00  0.00000000000E+00  0.45593999997E+02  0.45594000000E+02  0.51100000000E-03 0. -1.
         11   -1    0    0    0    0 -0.00000000000E+00 -0.00000000000E+00 -0.45593999997E+02  0.45594000000E+02  0.51100000000E-03 0.  1.
    9900012    2    1    2    0    0 -0.67151197964E+00 -0.15633196319E+02  0.10287225263E+02  0.72461688054E+02  0.70000153404E+02 0.  0.
         12    1    1    2    0    0  0.67151197964E+00  0.15633196319E+02 -0.10287225263E+02  0.18726311946E+02  0.00000000000E+00 0. -1.
         11    1    3    3    0    0 -0.23497584689E+02 -0.31196565833E+01 -0.31053991363E+00  0.23705804747E+02  0.51100000000E-03 0. -1.
        -11    1    3    3    0    0 -0.10323950166E+02  0.40256891209E-01  0.82773960020E+01  0.13232567872E+02  0.51100000000E-03 0.  1.
         12    1    3    3    0    0  0.33150022876E+02 -0.12553796627E+02  0.23203691747E+01  0.35523315435E+02  0.00000000000E+00 0. -1.
</event>
<event>
 7    1  0.3020651E-013  0.7246160E+02  0.7816164E-02  0.1226708E+00
        -11   -1    0    0    0    0  0.00000000000E+00  0.00000000000E+00  0.45593999997E+02  0.45594000000E+02  0.51100000000E-03 0.  1.
         11   -1    0    0    0    0 -0.00000000000E+00 -0.00000000000E+00 -0.45593999997E+02  0.45594000000E+02  0.51100000000E-03 0. -1.
    9900012    2    1    2    0    0  0.14346008377E+02  0.18634151980E+01  0.11891081127E+02  0.72461599307E+02  0.70000037795E+02 0.  0.
         12    1    1    2    0    0 -0.14346008377E+02 -0.18634151980E+01 -0.11891081127E+02  0.18726400693E+02  0.00000000000E+00 0. -1.
         11    1    3    3    0    0  0.24099799898E+02  0.60500238866E+01 -0.12074248299E+02  0.27625904807E+02  0.51100000000E-03 0. -1.
        -11    1    3    3    0    0  0.97270180089E+01 -0.12688672052E+02  0.14439854434E+02  0.21543599377E+02  0.51100000000E-03 0.  1.
        -12    1    3    3    0    0 -0.19480809530E+02  0.85020633634E+01  0.95254749910E+01  0.23292095123E+02  0.00000000000E+00 0.  1.
</event>
<event>
 7    1  0.3020651E-013  0.7246165E+02  0.7816164E-02  0.1226708E+00
        -11   -1    0    0    0    0  0.00000000000E+00  0.00000000000E+00  0.45593999997E+02  0.45594000000E+02  0.51100000000E-03 0.  1.
         11   -1    0    0    0    0 -0.00000000000E+00 -0.00000000000E+00 -0.45593999997E+02  0.45594000000E+02  0.51100000000E-03 0. -1.
    9900012    2    1    2    0    0 -0.17734523971E+02 -0.15160341029E+01  0.58193218565E+01  0.72461649401E+02  0.70000103052E+02 0.  0.
         12    1    1    2    0    0  0.17734523971E+02  0.15160341029E+01 -0.58193218565E+01  0.18726350599E+02  0.00000000000E+00 0. -1.
         11    1    3    3    0    0 -0.35138561298E+01  0.15699879185E+02  0.69276615831E+01  0.17516446175E+02  0.51100000000E-03 0. -1.
        -11    1    3    3    0    0 -0.29133920007E+02  0.17665965276E+01  0.59639593371E+01  0.29790518114E+02  0.51100000000E-03 0.  1.
         12    1    3    3    0    0  0.14913252166E+02 -0.18982509816E+02 -0.70722990637E+01  0.25154685113E+02  0.00000000000E+00 0. -1.
</event>
<event>
 7    1  0.3020651E-013  0.7246160E+02  0.7816164E-02  0.1226708E+00
        -11   -1    0    0    0    0  0.00000000000E+00  0.00000000000E+00  0.45593999997E+02  0.45594000000E+02  0.51100000000E-03 0. -1.
         11   -1    0    0    0    0 -0.00000000000E+00 -0.00000000000E+00 -0.45593999997E+02  0.45594000000E+02  0.51100000000E-03 0.  1.
    9900012    2    1    2    0    0  0.15406591302E+02 -0.12821769453E+01 -0.10567448258E+02  0.72461601630E+02  0.70000040820E+02 0.  0.
         12    1    1    2    0    0 -0.15406591302E+02  0.12821769453E+01  0.10567448258E+02  0.18726398370E+02  0.00000000000E+00 0. -1.
         11    1    3    3    0    0  0.12764110454E+02  0.22896311062E+01  0.21662394689E+02  0.25247262628E+02  0.51100000000E-03 0. -1.
        -11    1    3    3    0    0  0.86594733758E+01 -0.14355235125E+02 -0.52907102165E+01  0.17579842704E+02  0.51100000000E-03 0.  1.
        -12    1    3    3    0    0 -0.60169925285E+01  0.10783427074E+02 -0.26939132730E+02  0.29634496297E+02  0.00000000000E+00 0.  1.
</event>
<event>
 7    1  0.3020651E-013  0.7246152E+02  0.7816164E-02  0.1226708E+00
        -11   -1    0    0    0    0  0.00000000000E+00  0.00000000000E+00  0.45593999997E+02  0.45594000000E+02  0.51100000000E-03 0. -1.
         11   -1    0    0    0    0 -0.00000000000E+00 -0.00000000000E+00 -0.45593999997E+02  0.45594000000E+02  0.51100000000E-03 0.  1.
    9900012    2    1    2    0    0  0.13347906971E+01  0.54866526752E+01 -0.17854863097E+02  0.72461517148E+02  0.69999930767E+02 0.  0.
         12    1    1    2    0    0 -0.13347906971E+01 -0.54866526752E+01  0.17854863097E+02  0.18726482852E+02  0.00000000000E+00 0. -1.
         11    1    3    3    0    0  0.10287314626E+02  0.10586994191E+02 -0.18647592204E+02  0.23783313131E+02  0.51100000000E-03 0. -1.
        -11    1    3    3    0    0  0.52653990083E+01  0.85807469007E+01  0.19209329903E+02  0.21687600137E+02  0.51100000000E-03 0.  1.
         12    1    3    3    0    0 -0.14217922937E+02 -0.13681088416E+02 -0.18416600797E+02  0.26990603880E+02  0.00000000000E+00 0. -1.
</event>
<event>
 7    1  0.3020651E-013  0.7246169E+02  0.7816164E-02  0.1226708E+00
        -11   -1    0    0    0    0  0.00000000000E+00  0.00000000000E+00  0.45593999997E+02  0.45594000000E+02  0.51100000000E-03 0.  1.
         11   -1    0    0    0    0 -0.00000000000E+00 -0.00000000000E+00 -0.45593999997E+02  0.45594000000E+02  0.51100000000E-03 0. -1.
    9900012    2    1    2    0    0 -0.50331268712E+00  0.26227431176E+01  0.18534903597E+02  0.72461688125E+02  0.70000153496E+02 0.  0.
         12    1    1    2    0    0  0.50331268712E+00 -0.26227431176E+01 -0.18534903597E+02  0.18726311875E+02  0.00000000000E+00 0. -1.
         11    1    3    3    0    0  0.11626449383E+01 -0.11959984394E+02 -0.66188907031E+01  0.13718698348E+02  0.51100000000E-03 0. -1.
        -11    1    3    3    0    0  0.74567630689E+01  0.27143570455E+02 -0.11800214721E+01  0.28173909623E+02  0.51100000000E-03 0.  1.
         12    1    3    3    0    0 -0.91227206944E+01 -0.12560842943E+02  0.26333815772E+02  0.30569080153E+02  0.00000000000E+00 0. -1.
</event>
<event>
 7    1  0.3020651E-013  0.7246161E+02  0.7816164E-02  0.1226708E+00
        -11   -1    0    0    0    0  0.00000000000E+00  0.00000000000E+00  0.45593999997E+02  0.45594000000E+02  0.51100000000E-03 0.  1.
         11   -1    0    0    0    0 -0.00000000000E+00 -0.00000000000E+00 -0.45593999997E+02  0.45594000000E+02  0.51100000000E-03 0. -1.
    9900012    2    1    2    0    0  0.18887412051E+01  0.33503064574E+01  0.18327189642E+02  0.72461607479E+02  0.70000048440E+02 0.  0.
         12    1    1    2    0    0 -0.18887412051E+01 -0.33503064574E+01 -0.18327189642E+02  0.18726392521E+02  0.00000000000E+00 0. -1.
         11    1    3    3    0    0  0.21679149917E+01  0.51365671665E+01  0.12646692763E+02  0.13821107617E+02  0.51100000000E-03 0.  1.
        -11    1    3    3    0    0 -0.20257439869E+02  0.12423244678E+02 -0.13663743934E+02  0.27411654035E+02  0.51100000000E-03 0. -1.
         12    1    3    3    0    0  0.19978266082E+02 -0.14209505387E+02  0.19344240813E+02  0.31228845826E+02  0.00000000000E+00 0. -1.
</event>
<event>
 7    1  0.3020651E-013  0.7246157E+02  0.7816164E-02  0.1226708E+00
        -11   -1    0    0    0    0  0.00000000000E+00  0.00000000000E+00  0.45593999997E+02  0.45594000000E+02  0.51100000000E-03 0.  1.
         11   -1    0    0    0    0 -0.00000000000E+00 -0.00000000000E+00 -0.45593999997E+02  0.45594000000E+02  0.51100000000E-03 0. -1.
    9900012    2    1    2    0    0  0.12406043255E+02  0.11613162527E+02  0.78678927002E+01  0.72461569783E+02  0.69999999334E+02 0.  0.
         12    1    1    2    0    0 -0.12406043255E+02 -0.11613162527E+02 -0.78678927002E+01  0.18726430217E+02  0.00000000000E+00 0. -1.
         11    1    3    3    0    0  0.15837348079E+02 -0.11544686987E+02 -0.14440864841E+02  0.24344197860E+02  0.51100000000E-03 0. -1.
        -11    1    3    3    0    0  0.66445004311E+01 -0.62031411807E+01  0.12708879598E+02  0.15625106956E+02  0.51100000000E-03 0.  1.
         12    1    3    3    0    0 -0.10075805255E+02  0.29360990695E+02  0.95998779439E+01  0.32492264967E+02  0.00000000000E+00 0. -1.
</event>
<event>
 7    1  0.3020651E-013  0.7246159E+02  0.7816164E-02  0.1226708E+00
        -11   -1    0    0    0    0  0.00000000000E+00  0.00000000000E+00  0.45593999997E+02  0.45594000000E+02  0.51100000000E-03 0.  1.
         11   -1    0    0    0    0 -0.00000000000E+00 -0.00000000000E+00 -0.45593999997E+02  0.45594000000E+02  0.51100000000E-03 0. -1.
    9900012    2    1    2    0    0  0.14218346233E+02 -0.11394182968E+02  0.43231648213E+01  0.72461587391E+02  0.70000022272E+02 0.  0.
         12    1    1    2    0    0 -0.14218346233E+02  0.11394182968E+02 -0.43231648213E+01  0.18726412609E+02  0.00000000000E+00 0. -1.
         11    1    3    3    0    0  0.10250440888E+02 -0.20503697880E+02 -0.20644077565E+02  0.30848842830E+02  0.51100000000E-03 0. -1.
        -11    1    3    3    0    0  0.13012065253E+02  0.27139958187E+01 -0.10521153139E+01  0.13333662751E+02  0.51100000000E-03 0.  1.
        -12    1    3    3    0    0 -0.90441599080E+01  0.63955190933E+01  0.26019357700E+02  0.28279081811E+02  0.00000000000E+00 0.  1.
</event>
<event>
 7    1  0.3020651E-013  0.7246148E+02  0.7816164E-02  0.1226708E+00
        -11   -1    0    0    0    0  0.00000000000E+00  0.00000000000E+00  0.45593999997E+02  0.45594000000E+02  0.51100000000E-03 0. -1.
         11   -1    0    0    0    0 -0.00000000000E+00 -0.00000000000E+00 -0.45593999997E+02  0.45594000000E+02  0.51100000000E-03 0.  1.
    9900012    2    1    2    0    0 -0.10477735918E+02 -0.13073148175E+02 -0.83661392315E+01  0.72461483003E+02  0.69999886287E+02 0.  0.
         12    1    1    2    0    0  0.10477735918E+02  0.13073148175E+02  0.83661392315E+01  0.18726516997E+02  0.00000000000E+00 0. -1.
         11    1    3    3    0    0  0.22990222937E+02 -0.24807262051E+02  0.66066973144E+00  0.33828790785E+02  0.51100000000E-03 0. -1.
        -11    1    3    3    0    0  0.87862156622E-01  0.16601170919E+01  0.12963065732E+01  0.21081080405E+01  0.51100000000E-03 0.  1.
        -12    1    3    3    0    0 -0.33555821012E+02  0.10073996784E+02 -0.10323115536E+02  0.36524584178E+02  0.00000000000E+00 0.  1.
</event>
<event>
 7    1  0.3020651E-013  0.7246168E+02  0.7816164E-02  0.1226708E+00
        -11   -1    0    0    0    0  0.00000000000E+00  0.00000000000E+00  0.45593999997E+02  0.45594000000E+02  0.51100000000E-03 0. -1.
         11   -1    0    0    0    0 -0.00000000000E+00 -0.00000000000E+00 -0.45593999997E+02  0.45594000000E+02  0.51100000000E-03 0.  1.
    9900012    2    1    2    0    0 -0.45695825058E+00  0.16029730391E+02 -0.96702680554E+01  0.72461677576E+02  0.70000139754E+02 0.  0.
         12    1    1    2    0    0  0.45695825058E+00 -0.16029730391E+02  0.96702680554E+01  0.18726322424E+02  0.00000000000E+00 0. -1.
         11    1    3    3    0    0  0.78150746308E+01 -0.42917923522E+01  0.86107414017E+01  0.12395149891E+02  0.51100000000E-03 0. -1.
        -11    1    3    3    0    0  0.87243353701E+01  0.14115517788E+00 -0.29966098340E+02  0.31210591190E+02  0.51100000000E-03 0.  1.
         12    1    3    3    0    0 -0.16996368251E+02  0.20180367566E+02  0.11685088883E+02  0.28855936495E+02  0.00000000000E+00 0. -1.
</event>
<event>
 7    1  0.3020651E-013  0.7246156E+02  0.7816164E-02  0.1226708E+00
        -11   -1    0    0    0    0  0.00000000000E+00  0.00000000000E+00  0.45593999997E+02  0.45594000000E+02  0.51100000000E-03 0.  1.
         11   -1    0    0    0    0 -0.00000000000E+00 -0.00000000000E+00 -0.45593999997E+02  0.45594000000E+02  0.51100000000E-03 0. -1.
    9900012    2    1    2    0    0 -0.14583911154E+01  0.18626012890E+02 -0.12745373500E+01  0.72461555963E+02  0.69999981331E+02 0.  0.
         12    1    1    2    0    0  0.14583911154E+01 -0.18626012890E+02  0.12745373500E+01  0.18726444037E+02  0.00000000000E+00 0. -1.
         11    1    3    3    0    0 -0.17454486947E+02 -0.14910390094E+01 -0.26196146266E+02  0.31513812708E+02  0.51100000000E-03 0. -1.
        -11    1    3    3    0    0 -0.42182715335E+01  0.22315678765E+01  0.98707655985E+00  0.48731950827E+01  0.51100000000E-03 0.  1.
        -12    1    3    3    0    0  0.20214367365E+02  0.17885484023E+02  0.23934532357E+02  0.36074548172E+02  0.00000000000E+00 0.  1.
</event>
<event>
 7    1  0.3020651E-013  0.7246156E+02  0.7816164E-02  0.1226708E+00
        -11   -1    0    0    0    0  0.00000000000E+00  0.00000000000E+00  0.45593999997E+02  0.45594000000E+02  0.51100000000E-03 0.  1.
         11   -1    0    0    0    0 -0.00000000000E+00 -0.00000000000E+00 -0.45593999997E+02  0.45594000000E+02  0.51100000000E-03 0. -1.
    9900012    2    1    2    0    0  0.52361942070E+01  0.89721809017E+01  0.15580815013E+02  0.72461559965E+02  0.69999986545E+02 0.  0.
         12    1    1    2    0    0 -0.52361942070E+01 -0.89721809017E+01 -0.15580815013E+02  0.18726440035E+02  0.00000000000E+00 0. -1.
         11    1    3    3    0    0  0.84630902695E+00 -0.12295182651E+02 -0.11691713216E+02  0.16987757756E+02  0.51100000000E-03 0. -1.
        -11    1    3    3    0    0 -0.12917842271E+02 -0.61937378111E+01  0.15077923299E+02  0.20798480913E+02  0.51100000000E-03 0.  1.
        -12    1    3    3    0    0  0.17307727451E+02  0.27461101363E+02  0.12194604930E+02  0.34675321297E+02  0.00000000000E+00 0.  1.
</event>
<event>
 7    1  0.3020651E-013  0.7246148E+02  0.7816164E-02  0.1226708E+00
        -11   -1    0    0    0    0  0.00000000000E+00  0.00000000000E+00  0.45593999997E+02  0.45594000000E+02  0.51100000000E-03 0.  1.
         11   -1    0    0    0    0 -0.00000000000E+00 -0.00000000000E+00 -0.45593999997E+02  0.45594000000E+02  0.51100000000E-03 0. -1.
    9900012    2    1    2    0    0  0.61602451255E+01  0.25033970328E+01  0.17506198734E+02  0.72461478411E+02  0.69999880305E+02 0.  0.
         12    1    1    2    0    0 -0.61602451255E+01 -0.25033970328E+01 -0.17506198734E+02  0.18726521589E+02  0.00000000000E+00 0. -1.
         11    1    3    3    0    0 -0.14084555472E+01 -0.37142923681E+00 -0.69637626400E+01  0.71144709623E+01  0.51100000000E-03 0. -1.
        -11    1    3    3    0    0  0.18036912171E+01  0.31419478833E+02  0.12813055694E+02  0.33979572520E+02  0.51100000000E-03 0.  1.
         12    1    3    3    0    0  0.57650094556E+01 -0.28544652564E+02  0.11656905680E+02  0.31367434929E+02  0.00000000000E+00 0. -1.
</event>
<event>
 7    1  0.3020651E-013  0.7246160E+02  0.7816164E-02  0.1226708E+00
        -11   -1    0    0    0    0  0.00000000000E+00  0.00000000000E+00  0.45593999997E+02  0.45594000000E+02  0.51100000000E-03 0. -1.
         11   -1    0    0    0    0 -0.00000000000E+00 -0.00000000000E+00 -0.45593999997E+02  0.45594000000E+02  0.51100000000E-03 0.  1.
    9900012    2    1    2    0    0 -0.21787695010E+01  0.13361655477E+02 -0.12938212785E+02  0.72461595548E+02  0.70000032898E+02 0.  0.
         12    1    1    2    0    0  0.21787695010E+01 -0.13361655477E+02  0.12938212785E+02  0.18726404452E+02  0.00000000000E+00 0. -1.
         11    1    3    3    0    0  0.16929430190E+01 -0.77172009394E+01  0.56852374183E+01  0.97336103871E+01  0.51100000000E-03 0. -1.
        -11    1    3    3    0    0 -0.11846726124E+02 -0.29175582900E+01 -0.31910021621E+02  0.34162941126E+02  0.51100000000E-03 0.  1.
         12    1    3    3    0    0  0.79750136043E+01  0.23996414706E+02  0.13286571417E+02  0.28565044036E+02  0.00000000000E+00 0. -1.
</event>
<event>
 7    1  0.3020651E-013  0.7246165E+02  0.7816164E-02  0.1226708E+00
        -11   -1    0    0    0    0  0.00000000000E+00  0.00000000000E+00  0.45593999997E+02  0.45594000000E+02  0.51100000000E-03 0.  1.
         11   -1    0    0    0    0 -0.00000000000E+00 -0.00000000000E+00 -0.45593999997E+02  0.45594000000E+02  0.51100000000E-03 0. -1.
    9900012    2    1    2    0    0 -0.14274249332E+02  0.87767222306E+01 -0.83600883054E+01  0.72461651622E+02  0.70000105944E+02 0.  0.
         12    1    1    2    0    0  0.14274249332E+02 -0.87767222306E+01  0.83600883054E+01  0.18726348378E+02  0.00000000000E+00 0. -1.
         11    1    3    3    0    0 -0.16888871790E+02  0.95795627062E+01 -0.14530889602E+02  0.24251778592E+02  0.51100000000E-03 0. -1.
        -11    1    3    3    0    0 -0.56194656532E+00  0.20602047973E+02  0.14309910443E+02  0.25090510194E+02  0.51100000000E-03 0.  1.
        -12    1    3    3    0    0  0.31765690236E+01 -0.21404888448E+02 -0.81391091472E+01  0.23119362836E+02  0.00000000000E+00 0.  1.
</event>
<event>
 7    1  0.3020651E-013  0.7246158E+02  0.7816164E-02  0.1226708E+00
        -11   -1    0    0    0    0  0.00000000000E+00  0.00000000000E+00  0.45593999997E+02  0.45594000000E+02  0.51100000000E-03 0.  1.
         11   -1    0    0    0    0 -0.00000000000E+00 -0.00000000000E+00 -0.45593999997E+02  0.45594000000E+02  0.51100000000E-03 0. -1.
    9900012    2    1    2    0    0  0.32118311735E+00  0.17677055616E+02  0.61723166902E+01  0.72461576231E+02  0.70000007734E+02 0.  0.
         12    1    1    2    0    0 -0.32118311735E+00 -0.17677055616E+02 -0.61723166902E+01  0.18726423769E+02  0.00000000000E+00 0. -1.
         11    1    3    3    0    0 -0.10779984887E+02  0.25748164289E+02 -0.58965922816E+00  0.27919952304E+02  0.51100000000E-03 0. -1.
        -11    1    3    3    0    0  0.26540414442E+02 -0.99109078060E-01  0.56136854226E+01  0.27127788072E+02  0.51100000000E-03 0.  1.
         12    1    3    3    0    0 -0.15439246438E+02 -0.79719995953E+01  0.11482904957E+01  0.17413835855E+02  0.00000000000E+00 0. -1.
</event>
<event>
 7    1  0.3020651E-013  0.7246157E+02  0.7816164E-02  0.1226708E+00
        -11   -1    0    0    0    0  0.00000000000E+00  0.00000000000E+00  0.45593999997E+02  0.45594000000E+02  0.51100000000E-03 0.  1.
         11   -1    0    0    0    0 -0.00000000000E+00 -0.00000000000E+00 -0.45593999997E+02  0.45594000000E+02  0.51100000000E-03 0. -1.
    9900012    2    1    2    0    0 -0.59016111947E+01 -0.20647068723E+01  0.17651828942E+02  0.72461572306E+02  0.70000002621E+02 0.  0.
         12    1    1    2    0    0  0.59016111947E+01  0.20647068723E+01 -0.17651828942E+02  0.18726427694E+02  0.00000000000E+00 0. -1.
         11    1    3    3    0    0  0.73597763118E+01 -0.11322588083E+02 -0.12721235471E+02  0.18552550779E+02  0.51100000000E-03 0. -1.
        -11    1    3    3    0    0  0.32923695505E+01  0.19106772276E+02  0.18299978776E+01  0.19474530458E+02  0.51100000000E-03 0.  1.
        -12    1    3    3    0    0 -0.16553757057E+02 -0.98488910656E+01  0.28543066535E+02  0.34434491069E+02  0.00000000000E+00 0.  1.
</event>
<event>
 7    1  0.3020651E-013  0.7246154E+02  0.7816164E-02  0.1226708E+00
        -11   -1    0    0    0    0  0.00000000000E+00  0.00000000000E+00  0.45593999997E+02  0.45594000000E+02  0.51100000000E-03 0.  1.
         11   -1    0    0    0    0 -0.00000000000E+00 -0.00000000000E+00 -0.45593999997E+02  0.45594000000E+02  0.51100000000E-03 0. -1.
    9900012    2    1    2    0    0 -0.71650521904E+00 -0.26674694368E+01  0.18521650770E+02  0.72461539572E+02  0.69999959978E+02 0.  0.
         12    1    1    2    0    0  0.71650521904E+00  0.26674694368E+01 -0.18521650770E+02  0.18726460428E+02  0.00000000000E+00 0. -1.
         11    1    3    3    0    0  0.14546418405E+02 -0.20836170011E+02  0.98339360108E+01  0.27247946104E+02  0.51100000000E-03 0. -1.
        -11    1    3    3    0    0  0.11903776678E+02  0.87239891802E+01  0.71806725936E+01  0.16412493582E+02  0.51100000000E-03 0.  1.
         12    1    3    3    0    0 -0.27166700302E+02  0.94447113939E+01  0.15070421655E+01  0.28801099887E+02  0.00000000000E+00 0. -1.
</event>
<event>
 7    1  0.3020651E-013  0.7246152E+02  0.7816164E-02  0.1226708E+00
        -11   -1    0    0    0    0  0.00000000000E+00  0.00000000000E+00  0.45593999997E+02  0.45594000000E+02  0.51100000000E-03 0.  1.
         11   -1    0    0    0    0 -0.00000000000E+00 -0.00000000000E+00 -0.45593999997E+02  0.45594000000E+02  0.51100000000E-03 0. -1.
    9900012    2    1    2    0    0 -0.54423239357E+01  0.17531268508E+02 -0.37036433020E+01  0.72461515038E+02  0.69999928019E+02 0.  0.
         12    1    1    2    0    0  0.54423239357E+01 -0.17531268508E+02  0.37036433020E+01  0.18726484962E+02  0.00000000000E+00 0. -1.
         11    1    3    3    0    0 -0.32063111978E+01  0.38047190561E+02 -0.63002304481E+01  0.38698346800E+02  0.51100000000E-03 0. -1.
        -11    1    3    3    0    0  0.47961046626E+01  0.51126088377E+01 -0.38497911672E+00  0.70206551149E+01  0.51100000000E-03 0.  1.
         12    1    3    3    0    0 -0.70321174005E+01 -0.25628530891E+02  0.29815662628E+01  0.26742513123E+02  0.00000000000E+00 0. -1.
</event>
<event>
 7    1  0.3020651E-013  0.7246155E+02  0.7816164E-02  0.1226708E+00
        -11   -1    0    0    0    0  0.00000000000E+00  0.00000000000E+00  0.45593999997E+02  0.45594000000E+02  0.51100000000E-03 0. -1.
         11   -1    0    0    0    0 -0.00000000000E+00 -0.00000000000E+00 -0.45593999997E+02  0.45594000000E+02  0.51100000000E-03 0.  1.
    9900012    2    1    2    0    0  0.11644009391E+02  0.10840581113E+02 -0.98781977248E+01  0.72461549620E+02  0.69999973067E+02 0.  0.
         12    1    1    2    0    0 -0.11644009391E+02 -0.10840581113E+02  0.98781977248E+01  0.18726450380E+02  0.00000000000E+00 0. -1.
         11    1    3    3    0    0 -0.75845707608E+01 -0.19193747007E+02  0.14135465089E+02  0.25014735884E+02  0.51100000000E-03 0. -1.
        -11    1    3    3    0    0  0.43809749546E+01 -0.23251035760E+01 -0.10183036677E+01  0.50631996616E+01  0.51100000000E-03 0.  1.
         12    1    3    3    0    0  0.14847605197E+02  0.32359431695E+02 -0.22995359146E+02  0.42383614074E+02  0.00000000000E+00 0. -1.
</event>
<event>
 7    1  0.3020651E-013  0.7246158E+02  0.7816164E-02  0.1226708E+00
        -11   -1    0    0    0    0  0.00000000000E+00  0.00000000000E+00  0.45593999997E+02  0.45594000000E+02  0.51100000000E-03 0.  1.
         11   -1    0    0    0    0 -0.00000000000E+00 -0.00000000000E+00 -0.45593999997E+02  0.45594000000E+02  0.51100000000E-03 0. -1.
    9900012    2    1    2    0    0  0.18330769414E+02 -0.34928538466E+01  0.15689995372E+01  0.72461577628E+02  0.70000009553E+02 0.  0.
         12    1    1    2    0    0 -0.18330769414E+02  0.34928538466E+01 -0.15689995372E+01  0.18726422372E+02  0.00000000000E+00 0. -1.
         11    1    3    3    0    0 -0.10346203420E+02  0.65907218730E+01 -0.16722331609E+01  0.12380545385E+02  0.51100000000E-03 0. -1.
        -11    1    3    3    0    0 -0.73360804282E+01 -0.12582042533E+02  0.16145777149E+02  0.21744240395E+02  0.51100000000E-03 0.  1.
        -12    1    3    3    0    0  0.36013053263E+02  0.24984668135E+01 -0.12904544451E+02  0.38336791848E+02  0.00000000000E+00 0.  1.
</event>
<event>
 7    1  0.3020651E-013  0.7246176E+02  0.7816164E-02  0.1226708E+00
        -11   -1    0    0    0    0  0.00000000000E+00  0.00000000000E+00  0.45593999997E+02  0.45594000000E+02  0.51100000000E-03 0. -1.
         11   -1    0    0    0    0 -0.00000000000E+00 -0.00000000000E+00 -0.45593999997E+02  0.45594000000E+02  0.51100000000E-03 0.  1.
    9900012    2    1    2    0    0 -0.15002532854E-01 -0.18583829153E+02 -0.23050033241E+01  0.72461762487E+02  0.70000250366E+02 0.  0.
         12    1    1    2    0    0  0.15002532854E-01  0.18583829153E+02  0.23050033241E+01  0.18726237513E+02  0.00000000000E+00 0. -1.
         11    1    3    3    0    0 -0.10635130192E+02  0.58770137211E+01  0.11795035557E+02  0.16934230084E+02  0.51100000000E-03 0. -1.
        -11    1    3    3    0    0 -0.81011712475E+01  0.89422359361E+00 -0.21637003740E+02  0.23121170872E+02  0.51100000000E-03 0.  1.
         12    1    3    3    0    0  0.18721298907E+02 -0.25355066468E+02  0.75369648580E+01  0.32406361530E+02  0.00000000000E+00 0. -1.
</event>
<event>
 7    1  0.3020651E-013  0.7246147E+02  0.7816164E-02  0.1226708E+00
        -11   -1    0    0    0    0  0.00000000000E+00  0.00000000000E+00  0.45593999997E+02  0.45594000000E+02  0.51100000000E-03 0.  1.
         11   -1    0    0    0    0 -0.00000000000E+00 -0.00000000000E+00 -0.45593999997E+02  0.45594000000E+02  0.51100000000E-03 0. -1.
    9900012    2    1    2    0    0  0.33899493720E+01  0.67974153746E+01  0.17116847894E+02  0.72461465501E+02  0.69999863487E+02 0.  0.
         12    1    1    2    0    0 -0.33899493720E+01 -0.67974153746E+01 -0.17116847894E+02  0.18726534499E+02  0.00000000000E+00 0. -1.
         11    1    3    3    0    0 -0.14380203281E+02  0.53161985291E+01  0.56718697637E+01  0.16346936107E+02  0.51100000000E-03 0. -1.
        -11    1    3    3    0    0 -0.47872012820E+01 -0.21257619524E+02 -0.84930981935E+00  0.21806535978E+02  0.51100000000E-03 0.  1.
         12    1    3    3    0    0  0.22557353935E+02  0.22738836370E+02  0.12294287950E+02  0.34307993415E+02  0.00000000000E+00 0. -1.
</event>
<event>
 7    1  0.3020651E-013  0.7246159E+02  0.7816164E-02  0.1226708E+00
        -11   -1    0    0    0    0  0.00000000000E+00  0.00000000000E+00  0.45593999997E+02  0.45594000000E+02  0.51100000000E-03 0.  1.
         11   -1    0    0    0    0 -0.00000000000E+00 -0.00000000000E+00 -0.45593999997E+02  0.45594000000E+02  0.51100000000E-03 0. -1.
    9900012    2    1    2    0    0  0.15429305663E+02 -0.59806398389E+00  0.10595147374E+02  0.72461593467E+02  0.70000030186E+02 0.  0.
         12    1    1    2    0    0 -0.15429305663E+02  0.59806398389E+00 -0.10595147374E+02  0.18726406533E+02  0.00000000000E+00 0. -1.
         11    1    3    3    0    0  0.38738619071E+01 -0.10292951932E+02  0.13735058096E+02  0.17595553038E+02  0.51100000000E-03 0. -1.
        -11    1    3    3    0    0  0.24851355379E+02  0.97663695608E+00  0.16312284665E+02  0.29742802746E+02  0.51100000000E-03 0.  1.
         12    1    3    3    0    0 -0.13295911623E+02  0.87182509922E+01 -0.19452195388E+02  0.25123237683E+02  0.00000000000E+00 0. -1.
</event>
<event>
 7    1  0.3020651E-013  0.7246156E+02  0.7816164E-02  0.1226708E+00
        -11   -1    0    0    0    0  0.00000000000E+00  0.00000000000E+00  0.45593999997E+02  0.45594000000E+02  0.51100000000E-03 0. -1.
         11   -1    0    0    0    0 -0.00000000000E+00 -0.00000000000E+00 -0.45593999997E+02  0.45594000000E+02  0.51100000000E-03 0.  1.
    9900012    2    1    2    0    0 -0.71657265716E+01 -0.11266493686E+02 -0.13130048055E+02  0.72461556686E+02  0.69999982272E+02 0.  0.
         12    1    1    2    0    0  0.71657265716E+01  0.11266493686E+02  0.13130048055E+02  0.18726443314E+02  0.00000000000E+00 0. -1.
         11    1    3    3    0    0  0.90232428547E+01 -0.32116433456E+01 -0.14921094975E+02  0.17730556678E+02  0.51100000000E-03 0. -1.
        -11    1    3    3    0    0  0.87066374163E+01 -0.87934581492E+01 -0.18737352557E+02  0.22454817355E+02  0.51100000000E-03 0.  1.
         12    1    3    3    0    0 -0.24895606843E+02  0.73860780855E+00  0.20528399477E+02  0.32276182653E+02  0.00000000000E+00 0. -1.
</event>
<event>
 7    1  0.3020651E-013  0.7246160E+02  0.7816164E-02  0.1226708E+00
        -11   -1    0    0    0    0  0.00000000000E+00  0.00000000000E+00  0.45593999997E+02  0.45594000000E+02  0.51100000000E-03 0. -1.
         11   -1    0    0    0    0 -0.00000000000E+00 -0.00000000000E+00 -0.45593999997E+02  0.45594000000E+02  0.51100000000E-03 0.  1.
    9900012    2    1    2    0    0 -0.83020219220E+01 -0.94822675142E+01 -0.13850667992E+02  0.72461602348E+02  0.70000041755E+02 0.  0.
         12    1    1    2    0    0  0.83020219220E+01  0.94822675142E+01  0.13850667992E+02  0.18726397652E+02  0.00000000000E+00 0. -1.
         11    1    3    3    0    0 -0.12059093505E+02 -0.14303296514E+01 -0.48370510075E+01  0.13071520255E+02  0.51100000000E-03 0. -1.
        -11    1    3    3    0    0 -0.29977279500E+01  0.24785787247E+02 -0.13668500883E+01  0.25003797747E+02  0.51100000000E-03 0.  1.
        -12    1    3    3    0    0  0.67547995331E+01 -0.32837725110E+02 -0.76467668963E+01  0.34386284346E+02  0.00000000000E+00 0.  1.
</event>
<event>
 7    1  0.3020651E-013  0.7246158E+02  0.7816164E-02  0.1226708E+00
        -11   -1    0    0    0    0  0.00000000000E+00  0.00000000000E+00  0.45593999997E+02  0.45594000000E+02  0.51100000000E-03 0.  1.
         11   -1    0    0    0    0 -0.00000000000E+00 -0.00000000000E+00 -0.45593999997E+02  0.45594000000E+02  0.51100000000E-03 0. -1.
    9900012    2    1    2    0    0  0.77446505507E+01  0.10421878598E+02  0.13493838035E+02  0.72461579345E+02  0.70000011790E+02 0.  0.
         12    1    1    2    0    0 -0.77446505507E+01 -0.10421878598E+02 -0.13493838035E+02  0.18726420655E+02  0.00000000000E+00 0. -1.
         11    1    3    3    0    0  0.19618145712E+02  0.12370807589E+02  0.29352205384E+02  0.37409363570E+02  0.51100000000E-03 0. -1.
        -11    1    3    3    0    0 -0.51108943965E+01 -0.36078592284E+01  0.80245002602E+01  0.10174993584E+02  0.51100000000E-03 0.  1.
         12    1    3    3    0    0 -0.67626007647E+01  0.16589302377E+01 -0.23882867610E+02  0.24877222190E+02  0.00000000000E+00 0. -1.
</event>
<event>
 7    1  0.3020651E-013  0.7246161E+02  0.7816164E-02  0.1226708E+00
        -11   -1    0    0    0    0  0.00000000000E+00  0.00000000000E+00  0.45593999997E+02  0.45594000000E+02  0.51100000000E-03 0.  1.
         11   -1    0    0    0    0 -0.00000000000E+00 -0.00000000000E+00 -0.45593999997E+02  0.45594000000E+02  0.51100000000E-03 0. -1.
    9900012    2    1    2    0    0  0.17676536332E+02 -0.61273005220E+01  0.82101752337E+00  0.72461606376E+02  0.70000047003E+02 0.  0.
         12    1    1    2    0    0 -0.17676536332E+02  0.61273005220E+01 -0.82101752337E+00  0.18726393624E+02  0.00000000000E+00 0. -1.
         11    1    3    3    0    0 -0.13455110316E+01  0.82342095341E+01  0.63218305800E+01  0.10467958193E+02  0.51100000000E-03 0. -1.
        -11    1    3    3    0    0  0.17224845683E+01 -0.28182832106E+02  0.14864916910E+02  0.31909320482E+02  0.51100000000E-03 0.  1.
        -12    1    3    3    0    0  0.17299562796E+02  0.13821322050E+02 -0.20365729967E+02  0.30084327701E+02  0.00000000000E+00 0.  1.
</event>
<event>
 7    1  0.3020651E-013  0.7246158E+02  0.7816164E-02  0.1226708E+00
        -11   -1    0    0    0    0  0.00000000000E+00  0.00000000000E+00  0.45593999997E+02  0.45594000000E+02  0.51100000000E-03 0.  1.
         11   -1    0    0    0    0 -0.00000000000E+00 -0.00000000000E+00 -0.45593999997E+02  0.45594000000E+02  0.51100000000E-03 0. -1.
    9900012    2    1    2    0    0  0.87051706541E+01  0.15878227191E+02 -0.47729011543E+01  0.72461583357E+02  0.70000017017E+02 0.  0.
         12    1    1    2    0    0 -0.87051706541E+01 -0.15878227191E+02  0.47729011543E+01  0.18726416643E+02  0.00000000000E+00 0. -1.
         11    1    3    3    0    0  0.81407495768E+01 -0.10142922418E+02 -0.60009151720E+01  0.14323465433E+02  0.51100000000E-03 0. -1.
        -11    1    3    3    0    0  0.14540318689E+01 -0.67556808974E+00  0.23380845655E+02  0.23435753555E+02  0.51100000000E-03 0.  1.
         12    1    3    3    0    0 -0.88961079165E+00  0.26696717699E+02 -0.22152831637E+02  0.34702364369E+02  0.00000000000E+00 0. -1.
</event>
<event>
 7    1  0.3020651E-013  0.7246153E+02  0.7816164E-02  0.1226708E+00
        -11   -1    0    0    0    0  0.00000000000E+00  0.00000000000E+00  0.45593999997E+02  0.45594000000E+02  0.51100000000E-03 0. -1.
         11   -1    0    0    0    0 -0.00000000000E+00 -0.00000000000E+00 -0.45593999997E+02  0.45594000000E+02  0.51100000000E-03 0.  1.
    9900012    2    1    2    0    0 -0.15833611256E+02 -0.15830389138E+01  0.98727661386E+01  0.72461527593E+02  0.69999944373E+02 0.  0.
         12    1    1    2    0    0  0.15833611256E+02  0.15830389138E+01 -0.98727661386E+01  0.18726472407E+02  0.00000000000E+00 0. -1.
         11    1    3    3    0    0 -0.53482580069E+01  0.19882540893E+02 -0.77563439402E+01  0.22001821917E+02  0.51100000000E-03 0. -1.
        -11    1    3    3    0    0  0.15607465347E+02 -0.68111019535E+01  0.35868506129E+01  0.17402574004E+02  0.51100000000E-03 0.  1.
        -12    1    3    3    0    0 -0.26092818596E+02 -0.14654477853E+02  0.14042259466E+02  0.33057131672E+02  0.00000000000E+00 0.  1.
</event>
<event>
 7    1  0.3020651E-013  0.7246144E+02  0.7816164E-02  0.1226708E+00
        -11   -1    0    0    0    0  0.00000000000E+00  0.00000000000E+00  0.45593999997E+02  0.45594000000E+02  0.51100000000E-03 0.  1.
         11   -1    0    0    0    0 -0.00000000000E+00 -0.00000000000E+00 -0.45593999997E+02  0.45594000000E+02  0.51100000000E-03 0. -1.
    9900012    2    1    2    0    0 -0.67802780006E+01  0.52060059080E+01 -0.16661610769E+02  0.72461442903E+02  0.69999834049E+02 0.  0.
         12    1    1    2    0    0  0.67802780006E+01 -0.52060059080E+01  0.16661610769E+02  0.18726557097E+02  0.00000000000E+00 0. -1.
         11    1    3    3    0    0 -0.18574888759E+02 -0.10634741736E+02 -0.30986301611E+01  0.21626967733E+02  0.51100000000E-03 0. -1.
        -11    1    3    3    0    0 -0.13915457625E+02  0.61764814213E+01 -0.17378658251E+02  0.23104256026E+02  0.51100000000E-03 0.  1.
        -12    1    3    3    0    0  0.25710068383E+02  0.96642662223E+01  0.38156776429E+01  0.27730219144E+02  0.00000000000E+00 0.  1.
</event>
<event>
 7    1  0.3020651E-013  0.7246158E+02  0.7816164E-02  0.1226708E+00
        -11   -1    0    0    0    0  0.00000000000E+00  0.00000000000E+00  0.45593999997E+02  0.45594000000E+02  0.51100000000E-03 0.  1.
         11   -1    0    0    0    0 -0.00000000000E+00 -0.00000000000E+00 -0.45593999997E+02  0.45594000000E+02  0.51100000000E-03 0. -1.
    9900012    2    1    2    0    0  0.15914184050E+02  0.91979466626E+01 -0.35798709624E+01  0.72461576078E+02  0.70000007534E+02 0.  0.
         12    1    1    2    0    0 -0.15914184050E+02 -0.91979466626E+01  0.35798709624E+01  0.18726423922E+02  0.00000000000E+00 0. -1.
         11    1    3    3    0    0  0.10597407728E+01  0.27462996288E+02 -0.13138030399E+02  0.30462223469E+02  0.51100000000E-03 0. -1.
        -11    1    3    3    0    0  0.10729833411E+02  0.78779213557E+01 -0.13367677332E+01  0.13378262897E+02  0.51100000000E-03 0.  1.
        -12    1    3    3    0    0  0.41246098665E+01 -0.26142970981E+02  0.10894927170E+02  0.28621089712E+02  0.00000000000E+00 0.  1.
</event>
<event>
 7    1  0.3020651E-013  0.7246215E+02  0.7816164E-02  0.1226706E+00
        -11   -1    0    0    0    0  0.00000000000E+00  0.00000000000E+00  0.45593999997E+02  0.45594000000E+02  0.51100000000E-03 0.  1.
         11   -1    0    0    0    0 -0.00000000000E+00 -0.00000000000E+00 -0.45593999997E+02  0.45594000000E+02  0.51100000000E-03 0. -1.
    9900012    2    1    2    0    0 -0.84054083911E+01  0.16145259240E+02  0.43974130806E+01  0.72462148138E+02  0.70000752745E+02 0.  0.
         12    1    1    2    0    0  0.84054083911E+01 -0.16145259240E+02 -0.43974130806E+01  0.18725851862E+02  0.00000000000E+00 0. -1.
         11    1    3    3    0    0 -0.26597567541E+02 -0.41034580976E+01  0.46672017320E+01  0.27313947714E+02  0.51100000000E-03 0. -1.
        -11    1    3    3    0    0  0.31010454797E+01  0.11638112007E+02 -0.17128202004E+02  0.20938897734E+02  0.51100000000E-03 0.  1.
        -12    1    3    3    0    0  0.15091113670E+02  0.86106053305E+01  0.16858413353E+02  0.24209302690E+02  0.00000000000E+00 0.  1.
</event>
<event>
 7    1  0.3020651E-013  0.7246157E+02  0.7816164E-02  0.1226708E+00
        -11   -1    0    0    0    0  0.00000000000E+00  0.00000000000E+00  0.45593999997E+02  0.45594000000E+02  0.51100000000E-03 0.  1.
         11   -1    0    0    0    0 -0.00000000000E+00 -0.00000000000E+00 -0.45593999997E+02  0.45594000000E+02  0.51100000000E-03 0. -1.
    9900012    2    1    2    0    0 -0.66949406948E+01  0.13181562340E+01  0.17439023024E+02  0.72461567056E+02  0.69999995782E+02 0.  0.
         12    1    1    2    0    0  0.66949406948E+01 -0.13181562340E+01 -0.17439023024E+02  0.18726432944E+02  0.00000000000E+00 0. -1.
         11    1    3    3    0    0 -0.22314465340E+02 -0.55963021946E+01  0.98208717085E+01  0.25014065704E+02  0.51100000000E-03 0. -1.
        -11    1    3    3    0    0 -0.31571677299E+01 -0.58807345081E+01  0.20339639528E+02  0.21406813934E+02  0.51100000000E-03 0.  1.
         12    1    3    3    0    0  0.18776692376E+02  0.12795192937E+02 -0.12721488212E+02  0.26040687418E+02  0.00000000000E+00 0. -1.
</event>
<event>
 7    1  0.3020651E-013  0.7246159E+02  0.7816164E-02  0.1226708E+00
        -11   -1    0    0    0    0  0.00000000000E+00  0.00000000000E+00  0.45593999997E+02  0.45594000000E+02  0.51100000000E-03 0.  1.
         11   -1    0    0    0    0 -0.00000000000E+00 -0.00000000000E+00 -0.45593999997E+02  0.45594000000E+02  0.51100000000E-03 0. -1.
    9900012    2    1    2    0    0 -0.68348999690E+01  0.12068164813E+02  0.12582601109E+02  0.72461593238E+02  0.70000029888E+02 0.  0.
         12    1    1    2    0    0  0.68348999690E+01 -0.12068164813E+02 -0.12582601109E+02  0.18726406762E+02  0.00000000000E+00 0. -1.
         11    1    3    3    0    0 -0.49742187989E+01 -0.10719243584E+02 -0.31519863133E+01  0.12230292459E+02  0.51100000000E-03 0. -1.
        -11    1    3    3    0    0  0.83936434918E+01 -0.32611769202E+01 -0.15724315470E+02  0.18120226909E+02  0.51100000000E-03 0.  1.
        -12    1    3    3    0    0 -0.10254324662E+02  0.26048585317E+02  0.31458902892E+02  0.42111073870E+02  0.00000000000E+00 0.  1.
</event>
<event>
 7    1  0.3020651E-013  0.7246155E+02  0.7816164E-02  0.1226708E+00
        -11   -1    0    0    0    0  0.00000000000E+00  0.00000000000E+00  0.45593999997E+02  0.45594000000E+02  0.51100000000E-03 0.  1.
         11   -1    0    0    0    0 -0.00000000000E+00 -0.00000000000E+00 -0.45593999997E+02  0.45594000000E+02  0.51100000000E-03 0. -1.
    9900012    2    1    2    0    0 -0.75622952132E+01 -0.12121405360E+02  0.12106332175E+02  0.72461546638E+02  0.69999969183E+02 0.  0.
         12    1    1    2    0    0  0.75622952132E+01  0.12121405360E+02 -0.12106332175E+02  0.18726453362E+02  0.00000000000E+00 0. -1.
         11    1    3    3    0    0 -0.11019399561E+02 -0.71903804113E+01  0.11748422776E+02  0.17639562782E+02  0.51100000000E-03 0. -1.
        -11    1    3    3    0    0 -0.33531008903E+01 -0.36379416780E+01  0.26919703654E+02  0.27370574534E+02  0.51100000000E-03 0.  1.
         12    1    3    3    0    0  0.68102052381E+01 -0.12930832709E+01 -0.26561794255E+02  0.27451409323E+02  0.00000000000E+00 0. -1.
</event>
<event>
 7    1  0.3020651E-013  0.7246181E+02  0.7816164E-02  0.1226707E+00
        -11   -1    0    0    0    0  0.00000000000E+00  0.00000000000E+00  0.45593999997E+02  0.45594000000E+02  0.51100000000E-03 0.  1.
         11   -1    0    0    0    0 -0.00000000000E+00 -0.00000000000E+00 -0.45593999997E+02  0.45594000000E+02  0.51100000000E-03 0. -1.
    9900012    2    1    2    0    0 -0.49863531997E+01  0.59232100673E+01  0.17050570871E+02  0.72461812381E+02  0.70000315362E+02 0.  0.
         12    1    1    2    0    0  0.49863531997E+01 -0.59232100673E+01 -0.17050570871E+02  0.18726187619E+02  0.00000000000E+00 0. -1.
         11    1    3    3    0    0 -0.97633746708E+00  0.40993299255E+01  0.29851465311E+01  0.51641882964E+01  0.51100000000E-03 0. -1.
        -11    1    3    3    0    0 -0.91018190037E+01  0.12951601171E+02 -0.23193408962E+02  0.28080621460E+02  0.51100000000E-03 0.  1.
        -12    1    3    3    0    0  0.50918032711E+01 -0.11127721029E+02  0.37258833301E+02  0.39217002624E+02  0.00000000000E+00 0.  1.
</event>
<event>
 7    1  0.3020651E-013  0.7246157E+02  0.7816164E-02  0.1226708E+00
        -11   -1    0    0    0    0  0.00000000000E+00  0.00000000000E+00  0.45593999997E+02  0.45594000000E+02  0.51100000000E-03 0. -1.
         11   -1    0    0    0    0 -0.00000000000E+00 -0.00000000000E+00 -0.45593999997E+02  0.45594000000E+02  0.51100000000E-03 0.  1.
    9900012    2    1    2    0    0 -0.75274936418E+01  0.46414106841E+01 -0.16506761422E+02  0.72461574118E+02  0.70000004981E+02 0.  0.
         12    1    1    2    0    0  0.75274936418E+01 -0.46414106841E+01  0.16506761422E+02  0.18726425882E+02  0.00000000000E+00 0. -1.
         11    1    3    3    0    0 -0.23329971619E+02 -0.69334214449E+01 -0.20592745840E+02  0.31881359603E+02  0.51100000000E-03 0. -1.
        -11    1    3    3    0    0  0.50322158518E+00 -0.99666959590E+01 -0.67233569651E+01  0.12032946000E+02  0.51100000000E-03 0.  1.
         12    1    3    3    0    0  0.15299256392E+02  0.21541528088E+02  0.10809341383E+02  0.28547268514E+02  0.00000000000E+00 0. -1.
</event>
<event>
 7    1  0.3020651E-013  0.7246157E+02  0.7816164E-02  0.1226708E+00
        -11   -1    0    0    0    0  0.00000000000E+00  0.00000000000E+00  0.45593999997E+02  0.45594000000E+02  0.51100000000E-03 0. -1.
         11   -1    0    0    0    0 -0.00000000000E+00 -0.00000000000E+00 -0.45593999997E+02  0.45594000000E+02  0.51100000000E-03 0.  1.
    9900012    2    1    2    0    0 -0.35466013309E+01  0.18533472254E+01 -0.18293880263E+02  0.72461565956E+02  0.69999994348E+02 0.  0.
         12    1    1    2    0    0  0.35466013309E+01 -0.18533472254E+01  0.18293880263E+02  0.18726434044E+02  0.00000000000E+00 0. -1.
         11    1    3    3    0    0 -0.87028020029E+01  0.25723472083E+02  0.74325564847E+01  0.28154549808E+02  0.51100000000E-03 0. -1.
        -11    1    3    3    0    0  0.94127161802E+00  0.57131349428E+01 -0.19165935951E+01  0.60991175102E+01  0.51100000000E-03 0.  1.
         12    1    3    3    0    0  0.42149290539E+01 -0.29583259801E+02 -0.23809843152E+02  0.38207898638E+02  0.00000000000E+00 0. -1.
</event>
<event>
 7    1  0.3020651E-013  0.7246151E+02  0.7816164E-02  0.1226708E+00
        -11   -1    0    0    0    0  0.00000000000E+00  0.00000000000E+00  0.45593999997E+02  0.45594000000E+02  0.51100000000E-03 0.  1.
         11   -1    0    0    0    0 -0.00000000000E+00 -0.00000000000E+00 -0.45593999997E+02  0.45594000000E+02  0.51100000000E-03 0. -1.
    9900012    2    1    2    0    0 -0.52127674580E+00  0.14140063066E+02  0.12266558928E+02  0.72461505911E+02  0.69999916129E+02 0.  0.
         12    1    1    2    0    0  0.52127674580E+00 -0.14140063066E+02 -0.12266558928E+02  0.18726494089E+02  0.00000000000E+00 0. -1.
         11    1    3    3    0    0  0.41321480589E+01 -0.10929666999E+02  0.67595614517E+01  0.13499034764E+02  0.51100000000E-03 0. -1.
        -11    1    3    3    0    0  0.17982601408E+02 -0.71291152063E+01  0.16359814345E+01  0.19413260224E+02  0.51100000000E-03 0.  1.
         12    1    3    3    0    0 -0.22636026212E+02  0.32198845270E+02  0.38710160414E+01  0.39549210923E+02  0.00000000000E+00 0. -1.
</event>
<event>
 7    1  0.3020651E-013  0.7246155E+02  0.7816164E-02  0.1226708E+00
        -11   -1    0    0    0    0  0.00000000000E+00  0.00000000000E+00  0.45593999997E+02  0.45594000000E+02  0.51100000000E-03 0. -1.
         11   -1    0    0    0    0 -0.00000000000E+00 -0.00000000000E+00 -0.45593999997E+02  0.45594000000E+02  0.51100000000E-03 0.  1.
    9900012    2    1    2    0    0 -0.12676663355E+02  0.37907347253E+00 -0.13778180570E+02  0.72461554786E+02  0.69999979798E+02 0.  0.
         12    1    1    2    0    0  0.12676663355E+02 -0.37907347253E+00  0.13778180570E+02  0.18726445214E+02  0.00000000000E+00 0. -1.
         11    1    3    3    0    0 -0.15198655786E+02  0.17051581848E+01  0.10454627646E+01  0.15329699762E+02  0.51100000000E-03 0.  1.
        -11    1    3    3    0    0  0.24947462347E+02 -0.89827926259E+01 -0.19581809853E+02  0.32962307539E+02  0.51100000000E-03 0. -1.
         12    1    3    3    0    0 -0.22425469916E+02  0.76567079136E+01  0.47581665180E+01  0.24169547486E+02  0.00000000000E+00 0. -1.
</event>
<event>
 7    1  0.3020651E-013  0.7246159E+02  0.7816164E-02  0.1226708E+00
        -11   -1    0    0    0    0  0.00000000000E+00  0.00000000000E+00  0.45593999997E+02  0.45594000000E+02  0.51100000000E-03 0. -1.
         11   -1    0    0    0    0 -0.00000000000E+00 -0.00000000000E+00 -0.45593999997E+02  0.45594000000E+02  0.51100000000E-03 0.  1.
    9900012    2    1    2    0    0  0.17680801770E+02 -0.49908717456E+01 -0.36275069619E+01  0.72461591942E+02  0.70000028200E+02 0.  0.
         12    1    1    2    0    0 -0.17680801770E+02  0.49908717456E+01  0.36275069619E+01  0.18726408058E+02  0.00000000000E+00 0. -1.
         11    1    3    3    0    0  0.18554934666E+02  0.57567930431E+01  0.60431406526E+01  0.20345658402E+02  0.51100000000E-03 0. -1.
        -11    1    3    3    0    0 -0.13201836286E+02  0.15000521502E+02  0.41346656351E+01  0.20405871382E+02  0.51100000000E-03 0.  1.
         12    1    3    3    0    0  0.12327703390E+02 -0.25748186291E+02 -0.13805313250E+02  0.31710062158E+02  0.00000000000E+00 0. -1.
</event>
<event>
 7    1  0.3020651E-013  0.7246157E+02  0.7816164E-02  0.1226708E+00
        -11   -1    0    0    0    0  0.00000000000E+00  0.00000000000E+00  0.45593999997E+02  0.45594000000E+02  0.51100000000E-03 0.  1.
         11   -1    0    0    0    0 -0.00000000000E+00 -0.00000000000E+00 -0.45593999997E+02  0.45594000000E+02  0.51100000000E-03 0. -1.
    9900012    2    1    2    0    0 -0.40827177155E+01  0.12741837899E+02 -0.13101762683E+02  0.72461569417E+02  0.69999998857E+02 0.  0.
         12    1    1    2    0    0  0.40827177155E+01 -0.12741837899E+02  0.13101762683E+02  0.18726430583E+02  0.00000000000E+00 0. -1.
         11    1    3    3    0    0 -0.15999057330E+02 -0.53169319743E+01 -0.60788760263E+01  0.17921839612E+02  0.51100000000E-03 0. -1.
        -11    1    3    3    0    0 -0.36422142680E+01 -0.11410438897E+02  0.11337326946E+02  0.16492386823E+02  0.51100000000E-03 0.  1.
         12    1    3    3    0    0  0.15558553882E+02  0.29469208771E+02 -0.18360213602E+02  0.38047342982E+02  0.00000000000E+00 0. -1.
</event>
<event>
 7    1  0.3020651E-013  0.7246155E+02  0.7816164E-02  0.1226708E+00
        -11   -1    0    0    0    0  0.00000000000E+00  0.00000000000E+00  0.45593999997E+02  0.45594000000E+02  0.51100000000E-03 0.  1.
         11   -1    0    0    0    0 -0.00000000000E+00 -0.00000000000E+00 -0.45593999997E+02  0.45594000000E+02  0.51100000000E-03 0. -1.
    9900012    2    1    2    0    0  0.15578734275E+02  0.58481298106E+01  0.85896674599E+01  0.72461548896E+02  0.69999972124E+02 0.  0.
         12    1    1    2    0    0 -0.15578734275E+02 -0.58481298106E+01 -0.85896674599E+01  0.18726451104E+02  0.00000000000E+00 0. -1.
         11    1    3    3    0    0  0.27099797386E+02 -0.44129743485E+01 -0.15362915425E+02  0.31462557613E+02  0.51100000000E-03 0. -1.
        -11    1    3    3    0    0  0.14513295298E+01  0.23479500481E+01 -0.64470631307E+01  0.70131198553E+01  0.51100000000E-03 0.  1.
        -12    1    3    3    0    0 -0.12972392641E+02  0.79131541111E+01  0.30399646015E+02  0.33985871427E+02  0.00000000000E+00 0.  1.
</event>
<event>
 7    1  0.3020651E-013  0.7246157E+02  0.7816164E-02  0.1226708E+00
        -11   -1    0    0    0    0  0.00000000000E+00  0.00000000000E+00  0.45593999997E+02  0.45594000000E+02  0.51100000000E-03 0. -1.
         11   -1    0    0    0    0 -0.00000000000E+00 -0.00000000000E+00 -0.45593999997E+02  0.45594000000E+02  0.51100000000E-03 0.  1.
    9900012    2    1    2    0    0 -0.73506825258E+01  0.90118528842E+00 -0.17199840294E+02  0.72461570157E+02  0.69999999821E+02 0.  0.
         12    1    1    2    0    0  0.73506825258E+01 -0.90118528842E+00  0.17199840294E+02  0.18726429843E+02  0.00000000000E+00 0. -1.
         11    1    3    3    0    0 -0.88404848356E+01  0.14532828477E+02 -0.20535730927E+01  0.17134014077E+02  0.51100000000E-03 0. -1.
        -11    1    3    3    0    0 -0.14840369584E+02 -0.20768210993E+02 -0.24343593471E+02  0.35272733104E+02  0.51100000000E-03 0.  1.
        -12    1    3    3    0    0  0.16330171894E+02  0.71365678038E+01  0.91973262699E+01  0.20054822977E+02  0.00000000000E+00 0.  1.
</event>
<event>
 7    1  0.3020651E-013  0.7246185E+02  0.7816164E-02  0.1226707E+00
        -11   -1    0    0    0    0  0.00000000000E+00  0.00000000000E+00  0.45593999997E+02  0.45594000000E+02  0.51100000000E-03 0. -1.
         11   -1    0    0    0    0 -0.00000000000E+00 -0.00000000000E+00 -0.45593999997E+02  0.45594000000E+02  0.51100000000E-03 0.  1.
    9900012    2    1    2    0    0 -0.66234958973E+01 -0.73601540942E+01 -0.15894216933E+02  0.72461849886E+02  0.70000364219E+02 0.  0.
         12    1    1    2    0    0  0.66234958973E+01  0.73601540942E+01  0.15894216933E+02  0.18726150114E+02  0.00000000000E+00 0. -1.
         11    1    3    3    0    0  0.19917210119E+02 -0.75832429984E+01 -0.77476749141E+01  0.22676580433E+02  0.51100000000E-03 0. -1.
        -11    1    3    3    0    0 -0.38846168157E+01 -0.16542253219E+01 -0.22504470767E+02  0.22897115844E+02  0.51100000000E-03 0.  1.
         12    1    3    3    0    0 -0.22656089200E+02  0.18773142260E+01  0.14357928748E+02  0.26888153609E+02  0.00000000000E+00 0. -1.
</event>
<event>
 7    1  0.3020651E-013  0.7246158E+02  0.7816164E-02  0.1226708E+00
        -11   -1    0    0    0    0  0.00000000000E+00  0.00000000000E+00  0.45593999997E+02  0.45594000000E+02  0.51100000000E-03 0.  1.
         11   -1    0    0    0    0 -0.00000000000E+00 -0.00000000000E+00 -0.45593999997E+02  0.45594000000E+02  0.51100000000E-03 0. -1.
    9900012    2    1    2    0    0 -0.53644428190E+01  0.16585490382E+02  0.68427496995E+01  0.72461575851E+02  0.70000007239E+02 0.  0.
         12    1    1    2    0    0  0.53644428190E+01 -0.16585490382E+02 -0.68427496995E+01  0.18726424149E+02  0.00000000000E+00 0. -1.
         11    1    3    3    0    0 -0.64746953219E+01 -0.13685357596E+02 -0.25050502235E+01  0.15345552089E+02  0.51100000000E-03 0. -1.
        -11    1    3    3    0    0  0.19668547506E+02 -0.12288677466E+01  0.47191752063E+01  0.20264068985E+02  0.51100000000E-03 0.  1.
        -12    1    3    3    0    0 -0.18558295003E+02  0.31499715724E+02  0.46286247167E+01  0.36851954777E+02  0.00000000000E+00 0.  1.
</event>
<event>
 7    1  0.3020651E-013  0.7246156E+02  0.7816164E-02  0.1226708E+00
        -11   -1    0    0    0    0  0.00000000000E+00  0.00000000000E+00  0.45593999997E+02  0.45594000000E+02  0.51100000000E-03 0.  1.
         11   -1    0    0    0    0 -0.00000000000E+00 -0.00000000000E+00 -0.45593999997E+02  0.45594000000E+02  0.51100000000E-03 0. -1.
    9900012    2    1    2    0    0 -0.57792237425E-01 -0.95120074278E+01  0.16130656435E+02  0.72461556070E+02  0.69999981470E+02 0.  0.
         12    1    1    2    0    0  0.57792237425E-01  0.95120074278E+01 -0.16130656435E+02  0.18726443930E+02  0.00000000000E+00 0. -1.
         11    1    3    3    0    0  0.11259600703E+02 -0.15014857223E+02 -0.12849528781E+02  0.22744998034E+02  0.51100000000E-03 0. -1.
        -11    1    3    3    0    0 -0.22981713413E+02  0.10191909595E+02  0.10230074278E+02  0.27142007895E+02  0.51100000000E-03 0.  1.
         12    1    3    3    0    0  0.11664320473E+02 -0.46890597996E+01  0.18750110937E+02  0.22574550141E+02  0.00000000000E+00 0. -1.
</event>
<event>
 7    1  0.3020651E-013  0.7246149E+02  0.7816164E-02  0.1226708E+00
        -11   -1    0    0    0    0  0.00000000000E+00  0.00000000000E+00  0.45593999997E+02  0.45594000000E+02  0.51100000000E-03 0.  1.
         11   -1    0    0    0    0 -0.00000000000E+00 -0.00000000000E+00 -0.45593999997E+02  0.45594000000E+02  0.51100000000E-03 0. -1.
    9900012    2    1    2    0    0  0.68940765555E+01  0.11365255670E+02  0.13190332694E+02  0.72461489258E+02  0.69999894435E+02 0.  0.
         12    1    1    2    0    0 -0.68940765555E+01 -0.11365255670E+02 -0.13190332694E+02  0.18726510742E+02  0.00000000000E+00 0. -1.
         11    1    3    3    0    0 -0.93198768577E+01 -0.15961700021E+01 -0.12225340596E+02  0.15455316764E+02  0.51100000000E-03 0. -1.
        -11    1    3    3    0    0 -0.96082796399E+01 -0.11673059403E+02  0.10026420852E+02  0.18141346940E+02  0.51100000000E-03 0.  1.
        -12    1    3    3    0    0  0.25822233053E+02  0.24634485074E+02  0.15389252438E+02  0.38864825554E+02  0.00000000000E+00 0.  1.
</event>
<event>
 7    1  0.3020651E-013  0.7246158E+02  0.7816164E-02  0.1226708E+00
        -11   -1    0    0    0    0  0.00000000000E+00  0.00000000000E+00  0.45593999997E+02  0.45594000000E+02  0.51100000000E-03 0. -1.
         11   -1    0    0    0    0 -0.00000000000E+00 -0.00000000000E+00 -0.45593999997E+02  0.45594000000E+02  0.51100000000E-03 0.  1.
    9900012    2    1    2    0    0  0.17719956441E+02 -0.52214762481E+01  0.30689245892E+01  0.72461575658E+02  0.70000006988E+02 0.  0.
         12    1    1    2    0    0 -0.17719956441E+02  0.52214762481E+01 -0.30689245892E+01  0.18726424342E+02  0.00000000000E+00 0. -1.
         11    1    3    3    0    0 -0.12594717784E+02  0.73930575814E+01  0.88817454653E+01  0.17092969877E+02  0.51100000000E-03 0. -1.
        -11    1    3    3    0    0  0.65429702416E+01 -0.22617397237E+02  0.94837121120E+01  0.25383024111E+02  0.51100000000E-03 0.  1.
        -12    1    3    3    0    0  0.23771703984E+02  0.10002863407E+02 -0.15296532988E+02  0.29985581670E+02  0.00000000000E+00 0.  1.
</event>
<event>
 7    1  0.3020651E-013  0.7246165E+02  0.7816164E-02  0.1226708E+00
        -11   -1    0    0    0    0  0.00000000000E+00  0.00000000000E+00  0.45593999997E+02  0.45594000000E+02  0.51100000000E-03 0. -1.
         11   -1    0    0    0    0 -0.00000000000E+00 -0.00000000000E+00 -0.45593999997E+02  0.45594000000E+02  0.51100000000E-03 0.  1.
    9900012    2    1    2    0    0  0.42101384025E+01  0.12369590583E+02  0.13414330478E+02  0.72461646945E+02  0.70000099852E+02 0.  0.
         12    1    1    2    0    0 -0.42101384025E+01 -0.12369590583E+02 -0.13414330478E+02  0.18726353055E+02  0.00000000000E+00 0. -1.
         11    1    3    3    0    0 -0.49710509995E+01  0.86822653120E+01  0.10698946009E+02  0.14647884658E+02  0.51100000000E-03 0. -1.
        -11    1    3    3    0    0 -0.38506868764E+01  0.27596419406E+02 -0.72934910817E+01  0.28802520131E+02  0.51100000000E-03 0.  1.
         12    1    3    3    0    0  0.13031876278E+02 -0.23909094135E+02  0.10008875550E+02  0.29011242156E+02  0.00000000000E+00 0. -1.
</event>
<event>
 7    1  0.3020651E-013  0.7246156E+02  0.7816164E-02  0.1226708E+00
        -11   -1    0    0    0    0  0.00000000000E+00  0.00000000000E+00  0.45593999997E+02  0.45594000000E+02  0.51100000000E-03 0.  1.
         11   -1    0    0    0    0 -0.00000000000E+00 -0.00000000000E+00 -0.45593999997E+02  0.45594000000E+02  0.51100000000E-03 0. -1.
    9900012    2    1    2    0    0  0.18296401793E+01 -0.91503618810E+01  0.16235852412E+02  0.72461558553E+02  0.69999984705E+02 0.  0.
         12    1    1    2    0    0 -0.18296401793E+01  0.91503618810E+01 -0.16235852412E+02  0.18726441447E+02  0.00000000000E+00 0. -1.
         11    1    3    3    0    0 -0.11542322919E+02 -0.55012909119E+01 -0.47987873266E+01  0.13657151245E+02  0.51100000000E-03 0. -1.
        -11    1    3    3    0    0 -0.66836770900E+01  0.18770886049E+02  0.20685359042E+02  0.28721103416E+02  0.51100000000E-03 0.  1.
        -12    1    3    3    0    0  0.20055640188E+02 -0.22419957018E+02  0.34928069645E+00  0.30083303892E+02  0.00000000000E+00 0.  1.
</event>
<event>
 7    1  0.3020651E-013  0.7246157E+02  0.7816164E-02  0.1226708E+00
        -11   -1    0    0    0    0  0.00000000000E+00  0.00000000000E+00  0.45593999997E+02  0.45594000000E+02  0.51100000000E-03 0.  1.
         11   -1    0    0    0    0 -0.00000000000E+00 -0.00000000000E+00 -0.45593999997E+02  0.45594000000E+02  0.51100000000E-03 0. -1.
    9900012    2    1    2    0    0 -0.67810439019E+01 -0.89168482800E+00  0.17432766468E+02  0.72461574688E+02  0.70000005724E+02 0.  0.
         12    1    1    2    0    0  0.67810439019E+01  0.89168482800E+00 -0.17432766468E+02  0.18726425312E+02  0.00000000000E+00 0. -1.
         11    1    3    3    0    0 -0.57618788833E+01 -0.69205754064E+01 -0.85173852141E+01  0.12395138699E+02  0.51100000000E-03 0. -1.
        -11    1    3    3    0    0 -0.20963355305E+02  0.14980723453E+02 -0.47551980621E+00  0.25770340707E+02  0.51100000000E-03 0.  1.
         12    1    3    3    0    0  0.19944190286E+02 -0.89518328744E+01  0.26425671488E+02  0.34296095282E+02  0.00000000000E+00 0. -1.
</event>
<event>
 7    1  0.3020651E-013  0.7246156E+02  0.7816164E-02  0.1226708E+00
        -11   -1    0    0    0    0  0.00000000000E+00  0.00000000000E+00  0.45593999997E+02  0.45594000000E+02  0.51100000000E-03 0.  1.
         11   -1    0    0    0    0 -0.00000000000E+00 -0.00000000000E+00 -0.45593999997E+02  0.45594000000E+02  0.51100000000E-03 0. -1.
    9900012    2    1    2    0    0  0.16893239746E+02  0.80668914416E+00  0.80403439297E+01  0.72461563419E+02  0.69999991044E+02 0.  0.
         12    1    1    2    0    0 -0.16893239746E+02 -0.80668914416E+00 -0.80403439297E+01  0.18726436581E+02  0.00000000000E+00 0. -1.
         11    1    3    3    0    0  0.22185983579E+02 -0.12938545420E+01 -0.97080364763E+00  0.22244873273E+02  0.51100000000E-03 0. -1.
        -11    1    3    3    0    0  0.18977978420E+02 -0.68849213668E+01 -0.49840448270E+01  0.20794386508E+02  0.51100000000E-03 0.  1.
         12    1    3    3    0    0 -0.24270722253E+02  0.89854650530E+01  0.13995192404E+02  0.29422303638E+02  0.00000000000E+00 0. -1.
</event>
<event>
 7    1  0.3020651E-013  0.7246154E+02  0.7816164E-02  0.1226708E+00
        -11   -1    0    0    0    0  0.00000000000E+00  0.00000000000E+00  0.45593999997E+02  0.45594000000E+02  0.51100000000E-03 0.  1.
         11   -1    0    0    0    0 -0.00000000000E+00 -0.00000000000E+00 -0.45593999997E+02  0.45594000000E+02  0.51100000000E-03 0. -1.
    9900012    2    1    2    0    0  0.69801514546E+01  0.83797118813E+01  0.15222951256E+02  0.72461539297E+02  0.69999959620E+02 0.  0.
         12    1    1    2    0    0 -0.69801514546E+01 -0.83797118813E+01 -0.15222951256E+02  0.18726460703E+02  0.00000000000E+00 0. -1.
         11    1    3    3    0    0  0.63836658467E+01  0.27738183187E+02  0.12062578108E+02  0.30913812237E+02  0.51100000000E-03 0. -1.
        -11    1    3    3    0    0 -0.20375118231E+01  0.10427179885E+02  0.46750904060E+01  0.11607497807E+02  0.51100000000E-03 0.  1.
        -12    1    3    3    0    0  0.26339974309E+01 -0.29785651191E+02 -0.15147172581E+01  0.29940229252E+02  0.00000000000E+00 0.  1.
</event>
<event>
 7    1  0.3020651E-013  0.7246158E+02  0.7816164E-02  0.1226708E+00
        -11   -1    0    0    0    0  0.00000000000E+00  0.00000000000E+00  0.45593999997E+02  0.45594000000E+02  0.51100000000E-03 0.  1.
         11   -1    0    0    0    0 -0.00000000000E+00 -0.00000000000E+00 -0.45593999997E+02  0.45594000000E+02  0.51100000000E-03 0. -1.
    9900012    2    1    2    0    0  0.57937903636E+01  0.17782174713E+02 -0.95126892407E+00  0.72461583982E+02  0.70000017831E+02 0.  0.
         12    1    1    2    0    0 -0.57937903636E+01 -0.17782174713E+02  0.95126892407E+00  0.18726416018E+02  0.00000000000E+00 0. -1.
         11    1    3    3    0    0 -0.10487806432E+02  0.33806497320E+01 -0.39835893550E+01  0.11717160952E+02  0.51100000000E-03 0. -1.
        -11    1    3    3    0    0 -0.18404797589E+02 -0.66585715871E+01 -0.27169789025E+01  0.19759937360E+02  0.51100000000E-03 0.  1.
        -12    1    3    3    0    0  0.34686394384E+02  0.21060096568E+02  0.57492993335E+01  0.40984485670E+02  0.00000000000E+00 0.  1.
</event>
<event>
 7    1  0.3020651E-013  0.7246151E+02  0.7816164E-02  0.1226708E+00
        -11   -1    0    0    0    0  0.00000000000E+00  0.00000000000E+00  0.45593999997E+02  0.45594000000E+02  0.51100000000E-03 0.  1.
         11   -1    0    0    0    0 -0.00000000000E+00 -0.00000000000E+00 -0.45593999997E+02  0.45594000000E+02  0.51100000000E-03 0. -1.
    9900012    2    1    2    0    0 -0.10885208431E+02 -0.14579645646E+02  0.44303171926E+01  0.72461506998E+02  0.69999917545E+02 0.  0.
         12    1    1    2    0    0  0.10885208431E+02  0.14579645646E+02 -0.44303171926E+01  0.18726493002E+02  0.00000000000E+00 0. -1.
         11    1    3    3    0    0 -0.13088817859E+01 -0.20976448956E+01  0.11944869484E+02  0.12198081524E+02  0.51100000000E-03 0. -1.
        -11    1    3    3    0    0 -0.28666929758E+02 -0.23186827063E+02  0.72318830674E+00  0.36877429583E+02  0.51100000000E-03 0.  1.
         12    1    3    3    0    0  0.19090603114E+02  0.10704826313E+02 -0.82377405977E+01  0.23385995891E+02  0.00000000000E+00 0. -1.
</event>
<event>
 7    1  0.3020651E-013  0.7246152E+02  0.7816164E-02  0.1226708E+00
        -11   -1    0    0    0    0  0.00000000000E+00  0.00000000000E+00  0.45593999997E+02  0.45594000000E+02  0.51100000000E-03 0. -1.
         11   -1    0    0    0    0 -0.00000000000E+00 -0.00000000000E+00 -0.45593999997E+02  0.45594000000E+02  0.51100000000E-03 0.  1.
    9900012    2    1    2    0    0  0.12247738124E+02  0.13181657762E+02 -0.51882566635E+01  0.72461516141E+02  0.69999929456E+02 0.  0.
         12    1    1    2    0    0 -0.12247738124E+02 -0.13181657762E+02  0.51882566635E+01  0.18726483859E+02  0.00000000000E+00 0. -1.
         11    1    3    3    0    0  0.40264376787E+01 -0.48579979974E+01 -0.93067836712E+01  0.11244045868E+02  0.51100000000E-03 0. -1.
        -11    1    3    3    0    0 -0.62114279990E+01  0.36530113912E+02 -0.15465926760E+01  0.37086695854E+02  0.51100000000E-03 0.  1.
         12    1    3    3    0    0  0.14432728444E+02 -0.18490458153E+02  0.56651196837E+01  0.24130774419E+02  0.00000000000E+00 0. -1.
</event>
<event>
 7    1  0.3020651E-013  0.7246160E+02  0.7816164E-02  0.1226708E+00
        -11   -1    0    0    0    0  0.00000000000E+00  0.00000000000E+00  0.45593999997E+02  0.45594000000E+02  0.51100000000E-03 0. -1.
         11   -1    0    0    0    0 -0.00000000000E+00 -0.00000000000E+00 -0.45593999997E+02  0.45594000000E+02  0.51100000000E-03 0.  1.
    9900012    2    1    2    0    0  0.12155409530E+01 -0.71870162997E+01 -0.17249557317E+02  0.72461602302E+02  0.70000041697E+02 0.  0.
         12    1    1    2    0    0 -0.12155409530E+01  0.71870162997E+01  0.17249557317E+02  0.18726397698E+02  0.00000000000E+00 0. -1.
         11    1    3    3    0    0  0.16812726034E+01  0.15021893724E+01  0.40086840428E+01  0.45992171610E+01  0.51100000000E-03 0. -1.
        -11    1    3    3    0    0  0.17458636809E+02 -0.29221929902E+02 -0.22115160334E+02  0.40593170648E+02  0.51100000000E-03 0.  1.
         12    1    3    3    0    0 -0.17924368459E+02  0.20532724230E+02  0.85691897472E+00  0.27269214493E+02  0.00000000000E+00 0. -1.
</event>
<event>
 7    1  0.3020651E-013  0.7246157E+02  0.7816164E-02  0.1226708E+00
        -11   -1    0    0    0    0  0.00000000000E+00  0.00000000000E+00  0.45593999997E+02  0.45594000000E+02  0.51100000000E-03 0.  1.
         11   -1    0    0    0    0 -0.00000000000E+00 -0.00000000000E+00 -0.45593999997E+02  0.45594000000E+02  0.51100000000E-03 0. -1.
    9900012    2    1    2    0    0 -0.53979598871E+01 -0.11332222412E+02  0.13896835288E+02  0.72461567699E+02  0.69999996619E+02 0.  0.
         12    1    1    2    0    0  0.53979598871E+01  0.11332222412E+02 -0.13896835288E+02  0.18726432301E+02  0.00000000000E+00 0. -1.
         11    1    3    3    0    0  0.41283341699E+01  0.90936018963E+01 -0.19255193233E+02  0.21690993642E+02  0.51100000000E-03 0. -1.
        -11    1    3    3    0    0 -0.39253459874E+01  0.82914787752E+01  0.86272287898E+01  0.12593094864E+02  0.51100000000E-03 0.  1.
        -12    1    3    3    0    0 -0.56009480695E+01 -0.28717303083E+02  0.24524799731E+02  0.38177479193E+02  0.00000000000E+00 0.  1.
</event>
<event>
 7    1  0.3020651E-013  0.7246156E+02  0.7816164E-02  0.1226708E+00
        -11   -1    0    0    0    0  0.00000000000E+00  0.00000000000E+00  0.45593999997E+02  0.45594000000E+02  0.51100000000E-03 0. -1.
         11   -1    0    0    0    0 -0.00000000000E+00 -0.00000000000E+00 -0.45593999997E+02  0.45594000000E+02  0.51100000000E-03 0.  1.
    9900012    2    1    2    0    0 -0.15589580632E+02 -0.10325144753E+02  0.10177875326E+01  0.72461560672E+02  0.69999987465E+02 0.  0.
         12    1    1    2    0    0  0.15589580632E+02  0.10325144753E+02 -0.10177875326E+01  0.18726439328E+02  0.00000000000E+00 0. -1.
         11    1    3    3    0    0 -0.68440631840E+00 -0.69498442823E+01  0.14208431166E+01  0.71265379378E+01  0.51100000000E-03 0. -1.
        -11    1    3    3    0    0 -0.13822919352E+02 -0.96839359614E+01 -0.30341647248E+02  0.34719839762E+02  0.51100000000E-03 0.  1.
         12    1    3    3    0    0 -0.10822549616E+01  0.63086354909E+01  0.29938591664E+02  0.30615182972E+02  0.00000000000E+00 0. -1.
</event>
<event>
 7    1  0.3020651E-013  0.7246157E+02  0.7816164E-02  0.1226708E+00
        -11   -1    0    0    0    0  0.00000000000E+00  0.00000000000E+00  0.45593999997E+02  0.45594000000E+02  0.51100000000E-03 0.  1.
         11   -1    0    0    0    0 -0.00000000000E+00 -0.00000000000E+00 -0.45593999997E+02  0.45594000000E+02  0.51100000000E-03 0. -1.
    9900012    2    1    2    0    0 -0.11929176534E+02  0.83668186929E+01  0.11763092557E+02  0.72461568030E+02  0.69999997050E+02 0.  0.
         12    1    1    2    0    0  0.11929176534E+02 -0.83668186929E+01 -0.11763092557E+02  0.18726431970E+02  0.00000000000E+00 0. -1.
         11    1    3    3    0    0 -0.22116738120E+01 -0.13970293463E+02 -0.82295746333E+01  0.16364183432E+02  0.51100000000E-03 0. -1.
        -11    1    3    3    0    0 -0.12508210347E+02 -0.98076867338E+01  0.17641807436E+02  0.23746145266E+02  0.51100000000E-03 0.  1.
         12    1    3    3    0    0  0.27907076244E+01  0.32144798890E+02  0.23508597545E+01  0.32351239331E+02  0.00000000000E+00 0. -1.
</event>
<event>
 7    1  0.3020651E-013  0.7246140E+02  0.7816164E-02  0.1226708E+00
        -11   -1    0    0    0    0  0.00000000000E+00  0.00000000000E+00  0.45593999997E+02  0.45594000000E+02  0.51100000000E-03 0. -1.
         11   -1    0    0    0    0 -0.00000000000E+00 -0.00000000000E+00 -0.45593999997E+02  0.45594000000E+02  0.51100000000E-03 0.  1.
    9900012    2    1    2    0    0 -0.74582783636E+01 -0.12350723042E+02 -0.11938141490E+02  0.72461401322E+02  0.69999779882E+02 0.  0.
         12    1    1    2    0    0  0.74582783636E+01  0.12350723042E+02  0.11938141490E+02  0.18726598678E+02  0.00000000000E+00 0. -1.
         11    1    3    3    0    0 -0.18619715154E+02 -0.12312509029E+02  0.37412759549E+01  0.22633798114E+02  0.51100000000E-03 0. -1.
        -11    1    3    3    0    0 -0.57774588504E+01 -0.17954182960E+02  0.27297902651E+01  0.19057373158E+02  0.51100000000E-03 0.  1.
        -12    1    3    3    0    0  0.16938895641E+02  0.17915968947E+02 -0.18409207710E+02  0.30770230051E+02  0.00000000000E+00 0.  1.
</event>
<event>
 7    1  0.3020651E-013  0.7246148E+02  0.7816164E-02  0.1226708E+00
        -11   -1    0    0    0    0  0.00000000000E+00  0.00000000000E+00  0.45593999997E+02  0.45594000000E+02  0.51100000000E-03 0.  1.
         11   -1    0    0    0    0 -0.00000000000E+00 -0.00000000000E+00 -0.45593999997E+02  0.45594000000E+02  0.51100000000E-03 0. -1.
    9900012    2    1    2    0    0 -0.12768659194E+02  0.44574306909E+01  0.12952800774E+02  0.72461484204E+02  0.69999887851E+02 0.  0.
         12    1    1    2    0    0  0.12768659194E+02 -0.44574306909E+01 -0.12952800774E+02  0.18726515796E+02  0.00000000000E+00 0. -1.
         11    1    3    3    0    0  0.70402875971E+01  0.10856302717E+02  0.11324687723E+02  0.17195159505E+02  0.51100000000E-03 0. -1.
        -11    1    3    3    0    0  0.58527922914E+01 -0.18543063640E+02  0.14339454682E+02  0.24160305205E+02  0.51100000000E-03 0.  1.
        -12    1    3    3    0    0 -0.25661739082E+02  0.12144191615E+02 -0.12711341630E+02  0.31106019494E+02  0.00000000000E+00 0.  1.
</event>
<event>
 7    1  0.3020651E-013  0.7246161E+02  0.7816164E-02  0.1226708E+00
        -11   -1    0    0    0    0  0.00000000000E+00  0.00000000000E+00  0.45593999997E+02  0.45594000000E+02  0.51100000000E-03 0.  1.
         11   -1    0    0    0    0 -0.00000000000E+00 -0.00000000000E+00 -0.45593999997E+02  0.45594000000E+02  0.51100000000E-03 0. -1.
    9900012    2    1    2    0    0 -0.13121819705E+02 -0.17890607507E+01 -0.13239886969E+02  0.72461614932E+02  0.70000058149E+02 0.  0.
         12    1    1    2    0    0  0.13121819705E+02  0.17890607507E+01  0.13239886969E+02  0.18726385068E+02  0.00000000000E+00 0. -1.
         11    1    3    3    0    0 -0.99594120040E+01  0.13946813856E+02 -0.33419483117E+02  0.37557494010E+02  0.51100000000E-03 0. -1.
        -11    1    3    3    0    0  0.35724077542E+01  0.46442587603E+01  0.66833661641E+00  0.58972799398E+01  0.51100000000E-03 0.  1.
        -12    1    3    3    0    0 -0.67348154553E+01 -0.20380133367E+02  0.19511259532E+02  0.29006840983E+02  0.00000000000E+00 0.  1.
</event>
<event>
 7    1  0.3020651E-013  0.7246159E+02  0.7816164E-02  0.1226708E+00
        -11   -1    0    0    0    0  0.00000000000E+00  0.00000000000E+00  0.45593999997E+02  0.45594000000E+02  0.51100000000E-03 0.  1.
         11   -1    0    0    0    0 -0.00000000000E+00 -0.00000000000E+00 -0.45593999997E+02  0.45594000000E+02  0.51100000000E-03 0. -1.
    9900012    2    1    2    0    0 -0.17248908586E+02  0.35615173198E+01 -0.63615358150E+01  0.72461591082E+02  0.70000027080E+02 0.  0.
         12    1    1    2    0    0  0.17248908586E+02 -0.35615173198E+01  0.63615358150E+01  0.18726408918E+02  0.00000000000E+00 0. -1.
         11    1    3    3    0    0 -0.47097317585E+01  0.15672981682E+02 -0.16616665254E+02  0.23322467547E+02  0.51100000000E-03 0. -1.
        -11    1    3    3    0    0  0.75614766837E+01 -0.51315415608E+01 -0.14097471440E+02  0.16800218739E+02  0.51100000000E-03 0.  1.
        -12    1    3    3    0    0 -0.20100653511E+02 -0.69799228013E+01  0.24352600879E+02  0.32338904797E+02  0.00000000000E+00 0.  1.
</event>
<event>
 7    1  0.3020651E-013  0.7246131E+02  0.7816164E-02  0.1226709E+00
        -11   -1    0    0    0    0  0.00000000000E+00  0.00000000000E+00  0.45593999997E+02  0.45594000000E+02  0.51100000000E-03 0. -1.
         11   -1    0    0    0    0 -0.00000000000E+00 -0.00000000000E+00 -0.45593999997E+02  0.45594000000E+02  0.51100000000E-03 0.  1.
    9900012    2    1    2    0    0 -0.15421122843E+02  0.85036804798E+01  0.63690756007E+01  0.72461314884E+02  0.69999667279E+02 0.  0.
         12    1    1    2    0    0  0.15421122843E+02 -0.85036804798E+01 -0.63690756007E+01  0.18726685116E+02  0.00000000000E+00 0. -1.
         11    1    3    3    0    0 -0.81687049488E+01 -0.18289931130E+02  0.15250469555E+01  0.20089178424E+02  0.51100000000E-03 0. -1.
        -11    1    3    3    0    0  0.76431373457E+01 -0.97736618188E+01  0.33835287285E+01  0.12860415264E+02  0.51100000000E-03 0.  1.
        -12    1    3    3    0    0 -0.14895555240E+02  0.36567273428E+02  0.14604999167E+01  0.39511721196E+02  0.00000000000E+00 0.  1.
</event>
<event>
 7    1  0.3020651E-013  0.7246145E+02  0.7816164E-02  0.1226708E+00
        -11   -1    0    0    0    0  0.00000000000E+00  0.00000000000E+00  0.45593999997E+02  0.45594000000E+02  0.51100000000E-03 0.  1.
         11   -1    0    0    0    0 -0.00000000000E+00 -0.00000000000E+00 -0.45593999997E+02  0.45594000000E+02  0.51100000000E-03 0. -1.
    9900012    2    1    2    0    0 -0.17327917296E+02  0.20876308774E+01  0.67873871906E+01  0.72461453458E+02  0.69999847799E+02 0.  0.
         12    1    1    2    0    0  0.17327917296E+02 -0.20876308774E+01 -0.67873871906E+01  0.18726546542E+02  0.00000000000E+00 0. -1.
         11    1    3    3    0    0 -0.12905494700E+02  0.86996958827E+01  0.80033696697E+00  0.15584512871E+02  0.51100000000E-03 0. -1.
        -11    1    3    3    0    0 -0.75533834720E+01 -0.17644754786E+02  0.26888413138E+02  0.33036006640E+02  0.51100000000E-03 0.  1.
         12    1    3    3    0    0  0.31309608756E+01  0.11032689781E+02 -0.20901362915E+02  0.23840933948E+02  0.00000000000E+00 0. -1.
</event>
<event>
 7    1  0.3020651E-013  0.7246155E+02  0.7816164E-02  0.1226708E+00
        -11   -1    0    0    0    0  0.00000000000E+00  0.00000000000E+00  0.45593999997E+02  0.45594000000E+02  0.51100000000E-03 0.  1.
         11   -1    0    0    0    0 -0.00000000000E+00 -0.00000000000E+00 -0.45593999997E+02  0.45594000000E+02  0.51100000000E-03 0. -1.
    9900012    2    1    2    0    0  0.41739992125E+01 -0.71890762534E+01  0.16780193459E+02  0.72461548672E+02  0.69999971833E+02 0.  0.
         12    1    1    2    0    0 -0.41739992125E+01  0.71890762534E+01 -0.16780193459E+02  0.18726451328E+02  0.00000000000E+00 0. -1.
         11    1    3    3    0    0 -0.10768826523E+02 -0.12081862039E+02 -0.38962035234E+01  0.16646904132E+02  0.51100000000E-03 0. -1.
        -11    1    3    3    0    0  0.81996485850E+01 -0.40234219504E+01 -0.15477713650E+02  0.17971693888E+02  0.51100000000E-03 0.  1.
        -12    1    3    3    0    0  0.67431771507E+01  0.89162077363E+01  0.36154110632E+02  0.37842950653E+02  0.00000000000E+00 0.  1.
</event>
<event>
 7    1  0.3020651E-013  0.7246144E+02  0.7816164E-02  0.1226708E+00
        -11   -1    0    0    0    0  0.00000000000E+00  0.00000000000E+00  0.45593999997E+02  0.45594000000E+02  0.51100000000E-03 0. -1.
         11   -1    0    0    0    0 -0.00000000000E+00 -0.00000000000E+00 -0.45593999997E+02  0.45594000000E+02  0.51100000000E-03 0.  1.
    9900012    2    1    2    0    0  0.48443495159E+01 -0.15485078015E+02 -0.93503305880E+01  0.72461440106E+02  0.69999830405E+02 0.  0.
         12    1    1    2    0    0 -0.48443495159E+01  0.15485078015E+02  0.93503305880E+01  0.18726559894E+02  0.00000000000E+00 0. -1.
         11    1    3    3    0    0  0.11589396482E+02 -0.11808391267E+02 -0.10058892002E+01  0.16576007616E+02  0.51100000000E-03 0. -1.
        -11    1    3    3    0    0  0.22097443170E+02 -0.13329131871E+01 -0.14282252384E+02  0.26344949908E+02  0.51100000000E-03 0.  1.
        -12    1    3    3    0    0 -0.28842490136E+02 -0.23437735608E+01  0.59378109965E+01  0.29540482582E+02  0.00000000000E+00 0.  1.
</event>
<event>
 7    1  0.3020651E-013  0.7246155E+02  0.7816164E-02  0.1226708E+00
        -11   -1    0    0    0    0  0.00000000000E+00  0.00000000000E+00  0.45593999997E+02  0.45594000000E+02  0.51100000000E-03 0.  1.
         11   -1    0    0    0    0 -0.00000000000E+00 -0.00000000000E+00 -0.45593999997E+02  0.45594000000E+02  0.51100000000E-03 0. -1.
    9900012    2    1    2    0    0 -0.77249720573E+01 -0.16692553419E+02  0.35161818362E+01  0.72461546315E+02  0.69999968762E+02 0.  0.
         12    1    1    2    0    0  0.77249720573E+01  0.16692553419E+02 -0.35161818362E+01  0.18726453685E+02  0.00000000000E+00 0. -1.
         11    1    3    3    0    0  0.49592783281E+01  0.71408474917E+01  0.12390210332E+02  0.15136163873E+02  0.51100000000E-03 0. -1.
        -11    1    3    3    0    0  0.11512740030E+02  0.26914744612E+01  0.11119306415E+02  0.16230409520E+02  0.51100000000E-03 0.  1.
        -12    1    3    3    0    0 -0.24196990415E+02 -0.26524875372E+02 -0.19993334911E+02  0.41094972922E+02  0.00000000000E+00 0.  1.
</event>
<event>
 7    1  0.3020651E-013  0.7246157E+02  0.7816164E-02  0.1226708E+00
        -11   -1    0    0    0    0  0.00000000000E+00  0.00000000000E+00  0.45593999997E+02  0.45594000000E+02  0.51100000000E-03 0. -1.
         11   -1    0    0    0    0 -0.00000000000E+00 -0.00000000000E+00 -0.45593999997E+02  0.45594000000E+02  0.51100000000E-03 0.  1.
    9900012    2    1    2    0    0 -0.17733181790E+02  0.59477109450E+01 -0.91562012542E+00  0.72461565153E+02  0.69999993302E+02 0.  0.
         12    1    1    2    0    0  0.17733181790E+02 -0.59477109450E+01  0.91562012542E+00  0.18726434847E+02  0.00000000000E+00 0. -1.
         11    1    3    3    0    0  0.12957128737E+02  0.22369972563E+02 -0.33091842076E+00  0.25853672173E+02  0.51100000000E-03 0. -1.
        -11    1    3    3    0    0 -0.18143228878E+02 -0.55342758882E+01 -0.15334988929E+02  0.24391942306E+02  0.51100000000E-03 0.  1.
        -12    1    3    3    0    0 -0.12547081648E+02 -0.10887985730E+02  0.14750287225E+02  0.22215950674E+02  0.00000000000E+00 0.  1.
</event>
<event>
 7    1  0.3020651E-013  0.7246157E+02  0.7816164E-02  0.1226708E+00
        -11   -1    0    0    0    0  0.00000000000E+00  0.00000000000E+00  0.45593999997E+02  0.45594000000E+02  0.51100000000E-03 0. -1.
         11   -1    0    0    0    0 -0.00000000000E+00 -0.00000000000E+00 -0.45593999997E+02  0.45594000000E+02  0.51100000000E-03 0.  1.
    9900012    2    1    2    0    0  0.10507795387E+02 -0.13903181757E+02 -0.68532391024E+01  0.72461571802E+02  0.70000001964E+02 0.  0.
         12    1    1    2    0    0 -0.10507795387E+02  0.13903181757E+02  0.68532391024E+01  0.18726428198E+02  0.00000000000E+00 0. -1.
         11    1    3    3    0    0 -0.14793217126E+02 -0.97983780519E+01 -0.17298521868E+02  0.24780765615E+02  0.51100000000E-03 0. -1.
        -11    1    3    3    0    0  0.38625546776E+01 -0.14539517474E+02 -0.84534734655E+01  0.17256248460E+02  0.51100000000E-03 0.  1.
         12    1    3    3    0    0  0.21438457835E+02  0.10434713769E+02  0.18898756231E+02  0.30424557727E+02  0.00000000000E+00 0. -1.
</event>
<event>
 7    1  0.3020651E-013  0.7246156E+02  0.7816164E-02  0.1226708E+00
        -11   -1    0    0    0    0  0.00000000000E+00  0.00000000000E+00  0.45593999997E+02  0.45594000000E+02  0.51100000000E-03 0. -1.
         11   -1    0    0    0    0 -0.00000000000E+00 -0.00000000000E+00 -0.45593999997E+02  0.45594000000E+02  0.51100000000E-03 0.  1.
    9900012    2    1    2    0    0 -0.12069286791E+02  0.19521755299E+01 -0.14184530040E+02  0.72461559725E+02  0.69999986231E+02 0.  0.
         12    1    1    2    0    0  0.12069286791E+02 -0.19521755299E+01  0.14184530040E+02  0.18726440275E+02  0.00000000000E+00 0. -1.
         11    1    3    3    0    0 -0.21503676015E+02 -0.22627022023E+02 -0.21794708371E+02  0.38070980038E+02  0.51100000000E-03 0. -1.
        -11    1    3    3    0    0 -0.19037773945E+01  0.51694628090E+00  0.75368473064E+01  0.77907425453E+01  0.51100000000E-03 0.  1.
        -12    1    3    3    0    0  0.11338166618E+02  0.24062251272E+02  0.73331025399E-01  0.26599837142E+02  0.00000000000E+00 0.  1.
</event>
<event>
 7    1  0.3020651E-013  0.7246156E+02  0.7816164E-02  0.1226708E+00
        -11   -1    0    0    0    0  0.00000000000E+00  0.00000000000E+00  0.45593999997E+02  0.45594000000E+02  0.51100000000E-03 0. -1.
         11   -1    0    0    0    0 -0.00000000000E+00 -0.00000000000E+00 -0.45593999997E+02  0.45594000000E+02  0.51100000000E-03 0.  1.
    9900012    2    1    2    0    0  0.12709829329E+02 -0.41429288529E+01 -0.13113958304E+02  0.72461560845E+02  0.69999987690E+02 0.  0.
         12    1    1    2    0    0 -0.12709829329E+02  0.41429288529E+01  0.13113958304E+02  0.18726439155E+02  0.00000000000E+00 0. -1.
         11    1    3    3    0    0  0.37036392147E+02 -0.17177851834E+02 -0.73940239362E+01  0.41490294373E+02  0.51100000000E-03 0.  1.
        -11    1    3    3    0    0 -0.14521281649E+02  0.51586025268E+00 -0.30420266053E+01  0.14845459194E+02  0.51100000000E-03 0. -1.
        -12    1    3    3    0    0 -0.98052811692E+01  0.12519062728E+02 -0.26779077622E+01  0.16125807278E+02  0.00000000000E+00 0.  1.
</event>
<event>
 7    1  0.3020651E-013  0.7246150E+02  0.7816164E-02  0.1226708E+00
        -11   -1    0    0    0    0  0.00000000000E+00  0.00000000000E+00  0.45593999997E+02  0.45594000000E+02  0.51100000000E-03 0.  1.
         11   -1    0    0    0    0 -0.00000000000E+00 -0.00000000000E+00 -0.45593999997E+02  0.45594000000E+02  0.51100000000E-03 0. -1.
    9900012    2    1    2    0    0 -0.72039295860E+01 -0.11456515605E+02 -0.12943473980E+02  0.72461498192E+02  0.69999906073E+02 0.  0.
         12    1    1    2    0    0  0.72039295860E+01  0.11456515605E+02  0.12943473980E+02  0.18726501808E+02  0.00000000000E+00 0. -1.
         11    1    3    3    0    0  0.88871691402E+01 -0.18571493790E+02 -0.13441365037E+02  0.24587648347E+02  0.51100000000E-03 0. -1.
        -11    1    3    3    0    0 -0.58666845126E+01  0.13431918937E+02 -0.19589292488E+02  0.24465788643E+02  0.51100000000E-03 0.  1.
        -12    1    3    3    0    0 -0.10224414214E+02 -0.63169407521E+01  0.20087183545E+02  0.23408061202E+02  0.00000000000E+00 0.  1.
</event>
<event>
 7    1  0.3020651E-013  0.7246156E+02  0.7816164E-02  0.1226708E+00
        -11   -1    0    0    0    0  0.00000000000E+00  0.00000000000E+00  0.45593999997E+02  0.45594000000E+02  0.51100000000E-03 0.  1.
         11   -1    0    0    0    0 -0.00000000000E+00 -0.00000000000E+00 -0.45593999997E+02  0.45594000000E+02  0.51100000000E-03 0. -1.
    9900012    2    1    2    0    0  0.10155986630E+01  0.18311001611E+02  0.37888456729E+01  0.72461559543E+02  0.69999985995E+02 0.  0.
         12    1    1    2    0    0 -0.10155986630E+01 -0.18311001611E+02 -0.37888456729E+01  0.18726440457E+02  0.00000000000E+00 0. -1.
         11    1    3    3    0    0  0.47441359405E+01  0.39438951681E+00  0.23520500110E+01  0.53098501324E+01  0.51100000000E-03 0. -1.
        -11    1    3    3    0    0 -0.78116946387E+01  0.38214514274E+02  0.15661528804E+02  0.42031597152E+02  0.51100000000E-03 0.  1.
         12    1    3    3    0    0  0.40831573612E+01 -0.20297902180E+02 -0.14224733142E+02  0.25120112259E+02  0.00000000000E+00 0. -1.
</event>
<event>
 7    1  0.3020651E-013  0.7246158E+02  0.7816164E-02  0.1226708E+00
        -11   -1    0    0    0    0  0.00000000000E+00  0.00000000000E+00  0.45593999997E+02  0.45594000000E+02  0.51100000000E-03 0.  1.
         11   -1    0    0    0    0 -0.00000000000E+00 -0.00000000000E+00 -0.45593999997E+02  0.45594000000E+02  0.51100000000E-03 0. -1.
    9900012    2    1    2    0    0  0.14517006817E+02  0.11644039239E+02  0.20861033089E+01  0.72461575789E+02  0.70000007158E+02 0.  0.
         12    1    1    2    0    0 -0.14517006817E+02 -0.11644039239E+02 -0.20861033089E+01  0.18726424211E+02  0.00000000000E+00 0. -1.
         11    1    3    3    0    0  0.55701605319E+01 -0.23197533549E+02  0.12514511639E+02  0.26940030678E+02  0.51100000000E-03 0. -1.
        -11    1    3    3    0    0 -0.40724734215E+01 -0.15085494456E+01 -0.48484881045E+01  0.65091165575E+01  0.51100000000E-03 0.  1.
        -12    1    3    3    0    0  0.13019319706E+02  0.36350122233E+02 -0.55799202255E+01  0.39012428554E+02  0.00000000000E+00 0.  1.
</event>
<event>
 7    1  0.3020651E-013  0.7246156E+02  0.7816164E-02  0.1226708E+00
        -11   -1    0    0    0    0  0.00000000000E+00  0.00000000000E+00  0.45593999997E+02  0.45594000000E+02  0.51100000000E-03 0. -1.
         11   -1    0    0    0    0 -0.00000000000E+00 -0.00000000000E+00 -0.45593999997E+02  0.45594000000E+02  0.51100000000E-03 0.  1.
    9900012    2    1    2    0    0 -0.60714371803E+01  0.11567830944E+02 -0.13416500135E+02  0.72461560455E+02  0.69999987182E+02 0.  0.
         12    1    1    2    0    0  0.60714371803E+01 -0.11567830944E+02  0.13416500135E+02  0.18726439545E+02  0.00000000000E+00 0. -1.
         11    1    3    3    0    0  0.13504599264E+02 -0.79750418244E+01 -0.93437020063E+00  0.15711414364E+02  0.51100000000E-03 0. -1.
        -11    1    3    3    0    0  0.77308650806E+01  0.10819412876E+02 -0.22707507593E+02  0.26314575262E+02  0.51100000000E-03 0.  1.
        -12    1    3    3    0    0 -0.27306901525E+02  0.87234598922E+01  0.10225377659E+02  0.30435570829E+02  0.00000000000E+00 0.  1.
</event>
<event>
 7    1  0.3020651E-013  0.7246148E+02  0.7816164E-02  0.1226708E+00
        -11   -1    0    0    0    0  0.00000000000E+00  0.00000000000E+00  0.45593999997E+02  0.45594000000E+02  0.51100000000E-03 0.  1.
         11   -1    0    0    0    0 -0.00000000000E+00 -0.00000000000E+00 -0.45593999997E+02  0.45594000000E+02  0.51100000000E-03 0. -1.
    9900012    2    1    2    0    0  0.69025515917E+01 -0.83243146325E+01  0.15288656749E+02  0.72461482497E+02  0.69999885628E+02 0.  0.
         12    1    1    2    0    0 -0.69025515917E+01  0.83243146325E+01 -0.15288656749E+02  0.18726517503E+02  0.00000000000E+00 0. -1.
         11    1    3    3    0    0 -0.11178978867E+01 -0.15019011268E+01  0.76669301975E+01  0.78922253893E+01  0.51100000000E-03 0. -1.
        -11    1    3    3    0    0  0.27366670931E+01 -0.19940752384E+02  0.31168081016E+02  0.37102186282E+02  0.51100000000E-03 0.  1.
         12    1    3    3    0    0  0.52837823853E+01  0.13118338879E+02 -0.23546354464E+02  0.27467070826E+02  0.00000000000E+00 0. -1.
</event>
<event>
 7    1  0.3020651E-013  0.7246153E+02  0.7816164E-02  0.1226708E+00
        -11   -1    0    0    0    0  0.00000000000E+00  0.00000000000E+00  0.45593999997E+02  0.45594000000E+02  0.51100000000E-03 0.  1.
         11   -1    0    0    0    0 -0.00000000000E+00 -0.00000000000E+00 -0.45593999997E+02  0.45594000000E+02  0.51100000000E-03 0. -1.
    9900012    2    1    2    0    0  0.59931318622E+01  0.12839853053E+02  0.12243411512E+02  0.72461532598E+02  0.69999950893E+02 0.  0.
         12    1    1    2    0    0 -0.59931318622E+01 -0.12839853053E+02 -0.12243411512E+02  0.18726467402E+02  0.00000000000E+00 0. -1.
         11    1    3    3    0    0  0.74745581633E+00  0.27708456194E+01  0.42579520387E+01  0.51348253591E+01  0.51100000000E-03 0. -1.
        -11    1    3    3    0    0 -0.89070651081E+01 -0.18495563755E+02  0.24057691029E+02  0.31625846793E+02  0.51100000000E-03 0.  1.
         12    1    3    3    0    0  0.14152741154E+02  0.28564571188E+02 -0.16072231556E+02  0.35700860445E+02  0.00000000000E+00 0. -1.
</event>
<event>
 7    1  0.3020651E-013  0.7246166E+02  0.7816164E-02  0.1226708E+00
        -11   -1    0    0    0    0  0.00000000000E+00  0.00000000000E+00  0.45593999997E+02  0.45594000000E+02  0.51100000000E-03 0. -1.
         11   -1    0    0    0    0 -0.00000000000E+00 -0.00000000000E+00 -0.45593999997E+02  0.45594000000E+02  0.51100000000E-03 0.  1.
    9900012    2    1    2    0    0 -0.68826042450E+01 -0.48667933538E+01  0.16721839395E+02  0.72461659421E+02  0.70000116103E+02 0.  0.
         12    1    1    2    0    0  0.68826042450E+01  0.48667933538E+01 -0.16721839395E+02  0.18726340579E+02  0.00000000000E+00 0. -1.
         11    1    3    3    0    0 -0.50182639188E+01 -0.15239016123E+02  0.22657544234E+02  0.27762832999E+02  0.51100000000E-03 0. -1.
        -11    1    3    3    0    0  0.11871055743E+02  0.61612107359E+01  0.14494950439E+02  0.19722729797E+02  0.51100000000E-03 0.  1.
        -12    1    3    3    0    0 -0.13735396069E+02  0.42110120329E+01 -0.20430655278E+02  0.24976096624E+02  0.00000000000E+00 0.  1.
</event>
<event>
 7    1  0.3020651E-013  0.7246158E+02  0.7816164E-02  0.1226708E+00
        -11   -1    0    0    0    0  0.00000000000E+00  0.00000000000E+00  0.45593999997E+02  0.45594000000E+02  0.51100000000E-03 0. -1.
         11   -1    0    0    0    0 -0.00000000000E+00 -0.00000000000E+00 -0.45593999997E+02  0.45594000000E+02  0.51100000000E-03 0.  1.
    9900012    2    1    2    0    0  0.14190293485E+02 -0.66783841124E+01 -0.10232964903E+02  0.72461579780E+02  0.70000012357E+02 0.  0.
         12    1    1    2    0    0 -0.14190293485E+02  0.66783841124E+01  0.10232964903E+02  0.18726420220E+02  0.00000000000E+00 0. -1.
         11    1    3    3    0    0  0.15731926471E+02  0.13054957552E+02  0.17597912864E+02  0.26974283394E+02  0.51100000000E-03 0. -1.
        -11    1    3    3    0    0 -0.11201952888E+01  0.39692404941E+01  0.40354442872E+01  0.57701402445E+01  0.51100000000E-03 0.  1.
        -12    1    3    3    0    0 -0.42143769744E+00 -0.23702582159E+02 -0.31866322054E+02  0.39717156142E+02  0.00000000000E+00 0.  1.
</event>
<event>
 7    1  0.3020651E-013  0.7246156E+02  0.7816164E-02  0.1226708E+00
        -11   -1    0    0    0    0  0.00000000000E+00  0.00000000000E+00  0.45593999997E+02  0.45594000000E+02  0.51100000000E-03 0.  1.
         11   -1    0    0    0    0 -0.00000000000E+00 -0.00000000000E+00 -0.45593999997E+02  0.45594000000E+02  0.51100000000E-03 0. -1.
    9900012    2    1    2    0    0  0.18207011887E+02  0.31771269729E+01  0.30150163773E+01  0.72461555025E+02  0.69999980109E+02 0.  0.
         12    1    1    2    0    0 -0.18207011887E+02 -0.31771269729E+01 -0.30150163773E+01  0.18726444975E+02  0.00000000000E+00 0. -1.
         11    1    3    3    0    0 -0.59645150798E+00  0.22252248250E+01  0.27437567882E+01  0.35826779784E+01  0.51100000000E-03 0. -1.
        -11    1    3    3    0    0  0.19386272348E+02  0.10020856159E+02  0.30392900031E+02  0.37416219561E+02  0.51100000000E-03 0.  1.
         12    1    3    3    0    0 -0.58280895303E+00 -0.90689540112E+01 -0.30121640442E+02  0.31462657485E+02  0.00000000000E+00 0. -1.
</event>
<event>
 7    1  0.3020651E-013  0.7246156E+02  0.7816164E-02  0.1226708E+00
        -11   -1    0    0    0    0  0.00000000000E+00  0.00000000000E+00  0.45593999997E+02  0.45594000000E+02  0.51100000000E-03 0.  1.
         11   -1    0    0    0    0 -0.00000000000E+00 -0.00000000000E+00 -0.45593999997E+02  0.45594000000E+02  0.51100000000E-03 0. -1.
    9900012    2    1    2    0    0 -0.24483228063E+01  0.50659683551E+01  0.17861165109E+02  0.72461560430E+02  0.69999987149E+02 0.  0.
         12    1    1    2    0    0  0.24483228063E+01 -0.50659683551E+01 -0.17861165109E+02  0.18726439570E+02  0.00000000000E+00 0. -1.
         11    1    3    3    0    0 -0.92837369273E+01  0.32650055893E+01 -0.10496392984E+02  0.14388269485E+02  0.51100000000E-03 0. -1.
        -11    1    3    3    0    0 -0.12268596389E+02  0.20103625836E+02  0.86756384852E+01  0.25098624116E+02  0.51100000000E-03 0.  1.
         12    1    3    3    0    0  0.19104010510E+02 -0.18302663071E+02  0.19681919607E+02  0.32974666829E+02  0.00000000000E+00 0. -1.
</event>
<event>
 7    1  0.3020651E-013  0.7246155E+02  0.7816164E-02  0.1226708E+00
        -11   -1    0    0    0    0  0.00000000000E+00  0.00000000000E+00  0.45593999997E+02  0.45594000000E+02  0.51100000000E-03 0. -1.
         11   -1    0    0    0    0 -0.00000000000E+00 -0.00000000000E+00 -0.45593999997E+02  0.45594000000E+02  0.51100000000E-03 0.  1.
    9900012    2    1    2    0    0  0.30649592562E+01  0.17445388807E+02 -0.60781919672E+01  0.72461548562E+02  0.69999971690E+02 0.  0.
         12    1    1    2    0    0 -0.30649592562E+01 -0.17445388807E+02  0.60781919672E+01  0.18726451438E+02  0.00000000000E+00 0. -1.
         11    1    3    3    0    0 -0.22605250953E+00  0.39761889350E+01  0.12996221289E+02  0.13592753446E+02  0.51100000000E-03 0. -1.
        -11    1    3    3    0    0  0.26781560895E+02  0.17253621322E+02 -0.97948623122E+01  0.33329848195E+02  0.51100000000E-03 0.  1.
        -12    1    3    3    0    0 -0.23490549129E+02 -0.37844214502E+01 -0.92795509444E+01  0.25538946921E+02  0.00000000000E+00 0.  1.
</event>
<event>
 7    1  0.3020651E-013  0.7246149E+02  0.7816164E-02  0.1226708E+00
        -11   -1    0    0    0    0  0.00000000000E+00  0.00000000000E+00  0.45593999997E+02  0.45594000000E+02  0.51100000000E-03 0.  1.
         11   -1    0    0    0    0 -0.00000000000E+00 -0.00000000000E+00 -0.45593999997E+02  0.45594000000E+02  0.51100000000E-03 0. -1.
    9900012    2    1    2    0    0  0.95301111550E+01 -0.16609520596E+01  0.16034347925E+02  0.72461492217E+02  0.69999898290E+02 0.  0.
         12    1    1    2    0    0 -0.95301111550E+01  0.16609520596E+01 -0.16034347925E+02  0.18726507783E+02  0.00000000000E+00 0. -1.
         11    1    3    3    0    0  0.11030679342E+01 -0.13284100222E+02 -0.15294304733E+02  0.20287923380E+02  0.51100000000E-03 0. -1.
        -11    1    3    3    0    0 -0.15367096992E+02  0.15038168797E+01  0.15382859878E+02  0.21795447081E+02  0.51100000000E-03 0.  1.
        -12    1    3    3    0    0  0.23794140212E+02  0.10119331283E+02  0.15945792779E+02  0.30378121756E+02  0.00000000000E+00 0.  1.
</event>
<event>
 7    1  0.3020651E-013  0.7246158E+02  0.7816164E-02  0.1226708E+00
        -11   -1    0    0    0    0  0.00000000000E+00  0.00000000000E+00  0.45593999997E+02  0.45594000000E+02  0.51100000000E-03 0.  1.
         11   -1    0    0    0    0 -0.00000000000E+00 -0.00000000000E+00 -0.45593999997E+02  0.45594000000E+02  0.51100000000E-03 0. -1.
    9900012    2    1    2    0    0  0.14719685210E+02 -0.10329692220E+02  0.52256336449E+01  0.72461576929E+02  0.70000008643E+02 0.  0.
         12    1    1    2    0    0 -0.14719685210E+02  0.10329692220E+02 -0.52256336449E+01  0.18726423071E+02  0.00000000000E+00 0. -1.
         11    1    3    3    0    0 -0.17953469189E+01  0.40764594504E+01  0.50276412594E+01  0.67169910752E+01  0.51100000000E-03 0. -1.
        -11    1    3    3    0    0 -0.94818641247E+01 -0.31959695837E+02  0.59216774994E+01  0.33858443112E+02  0.51100000000E-03 0.  1.
         12    1    3    3    0    0  0.25996896254E+02  0.17553544167E+02 -0.57236851140E+01  0.31886142742E+02  0.00000000000E+00 0. -1.
</event>
<event>
 7    1  0.3020651E-013  0.7246149E+02  0.7816164E-02  0.1226708E+00
        -11   -1    0    0    0    0  0.00000000000E+00  0.00000000000E+00  0.45593999997E+02  0.45594000000E+02  0.51100000000E-03 0.  1.
         11   -1    0    0    0    0 -0.00000000000E+00 -0.00000000000E+00 -0.45593999997E+02  0.45594000000E+02  0.51100000000E-03 0. -1.
    9900012    2    1    2    0    0 -0.39805098431E+01  0.17942580999E+02 -0.35918853095E+01  0.72461486401E+02  0.69999890713E+02 0.  0.
         12    1    1    2    0    0  0.39805098431E+01 -0.17942580999E+02  0.35918853095E+01  0.18726513599E+02  0.00000000000E+00 0. -1.
         11    1    3    3    0    0 -0.47299304285E+01  0.11390553106E+02  0.25603562242E+02  0.28419348016E+02  0.51100000000E-03 0. -1.
        -11    1    3    3    0    0  0.42128102157E+01  0.10008283376E+02  0.31675431632E+01  0.11311358716E+02  0.51100000000E-03 0.  1.
         12    1    3    3    0    0 -0.34633896303E+01 -0.34562554829E+01 -0.32362990715E+02  0.32730779668E+02  0.00000000000E+00 0. -1.
</event>
<event>
 7    1  0.3020651E-013  0.7246162E+02  0.7816164E-02  0.1226708E+00
        -11   -1    0    0    0    0  0.00000000000E+00  0.00000000000E+00  0.45593999997E+02  0.45594000000E+02  0.51100000000E-03 0. -1.
         11   -1    0    0    0    0 -0.00000000000E+00 -0.00000000000E+00 -0.45593999997E+02  0.45594000000E+02  0.51100000000E-03 0.  1.
    9900012    2    1    2    0    0 -0.18518070037E+02  0.26298240667E+01 -0.91778265624E+00  0.72461622413E+02  0.70000067895E+02 0.  0.
         12    1    1    2    0    0  0.18518070037E+02 -0.26298240667E+01  0.91778265624E+00  0.18726377587E+02  0.00000000000E+00 0. -1.
         11    1    3    3    0    0 -0.11312892949E+02 -0.17204095848E+02  0.76450734360E+01  0.21963825007E+02  0.51100000000E-03 0. -1.
        -11    1    3    3    0    0 -0.10311771200E+01  0.79219182236E+01  0.18577404056E+02  0.20222266349E+02  0.51100000000E-03 0.  1.
        -12    1    3    3    0    0 -0.61739999681E+01  0.11912001692E+02 -0.27140260148E+02  0.30275531057E+02  0.00000000000E+00 0.  1.
</event>
<event>
 7    1  0.3020651E-013  0.7246175E+02  0.7816164E-02  0.1226708E+00
        -11   -1    0    0    0    0  0.00000000000E+00  0.00000000000E+00  0.45593999997E+02  0.45594000000E+02  0.51100000000E-03 0.  1.
         11   -1    0    0    0    0 -0.00000000000E+00 -0.00000000000E+00 -0.45593999997E+02  0.45594000000E+02  0.51100000000E-03 0. -1.
    9900012    2    1    2    0    0 -0.11500974730E+02 -0.11619981281E+02  0.91310435947E+01  0.72461752596E+02  0.70000237481E+02 0.  0.
         12    1    1    2    0    0  0.11500974730E+02  0.11619981281E+02 -0.91310435947E+01  0.18726247404E+02  0.00000000000E+00 0. -1.
         11    1    3    3    0    0  0.84383096996E+01  0.73717610488E+01  0.48313149376E+01  0.12202029988E+02  0.51100000000E-03 0. -1.
        -11    1    3    3    0    0 -0.10628775723E+02 -0.11614481465E+01  0.27528625958E+02  0.29532102576E+02  0.51100000000E-03 0.  1.
         12    1    3    3    0    0 -0.93105087069E+01 -0.17830294183E+02 -0.23228897301E+02  0.30727620032E+02  0.00000000000E+00 0. -1.
</event>
<event>
 7    1  0.3020651E-013  0.7246193E+02  0.7816164E-02  0.1226707E+00
        -11   -1    0    0    0    0  0.00000000000E+00  0.00000000000E+00  0.45593999997E+02  0.45594000000E+02  0.51100000000E-03 0. -1.
         11   -1    0    0    0    0 -0.00000000000E+00 -0.00000000000E+00 -0.45593999997E+02  0.45594000000E+02  0.51100000000E-03 0.  1.
    9900012    2    1    2    0    0  0.68093337401E+01  0.17407055496E+02 -0.11371950766E+01  0.72461926742E+02  0.70000464338E+02 0.  0.
         12    1    1    2    0    0 -0.68093337401E+01 -0.17407055496E+02  0.11371950766E+01  0.18726073258E+02  0.00000000000E+00 0. -1.
         11    1    3    3    0    0  0.42083125057E+01  0.26627323365E+02  0.16163767146E+02  0.31432333868E+02  0.51100000000E-03 0. -1.
        -11    1    3    3    0    0 -0.75431825325E+00  0.36117842150E+01  0.10009959123E+02  0.10668329914E+02  0.51100000000E-03 0.  1.
        -12    1    3    3    0    0  0.33553394877E+01 -0.12832052085E+02 -0.27310921346E+02  0.30361262960E+02  0.00000000000E+00 0.  1.
</event>
<event>
 7    1  0.3020651E-013  0.7246159E+02  0.7816164E-02  0.1226708E+00
        -11   -1    0    0    0    0  0.00000000000E+00  0.00000000000E+00  0.45593999997E+02  0.45594000000E+02  0.51100000000E-03 0.  1.
         11   -1    0    0    0    0 -0.00000000000E+00 -0.00000000000E+00 -0.45593999997E+02  0.45594000000E+02  0.51100000000E-03 0. -1.
    9900012    2    1    2    0    0 -0.12495417103E+02 -0.29127945128E+01  0.13640333240E+02  0.72461587868E+02  0.70000022893E+02 0.  0.
         12    1    1    2    0    0  0.12495417103E+02  0.29127945128E+01 -0.13640333240E+02  0.18726412132E+02  0.00000000000E+00 0. -1.
         11    1    3    3    0    0  0.13858320955E+02  0.31782031946E+01  0.76548888711E+01  0.16147797346E+02  0.51100000000E-03 0. -1.
        -11    1    3    3    0    0 -0.14372229924E+02  0.43669682118E+01  0.26437041214E+02  0.30406389999E+02  0.51100000000E-03 0.  1.
         12    1    3    3    0    0 -0.11981508135E+02 -0.10457965919E+02 -0.20451596845E+02  0.25907400523E+02  0.00000000000E+00 0. -1.
</event>
<event>
 7    1  0.3020651E-013  0.7246158E+02  0.7816164E-02  0.1226708E+00
        -11   -1    0    0    0    0  0.00000000000E+00  0.00000000000E+00  0.45593999997E+02  0.45594000000E+02  0.51100000000E-03 0.  1.
         11   -1    0    0    0    0 -0.00000000000E+00 -0.00000000000E+00 -0.45593999997E+02  0.45594000000E+02  0.51100000000E-03 0. -1.
    9900012    2    1    2    0    0 -0.17480854835E+02  0.64963232701E+01 -0.17018309888E+01  0.72461582016E+02  0.70000015269E+02 0.  0.
         12    1    1    2    0    0  0.17480854835E+02 -0.64963232701E+01  0.17018309888E+01  0.18726417984E+02  0.00000000000E+00 0. -1.
         11    1    3    3    0    0  0.11519330731E+02  0.10271894800E+02  0.55446007038E+01  0.16399676841E+02  0.51100000000E-03 0. -1.
        -11    1    3    3    0    0 -0.13791578054E+02 -0.20021630274E+00  0.20212081577E+02  0.24469898932E+02  0.51100000000E-03 0.  1.
         12    1    3    3    0    0 -0.15208607512E+02 -0.35753552268E+01 -0.27458513270E+02  0.31592006243E+02  0.00000000000E+00 0. -1.
</event>
<event>
 7    1  0.3020651E-013  0.7246152E+02  0.7816164E-02  0.1226708E+00
        -11   -1    0    0    0    0  0.00000000000E+00  0.00000000000E+00  0.45593999997E+02  0.45594000000E+02  0.51100000000E-03 0. -1.
         11   -1    0    0    0    0 -0.00000000000E+00 -0.00000000000E+00 -0.45593999997E+02  0.45594000000E+02  0.51100000000E-03 0.  1.
    9900012    2    1    2    0    0  0.12718627484E+02 -0.11872968986E+02 -0.69246022294E+01  0.72461521590E+02  0.69999936554E+02 0.  0.
         12    1    1    2    0    0 -0.12718627484E+02  0.11872968986E+02  0.69246022294E+01  0.18726478410E+02  0.00000000000E+00 0. -1.
         11    1    3    3    0    0  0.41401280501E+01 -0.73995887495E+01  0.20792118536E+02  0.22454548925E+02  0.51100000000E-03 0. -1.
        -11    1    3    3    0    0 -0.32120855530E+00 -0.55585280832E+01  0.98882309875E+01  0.11348018405E+02  0.51100000000E-03 0.  1.
        -12    1    3    3    0    0  0.88997079889E+01  0.10851478472E+01 -0.37604951753E+02  0.38658954260E+02  0.00000000000E+00 0.  1.
</event>
<event>
 7    1  0.3020651E-013  0.7246157E+02  0.7816164E-02  0.1226708E+00
        -11   -1    0    0    0    0  0.00000000000E+00  0.00000000000E+00  0.45593999997E+02  0.45594000000E+02  0.51100000000E-03 0.  1.
         11   -1    0    0    0    0 -0.00000000000E+00 -0.00000000000E+00 -0.45593999997E+02  0.45594000000E+02  0.51100000000E-03 0. -1.
    9900012    2    1    2    0    0  0.16767553454E+02  0.51316449945E+01  0.65722473564E+01  0.72461573098E+02  0.70000003653E+02 0.  0.
         12    1    1    2    0    0 -0.16767553454E+02 -0.51316449945E+01 -0.65722473564E+01  0.18726426902E+02  0.00000000000E+00 0. -1.
         11    1    3    3    0    0  0.68615590752E+01  0.20281202217E+02  0.86131669665E+01  0.23078015551E+02  0.51100000000E-03 0. -1.
        -11    1    3    3    0    0  0.21828585805E+02 -0.46776499054E+01 -0.16622420703E+02  0.27832937990E+02  0.51100000000E-03 0.  1.
         12    1    3    3    0    0 -0.11922591426E+02 -0.10471907317E+02  0.14581501093E+02  0.21550619557E+02  0.00000000000E+00 0. -1.
</event>
<event>
 7    1  0.3020651E-013  0.7246159E+02  0.7816164E-02  0.1226708E+00
        -11   -1    0    0    0    0  0.00000000000E+00  0.00000000000E+00  0.45593999997E+02  0.45594000000E+02  0.51100000000E-03 0.  1.
         11   -1    0    0    0    0 -0.00000000000E+00 -0.00000000000E+00 -0.45593999997E+02  0.45594000000E+02  0.51100000000E-03 0. -1.
    9900012    2    1    2    0    0  0.10122535513E+02  0.12998690071E+02 -0.89020720830E+01  0.72461586672E+02  0.70000021335E+02 0.  0.
         12    1    1    2    0    0 -0.10122535513E+02 -0.12998690071E+02  0.89020720830E+01  0.18726413328E+02  0.00000000000E+00 0. -1.
         11    1    3    3    0    0 -0.10554222057E+02  0.22900344206E+02 -0.82869492526E+01  0.26542247383E+02  0.51100000000E-03 0. -1.
        -11    1    3    3    0    0 -0.55019252573E+01  0.12298024444E+01  0.13156931339E+02  0.14313924623E+02  0.51100000000E-03 0.  1.
         12    1    3    3    0    0  0.26178682828E+02 -0.11131456579E+02 -0.13772054169E+02  0.31605414666E+02  0.00000000000E+00 0. -1.
</event>
<event>
 7    1  0.3020651E-013  0.7246159E+02  0.7816164E-02  0.1226708E+00
        -11   -1    0    0    0    0  0.00000000000E+00  0.00000000000E+00  0.45593999997E+02  0.45594000000E+02  0.51100000000E-03 0.  1.
         11   -1    0    0    0    0 -0.00000000000E+00 -0.00000000000E+00 -0.45593999997E+02  0.45594000000E+02  0.51100000000E-03 0. -1.
    9900012    2    1    2    0    0  0.76843071658E+01 -0.11449492380E+02  0.12670391852E+02  0.72461593990E+02  0.70000030868E+02 0.  0.
         12    1    1    2    0    0 -0.76843071658E+01  0.11449492380E+02 -0.12670391852E+02  0.18726406010E+02  0.00000000000E+00 0. -1.
         11    1    3    3    0    0 -0.62829011414E+01  0.38665698710E+01 -0.26130717522E+01  0.78264521696E+01  0.51100000000E-03 0. -1.
        -11    1    3    3    0    0 -0.20694887647E+02  0.65967627845E+01  0.67865748583E+01  0.22756389268E+02  0.51100000000E-03 0.  1.
        -12    1    3    3    0    0  0.34662095954E+02 -0.21912825035E+02  0.84968887464E+01  0.41878752552E+02  0.00000000000E+00 0.  1.
</event>
<event>
 7    1  0.3020651E-013  0.7246157E+02  0.7816164E-02  0.1226708E+00
        -11   -1    0    0    0    0  0.00000000000E+00  0.00000000000E+00  0.45593999997E+02  0.45594000000E+02  0.51100000000E-03 0.  1.
         11   -1    0    0    0    0 -0.00000000000E+00 -0.00000000000E+00 -0.45593999997E+02  0.45594000000E+02  0.51100000000E-03 0. -1.
    9900012    2    1    2    0    0 -0.16211243533E+02 -0.86498342038E+01  0.36131725447E+01  0.72461573099E+02  0.70000003654E+02 0.  0.
         12    1    1    2    0    0  0.16211243533E+02  0.86498342038E+01 -0.36131725447E+01  0.18726426901E+02  0.00000000000E+00 0. -1.
         11    1    3    3    0    0  0.18046161895E+02 -0.54524247431E+01  0.61155625762E+01  0.19819006044E+02  0.51100000000E-03 0. -1.
        -11    1    3    3    0    0  0.84464228182E+01  0.26042991843E+01  0.26794763872E+01  0.92360178993E+01  0.51100000000E-03 0.  1.
         12    1    3    3    0    0 -0.42703828245E+02 -0.58017086450E+01 -0.51818664187E+01  0.43406549156E+02  0.00000000000E+00 0. -1.
</event>
<event>
 7    1  0.3020651E-013  0.7246159E+02  0.7816164E-02  0.1226708E+00
        -11   -1    0    0    0    0  0.00000000000E+00  0.00000000000E+00  0.45593999997E+02  0.45594000000E+02  0.51100000000E-03 0. -1.
         11   -1    0    0    0    0 -0.00000000000E+00 -0.00000000000E+00 -0.45593999997E+02  0.45594000000E+02  0.51100000000E-03 0.  1.
    9900012    2    1    2    0    0 -0.66435002902E+01  0.15335199537E+02 -0.84483200726E+01  0.72461586756E+02  0.70000021444E+02 0.  0.
         12    1    1    2    0    0  0.66435002902E+01 -0.15335199537E+02  0.84483200726E+01  0.18726413244E+02  0.00000000000E+00 0. -1.
         11    1    3    3    0    0  0.83690832388E+01  0.15948170325E+02  0.29998750229E+01  0.18258831874E+02  0.51100000000E-03 0. -1.
        -11    1    3    3    0    0 -0.42037323537E+01  0.12956510339E+02  0.16445638442E+02  0.21354192794E+02  0.51100000000E-03 0.  1.
        -12    1    3    3    0    0 -0.10808851175E+02 -0.13569481127E+02 -0.27893833538E+02  0.32848562088E+02  0.00000000000E+00 0.  1.
</event>
<event>
 7    1  0.3020651E-013  0.7246153E+02  0.7816164E-02  0.1226708E+00
        -11   -1    0    0    0    0  0.00000000000E+00  0.00000000000E+00  0.45593999997E+02  0.45594000000E+02  0.51100000000E-03 0. -1.
         11   -1    0    0    0    0 -0.00000000000E+00 -0.00000000000E+00 -0.45593999997E+02  0.45594000000E+02  0.51100000000E-03 0.  1.
    9900012    2    1    2    0    0  0.18365602399E+02 -0.44228978083E+00  0.36317541078E+01  0.72461531844E+02  0.69999949911E+02 0.  0.
         12    1    1    2    0    0 -0.18365602399E+02  0.44228978083E+00 -0.36317541078E+01  0.18726468156E+02  0.00000000000E+00 0. -1.
         11    1    3    3    0    0  0.72348487412E+01  0.34074453656E+01  0.19660684045E+02  0.21224896174E+02  0.51100000000E-03 0. -1.
        -11    1    3    3    0    0  0.29040049471E+02 -0.64930582985E+01 -0.53981892999E+01  0.30242763222E+02  0.51100000000E-03 0.  1.
         12    1    3    3    0    0 -0.17909295813E+02  0.26433231521E+01 -0.10630740638E+02  0.20993872447E+02  0.00000000000E+00 0. -1.
</event>
<event>
 7    1  0.3020651E-013  0.7246153E+02  0.7816164E-02  0.1226708E+00
        -11   -1    0    0    0    0  0.00000000000E+00  0.00000000000E+00  0.45593999997E+02  0.45594000000E+02  0.51100000000E-03 0.  1.
         11   -1    0    0    0    0 -0.00000000000E+00 -0.00000000000E+00 -0.45593999997E+02  0.45594000000E+02  0.51100000000E-03 0. -1.
    9900012    2    1    2    0    0 -0.10482292699E+02  0.13716585392E+01  0.15457066199E+02  0.72461526684E+02  0.69999943189E+02 0.  0.
         12    1    1    2    0    0  0.10482292699E+02 -0.13716585392E+01 -0.15457066199E+02  0.18726473316E+02  0.00000000000E+00 0. -1.
         11    1    3    3    0    0 -0.44407342236E+01 -0.37317321360E+01 -0.13783941093E+02  0.14954697506E+02  0.51100000000E-03 0. -1.
        -11    1    3    3    0    0 -0.98284061336E+01  0.17647792232E+02 -0.50293884815E+01  0.20816745340E+02  0.51100000000E-03 0.  1.
        -12    1    3    3    0    0  0.37868476579E+01 -0.12544401557E+02  0.34270395773E+02  0.36690083838E+02  0.00000000000E+00 0.  1.
</event>
<event>
 7    1  0.3020651E-013  0.7246157E+02  0.7816164E-02  0.1226708E+00
        -11   -1    0    0    0    0  0.00000000000E+00  0.00000000000E+00  0.45593999997E+02  0.45594000000E+02  0.51100000000E-03 0. -1.
         11   -1    0    0    0    0 -0.00000000000E+00 -0.00000000000E+00 -0.45593999997E+02  0.45594000000E+02  0.51100000000E-03 0.  1.
    9900012    2    1    2    0    0 -0.22304429375E+01  0.43295202979E+01 -0.18082025014E+02  0.72461568137E+02  0.69999997189E+02 0.  0.
         12    1    1    2    0    0  0.22304429375E+01 -0.43295202979E+01  0.18082025014E+02  0.18726431863E+02  0.00000000000E+00 0. -1.
         11    1    3    3    0    0  0.25311043049E+01  0.80870374269E+01 -0.26157420911E+02  0.27495769353E+02  0.51100000000E-03 0. -1.
        -11    1    3    3    0    0 -0.51406937128E+01 -0.20866136421E+02 -0.65378720483E+01  0.22462549992E+02  0.51100000000E-03 0.  1.
         12    1    3    3    0    0  0.37914647046E+00  0.17108619292E+02  0.14613267945E+02  0.22503248791E+02  0.00000000000E+00 0. -1.
</event>
<event>
 7    1  0.3020651E-013  0.7246152E+02  0.7816164E-02  0.1226708E+00
        -11   -1    0    0    0    0  0.00000000000E+00  0.00000000000E+00  0.45593999997E+02  0.45594000000E+02  0.51100000000E-03 0. -1.
         11   -1    0    0    0    0 -0.00000000000E+00 -0.00000000000E+00 -0.45593999997E+02  0.45594000000E+02  0.51100000000E-03 0.  1.
    9900012    2    1    2    0    0 -0.50850924001E+01  0.11759388112E+02 -0.13657949687E+02  0.72461522404E+02  0.69999937614E+02 0.  0.
         12    1    1    2    0    0  0.50850924001E+01 -0.11759388112E+02  0.13657949687E+02  0.18726477596E+02  0.00000000000E+00 0. -1.
         11    1    3    3    0    0  0.11218357205E+02  0.23739474277E+01 -0.68657620756E+01  0.13365098350E+02  0.51100000000E-03 0. -1.
        -11    1    3    3    0    0  0.15532040809E+02  0.11604309688E+02 -0.16796802692E+02  0.25652229454E+02  0.51100000000E-03 0.  1.
         12    1    3    3    0    0 -0.31835490414E+02 -0.22188690037E+01  0.10004615080E+02  0.33444194600E+02  0.00000000000E+00 0. -1.
</event>
<event>
 7    1  0.3020651E-013  0.7246144E+02  0.7816164E-02  0.1226708E+00
        -11   -1    0    0    0    0  0.00000000000E+00  0.00000000000E+00  0.45593999997E+02  0.45594000000E+02  0.51100000000E-03 0.  1.
         11   -1    0    0    0    0 -0.00000000000E+00 -0.00000000000E+00 -0.45593999997E+02  0.45594000000E+02  0.51100000000E-03 0. -1.
    9900012    2    1    2    0    0 -0.17075369427E+02 -0.75428734058E+01 -0.14902970548E+01  0.72461436898E+02  0.69999826227E+02 0.  0.
         12    1    1    2    0    0  0.17075369427E+02  0.75428734058E+01  0.14902970548E+01  0.18726563102E+02  0.00000000000E+00 0. -1.
         11    1    3    3    0    0 -0.14560678098E+02  0.55189573664E+01 -0.99969241544E+01  0.18504343542E+02  0.51100000000E-03 0. -1.
        -11    1    3    3    0    0 -0.18848213780E+02 -0.26127919592E+02  0.31835765268E+01  0.32373731707E+02  0.51100000000E-03 0.  1.
         12    1    3    3    0    0  0.16333522451E+02  0.13066088820E+02  0.53230505728E+01  0.21583361650E+02  0.00000000000E+00 0. -1.
</event>
<event>
 7    1  0.3020651E-013  0.7246159E+02  0.7816164E-02  0.1226708E+00
        -11   -1    0    0    0    0  0.00000000000E+00  0.00000000000E+00  0.45593999997E+02  0.45594000000E+02  0.51100000000E-03 0. -1.
         11   -1    0    0    0    0 -0.00000000000E+00 -0.00000000000E+00 -0.45593999997E+02  0.45594000000E+02  0.51100000000E-03 0.  1.
    9900012    2    1    2    0    0  0.10893524952E+02  0.14765647110E+02  0.37397055790E+01  0.72461585013E+02  0.70000019173E+02 0.  0.
         12    1    1    2    0    0 -0.10893524952E+02 -0.14765647110E+02 -0.37397055790E+01  0.18726414987E+02  0.00000000000E+00 0. -1.
         11    1    3    3    0    0 -0.48823400715E+01 -0.16102932880E+02  0.19669761151E+00  0.16827964290E+02  0.51100000000E-03 0. -1.
        -11    1    3    3    0    0 -0.98906542027E+01 -0.15801672169E+01 -0.78446393500E+01  0.12722434350E+02  0.51100000000E-03 0.  1.
        -12    1    3    3    0    0  0.25666519226E+02  0.32448747208E+02  0.11387647318E+02  0.42911186373E+02  0.00000000000E+00 0.  1.
</event>
<event>
 7    1  0.3020651E-013  0.7246180E+02  0.7816164E-02  0.1226707E+00
        -11   -1    0    0    0    0  0.00000000000E+00  0.00000000000E+00  0.45593999997E+02  0.45594000000E+02  0.51100000000E-03 0. -1.
         11   -1    0    0    0    0 -0.00000000000E+00 -0.00000000000E+00 -0.45593999997E+02  0.45594000000E+02  0.51100000000E-03 0.  1.
    9900012    2    1    2    0    0 -0.58598403048E+01 -0.17746729400E+02  0.11775454118E+01  0.72461795206E+02  0.70000292988E+02 0.  0.
         12    1    1    2    0    0  0.58598403048E+01  0.17746729400E+02 -0.11775454118E+01  0.18726204794E+02  0.00000000000E+00 0. -1.
         11    1    3    3    0    0  0.60803235807E+01 -0.19601485757E+02  0.19314729904E+02  0.28182394686E+02  0.51100000000E-03 0. -1.
        -11    1    3    3    0    0 -0.17672288541E+02 -0.12220552141E+02 -0.11945662557E+01  0.21519262667E+02  0.51100000000E-03 0.  1.
        -12    1    3    3    0    0  0.57321246556E+01  0.14075308497E+02 -0.16942618237E+02  0.22760137853E+02  0.00000000000E+00 0.  1.
</event>
<event>
 7    1  0.3020651E-013  0.7246156E+02  0.7816164E-02  0.1226708E+00
        -11   -1    0    0    0    0  0.00000000000E+00  0.00000000000E+00  0.45593999997E+02  0.45594000000E+02  0.51100000000E-03 0.  1.
         11   -1    0    0    0    0 -0.00000000000E+00 -0.00000000000E+00 -0.45593999997E+02  0.45594000000E+02  0.51100000000E-03 0. -1.
    9900012    2    1    2    0    0 -0.15980188530E+02 -0.32974671492E+01 -0.91891159047E+01  0.72461559704E+02  0.69999986204E+02 0.  0.
         12    1    1    2    0    0  0.15980188530E+02  0.32974671492E+01  0.91891159047E+01  0.18726440296E+02  0.00000000000E+00 0. -1.
         11    1    3    3    0    0  0.13402915937E+02  0.54349735137E+01 -0.11251937959E+02  0.18324388143E+02  0.51100000000E-03 0. -1.
        -11    1    3    3    0    0 -0.30633757074E+02  0.71110504840E+01 -0.11255438328E+02  0.33401781445E+02  0.51100000000E-03 0.  1.
         12    1    3    3    0    0  0.12506526078E+01 -0.15843491147E+02  0.13318260382E+02  0.20735390116E+02  0.00000000000E+00 0. -1.
</event>
<event>
 7    1  0.3020651E-013  0.7246159E+02  0.7816164E-02  0.1226708E+00
        -11   -1    0    0    0    0  0.00000000000E+00  0.00000000000E+00  0.45593999997E+02  0.45594000000E+02  0.51100000000E-03 0. -1.
         11   -1    0    0    0    0 -0.00000000000E+00 -0.00000000000E+00 -0.45593999997E+02  0.45594000000E+02  0.51100000000E-03 0.  1.
    9900012    2    1    2    0    0 -0.12305958633E+02  0.48321690970E+01 -0.13262423516E+02  0.72461592080E+02  0.70000028380E+02 0.  0.
         12    1    1    2    0    0  0.12305958633E+02 -0.48321690970E+01  0.13262423516E+02  0.18726407920E+02  0.00000000000E+00 0. -1.
         11    1    3    3    0    0  0.12958581992E+02  0.44564174619E+01 -0.13902069076E+02  0.19520554005E+02  0.51100000000E-03 0.  1.
        -11    1    3    3    0    0 -0.32961878190E+02  0.12149553365E+02 -0.85288072397E+01  0.36150209045E+02  0.51100000000E-03 0. -1.
         12    1    3    3    0    0  0.76973375652E+01 -0.11773801730E+02  0.91684527995E+01  0.16790829030E+02  0.00000000000E+00 0. -1.
</event>
<event>
 7    1  0.3020651E-013  0.7246160E+02  0.7816164E-02  0.1226708E+00
        -11   -1    0    0    0    0  0.00000000000E+00  0.00000000000E+00  0.45593999997E+02  0.45594000000E+02  0.51100000000E-03 0. -1.
         11   -1    0    0    0    0 -0.00000000000E+00 -0.00000000000E+00 -0.45593999997E+02  0.45594000000E+02  0.51100000000E-03 0.  1.
    9900012    2    1    2    0    0 -0.72547728827E+01  0.15284603318E+02 -0.80266652275E+01  0.72461596639E+02  0.70000034318E+02 0.  0.
         12    1    1    2    0    0  0.72547728827E+01 -0.15284603318E+02  0.80266652275E+01  0.18726403361E+02  0.00000000000E+00 0. -1.
         11    1    3    3    0    0  0.72734470790E+01 -0.39465986583E+01  0.20317986892E+02  0.21938533793E+02  0.51100000000E-03 0. -1.
        -11    1    3    3    0    0  0.57064990444E+01  0.20249018900E+02 -0.18421527107E+02  0.27963182204E+02  0.51100000000E-03 0.  1.
        -12    1    3    3    0    0 -0.20234719006E+02 -0.10178169233E+01 -0.99231250130E+01  0.22559880642E+02  0.00000000000E+00 0.  1.
</event>
<event>
 7    1  0.3020651E-013  0.7246160E+02  0.7816164E-02  0.1226708E+00
        -11   -1    0    0    0    0  0.00000000000E+00  0.00000000000E+00  0.45593999997E+02  0.45594000000E+02  0.51100000000E-03 0.  1.
         11   -1    0    0    0    0 -0.00000000000E+00 -0.00000000000E+00 -0.45593999997E+02  0.45594000000E+02  0.51100000000E-03 0. -1.
    9900012    2    1    2    0    0  0.14241536395E+02 -0.41077877528E+01  0.11444763719E+02  0.72461604306E+02  0.70000044306E+02 0.  0.
         12    1    1    2    0    0 -0.14241536395E+02  0.41077877528E+01 -0.11444763719E+02  0.18726395694E+02  0.00000000000E+00 0. -1.
         11    1    3    3    0    0  0.40311748811E+02 -0.12954294451E+01  0.66162595839E+00  0.40337984318E+02  0.51100000000E-03 0. -1.
        -11    1    3    3    0    0  0.16389285493E+01 -0.15991790533E+01 -0.18648514586E+00  0.22974414911E+01  0.51100000000E-03 0.  1.
        -12    1    3    3    0    0 -0.27709140966E+02 -0.12131792544E+01  0.10969622907E+02  0.29826178497E+02  0.00000000000E+00 0.  1.
</event>
<event>
 7    1  0.3020651E-013  0.7246145E+02  0.7816164E-02  0.1226708E+00
        -11   -1    0    0    0    0  0.00000000000E+00  0.00000000000E+00  0.45593999997E+02  0.45594000000E+02  0.51100000000E-03 0.  1.
         11   -1    0    0    0    0 -0.00000000000E+00 -0.00000000000E+00 -0.45593999997E+02  0.45594000000E+02  0.51100000000E-03 0. -1.
    9900012    2    1    2    0    0 -0.16620466801E+02 -0.22210889391E+01  0.83372914688E+01  0.72461452486E+02  0.69999846533E+02 0.  0.
         12    1    1    2    0    0  0.16620466801E+02  0.22210889391E+01 -0.83372914688E+01  0.18726547514E+02  0.00000000000E+00 0. -1.
         11    1    3    3    0    0  0.12975269823E+02 -0.18287972095E+02  0.38772265906E+01  0.22756107677E+02  0.51100000000E-03 0. -1.
        -11    1    3    3    0    0  0.74156925179E+01  0.67167061001E+01 -0.37020967293E+01  0.10668278062E+02  0.51100000000E-03 0.  1.
        -12    1    3    3    0    0 -0.37011429142E+02  0.93501770556E+01  0.81621616075E+01  0.39037066747E+02  0.00000000000E+00 0.  1.
</event>
<event>
 7    1  0.3020651E-013  0.7246156E+02  0.7816164E-02  0.1226708E+00
        -11   -1    0    0    0    0  0.00000000000E+00  0.00000000000E+00  0.45593999997E+02  0.45594000000E+02  0.51100000000E-03 0.  1.
         11   -1    0    0    0    0 -0.00000000000E+00 -0.00000000000E+00 -0.45593999997E+02  0.45594000000E+02  0.51100000000E-03 0. -1.
    9900012    2    1    2    0    0  0.93449724880E+01 -0.33449727739E+00  0.16224646272E+02  0.72461560245E+02  0.69999986909E+02 0.  0.
         12    1    1    2    0    0 -0.93449724880E+01  0.33449727739E+00 -0.16224646272E+02  0.18726439755E+02  0.00000000000E+00 0. -1.
         11    1    3    3    0    0  0.50800276328E+01  0.15268931370E+02 -0.20218485506E+02  0.25840551510E+02  0.51100000000E-03 0. -1.
        -11    1    3    3    0    0  0.45541678585E+01 -0.10760734087E+02  0.20204677310E+01  0.11858167358E+02  0.51100000000E-03 0.  1.
        -12    1    3    3    0    0 -0.28922300335E+00 -0.48426945605E+01  0.34422664047E+02  0.34762841378E+02  0.00000000000E+00 0.  1.
</event>
<event>
 7    1  0.3020651E-013  0.7246160E+02  0.7816164E-02  0.1226708E+00
        -11   -1    0    0    0    0  0.00000000000E+00  0.00000000000E+00  0.45593999997E+02  0.45594000000E+02  0.51100000000E-03 0.  1.
         11   -1    0    0    0    0 -0.00000000000E+00 -0.00000000000E+00 -0.45593999997E+02  0.45594000000E+02  0.51100000000E-03 0. -1.
    9900012    2    1    2    0    0 -0.18348040394E+02 -0.18085976586E+01  0.32796886950E+01  0.72461602329E+02  0.70000041732E+02 0.  0.
         12    1    1    2    0    0  0.18348040394E+02  0.18085976586E+01 -0.32796886950E+01  0.18726397671E+02  0.00000000000E+00 0. -1.
         11    1    3    3    0    0  0.54752671062E+01 -0.11190529472E+02  0.93068416086E+01  0.15550684896E+02  0.51100000000E-03 0. -1.
        -11    1    3    3    0    0 -0.11148051501E+02 -0.20071307800E+02 -0.91044355710E+01  0.24698728639E+02  0.51100000000E-03 0.  1.
        -12    1    3    3    0    0 -0.12675255999E+02  0.29453239613E+02  0.30772826574E+01  0.32212188794E+02  0.00000000000E+00 0.  1.
</event>
<event>
 7    1  0.3020651E-013  0.7246144E+02  0.7816164E-02  0.1226708E+00
        -11   -1    0    0    0    0  0.00000000000E+00  0.00000000000E+00  0.45593999997E+02  0.45594000000E+02  0.51100000000E-03 0.  1.
         11   -1    0    0    0    0 -0.00000000000E+00 -0.00000000000E+00 -0.45593999997E+02  0.45594000000E+02  0.51100000000E-03 0. -1.
    9900012    2    1    2    0    0 -0.12265031448E+02  0.10769942545E+02  0.91793989842E+01  0.72461440664E+02  0.69999831132E+02 0.  0.
         12    1    1    2    0    0  0.12265031448E+02 -0.10769942545E+02 -0.91793989842E+01  0.18726559336E+02  0.00000000000E+00 0. -1.
         11    1    3    3    0    0 -0.32040204625E+02  0.17245972905E+01  0.64080356045E+01  0.32720205818E+02  0.51100000000E-03 0. -1.
        -11    1    3    3    0    0 -0.86196008493E+01  0.60437095402E+00  0.50887666864E+01  0.10027877627E+02  0.51100000000E-03 0.  1.
        -12    1    3    3    0    0  0.28394774026E+02  0.84409743008E+01 -0.23174033067E+01  0.29713357219E+02  0.00000000000E+00 0.  1.
</event>
<event>
 7    1  0.3020651E-013  0.7246156E+02  0.7816164E-02  0.1226708E+00
        -11   -1    0    0    0    0  0.00000000000E+00  0.00000000000E+00  0.45593999997E+02  0.45594000000E+02  0.51100000000E-03 0.  1.
         11   -1    0    0    0    0 -0.00000000000E+00 -0.00000000000E+00 -0.45593999997E+02  0.45594000000E+02  0.51100000000E-03 0. -1.
    9900012    2    1    2    0    0 -0.45515022920E+01 -0.11862771268E+02 -0.13756376056E+02  0.72461564208E+02  0.69999992071E+02 0.  0.
         12    1    1    2    0    0  0.45515022920E+01  0.11862771268E+02  0.13756376056E+02  0.18726435792E+02  0.00000000000E+00 0. -1.
         11    1    3    3    0    0  0.51882435729E+01 -0.13479714946E+02 -0.22499180287E+02  0.26736374105E+02  0.51100000000E-03 0. -1.
        -11    1    3    3    0    0  0.99250669216E+01 -0.45257928746E+01 -0.12187763112E+02  0.16356384823E+02  0.51100000000E-03 0.  1.
        -12    1    3    3    0    0 -0.19664812787E+02  0.61427365522E+01  0.20930567343E+02  0.29368805280E+02  0.00000000000E+00 0.  1.
</event>
<event>
 7    1  0.3020651E-013  0.7246161E+02  0.7816164E-02  0.1226708E+00
        -11   -1    0    0    0    0  0.00000000000E+00  0.00000000000E+00  0.45593999997E+02  0.45594000000E+02  0.51100000000E-03 0.  1.
         11   -1    0    0    0    0 -0.00000000000E+00 -0.00000000000E+00 -0.45593999997E+02  0.45594000000E+02  0.51100000000E-03 0. -1.
    9900012    2    1    2    0    0  0.10366415080E+02  0.29712511454E+01  0.15309697922E+02  0.72461608317E+02  0.70000049532E+02 0.  0.
         12    1    1    2    0    0 -0.10366415080E+02 -0.29712511454E+01 -0.15309697922E+02  0.18726391683E+02  0.00000000000E+00 0. -1.
         11    1    3    3    0    0 -0.15613216820E+02 -0.66949580341E+01  0.23121987525E+02  0.28691833505E+02  0.51100000000E-03 0. -1.
        -11    1    3    3    0    0 -0.71241893213E+01  0.10578952540E+01  0.31361855263E+01  0.78554997149E+01  0.51100000000E-03 0.  1.
        -12    1    3    3    0    0  0.33103821221E+02  0.86083139254E+01 -0.10948475129E+02  0.35914275097E+02  0.00000000000E+00 0.  1.
</event>
<event>
 7    1  0.3020651E-013  0.7246170E+02  0.7816164E-02  0.1226708E+00
        -11   -1    0    0    0    0  0.00000000000E+00  0.00000000000E+00  0.45593999997E+02  0.45594000000E+02  0.51100000000E-03 0.  1.
         11   -1    0    0    0    0 -0.00000000000E+00 -0.00000000000E+00 -0.45593999997E+02  0.45594000000E+02  0.51100000000E-03 0. -1.
    9900012    2    1    2    0    0 -0.38072861131E+01 -0.98800689721E+01  0.15445491955E+02  0.72461697317E+02  0.70000165471E+02 0.  0.
         12    1    1    2    0    0  0.38072861131E+01  0.98800689721E+01 -0.15445491955E+02  0.18726302683E+02  0.00000000000E+00 0. -1.
         11    1    3    3    0    0  0.86688201678E+01 -0.33337584844E+01  0.21169731646E+02  0.23117524239E+02  0.51100000000E-03 0. -1.
        -11    1    3    3    0    0  0.10852692451E+01  0.18575337960E+02  0.42813610828E+01  0.19093219808E+02  0.51100000000E-03 0.  1.
         12    1    3    3    0    0 -0.13561375526E+02 -0.25121648448E+02 -0.10005600773E+02  0.30250953270E+02  0.00000000000E+00 0. -1.
</event>
<event>
 7    1  0.3020651E-013  0.7246156E+02  0.7816164E-02  0.1226708E+00
        -11   -1    0    0    0    0  0.00000000000E+00  0.00000000000E+00  0.45593999997E+02  0.45594000000E+02  0.51100000000E-03 0. -1.
         11   -1    0    0    0    0 -0.00000000000E+00 -0.00000000000E+00 -0.45593999997E+02  0.45594000000E+02  0.51100000000E-03 0.  1.
    9900012    2    1    2    0    0 -0.11891788288E+02  0.28796172048E+01 -0.14176483599E+02  0.72461561172E+02  0.69999988117E+02 0.  0.
         12    1    1    2    0    0  0.11891788288E+02 -0.28796172048E+01  0.14176483599E+02  0.18726438828E+02  0.00000000000E+00 0. -1.
         11    1    3    3    0    0  0.16154686944E+01  0.26038093160E+01  0.18164820694E+02  0.18421462297E+02  0.51100000000E-03 0. -1.
        -11    1    3    3    0    0 -0.21114611337E+02 -0.10821802652E+02 -0.60181521464E+01  0.24477671050E+02  0.51100000000E-03 0.  1.
        -12    1    3    3    0    0  0.76073543545E+01  0.11097610540E+02 -0.26323152147E+02  0.29562427825E+02  0.00000000000E+00 0.  1.
</event>
<event>
 7    1  0.3020651E-013  0.7246157E+02  0.7816164E-02  0.1226708E+00
        -11   -1    0    0    0    0  0.00000000000E+00  0.00000000000E+00  0.45593999997E+02  0.45594000000E+02  0.51100000000E-03 0. -1.
         11   -1    0    0    0    0 -0.00000000000E+00 -0.00000000000E+00 -0.45593999997E+02  0.45594000000E+02  0.51100000000E-03 0.  1.
    9900012    2    1    2    0    0  0.54040912613E+01 -0.80643758696E+01 -0.16013765158E+02  0.72461573885E+02  0.70000004677E+02 0.  0.
         12    1    1    2    0    0 -0.54040912613E+01  0.80643758696E+01  0.16013765158E+02  0.18726426115E+02  0.00000000000E+00 0. -1.
         11    1    3    3    0    0  0.24444258149E+01  0.11385667377E+02  0.13413666481E+02  0.17763307347E+02  0.51100000000E-03 0. -1.
        -11    1    3    3    0    0 -0.10764959902E+02 -0.13426849302E+02  0.43449095472E+01  0.17749447403E+02  0.51100000000E-03 0.  1.
        -12    1    3    3    0    0  0.13724625348E+02 -0.60231939451E+01 -0.33772341186E+02  0.36948819135E+02  0.00000000000E+00 0.  1.
</event>
<event>
 7    1  0.3020651E-013  0.7246168E+02  0.7816164E-02  0.1226708E+00
        -11   -1    0    0    0    0  0.00000000000E+00  0.00000000000E+00  0.45593999997E+02  0.45594000000E+02  0.51100000000E-03 0. -1.
         11   -1    0    0    0    0 -0.00000000000E+00 -0.00000000000E+00 -0.45593999997E+02  0.45594000000E+02  0.51100000000E-03 0.  1.
    9900012    2    1    2    0    0  0.82404840336E+00  0.12911541358E+02 -0.13538394694E+02  0.72461679301E+02  0.70000142002E+02 0.  0.
         12    1    1    2    0    0 -0.82404840336E+00 -0.12911541358E+02  0.13538394694E+02  0.18726320699E+02  0.00000000000E+00 0. -1.
         11    1    3    3    0    0  0.47768036956E+01  0.14457811150E+02  0.22521182977E+02  0.27185471115E+02  0.51100000000E-03 0. -1.
        -11    1    3    3    0    0 -0.74269181765E+00  0.91233964334E-02  0.44995938518E+01  0.45604845647E+01  0.51100000000E-03 0.  1.
        -12    1    3    3    0    0 -0.32100634746E+01 -0.15553931883E+01 -0.40559171522E+02  0.40715723622E+02  0.00000000000E+00 0.  1.
</event>
<event>
 7    1  0.3020651E-013  0.7246193E+02  0.7816164E-02  0.1226707E+00
        -11   -1    0    0    0    0  0.00000000000E+00  0.00000000000E+00  0.45593999997E+02  0.45594000000E+02  0.51100000000E-03 0. -1.
         11   -1    0    0    0    0 -0.00000000000E+00 -0.00000000000E+00 -0.45593999997E+02  0.45594000000E+02  0.51100000000E-03 0.  1.
    9900012    2    1    2    0    0  0.16427458743E+02 -0.65883330647E+01 -0.61153955917E+01  0.72461932699E+02  0.70000472098E+02 0.  0.
         12    1    1    2    0    0 -0.16427458743E+02  0.65883330647E+01  0.61153955917E+01  0.18726067301E+02  0.00000000000E+00 0. -1.
         11    1    3    3    0    0  0.92112341874E+01 -0.16130932510E+02  0.87964113546E+01  0.20553118301E+02  0.51100000000E-03 0. -1.
        -11    1    3    3    0    0  0.23998161032E+02  0.97195064215E+01  0.44655168389E+01  0.26273967704E+02  0.51100000000E-03 0.  1.
        -12    1    3    3    0    0 -0.16781936477E+02 -0.17690697631E+00 -0.19377323785E+02  0.25634846695E+02  0.00000000000E+00 0.  1.
</event>
<event>
 7    1  0.3020651E-013  0.7246176E+02  0.7816164E-02  0.1226707E+00
        -11   -1    0    0    0    0  0.00000000000E+00  0.00000000000E+00  0.45593999997E+02  0.45594000000E+02  0.51100000000E-03 0.  1.
         11   -1    0    0    0    0 -0.00000000000E+00 -0.00000000000E+00 -0.45593999997E+02  0.45594000000E+02  0.51100000000E-03 0. -1.
    9900012    2    1    2    0    0 -0.42606729889E+00  0.81101343118E+00  0.18703813911E+02  0.72461763567E+02  0.70000251773E+02 0.  0.
         12    1    1    2    0    0  0.42606729889E+00 -0.81101343118E+00 -0.18703813911E+02  0.18726236433E+02  0.00000000000E+00 0. -1.
         11    1    3    3    0    0  0.13335054337E+02  0.71360403579E+01 -0.73974861840E+01  0.16836553931E+02  0.51100000000E-03 0. -1.
        -11    1    3    3    0    0 -0.21952815127E+02  0.82077718030E+01 -0.13789861464E+01  0.23477546998E+02  0.51100000000E-03 0.  1.
        -12    1    3    3    0    0  0.81916934916E+01 -0.14532798730E+02  0.27480286242E+02  0.32147662638E+02  0.00000000000E+00 0.  1.
</event>
<event>
 7    1  0.3020651E-013  0.7246150E+02  0.7816164E-02  0.1226708E+00
        -11   -1    0    0    0    0  0.00000000000E+00  0.00000000000E+00  0.45593999997E+02  0.45594000000E+02  0.51100000000E-03 0.  1.
         11   -1    0    0    0    0 -0.00000000000E+00 -0.00000000000E+00 -0.45593999997E+02  0.45594000000E+02  0.51100000000E-03 0. -1.
    9900012    2    1    2    0    0  0.71377346309E+01 -0.15527585161E+02 -0.76569226427E+01  0.72461504841E+02  0.69999914735E+02 0.  0.
         12    1    1    2    0    0 -0.71377346309E+01  0.15527585161E+02  0.76569226427E+01  0.18726495159E+02  0.00000000000E+00 0. -1.
         11    1    3    3    0    0 -0.29046184572E+01  0.34420087997E+01  0.10154405716E+02  0.11108383711E+02  0.51100000000E-03 0. -1.
        -11    1    3    3    0    0  0.23158452717E+02 -0.25386905295E+02  0.45331525475E+01  0.34660616916E+02  0.51100000000E-03 0.  1.
         12    1    3    3    0    0 -0.13116099629E+02  0.64173113341E+01 -0.22344480907E+02  0.26692504214E+02  0.00000000000E+00 0. -1.
</event>
<event>
 7    1  0.3020651E-013  0.7246156E+02  0.7816164E-02  0.1226708E+00
        -11   -1    0    0    0    0  0.00000000000E+00  0.00000000000E+00  0.45593999997E+02  0.45594000000E+02  0.51100000000E-03 0. -1.
         11   -1    0    0    0    0 -0.00000000000E+00 -0.00000000000E+00 -0.45593999997E+02  0.45594000000E+02  0.51100000000E-03 0.  1.
    9900012    2    1    2    0    0 -0.17452263209E+01 -0.94727994065E+01 -0.16059254024E+02  0.72461564586E+02  0.69999992564E+02 0.  0.
         12    1    1    2    0    0  0.17452263209E+01  0.94727994065E+01  0.16059254024E+02  0.18726435414E+02  0.00000000000E+00 0. -1.
         11    1    3    3    0    0 -0.48937138822E+01  0.18052803530E+02 -0.74769659150E+01  0.20143415064E+02  0.51100000000E-03 0. -1.
        -11    1    3    3    0    0 -0.58567556182E+01 -0.27042228673E+02 -0.22548485190E+02  0.35693387379E+02  0.51100000000E-03 0.  1.
         12    1    3    3    0    0  0.90052431795E+01 -0.48337426415E+00  0.13966197082E+02  0.16624762143E+02  0.00000000000E+00 0. -1.
</event>
<event>
 7    1  0.3020651E-013  0.7246157E+02  0.7816164E-02  0.1226708E+00
        -11   -1    0    0    0    0  0.00000000000E+00  0.00000000000E+00  0.45593999997E+02  0.45594000000E+02  0.51100000000E-03 0. -1.
         11   -1    0    0    0    0 -0.00000000000E+00 -0.00000000000E+00 -0.45593999997E+02  0.45594000000E+02  0.51100000000E-03 0.  1.
    9900012    2    1    2    0    0  0.18151424278E+02  0.32663792903E+01 -0.32458968656E+01  0.72461567252E+02  0.69999996037E+02 0.  0.
         12    1    1    2    0    0 -0.18151424278E+02 -0.32663792903E+01  0.32458968656E+01  0.18726432748E+02  0.00000000000E+00 0. -1.
         11    1    3    3    0    0  0.32731770906E+02 -0.14030326966E+02 -0.89598728080E+01  0.36721903850E+02  0.51100000000E-03 0. -1.
        -11    1    3    3    0    0 -0.97809489034E+01 -0.18167779026E+01  0.11495313565E+02  0.15202298432E+02  0.51100000000E-03 0.  1.
        -12    1    3    3    0    0 -0.47993977242E+01  0.19113484159E+02 -0.57813376227E+01  0.20537364970E+02  0.00000000000E+00 0.  1.
</event>
<event>
 7    1  0.3020651E-013  0.7246162E+02  0.7816164E-02  0.1226708E+00
        -11   -1    0    0    0    0  0.00000000000E+00  0.00000000000E+00  0.45593999997E+02  0.45594000000E+02  0.51100000000E-03 0.  1.
         11   -1    0    0    0    0 -0.00000000000E+00 -0.00000000000E+00 -0.45593999997E+02  0.45594000000E+02  0.51100000000E-03 0. -1.
    9900012    2    1    2    0    0 -0.18588380229E+02 -0.17389631064E+01 -0.14579102298E+01  0.72461618223E+02  0.70000062436E+02 0.  0.
         12    1    1    2    0    0  0.18588380229E+02  0.17389631064E+01  0.14579102298E+01  0.18726381777E+02  0.00000000000E+00 0. -1.
         11    1    3    3    0    0 -0.37074915782E+01  0.94396983992E+01 -0.10059325021E+02  0.14284376774E+02  0.51100000000E-03 0. -1.
        -11    1    3    3    0    0 -0.13409917025E+02  0.19344163910E+02 -0.60285048998E+01  0.24297436564E+02  0.51100000000E-03 0.  1.
         12    1    3    3    0    0 -0.14709716261E+01 -0.30522825416E+02  0.14629919691E+02  0.33879804885E+02  0.00000000000E+00 0. -1.
</event>
<event>
 7    1  0.3020651E-013  0.7246217E+02  0.7816164E-02  0.1226706E+00
        -11   -1    0    0    0    0  0.00000000000E+00  0.00000000000E+00  0.45593999997E+02  0.45594000000E+02  0.51100000000E-03 0. -1.
         11   -1    0    0    0    0 -0.00000000000E+00 -0.00000000000E+00 -0.45593999997E+02  0.45594000000E+02  0.51100000000E-03 0.  1.
    9900012    2    1    2    0    0  0.12278985186E+02  0.11603461417E+02 -0.80772991291E+01  0.72462174110E+02  0.70000786578E+02 0.  0.
         12    1    1    2    0    0 -0.12278985186E+02 -0.11603461417E+02  0.80772991291E+01  0.18725825890E+02  0.00000000000E+00 0. -1.
         11    1    3    3    0    0  0.25750890205E+01  0.49482570255E+01  0.15460110668E+02  0.16435673189E+02  0.51100000000E-03 0. -1.
        -11    1    3    3    0    0 -0.16661755922E+02  0.13816449379E+02 -0.30100217693E+01  0.21853343340E+02  0.51100000000E-03 0.  1.
        -12    1    3    3    0    0  0.26365652087E+02 -0.71612449879E+01 -0.20527388028E+02  0.34173157580E+02  0.00000000000E+00 0.  1.
</event>
<event>
 7    1  0.3020651E-013  0.7246159E+02  0.7816164E-02  0.1226708E+00
        -11   -1    0    0    0    0  0.00000000000E+00  0.00000000000E+00  0.45593999997E+02  0.45594000000E+02  0.51100000000E-03 0.  1.
         11   -1    0    0    0    0 -0.00000000000E+00 -0.00000000000E+00 -0.45593999997E+02  0.45594000000E+02  0.51100000000E-03 0. -1.
    9900012    2    1    2    0    0 -0.16377585354E+02 -0.85135671354E+01  0.31579209272E+01  0.72461585715E+02  0.70000020088E+02 0.  0.
         12    1    1    2    0    0  0.16377585354E+02  0.85135671354E+01 -0.31579209272E+01  0.18726414285E+02  0.00000000000E+00 0. -1.
         11    1    3    3    0    0 -0.31999276365E+02 -0.78787849748E+01 -0.17817945702E+02  0.37463423894E+02  0.51100000000E-03 0. -1.
        -11    1    3    3    0    0 -0.52404790290E+01 -0.35175142372E+01  0.19221733672E+01  0.65977479171E+01  0.51100000000E-03 0.  1.
        -12    1    3    3    0    0  0.20862170040E+02  0.28827320765E+01  0.19053693262E+02  0.28400413904E+02  0.00000000000E+00 0.  1.
</event>
<event>
 7    1  0.3020651E-013  0.7246158E+02  0.7816164E-02  0.1226708E+00
        -11   -1    0    0    0    0  0.00000000000E+00  0.00000000000E+00  0.45593999997E+02  0.45594000000E+02  0.51100000000E-03 0. -1.
         11   -1    0    0    0    0 -0.00000000000E+00 -0.00000000000E+00 -0.45593999997E+02  0.45594000000E+02  0.51100000000E-03 0.  1.
    9900012    2    1    2    0    0  0.58951974591E+01 -0.13110738408E+02  0.12001420189E+02  0.72461577458E+02  0.70000009331E+02 0.  0.
         12    1    1    2    0    0 -0.58951974591E+01  0.13110738408E+02 -0.12001420189E+02  0.18726422542E+02  0.00000000000E+00 0. -1.
         11    1    3    3    0    0 -0.88619430498E+01  0.12420142179E+02 -0.34242844475E+00  0.15261429287E+02  0.51100000000E-03 0. -1.
        -11    1    3    3    0    0 -0.45414065611E+01 -0.24810853970E+02 -0.10470152150E+02  0.27309832196E+02  0.51100000000E-03 0.  1.
         12    1    3    3    0    0  0.19298547070E+02 -0.72002661756E+00  0.22814000784E+02  0.29890315975E+02  0.00000000000E+00 0. -1.
</event>
<event>
 7    1  0.3020651E-013  0.7246154E+02  0.7816164E-02  0.1226708E+00
        -11   -1    0    0    0    0  0.00000000000E+00  0.00000000000E+00  0.45593999997E+02  0.45594000000E+02  0.51100000000E-03 0.  1.
         11   -1    0    0    0    0 -0.00000000000E+00 -0.00000000000E+00 -0.45593999997E+02  0.45594000000E+02  0.51100000000E-03 0. -1.
    9900012    2    1    2    0    0  0.17064114728E+02 -0.44002406105E+00  0.77008152385E+01  0.72461543102E+02  0.69999964576E+02 0.  0.
         12    1    1    2    0    0 -0.17064114728E+02  0.44002406105E+00 -0.77008152385E+01  0.18726456898E+02  0.00000000000E+00 0. -1.
         11    1    3    3    0    0 -0.90931445525E+01 -0.14017560413E+02  0.11743037203E+02  0.20422443556E+02  0.51100000000E-03 0. -1.
        -11    1    3    3    0    0  0.72465779821E+01 -0.14087120065E+02  0.61796484361E+01  0.17004349421E+02  0.51100000000E-03 0.  1.
        -12    1    3    3    0    0  0.18910681299E+02  0.27664656417E+02 -0.10221870400E+02  0.35034750125E+02  0.00000000000E+00 0.  1.
</event>
<event>
 7    1  0.3020651E-013  0.7246196E+02  0.7816164E-02  0.1226707E+00
        -11   -1    0    0    0    0  0.00000000000E+00  0.00000000000E+00  0.45593999997E+02  0.45594000000E+02  0.51100000000E-03 0. -1.
         11   -1    0    0    0    0 -0.00000000000E+00 -0.00000000000E+00 -0.45593999997E+02  0.45594000000E+02  0.51100000000E-03 0.  1.
    9900012    2    1    2    0    0  0.13998528639E+02 -0.88196872291E+01  0.87703322322E+01  0.72461964265E+02  0.70000513218E+02 0.  0.
         12    1    1    2    0    0 -0.13998528639E+02  0.88196872291E+01 -0.87703322322E+01  0.18726035735E+02  0.00000000000E+00 0. -1.
         11    1    3    3    0    0  0.15301819151E+02  0.21822307610E+02 -0.82753511853E+01  0.27907708904E+02  0.51100000000E-03 0. -1.
        -11    1    3    3    0    0  0.21556275977E+01 -0.54954499929E+01  0.18211347334E+02  0.19144186401E+02  0.51100000000E-03 0.  1.
        -12    1    3    3    0    0 -0.34589181094E+01 -0.25146544846E+02 -0.11656639166E+01  0.25410068960E+02  0.00000000000E+00 0.  1.
</event>
<event>
 7    1  0.3020651E-013  0.7246155E+02  0.7816164E-02  0.1226708E+00
        -11   -1    0    0    0    0  0.00000000000E+00  0.00000000000E+00  0.45593999997E+02  0.45594000000E+02  0.51100000000E-03 0. -1.
         11   -1    0    0    0    0 -0.00000000000E+00 -0.00000000000E+00 -0.45593999997E+02  0.45594000000E+02  0.51100000000E-03 0.  1.
    9900012    2    1    2    0    0 -0.10109762508E+02 -0.13036583966E+02 -0.88611496458E+01  0.72461553660E+02  0.69999978331E+02 0.  0.
         12    1    1    2    0    0  0.10109762508E+02  0.13036583966E+02  0.88611496458E+01  0.18726446340E+02  0.00000000000E+00 0. -1.
         11    1    3    3    0    0  0.57835709716E+01 -0.41477394124E+01 -0.44839678319E+01  0.84118608640E+01  0.51100000000E-03 0. -1.
        -11    1    3    3    0    0 -0.32586679957E+02 -0.10477942952E+02 -0.21227256850E+02  0.40277480467E+02  0.51100000000E-03 0.  1.
         12    1    3    3    0    0  0.16693346477E+02  0.15890983985E+01  0.16850075036E+02  0.23772212329E+02  0.00000000000E+00 0. -1.
</event>
<event>
 7    1  0.3020651E-013  0.7246157E+02  0.7816164E-02  0.1226708E+00
        -11   -1    0    0    0    0  0.00000000000E+00  0.00000000000E+00  0.45593999997E+02  0.45594000000E+02  0.51100000000E-03 0.  1.
         11   -1    0    0    0    0 -0.00000000000E+00 -0.00000000000E+00 -0.45593999997E+02  0.45594000000E+02  0.51100000000E-03 0. -1.
    9900012    2    1    2    0    0 -0.18330964976E+02  0.10472298767E-01  0.38281624942E+01  0.72461569088E+02  0.69999998428E+02 0.  0.
         12    1    1    2    0    0  0.18330964976E+02 -0.10472298767E-01 -0.38281624942E+01  0.18726430912E+02  0.00000000000E+00 0. -1.
         11    1    3    3    0    0  0.70520257392E+01  0.64765544974E+01  0.11699271445E+02  0.15117862871E+02  0.51100000000E-03 0. -1.
        -11    1    3    3    0    0  0.12867993142E+02 -0.12860964470E+00  0.83226216826E+01  0.15325397870E+02  0.51100000000E-03 0.  1.
         12    1    3    3    0    0 -0.38250983858E+02 -0.63374725539E+01 -0.16193730633E+02  0.42018308346E+02  0.00000000000E+00 0. -1.
</event>
<event>
 7    1  0.3020651E-013  0.7246159E+02  0.7816164E-02  0.1226708E+00
        -11   -1    0    0    0    0  0.00000000000E+00  0.00000000000E+00  0.45593999997E+02  0.45594000000E+02  0.51100000000E-03 0. -1.
         11   -1    0    0    0    0 -0.00000000000E+00 -0.00000000000E+00 -0.45593999997E+02  0.45594000000E+02  0.51100000000E-03 0.  1.
    9900012    2    1    2    0    0 -0.11942192367E+02 -0.18133895835E+01 -0.14309929892E+02  0.72461589937E+02  0.70000025589E+02 0.  0.
         12    1    1    2    0    0  0.11942192367E+02  0.18133895835E+01  0.14309929892E+02  0.18726410063E+02  0.00000000000E+00 0. -1.
         11    1    3    3    0    0 -0.92346625677E+01 -0.21025275143E+01  0.14358538007E+02  0.17200791512E+02  0.51100000000E-03 0. -1.
        -11    1    3    3    0    0 -0.15137423942E+02  0.81055038853E+01  0.55332430205E+01  0.18040442772E+02  0.51100000000E-03 0.  1.
        -12    1    3    3    0    0  0.12429894143E+02 -0.78163659544E+01 -0.34201710919E+02  0.37220355653E+02  0.00000000000E+00 0.  1.
</event>
<event>
 7    1  0.3020651E-013  0.7246155E+02  0.7816164E-02  0.1226708E+00
        -11   -1    0    0    0    0  0.00000000000E+00  0.00000000000E+00  0.45593999997E+02  0.45594000000E+02  0.51100000000E-03 0.  1.
         11   -1    0    0    0    0 -0.00000000000E+00 -0.00000000000E+00 -0.45593999997E+02  0.45594000000E+02  0.51100000000E-03 0. -1.
    9900012    2    1    2    0    0  0.17218770234E+02  0.45918518378E+00  0.73473164964E+01  0.72461549212E+02  0.69999972537E+02 0.  0.
         12    1    1    2    0    0 -0.17218770234E+02 -0.45918518378E+00 -0.73473164964E+01  0.18726450788E+02  0.00000000000E+00 0. -1.
         11    1    3    3    0    0  0.67397073527E+00 -0.53059385278E+00 -0.44966048537E+01  0.45776873921E+01  0.51100000000E-03 0. -1.
        -11    1    3    3    0    0 -0.10059293555E+02  0.10853860293E+02 -0.20227375818E+02  0.25062769257E+02  0.51100000000E-03 0.  1.
         12    1    3    3    0    0  0.26604093054E+02 -0.98640812561E+01  0.32071297168E+02  0.42821092563E+02  0.00000000000E+00 0. -1.
</event>
<event>
 7    1  0.3020651E-013  0.7246166E+02  0.7816164E-02  0.1226708E+00
        -11   -1    0    0    0    0  0.00000000000E+00  0.00000000000E+00  0.45593999997E+02  0.45594000000E+02  0.51100000000E-03 0.  1.
         11   -1    0    0    0    0 -0.00000000000E+00 -0.00000000000E+00 -0.45593999997E+02  0.45594000000E+02  0.51100000000E-03 0. -1.
    9900012    2    1    2    0    0 -0.14873811090E+01  0.68591383669E+01  0.17361323854E+02  0.72461664329E+02  0.70000122498E+02 0.  0.
         12    1    1    2    0    0  0.14873811090E+01 -0.68591383669E+01 -0.17361323854E+02  0.18726335671E+02  0.00000000000E+00 0. -1.
         11    1    3    3    0    0 -0.94600558142E+01  0.98054632129E+01 -0.10792970115E+02  0.17381828701E+02  0.51100000000E-03 0. -1.
        -11    1    3    3    0    0 -0.24562669478E+01  0.40179222566E+01 -0.12064635562E+02  0.12951153542E+02  0.51100000000E-03 0.  1.
        -12    1    3    3    0    0  0.10428941653E+02 -0.69642471026E+01  0.40218929531E+02  0.42128682086E+02  0.00000000000E+00 0.  1.
</event>
<event>
 7    1  0.3020651E-013  0.7246154E+02  0.7816164E-02  0.1226708E+00
        -11   -1    0    0    0    0  0.00000000000E+00  0.00000000000E+00  0.45593999997E+02  0.45594000000E+02  0.51100000000E-03 0.  1.
         11   -1    0    0    0    0 -0.00000000000E+00 -0.00000000000E+00 -0.45593999997E+02  0.45594000000E+02  0.51100000000E-03 0. -1.
    9900012    2    1    2    0    0 -0.23765129711E+01 -0.69616422425E+01  0.17221149875E+02  0.72461540654E+02  0.69999961388E+02 0.  0.
         12    1    1    2    0    0  0.23765129711E+01  0.69616422425E+01 -0.17221149875E+02  0.18726459346E+02  0.00000000000E+00 0. -1.
         11    1    3    3    0    0  0.67562886262E+01  0.49924916464E+01  0.11584780484E+02  0.14310120474E+02  0.51100000000E-03 0. -1.
        -11    1    3    3    0    0  0.38011988139E+01  0.21447996181E+02 -0.61611432292E+00  0.21790944214E+02  0.51100000000E-03 0.  1.
         12    1    3    3    0    0 -0.12934000411E+02 -0.33402130070E+02  0.62524837141E+01  0.36360475966E+02  0.00000000000E+00 0. -1.
</event>
<event>
 7    1  0.3020651E-013  0.7246152E+02  0.7816164E-02  0.1226708E+00
        -11   -1    0    0    0    0  0.00000000000E+00  0.00000000000E+00  0.45593999997E+02  0.45594000000E+02  0.51100000000E-03 0. -1.
         11   -1    0    0    0    0 -0.00000000000E+00 -0.00000000000E+00 -0.45593999997E+02  0.45594000000E+02  0.51100000000E-03 0.  1.
    9900012    2    1    2    0    0  0.11057242998E+02 -0.10237894391E+02 -0.11117723648E+02  0.72461524534E+02  0.69999940388E+02 0.  0.
         12    1    1    2    0    0 -0.11057242998E+02  0.10237894391E+02  0.11117723648E+02  0.18726475466E+02  0.00000000000E+00 0. -1.
         11    1    3    3    0    0  0.37162518321E+01  0.81754664314E+01 -0.10648748136E+02  0.13929989812E+02  0.51100000000E-03 0. -1.
        -11    1    3    3    0    0 -0.46315947208E+01  0.70042474986E+01 -0.21731048054E+02  0.23296986983E+02  0.51100000000E-03 0.  1.
         12    1    3    3    0    0  0.11972585887E+02 -0.25417608321E+02  0.21262072542E+02  0.35234547739E+02  0.00000000000E+00 0. -1.
</event>
<event>
 7    1  0.3020651E-013  0.7246150E+02  0.7816164E-02  0.1226708E+00
        -11   -1    0    0    0    0  0.00000000000E+00  0.00000000000E+00  0.45593999997E+02  0.45594000000E+02  0.51100000000E-03 0.  1.
         11   -1    0    0    0    0 -0.00000000000E+00 -0.00000000000E+00 -0.45593999997E+02  0.45594000000E+02  0.51100000000E-03 0. -1.
    9900012    2    1    2    0    0  0.85317218063E+01 -0.13121531104E+02  0.10281876094E+02  0.72461499219E+02  0.69999907411E+02 0.  0.
         12    1    1    2    0    0 -0.85317218063E+01  0.13121531104E+02 -0.10281876094E+02  0.18726500781E+02  0.00000000000E+00 0. -1.
         11    1    3    3    0    0  0.53729861295E+01  0.64689227049E+01 -0.22352288520E+02  0.23881807789E+02  0.51100000000E-03 0. -1.
        -11    1    3    3    0    0 -0.13028148682E+01  0.41433303299E+01 -0.31808153818E+01  0.53835025362E+01  0.51100000000E-03 0.  1.
        -12    1    3    3    0    0  0.44615505450E+01 -0.23733784139E+02  0.35814979996E+02  0.43196188894E+02  0.00000000000E+00 0.  1.
</event>
<event>
 7    1  0.3020651E-013  0.7246156E+02  0.7816164E-02  0.1226708E+00
        -11   -1    0    0    0    0  0.00000000000E+00  0.00000000000E+00  0.45593999997E+02  0.45594000000E+02  0.51100000000E-03 0. -1.
         11   -1    0    0    0    0 -0.00000000000E+00 -0.00000000000E+00 -0.45593999997E+02  0.45594000000E+02  0.51100000000E-03 0.  1.
    9900012    2    1    2    0    0  0.14168467383E+02 -0.85412254014E+01 -0.87739158392E+01  0.72461558840E+02  0.69999985079E+02 0.  0.
         12    1    1    2    0    0 -0.14168467383E+02  0.85412254014E+01  0.87739158392E+01  0.18726441160E+02  0.00000000000E+00 0. -1.
         11    1    3    3    0    0 -0.93016775312E+01 -0.85466250227E+01  0.50058023027E+01  0.13587643693E+02  0.51100000000E-03 0. -1.
        -11    1    3    3    0    0  0.37851891512E+02  0.40886251368E+01 -0.19611816435E+02  0.42826462505E+02  0.51100000000E-03 0.  1.
         12    1    3    3    0    0 -0.14381746598E+02 -0.40832255154E+01  0.58320982930E+01  0.16047452642E+02  0.00000000000E+00 0. -1.
</event>
<event>
 7    1  0.3020651E-013  0.7246158E+02  0.7816164E-02  0.1226708E+00
        -11   -1    0    0    0    0  0.00000000000E+00  0.00000000000E+00  0.45593999997E+02  0.45594000000E+02  0.51100000000E-03 0. -1.
         11   -1    0    0    0    0 -0.00000000000E+00 -0.00000000000E+00 -0.45593999997E+02  0.45594000000E+02  0.51100000000E-03 0.  1.
    9900012    2    1    2    0    0  0.47311486519E+01  0.13637553335E+02 -0.11929464236E+02  0.72461581616E+02  0.70000014748E+02 0.  0.
         12    1    1    2    0    0 -0.47311486519E+01 -0.13637553335E+02  0.11929464236E+02  0.18726418384E+02  0.00000000000E+00 0. -1.
         11    1    3    3    0    0 -0.12788419003E+02  0.20008455298E+01 -0.14601238696E+02  0.19512642444E+02  0.51100000000E-03 0. -1.
        -11    1    3    3    0    0  0.39653387226E+01  0.11784775720E+02 -0.21729490874E+02  0.25035487291E+02  0.51100000000E-03 0.  1.
         12    1    3    3    0    0  0.13554228932E+02 -0.14806791506E+00  0.24401265334E+02  0.27913451881E+02  0.00000000000E+00 0. -1.
</event>
<event>
 7    1  0.3020651E-013  0.7246170E+02  0.7816164E-02  0.1226708E+00
        -11   -1    0    0    0    0  0.00000000000E+00  0.00000000000E+00  0.45593999997E+02  0.45594000000E+02  0.51100000000E-03 0. -1.
         11   -1    0    0    0    0 -0.00000000000E+00 -0.00000000000E+00 -0.45593999997E+02  0.45594000000E+02  0.51100000000E-03 0.  1.
    9900012    2    1    2    0    0 -0.14116187572E+02  0.33494633812E+01 -0.11840136490E+02  0.72461695276E+02  0.70000162812E+02 0.  0.
         12    1    1    2    0    0  0.14116187572E+02 -0.33494633812E+01  0.11840136490E+02  0.18726304724E+02  0.00000000000E+00 0. -1.
         11    1    3    3    0    0  0.43441639550E+01 -0.71798449153E+01 -0.79397727434E+01  0.11552572222E+02  0.51100000000E-03 0.  1.
        -11    1    3    3    0    0 -0.22759757203E+02  0.25496950548E+02 -0.19096329368E+02  0.39150617247E+02  0.51100000000E-03 0. -1.
         12    1    3    3    0    0  0.42994056765E+01 -0.14967642252E+02  0.15195965622E+02  0.21758505806E+02  0.00000000000E+00 0. -1.
</event>
<event>
 7    1  0.3020651E-013  0.7246156E+02  0.7816164E-02  0.1226708E+00
        -11   -1    0    0    0    0  0.00000000000E+00  0.00000000000E+00  0.45593999997E+02  0.45594000000E+02  0.51100000000E-03 0. -1.
         11   -1    0    0    0    0 -0.00000000000E+00 -0.00000000000E+00 -0.45593999997E+02  0.45594000000E+02  0.51100000000E-03 0.  1.
    9900012    2    1    2    0    0 -0.17486008584E+02  0.64615920010E+01 -0.17795291546E+01  0.72461564370E+02  0.69999992283E+02 0.  0.
         12    1    1    2    0    0  0.17486008584E+02 -0.64615920010E+01  0.17795291546E+01  0.18726435630E+02  0.00000000000E+00 0. -1.
         11    1    3    3    0    0 -0.54532851834E+01  0.71090992694E+01 -0.58645610300E+01  0.10708440038E+02  0.51100000000E-03 0. -1.
        -11    1    3    3    0    0 -0.45492851667E+01  0.25560755330E+02 -0.13554073684E+02  0.29287559172E+02  0.51100000000E-03 0.  1.
         12    1    3    3    0    0 -0.74834382340E+01 -0.26208262598E+02  0.17639105560E+02  0.32465565160E+02  0.00000000000E+00 0. -1.
</event>
<event>
 7    1  0.3020651E-013  0.7246159E+02  0.7816164E-02  0.1226708E+00
        -11   -1    0    0    0    0  0.00000000000E+00  0.00000000000E+00  0.45593999997E+02  0.45594000000E+02  0.51100000000E-03 0.  1.
         11   -1    0    0    0    0 -0.00000000000E+00 -0.00000000000E+00 -0.45593999997E+02  0.45594000000E+02  0.51100000000E-03 0. -1.
    9900012    2    1    2    0    0  0.97171869567E+01  0.14933386997E+02 -0.57661782466E+01  0.72461586005E+02  0.70000020466E+02 0.  0.
         12    1    1    2    0    0 -0.97171869567E+01 -0.14933386997E+02  0.57661782466E+01  0.18726413995E+02  0.00000000000E+00 0. -1.
         11    1    3    3    0    0  0.11284291360E+02  0.30115261514E+01 -0.35848094322E+01  0.12217011917E+02  0.51100000000E-03 0. -1.
        -11    1    3    3    0    0  0.19839994978E+02 -0.11320345638E+02 -0.13672327213E+02  0.26621573165E+02  0.51100000000E-03 0.  1.
        -12    1    3    3    0    0 -0.21407099381E+02  0.23242206484E+02  0.11490958399E+02  0.33623000923E+02  0.00000000000E+00 0.  1.
</event>
<event>
 7    1  0.3020651E-013  0.7246156E+02  0.7816164E-02  0.1226708E+00
        -11   -1    0    0    0    0  0.00000000000E+00  0.00000000000E+00  0.45593999997E+02  0.45594000000E+02  0.51100000000E-03 0.  1.
         11   -1    0    0    0    0 -0.00000000000E+00 -0.00000000000E+00 -0.45593999997E+02  0.45594000000E+02  0.51100000000E-03 0. -1.
    9900012    2    1    2    0    0  0.56342370886E+01 -0.68893375811E+00  0.17845456371E+02  0.72461559591E+02  0.69999986057E+02 0.  0.
         12    1    1    2    0    0 -0.56342370886E+01  0.68893375811E+00 -0.17845456371E+02  0.18726440409E+02  0.00000000000E+00 0. -1.
         11    1    3    3    0    0 -0.67429624530E+01 -0.13748583370E+02  0.86152245123E+00  0.15337317514E+02  0.51100000000E-03 0. -1.
        -11    1    3    3    0    0 -0.15721802762E+02  0.77460346710E+00  0.20946904066E+02  0.26202058752E+02  0.51100000000E-03 0.  1.
         12    1    3    3    0    0  0.28099002303E+02  0.12285046145E+02 -0.39629701463E+01  0.30922183325E+02  0.00000000000E+00 0. -1.
</event>
<event>
 7    1  0.3020651E-013  0.7246155E+02  0.7816164E-02  0.1226708E+00
        -11   -1    0    0    0    0  0.00000000000E+00  0.00000000000E+00  0.45593999997E+02  0.45594000000E+02  0.51100000000E-03 0. -1.
         11   -1    0    0    0    0 -0.00000000000E+00 -0.00000000000E+00 -0.45593999997E+02  0.45594000000E+02  0.51100000000E-03 0.  1.
    9900012    2    1    2    0    0  0.15400164045E+02  0.99666697209E+01  0.37656668227E+01  0.72461553339E+02  0.69999977912E+02 0.  0.
         12    1    1    2    0    0 -0.15400164045E+02 -0.99666697209E+01 -0.37656668227E+01  0.18726446661E+02  0.00000000000E+00 0. -1.
         11    1    3    3    0    0  0.29763767357E+02  0.15208751506E+02  0.97348654342E+00  0.33438535344E+02  0.51100000000E-03 0.  1.
        -11    1    3    3    0    0 -0.77899063991E+01 -0.13679975304E+02  0.15717666415E+02  0.22245660337E+02  0.51100000000E-03 0. -1.
        -12    1    3    3    0    0 -0.65736969130E+01  0.84378935194E+01 -0.12925486135E+02  0.16777357658E+02  0.00000000000E+00 0.  1.
</event>
<event>
 7    1  0.3020651E-013  0.7246110E+02  0.7816164E-02  0.1226709E+00
        -11   -1    0    0    0    0  0.00000000000E+00  0.00000000000E+00  0.45593999997E+02  0.45594000000E+02  0.51100000000E-03 0.  1.
         11   -1    0    0    0    0 -0.00000000000E+00 -0.00000000000E+00 -0.45593999997E+02  0.45594000000E+02  0.51100000000E-03 0. -1.
    9900012    2    1    2    0    0 -0.58813505094E+01 -0.15573635387E+02  0.85772087544E+01  0.72461096546E+02  0.69999382852E+02 0.  0.
         12    1    1    2    0    0  0.58813505094E+01  0.15573635387E+02 -0.85772087544E+01  0.18726903454E+02  0.00000000000E+00 0. -1.
         11    1    3    3    0    0  0.95662938552E+01 -0.52055047442E+00  0.24216005949E+02  0.26042271316E+02  0.51100000000E-03 0. -1.
        -11    1    3    3    0    0 -0.21160783115E+02 -0.70747703993E+01  0.56160801437E+01  0.23008074120E+02  0.51100000000E-03 0.  1.
         12    1    3    3    0    0  0.57131387509E+01 -0.79783145129E+01 -0.21254877338E+02  0.23410751110E+02  0.00000000000E+00 0. -1.
</event>
<event>
 7    1  0.3020651E-013  0.7246154E+02  0.7816164E-02  0.1226708E+00
        -11   -1    0    0    0    0  0.00000000000E+00  0.00000000000E+00  0.45593999997E+02  0.45594000000E+02  0.51100000000E-03 0. -1.
         11   -1    0    0    0    0 -0.00000000000E+00 -0.00000000000E+00 -0.45593999997E+02  0.45594000000E+02  0.51100000000E-03 0.  1.
    9900012    2    1    2    0    0  0.96302745034E+01 -0.23095509216E+00 -0.16058790170E+02  0.72461540938E+02  0.69999961758E+02 0.  0.
         12    1    1    2    0    0 -0.96302745034E+01  0.23095509216E+00  0.16058790170E+02  0.18726459062E+02  0.00000000000E+00 0. -1.
         11    1    3    3    0    0  0.25040390013E+01  0.25980823242E+01 -0.64875561487E+01  0.74235185813E+01  0.51100000000E-03 0. -1.
        -11    1    3    3    0    0 -0.12391596441E+02  0.25464854530E+02 -0.11604459865E+02  0.30605129760E+02  0.51100000000E-03 0.  1.
         12    1    3    3    0    0  0.19517831943E+02 -0.28293891946E+02  0.20332258437E+01  0.34432892597E+02  0.00000000000E+00 0. -1.
</event>
<event>
 7    1  0.3020651E-013  0.7246156E+02  0.7816164E-02  0.1226708E+00
        -11   -1    0    0    0    0  0.00000000000E+00  0.00000000000E+00  0.45593999997E+02  0.45594000000E+02  0.51100000000E-03 0.  1.
         11   -1    0    0    0    0 -0.00000000000E+00 -0.00000000000E+00 -0.45593999997E+02  0.45594000000E+02  0.51100000000E-03 0. -1.
    9900012    2    1    2    0    0  0.32939507923E+00 -0.18555369727E+02 -0.25038807350E+01  0.72461557050E+02  0.69999982747E+02 0.  0.
         12    1    1    2    0    0 -0.32939507923E+00  0.18555369727E+02  0.25038807350E+01  0.18726442950E+02  0.00000000000E+00 0. -1.
         11    1    3    3    0    0 -0.92614426590E+01 -0.46306316902E+01  0.15478862548E+01  0.10469623780E+02  0.51100000000E-03 0. -1.
        -11    1    3    3    0    0  0.15437749156E+02  0.14181476210E+00  0.24888146022E+02  0.29287608695E+02  0.51100000000E-03 0.  1.
         12    1    3    3    0    0 -0.58469114174E+01 -0.14066552799E+02 -0.28939913012E+02  0.32704324575E+02  0.00000000000E+00 0. -1.
</event>
<event>
 7    1  0.3020651E-013  0.7246158E+02  0.7816164E-02  0.1226708E+00
        -11   -1    0    0    0    0  0.00000000000E+00  0.00000000000E+00  0.45593999997E+02  0.45594000000E+02  0.51100000000E-03 0. -1.
         11   -1    0    0    0    0 -0.00000000000E+00 -0.00000000000E+00 -0.45593999997E+02  0.45594000000E+02  0.51100000000E-03 0.  1.
    9900012    2    1    2    0    0  0.11649010890E+01  0.18608455019E+02 -0.17455994489E+01  0.72461582559E+02  0.70000015976E+02 0.  0.
         12    1    1    2    0    0 -0.11649010890E+01 -0.18608455019E+02  0.17455994489E+01  0.18726417441E+02  0.00000000000E+00 0. -1.
         11    1    3    3    0    0 -0.16257037626E+02 -0.85019537680E+01 -0.81177904367E+00  0.18363917766E+02  0.51100000000E-03 0. -1.
        -11    1    3    3    0    0  0.16323802774E+02 -0.37275626426E+01  0.12040351685E+02  0.20623562476E+02  0.51100000000E-03 0.  1.
         12    1    3    3    0    0  0.10981359409E+01  0.30837971430E+02 -0.12974172090E+02  0.33474102316E+02  0.00000000000E+00 0. -1.
</event>
<event>
 7    1  0.3020651E-013  0.7246166E+02  0.7816164E-02  0.1226708E+00
        -11   -1    0    0    0    0  0.00000000000E+00  0.00000000000E+00  0.45593999997E+02  0.45594000000E+02  0.51100000000E-03 0. -1.
         11   -1    0    0    0    0 -0.00000000000E+00 -0.00000000000E+00 -0.45593999997E+02  0.45594000000E+02  0.51100000000E-03 0.  1.
    9900012    2    1    2    0    0 -0.20373413892E+01  0.18449981778E+02 -0.24744892142E+01  0.72461663348E+02  0.70000121219E+02 0.  0.
         12    1    1    2    0    0  0.20373413892E+01 -0.18449981778E+02  0.24744892142E+01  0.18726336652E+02  0.00000000000E+00 0. -1.
         11    1    3    3    0    0 -0.20225046634E+02 -0.30282163484E+01 -0.30330981832E+01  0.20674193828E+02  0.51100000000E-03 0. -1.
        -11    1    3    3    0    0  0.99536228948E+01 -0.11978484936E+02 -0.60431982540E+01  0.16705656392E+02  0.51100000000E-03 0.  1.
         12    1    3    3    0    0  0.82340823500E+01  0.33456683062E+02  0.66018072231E+01  0.35081813127E+02  0.00000000000E+00 0. -1.
</event>
<event>
 7    1  0.3020651E-013  0.7246159E+02  0.7816164E-02  0.1226708E+00
        -11   -1    0    0    0    0  0.00000000000E+00  0.00000000000E+00  0.45593999997E+02  0.45594000000E+02  0.51100000000E-03 0.  1.
         11   -1    0    0    0    0 -0.00000000000E+00 -0.00000000000E+00 -0.45593999997E+02  0.45594000000E+02  0.51100000000E-03 0. -1.
    9900012    2    1    2    0    0 -0.87566669873E+01  0.46988191996E+01  0.15871996600E+02  0.72461590983E+02  0.70000026951E+02 0.  0.
         12    1    1    2    0    0  0.87566669873E+01 -0.46988191996E+01 -0.15871996600E+02  0.18726409017E+02  0.00000000000E+00 0. -1.
         11    1    3    3    0    0  0.18003323821E+02 -0.67166333704E+01  0.14834114804E+02  0.24275168273E+02  0.51100000000E-03 0. -1.
        -11    1    3    3    0    0  0.20426555639E+01 -0.11291342108E+02  0.89270103778E+00  0.11509290324E+02  0.51100000000E-03 0.  1.
        -12    1    3    3    0    0 -0.28802646372E+02  0.22706794678E+02  0.14518075828E+00  0.36677132386E+02  0.00000000000E+00 0.  1.
</event>
<event>
 7    1  0.3020651E-013  0.7246197E+02  0.7816164E-02  0.1226707E+00
        -11   -1    0    0    0    0  0.00000000000E+00  0.00000000000E+00  0.45593999997E+02  0.45594000000E+02  0.51100000000E-03 0.  1.
         11   -1    0    0    0    0 -0.00000000000E+00 -0.00000000000E+00 -0.45593999997E+02  0.45594000000E+02  0.51100000000E-03 0. -1.
    9900012    2    1    2    0    0 -0.17635911488E+02  0.61753489073E+01 -0.12263915555E+01  0.72461966133E+02  0.70000515652E+02 0.  0.
         12    1    1    2    0    0  0.17635911488E+02 -0.61753489073E+01  0.12263915555E+01  0.18726033867E+02  0.00000000000E+00 0. -1.
         11    1    3    3    0    0 -0.16006877590E+02 -0.14530123875E+02 -0.15874178204E+02  0.26820405738E+02  0.51100000000E-03 0. -1.
        -11    1    3    3    0    0 -0.85380493174E+01 -0.15643246994E+01 -0.89495730690E+01  0.12467568179E+02  0.51100000000E-03 0.  1.
        -12    1    3    3    0    0  0.69090154200E+01  0.22269797482E+02  0.23597359718E+02  0.33173992217E+02  0.00000000000E+00 0.  1.
</event>
<event>
 7    1  0.3020651E-013  0.7246159E+02  0.7816164E-02  0.1226708E+00
        -11   -1    0    0    0    0  0.00000000000E+00  0.00000000000E+00  0.45593999997E+02  0.45594000000E+02  0.51100000000E-03 0.  1.
         11   -1    0    0    0    0 -0.00000000000E+00 -0.00000000000E+00 -0.45593999997E+02  0.45594000000E+02  0.51100000000E-03 0. -1.
    9900012    2    1    2    0    0 -0.52993037226E+01  0.82612945168E+01  0.15948251982E+02  0.72461592220E+02  0.70000028563E+02 0.  0.
         12    1    1    2    0    0  0.52993037226E+01 -0.82612945168E+01 -0.15948251982E+02  0.18726407780E+02  0.00000000000E+00 0. -1.
         11    1    3    3    0    0  0.93468441979E+01  0.13109473762E+02 -0.37895890835E+01  0.16540338100E+02  0.51100000000E-03 0. -1.
        -11    1    3    3    0    0 -0.45582094116E+01  0.15304709270E+02 -0.98237330341E+01  0.18748790090E+02  0.51100000000E-03 0.  1.
        -12    1    3    3    0    0 -0.10087938509E+02 -0.20152888514E+02  0.29561574100E+02  0.37172464030E+02  0.00000000000E+00 0.  1.
</event>
<event>
 7    1  0.3020651E-013  0.7246165E+02  0.7816164E-02  0.1226708E+00
        -11   -1    0    0    0    0  0.00000000000E+00  0.00000000000E+00  0.45593999997E+02  0.45594000000E+02  0.51100000000E-03 0.  1.
         11   -1    0    0    0    0 -0.00000000000E+00 -0.00000000000E+00 -0.45593999997E+02  0.45594000000E+02  0.51100000000E-03 0. -1.
    9900012    2    1    2    0    0 -0.54016483517E+01  0.17921634084E+02  0.55999542674E+00  0.72461645095E+02  0.70000097441E+02 0.  0.
         12    1    1    2    0    0  0.54016483517E+01 -0.17921634084E+02 -0.55999542674E+00  0.18726354905E+02  0.00000000000E+00 0. -1.
         11    1    3    3    0    0  0.28674826810E+01  0.15569016534E+01  0.87931384804E+00  0.33792887992E+01  0.51100000000E-03 0. -1.
        -11    1    3    3    0    0  0.33516584096E+00 -0.83048907811E+01  0.28790976971E+02  0.29966713237E+02  0.51100000000E-03 0.  1.
         12    1    3    3    0    0 -0.86042968737E+01  0.24669623212E+02 -0.29110295392E+02  0.39115643059E+02  0.00000000000E+00 0. -1.
</event>
<event>
 7    1  0.3020651E-013  0.7246157E+02  0.7816164E-02  0.1226708E+00
        -11   -1    0    0    0    0  0.00000000000E+00  0.00000000000E+00  0.45593999997E+02  0.45594000000E+02  0.51100000000E-03 0. -1.
         11   -1    0    0    0    0 -0.00000000000E+00 -0.00000000000E+00 -0.45593999997E+02  0.45594000000E+02  0.51100000000E-03 0.  1.
    9900012    2    1    2    0    0 -0.20578104690E+01 -0.17390279162E+02 -0.66349646592E+01  0.72461570834E+02  0.70000000703E+02 0.  0.
         12    1    1    2    0    0  0.20578104690E+01  0.17390279162E+02  0.66349646592E+01  0.18726429166E+02  0.00000000000E+00 0. -1.
         11    1    3    3    0    0 -0.26198524846E+02 -0.19478612270E+02 -0.20150643514E+02  0.38364403741E+02  0.51100000000E-03 0. -1.
        -11    1    3    3    0    0 -0.99950855471E-01  0.11810062073E+01  0.94223347145E+01  0.94965866272E+01  0.51100000000E-03 0.  1.
        -12    1    3    3    0    0  0.24240665233E+02  0.90732690049E+00  0.40933441404E+01  0.24600580466E+02  0.00000000000E+00 0.  1.
</event>
<event>
 7    1  0.3020651E-013  0.7246157E+02  0.7816164E-02  0.1226708E+00
        -11   -1    0    0    0    0  0.00000000000E+00  0.00000000000E+00  0.45593999997E+02  0.45594000000E+02  0.51100000000E-03 0.  1.
         11   -1    0    0    0    0 -0.00000000000E+00 -0.00000000000E+00 -0.45593999997E+02  0.45594000000E+02  0.51100000000E-03 0. -1.
    9900012    2    1    2    0    0  0.11859859172E+02 -0.27474652627E+01  0.14229353897E+02  0.72461565815E+02  0.69999994165E+02 0.  0.
         12    1    1    2    0    0 -0.11859859172E+02  0.27474652627E+01 -0.14229353897E+02  0.18726434185E+02  0.00000000000E+00 0. -1.
         11    1    3    3    0    0 -0.12063608550E+02  0.27976024061E+01  0.29947478079E+02  0.32406923242E+02  0.51100000000E-03 0. -1.
        -11    1    3    3    0    0  0.71957276398E+01 -0.15039721156E+02 -0.28544515942E+01  0.16915070289E+02  0.51100000000E-03 0.  1.
        -12    1    3    3    0    0  0.16727740082E+02  0.94946534868E+01 -0.12863672587E+02  0.23139572285E+02  0.00000000000E+00 0.  1.
</event>
<event>
 7    1  0.3020651E-013  0.7246156E+02  0.7816164E-02  0.1226708E+00
        -11   -1    0    0    0    0  0.00000000000E+00  0.00000000000E+00  0.45593999997E+02  0.45594000000E+02  0.51100000000E-03 0.  1.
         11   -1    0    0    0    0 -0.00000000000E+00 -0.00000000000E+00 -0.45593999997E+02  0.45594000000E+02  0.51100000000E-03 0. -1.
    9900012    2    1    2    0    0  0.67545057436E+01 -0.99789921169E+01  0.14334437380E+02  0.72461555423E+02  0.69999980627E+02 0.  0.
         12    1    1    2    0    0 -0.67545057436E+01  0.99789921169E+01 -0.14334437380E+02  0.18726444577E+02  0.00000000000E+00 0. -1.
         11    1    3    3    0    0  0.24537927125E+01 -0.11759520881E+02 -0.14207972374E+02  0.18605749360E+02  0.51100000000E-03 0. -1.
        -11    1    3    3    0    0  0.18247250132E+01 -0.19823863318E+02  0.27135260178E+01  0.20091749598E+02  0.51100000000E-03 0.  1.
        -12    1    3    3    0    0  0.24759880179E+01  0.21604392082E+02  0.25828883736E+02  0.33764056464E+02  0.00000000000E+00 0.  1.
</event>
<event>
 7    1  0.3020651E-013  0.7246123E+02  0.7816164E-02  0.1226709E+00
        -11   -1    0    0    0    0  0.00000000000E+00  0.00000000000E+00  0.45593999997E+02  0.45594000000E+02  0.51100000000E-03 0. -1.
         11   -1    0    0    0    0 -0.00000000000E+00 -0.00000000000E+00 -0.45593999997E+02  0.45594000000E+02  0.51100000000E-03 0.  1.
    9900012    2    1    2    0    0 -0.91552256741E+01 -0.16004465060E+02  0.32757774673E+01  0.72461233674E+02  0.69999561489E+02 0.  0.
         12    1    1    2    0    0  0.91552256741E+01  0.16004465060E+02 -0.32757774673E+01  0.18726766326E+02  0.00000000000E+00 0. -1.
         11    1    3    3    0    0 -0.11977204338E+02  0.84978188596E+00  0.11238375225E+02  0.16446173749E+02  0.51100000000E-03 0. -1.
        -11    1    3    3    0    0  0.45631268179E+00 -0.31015126148E+02  0.10391382125E+02  0.32712797098E+02  0.51100000000E-03 0.  1.
        -12    1    3    3    0    0  0.23656659826E+01  0.14160879202E+02 -0.18353979883E+02  0.23302262827E+02  0.00000000000E+00 0.  1.
</event>
<event>
 7    1  0.3020651E-013  0.7246139E+02  0.7816164E-02  0.1226708E+00
        -11   -1    0    0    0    0  0.00000000000E+00  0.00000000000E+00  0.45593999997E+02  0.45594000000E+02  0.51100000000E-03 0.  1.
         11   -1    0    0    0    0 -0.00000000000E+00 -0.00000000000E+00 -0.45593999997E+02  0.45594000000E+02  0.51100000000E-03 0. -1.
    9900012    2    1    2    0    0 -0.65272244333E+01  0.17511686860E+02 -0.11925204186E+01  0.72461389510E+02  0.69999764495E+02 0.  0.
         12    1    1    2    0    0  0.65272244333E+01 -0.17511686860E+02  0.11925204186E+01  0.18726610490E+02  0.00000000000E+00 0. -1.
         11    1    3    3    0    0 -0.23233257220E+02  0.75172924654E+01 -0.93648514128E+01  0.26153286014E+02  0.51100000000E-03 0. -1.
        -11    1    3    3    0    0 -0.13856111374E+02  0.21374196386E+01  0.21867456693E+01  0.14189511690E+02  0.51100000000E-03 0.  1.
        -12    1    3    3    0    0  0.30562144160E+02  0.78569747558E+01  0.59855853250E+01  0.32118591807E+02  0.00000000000E+00 0.  1.
</event>
<event>
 7    1  0.3020651E-013  0.7246162E+02  0.7816164E-02  0.1226708E+00
        -11   -1    0    0    0    0  0.00000000000E+00  0.00000000000E+00  0.45593999997E+02  0.45594000000E+02  0.51100000000E-03 0.  1.
         11   -1    0    0    0    0 -0.00000000000E+00 -0.00000000000E+00 -0.45593999997E+02  0.45594000000E+02  0.51100000000E-03 0. -1.
    9900012    2    1    2    0    0  0.11138712036E+02  0.26429970801E+01  0.14819613321E+02  0.72461620789E+02  0.70000065778E+02 0.  0.
         12    1    1    2    0    0 -0.11138712036E+02 -0.26429970801E+01 -0.14819613321E+02  0.18726379211E+02  0.00000000000E+00 0. -1.
         11    1    3    3    0    0  0.13461639012E+02  0.27171609287E+02  0.75883293897E+01  0.31258515949E+02  0.51100000000E-03 0. -1.
        -11    1    3    3    0    0 -0.48928930476E+00  0.72967478539E+01 -0.27281175693E+01  0.78054185666E+01  0.51100000000E-03 0.  1.
        -12    1    3    3    0    0 -0.18336376713E+01 -0.31825360061E+02  0.99594015002E+01  0.33397686273E+02  0.00000000000E+00 0.  1.
</event>
<event>
 7    1  0.3020651E-013  0.7246154E+02  0.7816164E-02  0.1226708E+00
        -11   -1    0    0    0    0  0.00000000000E+00  0.00000000000E+00  0.45593999997E+02  0.45594000000E+02  0.51100000000E-03 0.  1.
         11   -1    0    0    0    0 -0.00000000000E+00 -0.00000000000E+00 -0.45593999997E+02  0.45594000000E+02  0.51100000000E-03 0. -1.
    9900012    2    1    2    0    0 -0.17488491322E+02  0.50985229223E+01 -0.43402987988E+01  0.72461535882E+02  0.69999955172E+02 0.  0.
         12    1    1    2    0    0  0.17488491322E+02 -0.50985229223E+01  0.43402987988E+01  0.18726464118E+02  0.00000000000E+00 0. -1.
         11    1    3    3    0    0  0.15308728424E+02  0.13826370620E+02 -0.46690316535E+01  0.21150072041E+02  0.51100000000E-03 0. -1.
        -11    1    3    3    0    0  0.56862974275E+01  0.45966273155E+01 -0.67790561459E+01  0.99708857982E+01  0.51100000000E-03 0.  1.
        -12    1    3    3    0    0 -0.38483517174E+02 -0.13324475014E+02  0.71077890006E+01  0.41340578043E+02  0.00000000000E+00 0.  1.
</event>
<event>
 7    1  0.3020651E-013  0.7246134E+02  0.7816164E-02  0.1226709E+00
        -11   -1    0    0    0    0  0.00000000000E+00  0.00000000000E+00  0.45593999997E+02  0.45594000000E+02  0.51100000000E-03 0. -1.
         11   -1    0    0    0    0 -0.00000000000E+00 -0.00000000000E+00 -0.45593999997E+02  0.45594000000E+02  0.51100000000E-03 0.  1.
    9900012    2    1    2    0    0  0.73807953745E+01 -0.16121335895E+02  0.60261359256E+01  0.72461336507E+02  0.69999695448E+02 0.  0.
         12    1    1    2    0    0 -0.73807953745E+01  0.16121335895E+02 -0.60261359256E+01  0.18726663493E+02  0.00000000000E+00 0. -1.
         11    1    3    3    0    0  0.13253380927E+02 -0.88920952448E+01 -0.52756007232E+01  0.16809325599E+02  0.51100000000E-03 0. -1.
        -11    1    3    3    0    0  0.19430730356E+02  0.11327051065E+02  0.60071660728E+00  0.22499249514E+02  0.51100000000E-03 0.  1.
         12    1    3    3    0    0 -0.25303315908E+02 -0.18556291714E+02  0.10701020041E+02  0.33152761394E+02  0.00000000000E+00 0. -1.
</event>
<event>
 7    1  0.3639652E-013  0.7246155E+02  0.7816164E-02  0.1226708E+00
        -11   -1    0    0    0    0  0.00000000000E+00  0.00000000000E+00  0.45593999997E+02  0.45594000000E+02  0.51100000000E-03 0.  1.
         11   -1    0    0    0    0 -0.00000000000E+00 -0.00000000000E+00 -0.45593999997E+02  0.45594000000E+02  0.51100000000E-03 0. -1.
    9900012    2    1    2    0    0  0.15458335271E+02  0.93380772575E+01  0.49517667212E+01  0.72461553196E+02  0.69999977727E+02 0.  0.
         12    1    1    2    0    0 -0.15458335271E+02 -0.93380772575E+01 -0.49517667212E+01  0.18726446804E+02  0.00000000000E+00 0. -1.
         11    1    3    3    0    0  0.14704559346E+01 -0.25579292665E+02 -0.33502564393E+01  0.25839633751E+02  0.51100000000E-03 0. -1.
        -11    1    3    3    0    0 -0.69650450038E+01  0.28618141439E+01  0.55738785330E+00  0.75506631218E+01  0.51100000000E-03 0.  1.
        -12    1    3    3    0    0  0.20952924341E+02  0.32055555779E+02  0.77446353072E+01  0.39071256324E+02  0.00000000000E+00 0.  1.
</event>
<event>
 7    1  0.3020651E-013  0.7246155E+02  0.7816164E-02  0.1226708E+00
        -11   -1    0    0    0    0  0.00000000000E+00  0.00000000000E+00  0.45593999997E+02  0.45594000000E+02  0.51100000000E-03 0.  1.
         11   -1    0    0    0    0 -0.00000000000E+00 -0.00000000000E+00 -0.45593999997E+02  0.45594000000E+02  0.51100000000E-03 0. -1.
    9900012    2    1    2    0    0 -0.13826388080E+02 -0.63973301402E+01  0.10889683461E+02  0.72461546888E+02  0.69999969509E+02 0.  0.
         12    1    1    2    0    0  0.13826388080E+02  0.63973301402E+01 -0.10889683461E+02  0.18726453112E+02  0.00000000000E+00 0. -1.
         11    1    3    3    0    0 -0.17166874534E+02 -0.19910804135E+02 -0.78342598585E+01  0.27432049328E+02  0.51100000000E-03 0. -1.
        -11    1    3    3    0    0 -0.15825105129E+02  0.45517944029E+01  0.17208863018E+02  0.23818013168E+02  0.51100000000E-03 0.  1.
        -12    1    3    3    0    0  0.19165591582E+02  0.89616795917E+01  0.15150803012E+01  0.21211484392E+02  0.00000000000E+00 0.  1.
</event>
<event>
 7    1  0.3020651E-013  0.7246168E+02  0.7816164E-02  0.1226708E+00
        -11   -1    0    0    0    0  0.00000000000E+00  0.00000000000E+00  0.45593999997E+02  0.45594000000E+02  0.51100000000E-03 0.  1.
         11   -1    0    0    0    0 -0.00000000000E+00 -0.00000000000E+00 -0.45593999997E+02  0.45594000000E+02  0.51100000000E-03 0. -1.
    9900012    2    1    2    0    0  0.49120475590E+01 -0.80656706509E+01  0.16170705606E+02  0.72461682314E+02  0.70000145926E+02 0.  0.
         12    1    1    2    0    0 -0.49120475590E+01  0.80656706509E+01 -0.16170705606E+02  0.18726317686E+02  0.00000000000E+00 0. -1.
         11    1    3    3    0    0 -0.56616863481E+01  0.81134966975E+01  0.44124222593E+01  0.10832958572E+02  0.51100000000E-03 0.  1.
        -11    1    3    3    0    0 -0.23266921749E+02 -0.58985680467E+01  0.10607091948E+02  0.26242201747E+02  0.51100000000E-03 0. -1.
         12    1    3    3    0    0  0.33840655656E+02 -0.10280599302E+02  0.11511913991E+01  0.35386521995E+02  0.00000000000E+00 0. -1.
</event>
<event>
 7    1  0.3020651E-013  0.7246175E+02  0.7816164E-02  0.1226708E+00
        -11   -1    0    0    0    0  0.00000000000E+00  0.00000000000E+00  0.45593999997E+02  0.45594000000E+02  0.51100000000E-03 0.  1.
         11   -1    0    0    0    0 -0.00000000000E+00 -0.00000000000E+00 -0.45593999997E+02  0.45594000000E+02  0.51100000000E-03 0. -1.
    9900012    2    1    2    0    0  0.13366835173E+02  0.62661291997E+01  0.11521101229E+02  0.72461750210E+02  0.70000234373E+02 0.  0.
         12    1    1    2    0    0 -0.13366835173E+02 -0.62661291997E+01 -0.11521101229E+02  0.18726249790E+02  0.00000000000E+00 0. -1.
         11    1    3    3    0    0  0.48599207454E+01 -0.80603321406E+01 -0.10437730525E+02  0.14054679030E+02  0.51100000000E-03 0. -1.
        -11    1    3    3    0    0  0.25879968203E+02  0.20608367123E+02  0.52481293344E+01  0.33496573129E+02  0.51100000000E-03 0.  1.
        -12    1    3    3    0    0 -0.17373053775E+02 -0.62819057826E+01  0.16710702420E+02  0.24910498050E+02  0.00000000000E+00 0.  1.
</event>
<event>
 7    1  0.3020651E-013  0.7246124E+02  0.7816164E-02  0.1226709E+00
        -11   -1    0    0    0    0  0.00000000000E+00  0.00000000000E+00  0.45593999997E+02  0.45594000000E+02  0.51100000000E-03 0.  1.
         11   -1    0    0    0    0 -0.00000000000E+00 -0.00000000000E+00 -0.45593999997E+02  0.45594000000E+02  0.51100000000E-03 0. -1.
    9900012    2    1    2    0    0 -0.56800507128E+01  0.16457597237E+02 -0.68975407459E+01  0.72461239702E+02  0.69999569341E+02 0.  0.
         12    1    1    2    0    0  0.56800507128E+01 -0.16457597237E+02  0.68975407459E+01  0.18726760298E+02  0.00000000000E+00 0. -1.
         11    1    3    3    0    0  0.13655782380E+02  0.11464757717E+02  0.89881404466E+01  0.19967667136E+02  0.51100000000E-03 0. -1.
        -11    1    3    3    0    0  0.54379806987E+01  0.10845363217E+02  0.10343252677E+02  0.15942911077E+02  0.51100000000E-03 0.  1.
         12    1    3    3    0    0 -0.24773813791E+02 -0.58525236974E+01 -0.26228933870E+02  0.36550661490E+02  0.00000000000E+00 0. -1.
</event>
<event>
 7    1  0.3020651E-013  0.7246156E+02  0.7816164E-02  0.1226708E+00
        -11   -1    0    0    0    0  0.00000000000E+00  0.00000000000E+00  0.45593999997E+02  0.45594000000E+02  0.51100000000E-03 0. -1.
         11   -1    0    0    0    0 -0.00000000000E+00 -0.00000000000E+00 -0.45593999997E+02  0.45594000000E+02  0.51100000000E-03 0.  1.
    9900012    2    1    2    0    0 -0.57455119244E+01 -0.32140036993E+01 -0.17531079307E+02  0.72461562305E+02  0.69999989593E+02 0.  0.
         12    1    1    2    0    0  0.57455119244E+01  0.32140036993E+01  0.17531079307E+02  0.18726437695E+02  0.00000000000E+00 0. -1.
         11    1    3    3    0    0 -0.66109736932E+01  0.84287406218E+01  0.33557608373E+01  0.11225407463E+02  0.51100000000E-03 0. -1.
        -11    1    3    3    0    0  0.23546071621E+02 -0.10428859817E+02 -0.27405281283E+02  0.37606223532E+02  0.51100000000E-03 0.  1.
         12    1    3    3    0    0 -0.22680609853E+02 -0.12138845042E+01  0.65184411385E+01  0.23629931311E+02  0.00000000000E+00 0. -1.
</event>
<event>
 7    1  0.3020651E-013  0.7246162E+02  0.7816164E-02  0.1226708E+00
        -11   -1    0    0    0    0  0.00000000000E+00  0.00000000000E+00  0.45593999997E+02  0.45594000000E+02  0.51100000000E-03 0.  1.
         11   -1    0    0    0    0 -0.00000000000E+00 -0.00000000000E+00 -0.45593999997E+02  0.45594000000E+02  0.51100000000E-03 0. -1.
    9900012    2    1    2    0    0  0.15327932750E+02 -0.10494833856E+02  0.23643889426E+01  0.72461617671E+02  0.70000061716E+02 0.  0.
         12    1    1    2    0    0 -0.15327932750E+02  0.10494833856E+02 -0.23643889426E+01  0.18726382329E+02  0.00000000000E+00 0. -1.
         11    1    3    3    0    0 -0.70633617304E+01 -0.12767430384E+02  0.14266700189E+02  0.20406790342E+02  0.51100000000E-03 0. -1.
        -11    1    3    3    0    0  0.22045735860E+02 -0.28890904979E+00  0.13939141760E+02  0.26084432356E+02  0.51100000000E-03 0.  1.
         12    1    3    3    0    0  0.34555862038E+00  0.25615055772E+01 -0.25841453006E+02  0.25970394973E+02  0.00000000000E+00 0. -1.
</event>
<event>
 7    1  0.3020651E-013  0.7246159E+02  0.7816164E-02  0.1226708E+00
        -11   -1    0    0    0    0  0.00000000000E+00  0.00000000000E+00  0.45593999997E+02  0.45594000000E+02  0.51100000000E-03 0. -1.
         11   -1    0    0    0    0 -0.00000000000E+00 -0.00000000000E+00 -0.45593999997E+02  0.45594000000E+02  0.51100000000E-03 0.  1.
    9900012    2    1    2    0    0  0.16647213636E+02  0.65719595347E+01 -0.55098203646E+01  0.72461588320E+02  0.70000023482E+02 0.  0.
         12    1    1    2    0    0 -0.16647213636E+02 -0.65719595347E+01  0.55098203646E+01  0.18726411680E+02  0.00000000000E+00 0. -1.
         11    1    3    3    0    0 -0.69310268521E+00 -0.49782878290E+01 -0.28461553930E+01  0.57761874817E+01  0.51100000000E-03 0. -1.
        -11    1    3    3    0    0  0.30301331205E+02 -0.51509810526E+01 -0.22188338722E+02  0.37908121215E+02  0.51100000000E-03 0.  1.
         12    1    3    3    0    0 -0.12961014884E+02  0.16701228416E+02  0.19524673750E+02  0.28777279623E+02  0.00000000000E+00 0. -1.
</event>
<event>
 7    1  0.3020651E-013  0.7246080E+02  0.7816164E-02  0.1226710E+00
        -11   -1    0    0    0    0  0.00000000000E+00  0.00000000000E+00  0.45593999997E+02  0.45594000000E+02  0.51100000000E-03 0.  1.
         11   -1    0    0    0    0 -0.00000000000E+00 -0.00000000000E+00 -0.45593999997E+02  0.45594000000E+02  0.51100000000E-03 0. -1.
    9900012    2    1    2    0    0  0.66940386810E+01 -0.54041196604E+01  0.16634097789E+02  0.72460803936E+02  0.69999001669E+02 0.  0.
         12    1    1    2    0    0 -0.66940386810E+01  0.54041196604E+01 -0.16634097789E+02  0.18727196064E+02  0.00000000000E+00 0. -1.
         11    1    3    3    0    0  0.16775441031E+02 -0.12774779360E+02 -0.11391351793E+02  0.23966086568E+02  0.51100000000E-03 0. -1.
        -11    1    3    3    0    0  0.13875172105E+02  0.33604919521E+01  0.52908254395E+01  0.15225181155E+02  0.51100000000E-03 0.  1.
        -12    1    3    3    0    0 -0.23956574455E+02  0.40101677471E+01  0.22734624142E+02  0.33269536213E+02  0.00000000000E+00 0.  1.
</event>
<event>
 7    1  0.3020651E-013  0.7246158E+02  0.7816164E-02  0.1226708E+00
        -11   -1    0    0    0    0  0.00000000000E+00  0.00000000000E+00  0.45593999997E+02  0.45594000000E+02  0.51100000000E-03 0.  1.
         11   -1    0    0    0    0 -0.00000000000E+00 -0.00000000000E+00 -0.45593999997E+02  0.45594000000E+02  0.51100000000E-03 0. -1.
    9900012    2    1    2    0    0  0.10050222473E+01  0.15380152104E+02  0.10635776798E+02  0.72461577582E+02  0.70000009494E+02 0.  0.
         12    1    1    2    0    0 -0.10050222473E+01 -0.15380152104E+02 -0.10635776798E+02  0.18726422418E+02  0.00000000000E+00 0. -1.
         11    1    3    3    0    0  0.99191773667E+01  0.29873059799E+02 -0.10780231350E+02  0.33271657151E+02  0.51100000000E-03 0. -1.
        -11    1    3    3    0    0 -0.11846330212E+02 -0.12694425579E+01 -0.20559867548E+01  0.12090248372E+02  0.51100000000E-03 0.  1.
        -12    1    3    3    0    0  0.29321750926E+01 -0.13223465137E+02  0.23471994903E+02  0.27099672059E+02  0.00000000000E+00 0.  1.
</event>
<event>
 7    1  0.3020651E-013  0.7246159E+02  0.7816164E-02  0.1226708E+00
        -11   -1    0    0    0    0  0.00000000000E+00  0.00000000000E+00  0.45593999997E+02  0.45594000000E+02  0.51100000000E-03 0.  1.
         11   -1    0    0    0    0 -0.00000000000E+00 -0.00000000000E+00 -0.45593999997E+02  0.45594000000E+02  0.51100000000E-03 0. -1.
    9900012    2    1    2    0    0 -0.64489555605E+01 -0.17578078119E+02 -0.31687694080E+00  0.72461594334E+02  0.70000031316E+02 0.  0.
         12    1    1    2    0    0  0.64489555605E+01  0.17578078119E+02  0.31687694080E+00  0.18726405666E+02  0.00000000000E+00 0. -1.
         11    1    3    3    0    0 -0.87175684083E+01 -0.33073634501E+01  0.17721607041E+02  0.20024734913E+02  0.51100000000E-03 0. -1.
        -11    1    3    3    0    0  0.55839489241E+01  0.14824862301E+02  0.33271509655E+01  0.16187246883E+02  0.51100000000E-03 0.  1.
         12    1    3    3    0    0 -0.33153360764E+01 -0.29095576970E+02 -0.21365634947E+02  0.36249612539E+02  0.00000000000E+00 0. -1.
</event>
<event>
 7    1  0.3020651E-013  0.7246157E+02  0.7816164E-02  0.1226708E+00
        -11   -1    0    0    0    0  0.00000000000E+00  0.00000000000E+00  0.45593999997E+02  0.45594000000E+02  0.51100000000E-03 0. -1.
         11   -1    0    0    0    0 -0.00000000000E+00 -0.00000000000E+00 -0.45593999997E+02  0.45594000000E+02  0.51100000000E-03 0.  1.
    9900012    2    1    2    0    0  0.66073506312E+01  0.17521629815E+02 -0.12061592283E+00  0.72461571030E+02  0.70000000959E+02 0.  0.
         12    1    1    2    0    0 -0.66073506312E+01 -0.17521629815E+02  0.12061592283E+00  0.18726428970E+02  0.00000000000E+00 0. -1.
         11    1    3    3    0    0  0.12707279513E+02  0.13418889062E+02  0.18673803393E+02  0.26272656313E+02  0.51100000000E-03 0. -1.
        -11    1    3    3    0    0 -0.60604334177E+01  0.22310521817E+02 -0.15090496223E+02  0.27608174758E+02  0.51100000000E-03 0.  1.
         12    1    3    3    0    0 -0.39495464303E-01 -0.18207781064E+02 -0.37039230934E+01  0.18580739960E+02  0.00000000000E+00 0. -1.
</event>
<event>
 7    1  0.3020651E-013  0.7246152E+02  0.7816164E-02  0.1226708E+00
        -11   -1    0    0    0    0  0.00000000000E+00  0.00000000000E+00  0.45593999997E+02  0.45594000000E+02  0.51100000000E-03 0.  1.
         11   -1    0    0    0    0 -0.00000000000E+00 -0.00000000000E+00 -0.45593999997E+02  0.45594000000E+02  0.51100000000E-03 0. -1.
    9900012    2    1    2    0    0 -0.69341254381E+01 -0.17212476167E+02  0.25158592472E+01  0.72461521978E+02  0.69999937058E+02 0.  0.
         12    1    1    2    0    0  0.69341254381E+01  0.17212476167E+02 -0.25158592472E+01  0.18726478022E+02  0.00000000000E+00 0. -1.
         11    1    3    3    0    0 -0.94763832152E+01 -0.28129213473E+01  0.19911855071E+00  0.98870629514E+01  0.51100000000E-03 0. -1.
        -11    1    3    3    0    0  0.42750042983E+01  0.63354261047E+01  0.28284462842E+02  0.29298875818E+02  0.51100000000E-03 0.  1.
         12    1    3    3    0    0 -0.17327465212E+01 -0.20734980924E+02 -0.25967722145E+02  0.33275583208E+02  0.00000000000E+00 0. -1.
</event>
<event>
 7    1  0.3020651E-013  0.7246152E+02  0.7816164E-02  0.1226708E+00
        -11   -1    0    0    0    0  0.00000000000E+00  0.00000000000E+00  0.45593999997E+02  0.45594000000E+02  0.51100000000E-03 0.  1.
         11   -1    0    0    0    0 -0.00000000000E+00 -0.00000000000E+00 -0.45593999997E+02  0.45594000000E+02  0.51100000000E-03 0. -1.
    9900012    2    1    2    0    0  0.16176620147E+02 -0.57389323788E+01  0.74875113021E+01  0.72461515820E+02  0.69999929037E+02 0.  0.
         12    1    1    2    0    0 -0.16176620147E+02  0.57389323788E+01 -0.74875113021E+01  0.18726484180E+02  0.00000000000E+00 0. -1.
         11    1    3    3    0    0  0.24115145744E+02 -0.97797319972E+01  0.19517219099E+02  0.32528529844E+02  0.51100000000E-03 0. -1.
        -11    1    3    3    0    0  0.10711717756E+02 -0.85028868976E+01  0.14041955240E+01  0.13748154356E+02  0.51100000000E-03 0.  1.
        -12    1    3    3    0    0 -0.18650243353E+02  0.12543686516E+02 -0.13433903320E+02  0.26184831620E+02  0.00000000000E+00 0.  1.
</event>
<event>
 7    1  0.3020651E-013  0.7246160E+02  0.7816164E-02  0.1226708E+00
        -11   -1    0    0    0    0  0.00000000000E+00  0.00000000000E+00  0.45593999997E+02  0.45594000000E+02  0.51100000000E-03 0. -1.
         11   -1    0    0    0    0 -0.00000000000E+00 -0.00000000000E+00 -0.45593999997E+02  0.45594000000E+02  0.51100000000E-03 0.  1.
    9900012    2    1    2    0    0 -0.16199789788E+02 -0.16475837537E+01  0.92482565302E+01  0.72461602315E+02  0.70000041713E+02 0.  0.
         12    1    1    2    0    0  0.16199789788E+02  0.16475837537E+01 -0.92482565302E+01  0.18726397685E+02  0.00000000000E+00 0. -1.
         11    1    3    3    0    0 -0.19762867432E+02  0.13665404280E+00  0.10928676882E+01  0.19793533376E+02  0.51100000000E-03 0. -1.
        -11    1    3    3    0    0 -0.28437673809E+01 -0.42007405857E+01 -0.21572938718E+02  0.22161338397E+02  0.51100000000E-03 0.  1.
         12    1    3    3    0    0  0.64068450243E+01  0.24165027892E+01  0.29728327560E+02  0.30506730542E+02  0.00000000000E+00 0. -1.
</event>
<event>
 7    1  0.3020651E-013  0.7246159E+02  0.7816164E-02  0.1226708E+00
        -11   -1    0    0    0    0  0.00000000000E+00  0.00000000000E+00  0.45593999997E+02  0.45594000000E+02  0.51100000000E-03 0.  1.
         11   -1    0    0    0    0 -0.00000000000E+00 -0.00000000000E+00 -0.45593999997E+02  0.45594000000E+02  0.51100000000E-03 0. -1.
    9900012    2    1    2    0    0  0.15526850954E+02  0.10054108532E+02 -0.29172467390E+01  0.72461587437E+02  0.70000022332E+02 0.  0.
         12    1    1    2    0    0 -0.15526850954E+02 -0.10054108532E+02  0.29172467390E+01  0.18726412563E+02  0.00000000000E+00 0. -1.
         11    1    3    3    0    0  0.63472485575E+01  0.49120133994E+01  0.85921755849E+01  0.11757589950E+02  0.51100000000E-03 0. -1.
        -11    1    3    3    0    0  0.12216724310E+02  0.23811714273E+02  0.12993010090E+02  0.29750031949E+02  0.51100000000E-03 0.  1.
         12    1    3    3    0    0 -0.30371219131E+01 -0.18669619140E+02 -0.24502432414E+02  0.30953965539E+02  0.00000000000E+00 0. -1.
</event>
<event>
 7    1  0.3020651E-013  0.7246154E+02  0.7816164E-02  0.1226708E+00
        -11   -1    0    0    0    0  0.00000000000E+00  0.00000000000E+00  0.45593999997E+02  0.45594000000E+02  0.51100000000E-03 0.  1.
         11   -1    0    0    0    0 -0.00000000000E+00 -0.00000000000E+00 -0.45593999997E+02  0.45594000000E+02  0.51100000000E-03 0. -1.
    9900012    2    1    2    0    0 -0.65171897068E+01 -0.11396171089E+02  0.13354172144E+02  0.72461537686E+02  0.69999957521E+02 0.  0.
         12    1    1    2    0    0  0.65171897068E+01  0.11396171089E+02 -0.13354172144E+02  0.18726462314E+02  0.00000000000E+00 0. -1.
         11    1    3    3    0    0  0.89411002437E+01 -0.14672842601E+02  0.22956773068E+02  0.28674884717E+02  0.51100000000E-03 0. -1.
        -11    1    3    3    0    0  0.35257569248E+01 -0.12082991688E+02  0.68612346192E+01  0.14335487114E+02  0.51100000000E-03 0.  1.
        -12    1    3    3    0    0 -0.18984046875E+02  0.15359663201E+02 -0.16463835543E+02  0.29451165855E+02  0.00000000000E+00 0.  1.
</event>
<event>
 7    1  0.3020651E-013  0.7246189E+02  0.7816164E-02  0.1226707E+00
        -11   -1    0    0    0    0  0.00000000000E+00  0.00000000000E+00  0.45593999997E+02  0.45594000000E+02  0.51100000000E-03 0. -1.
         11   -1    0    0    0    0 -0.00000000000E+00 -0.00000000000E+00 -0.45593999997E+02  0.45594000000E+02  0.51100000000E-03 0.  1.
    9900012    2    1    2    0    0 -0.13045158782E+02 -0.94242272737E+01 -0.95747098155E+01  0.72461887339E+02  0.70000413008E+02 0.  0.
         12    1    1    2    0    0  0.13045158782E+02  0.94242272737E+01  0.95747098155E+01  0.18726112661E+02  0.00000000000E+00 0. -1.
         11    1    3    3    0    0 -0.24421023407E+02 -0.28825459541E+02  0.72292807026E+01  0.38464997098E+02  0.51100000000E-03 0. -1.
        -11    1    3    3    0    0 -0.52877790603E+01  0.29374053615E+01 -0.24666785339E+01  0.65324927018E+01  0.51100000000E-03 0.  1.
        -12    1    3    3    0    0  0.16663643686E+02  0.16463826906E+02 -0.14337311984E+02  0.27464397539E+02  0.00000000000E+00 0.  1.
</event>
<event>
 7    1  0.3020651E-013  0.7246157E+02  0.7816164E-02  0.1226708E+00
        -11   -1    0    0    0    0  0.00000000000E+00  0.00000000000E+00  0.45593999997E+02  0.45594000000E+02  0.51100000000E-03 0.  1.
         11   -1    0    0    0    0 -0.00000000000E+00 -0.00000000000E+00 -0.45593999997E+02  0.45594000000E+02  0.51100000000E-03 0. -1.
    9900012    2    1    2    0    0  0.12482026507E+02 -0.13428028606E+02 -0.38165641082E+01  0.72461572163E+02  0.70000002434E+02 0.  0.
         12    1    1    2    0    0 -0.12482026507E+02  0.13428028606E+02  0.38165641082E+01  0.18726427837E+02  0.00000000000E+00 0. -1.
         11    1    3    3    0    0 -0.23919709324E+02 -0.11190881804E+02  0.95432466359E+01  0.28079563499E+02  0.51100000000E-03 0. -1.
        -11    1    3    3    0    0  0.35881316001E+01 -0.74530666249E+01  0.70569969577E+00  0.83018614067E+01  0.51100000000E-03 0.  1.
        -12    1    3    3    0    0  0.32813604230E+02  0.52159198226E+01 -0.14065510440E+02  0.36080147257E+02  0.00000000000E+00 0.  1.
</event>
<event>
 7    1  0.3020651E-013  0.7246177E+02  0.7816164E-02  0.1226707E+00
        -11   -1    0    0    0    0  0.00000000000E+00  0.00000000000E+00  0.45593999997E+02  0.45594000000E+02  0.51100000000E-03 0.  1.
         11   -1    0    0    0    0 -0.00000000000E+00 -0.00000000000E+00 -0.45593999997E+02  0.45594000000E+02  0.51100000000E-03 0. -1.
    9900012    2    1    2    0    0 -0.39325131563E+01  0.12037198898E+02  0.13795391735E+02  0.72461771064E+02  0.70000261540E+02 0.  0.
         12    1    1    2    0    0  0.39325131563E+01 -0.12037198898E+02 -0.13795391735E+02  0.18726228936E+02  0.00000000000E+00 0. -1.
         11    1    3    3    0    0 -0.81855841141E+01 -0.15783950195E+02  0.23782140705E+02  0.29693889739E+02  0.51100000000E-03 0. -1.
        -11    1    3    3    0    0 -0.41047700269E+01  0.53872352213E+00  0.80212567751E+01  0.90266228747E+01  0.51100000000E-03 0.  1.
        -12    1    3    3    0    0  0.83578409848E+01  0.27282425570E+02 -0.18008005745E+02  0.33741258451E+02  0.00000000000E+00 0.  1.
</event>
<event>
 7    1  0.3020651E-013  0.7246155E+02  0.7816164E-02  0.1226708E+00
        -11   -1    0    0    0    0  0.00000000000E+00  0.00000000000E+00  0.45593999997E+02  0.45594000000E+02  0.51100000000E-03 0.  1.
         11   -1    0    0    0    0 -0.00000000000E+00 -0.00000000000E+00 -0.45593999997E+02  0.45594000000E+02  0.51100000000E-03 0. -1.
    9900012    2    1    2    0    0  0.13044277568E+02 -0.20995464713E+01  0.13270965737E+02  0.72461553347E+02  0.69999977923E+02 0.  0.
         12    1    1    2    0    0 -0.13044277568E+02  0.20995464713E+01 -0.13270965737E+02  0.18726446653E+02  0.00000000000E+00 0. -1.
         11    1    3    3    0    0  0.10800654435E+02  0.14504575213E+02  0.25278188225E+02  0.31080920812E+02  0.51100000000E-03 0. -1.
        -11    1    3    3    0    0 -0.37875057863E+01 -0.18575948179E+02  0.78613392644E+01  0.20523442843E+02  0.51100000000E-03 0.  1.
        -12    1    3    3    0    0  0.60311289188E+01  0.19718264950E+01 -0.19868561752E+02  0.20857189693E+02  0.00000000000E+00 0.  1.
</event>
<event>
 7    1  0.3020651E-013  0.7246158E+02  0.7816164E-02  0.1226708E+00
        -11   -1    0    0    0    0  0.00000000000E+00  0.00000000000E+00  0.45593999997E+02  0.45594000000E+02  0.51100000000E-03 0. -1.
         11   -1    0    0    0    0 -0.00000000000E+00 -0.00000000000E+00 -0.45593999997E+02  0.45594000000E+02  0.51100000000E-03 0.  1.
    9900012    2    1    2    0    0  0.13147534613E+02  0.71831887521E+01 -0.11234904392E+02  0.72461576322E+02  0.70000007853E+02 0.  0.
         12    1    1    2    0    0 -0.13147534613E+02 -0.71831887521E+01  0.11234904392E+02  0.18726423678E+02  0.00000000000E+00 0. -1.
         11    1    3    3    0    0 -0.12160919047E+01 -0.19749921779E-01 -0.11664532320E+02  0.11727769784E+02  0.51100000000E-03 0. -1.
        -11    1    3    3    0    0  0.48080598972E+01 -0.24863907236E+01 -0.28369516378E+02  0.28881292190E+02  0.51100000000E-03 0.  1.
         12    1    3    3    0    0  0.95555666205E+01  0.96893293975E+01  0.28799144306E+02  0.31852514349E+02  0.00000000000E+00 0. -1.
</event>
<event>
 7    1  0.3020651E-013  0.7246157E+02  0.7816164E-02  0.1226708E+00
        -11   -1    0    0    0    0  0.00000000000E+00  0.00000000000E+00  0.45593999997E+02  0.45594000000E+02  0.51100000000E-03 0.  1.
         11   -1    0    0    0    0 -0.00000000000E+00 -0.00000000000E+00 -0.45593999997E+02  0.45594000000E+02  0.51100000000E-03 0. -1.
    9900012    2    1    2    0    0 -0.27899894638E+01  0.34871784410E+01  0.18186110202E+02  0.72461573247E+02  0.70000003846E+02 0.  0.
         12    1    1    2    0    0  0.27899894638E+01 -0.34871784410E+01 -0.18186110202E+02  0.18726426753E+02  0.00000000000E+00 0. -1.
         11    1    3    3    0    0 -0.13769770563E+02  0.10897233554E+02  0.12986863701E+02  0.21840670996E+02  0.51100000000E-03 0. -1.
        -11    1    3    3    0    0  0.18865685006E+02  0.54555377441E+01  0.21013759447E+02  0.28762041811E+02  0.51100000000E-03 0.  1.
         12    1    3    3    0    0 -0.78859039066E+01 -0.12865592857E+02 -0.15814512946E+02  0.21858860439E+02  0.00000000000E+00 0. -1.
</event>
<event>
 7    1  0.3020651E-013  0.7246158E+02  0.7816164E-02  0.1226708E+00
        -11   -1    0    0    0    0  0.00000000000E+00  0.00000000000E+00  0.45593999997E+02  0.45594000000E+02  0.51100000000E-03 0.  1.
         11   -1    0    0    0    0 -0.00000000000E+00 -0.00000000000E+00 -0.45593999997E+02  0.45594000000E+02  0.51100000000E-03 0. -1.
    9900012    2    1    2    0    0 -0.13483519934E+02  0.71925052362E+01  0.10823185594E+02  0.72461580487E+02  0.70000013278E+02 0.  0.
         12    1    1    2    0    0  0.13483519934E+02 -0.71925052362E+01 -0.10823185594E+02  0.18726419513E+02  0.00000000000E+00 0. -1.
         11    1    3    3    0    0  0.24316955626E+01  0.29683927587E+02  0.15078031605E+02  0.33382566373E+02  0.51100000000E-03 0. -1.
        -11    1    3    3    0    0 -0.66728595675E+01  0.38842508030E+01  0.54975094717E+01  0.94782419130E+01  0.51100000000E-03 0.  1.
        -12    1    3    3    0    0 -0.92423559287E+01 -0.26375673154E+02 -0.97523554829E+01  0.29600772201E+02  0.00000000000E+00 0.  1.
</event>
<event>
 7    1  0.3020651E-013  0.7246186E+02  0.7816164E-02  0.1226707E+00
        -11   -1    0    0    0    0  0.00000000000E+00  0.00000000000E+00  0.45593999997E+02  0.45594000000E+02  0.51100000000E-03 0.  1.
         11   -1    0    0    0    0 -0.00000000000E+00 -0.00000000000E+00 -0.45593999997E+02  0.45594000000E+02  0.51100000000E-03 0. -1.
    9900012    2    1    2    0    0  0.29095687425E+01  0.17149584795E+02  0.69350271863E+01  0.72461856484E+02  0.70000372814E+02 0.  0.
         12    1    1    2    0    0 -0.29095687425E+01 -0.17149584795E+02 -0.69350271863E+01  0.18726143516E+02  0.00000000000E+00 0. -1.
         11    1    3    3    0    0 -0.24709733327E+01  0.91196075228E+01 -0.26076530344E+01  0.98016735913E+01  0.51100000000E-03 0. -1.
        -11    1    3    3    0    0  0.18718237490E+02  0.17127823785E+02  0.28235523974E+02  0.37960236784E+02  0.51100000000E-03 0.  1.
         12    1    3    3    0    0 -0.13337695415E+02 -0.90978465123E+01 -0.18692843754E+02  0.24699946108E+02  0.00000000000E+00 0. -1.
</event>
<event>
 7    1  0.3020651E-013  0.7246159E+02  0.7816164E-02  0.1226708E+00
        -11   -1    0    0    0    0  0.00000000000E+00  0.00000000000E+00  0.45593999997E+02  0.45594000000E+02  0.51100000000E-03 0. -1.
         11   -1    0    0    0    0 -0.00000000000E+00 -0.00000000000E+00 -0.45593999997E+02  0.45594000000E+02  0.51100000000E-03 0.  1.
    9900012    2    1    2    0    0  0.67176333952E+01  0.14357350711E+02 -0.99708752706E+01  0.72461588931E+02  0.70000024277E+02 0.  0.
         12    1    1    2    0    0 -0.67176333952E+01 -0.14357350711E+02  0.99708752706E+01  0.18726411069E+02  0.00000000000E+00 0. -1.
         11    1    3    3    0    0  0.22248687085E+02  0.55658718978E+01 -0.72168295507E+01  0.24042995571E+02  0.51100000000E-03 0.  1.
        -11    1    3    3    0    0 -0.24616610367E+02 -0.32539134358E+01  0.11767395356E+02  0.27477937556E+02  0.51100000000E-03 0. -1.
         12    1    3    3    0    0  0.90855566771E+01  0.12045392249E+02 -0.14521441076E+02  0.20940655804E+02  0.00000000000E+00 0. -1.
</event>
<event>
 7    1  0.3020651E-013  0.7246171E+02  0.7816164E-02  0.1226708E+00
        -11   -1    0    0    0    0  0.00000000000E+00  0.00000000000E+00  0.45593999997E+02  0.45594000000E+02  0.51100000000E-03 0. -1.
         11   -1    0    0    0    0 -0.00000000000E+00 -0.00000000000E+00 -0.45593999997E+02  0.45594000000E+02  0.51100000000E-03 0.  1.
    9900012    2    1    2    0    0 -0.95879903020E+01 -0.11421591144E+02  0.11326584652E+02  0.72461713070E+02  0.70000185992E+02 0.  0.
         12    1    1    2    0    0  0.95879903020E+01  0.11421591144E+02 -0.11326584652E+02  0.18726286930E+02  0.00000000000E+00 0. -1.
         11    1    3    3    0    0  0.22329938712E+02  0.55230408697E+01  0.20244313111E+02  0.30642492668E+02  0.51100000000E-03 0. -1.
        -11    1    3    3    0    0 -0.52060417318E+01 -0.29238470706E+01  0.57367953519E+01  0.82802520116E+01  0.51100000000E-03 0.  1.
         12    1    3    3    0    0 -0.26711887282E+02 -0.14020784943E+02 -0.14654523811E+02  0.33538968391E+02  0.00000000000E+00 0. -1.
</event>
<event>
 7    1  0.3020651E-013  0.7246157E+02  0.7816164E-02  0.1226708E+00
        -11   -1    0    0    0    0  0.00000000000E+00  0.00000000000E+00  0.45593999997E+02  0.45594000000E+02  0.51100000000E-03 0.  1.
         11   -1    0    0    0    0 -0.00000000000E+00 -0.00000000000E+00 -0.45593999997E+02  0.45594000000E+02  0.51100000000E-03 0. -1.
    9900012    2    1    2    0    0  0.39550009954E+01 -0.16099443844E+02  0.87089162177E+01  0.72461565565E+02  0.69999993840E+02 0.  0.
         12    1    1    2    0    0 -0.39550009954E+01  0.16099443844E+02 -0.87089162177E+01  0.18726434435E+02  0.00000000000E+00 0. -1.
         11    1    3    3    0    0  0.56890252111E+01 -0.10196077327E+01 -0.75867565595E+01  0.95374778184E+01  0.51100000000E-03 0. -1.
        -11    1    3    3    0    0  0.23894145873E+02 -0.49038034968E+01  0.24076047696E+02  0.34272927635E+02  0.51100000000E-03 0.  1.
         12    1    3    3    0    0 -0.25628170089E+02 -0.10176032614E+02 -0.77803749186E+01  0.28651160112E+02  0.00000000000E+00 0. -1.
</event>
<event>
 7    1  0.3020651E-013  0.7246179E+02  0.7816164E-02  0.1226707E+00
        -11   -1    0    0    0    0  0.00000000000E+00  0.00000000000E+00  0.45593999997E+02  0.45594000000E+02  0.51100000000E-03 0. -1.
         11   -1    0    0    0    0 -0.00000000000E+00 -0.00000000000E+00 -0.45593999997E+02  0.45594000000E+02  0.51100000000E-03 0.  1.
    9900012    2    1    2    0    0  0.73978009932E+01 -0.62207425225E+01 -0.16038884189E+02  0.72461791011E+02  0.70000287524E+02 0.  0.
         12    1    1    2    0    0 -0.73978009932E+01  0.62207425225E+01  0.16038884189E+02  0.18726208989E+02  0.00000000000E+00 0. -1.
         11    1    3    3    0    0 -0.10867133619E+01  0.26267966687E+01 -0.61575292870E+00  0.29086351782E+01  0.51100000000E-03 0. -1.
        -11    1    3    3    0    0  0.16669453128E+02 -0.19541949786E+02 -0.36445345321E+02  0.44587236569E+02  0.51100000000E-03 0.  1.
         12    1    3    3    0    0 -0.81849387730E+01  0.10694410594E+02  0.21022214061E+02  0.24965919264E+02  0.00000000000E+00 0. -1.
</event>
<event>
 7    1  0.3020651E-013  0.7246164E+02  0.7816164E-02  0.1226708E+00
        -11   -1    0    0    0    0  0.00000000000E+00  0.00000000000E+00  0.45593999997E+02  0.45594000000E+02  0.51100000000E-03 0.  1.
         11   -1    0    0    0    0 -0.00000000000E+00 -0.00000000000E+00 -0.45593999997E+02  0.45594000000E+02  0.51100000000E-03 0. -1.
    9900012    2    1    2    0    0 -0.14958644396E+02 -0.42397845899E+01  0.10437415104E+02  0.72461642918E+02  0.70000094606E+02 0.  0.
         12    1    1    2    0    0  0.14958644396E+02  0.42397845899E+01 -0.10437415104E+02  0.18726357082E+02  0.00000000000E+00 0. -1.
         11    1    3    3    0    0  0.15920922220E+02 -0.16958395740E+02 -0.15848305494E+02  0.28146611478E+02  0.51100000000E-03 0. -1.
        -11    1    3    3    0    0 -0.88362525855E+01  0.26305351563E+01  0.98006236356E+00  0.92714398807E+01  0.51100000000E-03 0.  1.
        -12    1    3    3    0    0 -0.22043314030E+02  0.10088075994E+02  0.25305658234E+02  0.35043591559E+02  0.00000000000E+00 0.  1.
</event>
<event>
 7    1  0.3020651E-013  0.7246157E+02  0.7816164E-02  0.1226708E+00
        -11   -1    0    0    0    0  0.00000000000E+00  0.00000000000E+00  0.45593999997E+02  0.45594000000E+02  0.51100000000E-03 0.  1.
         11   -1    0    0    0    0 -0.00000000000E+00 -0.00000000000E+00 -0.45593999997E+02  0.45594000000E+02  0.51100000000E-03 0. -1.
    9900012    2    1    2    0    0 -0.10182444515E+02  0.14717943314E+02 -0.55117330980E+01  0.72461568587E+02  0.69999997776E+02 0.  0.
         12    1    1    2    0    0  0.10182444515E+02 -0.14717943314E+02  0.55117330980E+01  0.18726431413E+02  0.00000000000E+00 0. -1.
         11    1    3    3    0    0  0.16848277412E+02  0.18334139531E+02  0.74496529450E+01  0.25990430034E+02  0.51100000000E-03 0. -1.
        -11    1    3    3    0    0 -0.76061721223E+01  0.70836603953E+01 -0.20552577848E+02  0.23031295131E+02  0.51100000000E-03 0.  1.
        -12    1    3    3    0    0 -0.19424549805E+02 -0.10699856612E+02  0.75911918053E+01  0.23439843422E+02  0.00000000000E+00 0.  1.
</event>
<event>
 7    1  0.3020651E-013  0.7246157E+02  0.7816164E-02  0.1226708E+00
        -11   -1    0    0    0    0  0.00000000000E+00  0.00000000000E+00  0.45593999997E+02  0.45594000000E+02  0.51100000000E-03 0.  1.
         11   -1    0    0    0    0 -0.00000000000E+00 -0.00000000000E+00 -0.45593999997E+02  0.45594000000E+02  0.51100000000E-03 0. -1.
    9900012    2    1    2    0    0 -0.81591138091E+01 -0.16320566364E+02  0.42127425957E+01  0.72461568819E+02  0.69999998078E+02 0.  0.
         12    1    1    2    0    0  0.81591138091E+01  0.16320566364E+02 -0.42127425957E+01  0.18726431181E+02  0.00000000000E+00 0. -1.
         11    1    3    3    0    0  0.11677503085E+02  0.89852710513E+01 -0.59986883501E+01  0.15908596304E+02  0.51100000000E-03 0. -1.
        -11    1    3    3    0    0 -0.83619685582E+01 -0.36082945303E+02 -0.12824146164E+01  0.37061382158E+02  0.51100000000E-03 0.  1.
         12    1    3    3    0    0 -0.11474648336E+02  0.10777107888E+02  0.11493845562E+02  0.19491590358E+02  0.00000000000E+00 0. -1.
</event>
<event>
 7    1  0.3020651E-013  0.7246152E+02  0.7816164E-02  0.1226708E+00
        -11   -1    0    0    0    0  0.00000000000E+00  0.00000000000E+00  0.45593999997E+02  0.45594000000E+02  0.51100000000E-03 0.  1.
         11   -1    0    0    0    0 -0.00000000000E+00 -0.00000000000E+00 -0.45593999997E+02  0.45594000000E+02  0.51100000000E-03 0. -1.
    9900012    2    1    2    0    0  0.89161559598E+01 -0.72119137365E+01  0.14804448285E+02  0.72461515389E+02  0.69999928476E+02 0.  0.
         12    1    1    2    0    0 -0.89161559598E+01  0.72119137365E+01 -0.14804448285E+02  0.18726484611E+02  0.00000000000E+00 0. -1.
         11    1    3    3    0    0 -0.21624923522E+02  0.97697920742E+01 -0.26685996829E+01  0.23879019641E+02  0.51100000000E-03 0. -1.
        -11    1    3    3    0    0 -0.52764442308E+01 -0.62995372385E+00  0.49583536783E+01  0.72679417220E+01  0.51100000000E-03 0.  1.
        -12    1    3    3    0    0  0.35817523712E+02 -0.16351752087E+02  0.12514694290E+02  0.41314554026E+02  0.00000000000E+00 0.  1.
</event>
<event>
 7    1  0.3020651E-013  0.7246161E+02  0.7816164E-02  0.1226708E+00
        -11   -1    0    0    0    0  0.00000000000E+00  0.00000000000E+00  0.45593999997E+02  0.45594000000E+02  0.51100000000E-03 0.  1.
         11   -1    0    0    0    0 -0.00000000000E+00 -0.00000000000E+00 -0.45593999997E+02  0.45594000000E+02  0.51100000000E-03 0. -1.
    9900012    2    1    2    0    0 -0.94685285859E+01 -0.76351126248E+01  0.14238316976E+02  0.72461610901E+02  0.70000052898E+02 0.  0.
         12    1    1    2    0    0  0.94685285859E+01  0.76351126248E+01 -0.14238316976E+02  0.18726389099E+02  0.00000000000E+00 0. -1.
         11    1    3    3    0    0 -0.37217705328E+01  0.46722542173E+01 -0.72072245853E+01  0.93608558291E+01  0.51100000000E-03 0. -1.
        -11    1    3    3    0    0 -0.97828557907E+01 -0.28793890612E+01 -0.18898094807E+02  0.21474010719E+02  0.51100000000E-03 0.  1.
        -12    1    3    3    0    0  0.40360977376E+01 -0.94279777809E+01  0.40343636368E+02  0.41626744353E+02  0.00000000000E+00 0.  1.
</event>
<event>
 7    1  0.3020651E-013  0.7246193E+02  0.7816164E-02  0.1226707E+00
        -11   -1    0    0    0    0  0.00000000000E+00  0.00000000000E+00  0.45593999997E+02  0.45594000000E+02  0.51100000000E-03 0. -1.
         11   -1    0    0    0    0 -0.00000000000E+00 -0.00000000000E+00 -0.45593999997E+02  0.45594000000E+02  0.51100000000E-03 0.  1.
    9900012    2    1    2    0    0  0.24098822740E+01 -0.15018715795E+02 -0.10922286659E+02  0.72461929869E+02  0.70000468411E+02 0.  0.
         12    1    1    2    0    0 -0.24098822740E+01  0.15018715795E+02  0.10922286659E+02  0.18726070131E+02  0.00000000000E+00 0. -1.
         11    1    3    3    0    0  0.17704074051E+02 -0.27042709989E+00 -0.97936733282E+00  0.17733204151E+02  0.51100000000E-03 0. -1.
        -11    1    3    3    0    0  0.15960503472E+02 -0.61890109293E+01  0.65977412095E+01  0.18345891003E+02  0.51100000000E-03 0.  1.
         12    1    3    3    0    0 -0.31254695249E+02 -0.85592777656E+01 -0.16540660536E+02  0.36382834715E+02  0.00000000000E+00 0. -1.
</event>
<event>
 7    1  0.3020651E-013  0.7246155E+02  0.7816164E-02  0.1226708E+00
        -11   -1    0    0    0    0  0.00000000000E+00  0.00000000000E+00  0.45593999997E+02  0.45594000000E+02  0.51100000000E-03 0. -1.
         11   -1    0    0    0    0 -0.00000000000E+00 -0.00000000000E+00 -0.45593999997E+02  0.45594000000E+02  0.51100000000E-03 0.  1.
    9900012    2    1    2    0    0  0.95477851374E+01 -0.39855758528E+01 -0.15608812400E+02  0.72461547041E+02  0.69999969708E+02 0.  0.
         12    1    1    2    0    0 -0.95477851374E+01  0.39855758528E+01  0.15608812400E+02  0.18726452959E+02  0.00000000000E+00 0. -1.
         11    1    3    3    0    0  0.24797242784E+02 -0.62385223304E+01  0.14192766397E+02  0.29244777804E+02  0.51100000000E-03 0. -1.
        -11    1    3    3    0    0  0.31776634750E+00 -0.75686326284E+01  0.68319973949E+00  0.76060461121E+01  0.51100000000E-03 0.  1.
        -12    1    3    3    0    0 -0.15567223994E+02  0.98215791060E+01 -0.30484778536E+02  0.35610723124E+02  0.00000000000E+00 0.  1.
</event>
<event>
 7    1  0.3020651E-013  0.7246160E+02  0.7816164E-02  0.1226708E+00
        -11   -1    0    0    0    0  0.00000000000E+00  0.00000000000E+00  0.45593999997E+02  0.45594000000E+02  0.51100000000E-03 0.  1.
         11   -1    0    0    0    0 -0.00000000000E+00 -0.00000000000E+00 -0.45593999997E+02  0.45594000000E+02  0.51100000000E-03 0. -1.
    9900012    2    1    2    0    0 -0.11880755463E+02 -0.14235998812E+02  0.26195764795E+01  0.72461596355E+02  0.70000033949E+02 0.  0.
         12    1    1    2    0    0  0.11880755463E+02  0.14235998812E+02 -0.26195764795E+01  0.18726403645E+02  0.00000000000E+00 0. -1.
         11    1    3    3    0    0  0.14437753700E+02  0.84240088801E+01  0.58104313960E+01  0.17696716384E+02  0.51100000000E-03 0. -1.
        -11    1    3    3    0    0  0.49499828668E+01 -0.21651395429E+02  0.42366793025E+01  0.22610499910E+02  0.51100000000E-03 0.  1.
         12    1    3    3    0    0 -0.31268492030E+02 -0.10086122624E+01 -0.74275342190E+01  0.32154380061E+02  0.00000000000E+00 0. -1.
</event>
<event>
 7    1  0.3020651E-013  0.7246148E+02  0.7816164E-02  0.1226708E+00
        -11   -1    0    0    0    0  0.00000000000E+00  0.00000000000E+00  0.45593999997E+02  0.45594000000E+02  0.51100000000E-03 0. -1.
         11   -1    0    0    0    0 -0.00000000000E+00 -0.00000000000E+00 -0.45593999997E+02  0.45594000000E+02  0.51100000000E-03 0.  1.
    9900012    2    1    2    0    0  0.16163107405E+02 -0.10845077779E+01 -0.93946945313E+01  0.72461481812E+02  0.69999884735E+02 0.  0.
         12    1    1    2    0    0 -0.16163107405E+02  0.10845077779E+01  0.93946945313E+01  0.18726518188E+02  0.00000000000E+00 0. -1.
         11    1    3    3    0    0  0.81626858124E+01 -0.89464110855E+01 -0.56174974880E+01  0.13350055778E+02  0.51100000000E-03 0. -1.
        -11    1    3    3    0    0  0.53040722972E+01  0.15990790709E+02 -0.28411359010E+02  0.33030953536E+02  0.51100000000E-03 0.  1.
         12    1    3    3    0    0  0.26963492953E+01 -0.81288874012E+01  0.24634161967E+02  0.26080472498E+02  0.00000000000E+00 0. -1.
</event>
<event>
 7    1  0.3020651E-013  0.7246151E+02  0.7816164E-02  0.1226708E+00
        -11   -1    0    0    0    0  0.00000000000E+00  0.00000000000E+00  0.45593999997E+02  0.45594000000E+02  0.51100000000E-03 0. -1.
         11   -1    0    0    0    0 -0.00000000000E+00 -0.00000000000E+00 -0.45593999997E+02  0.45594000000E+02  0.51100000000E-03 0.  1.
    9900012    2    1    2    0    0 -0.78477384360E+01  0.14164838430E+02 -0.94048722845E+01  0.72461514238E+02  0.69999926976E+02 0.  0.
         12    1    1    2    0    0  0.78477384360E+01 -0.14164838430E+02  0.94048722845E+01  0.18726485762E+02  0.00000000000E+00 0. -1.
         11    1    3    3    0    0 -0.65071592310E+01  0.25662185611E+02  0.17922094724E+02  0.31970179404E+02  0.51100000000E-03 0. -1.
        -11    1    3    3    0    0 -0.75219484279E+01  0.51876244013E+01 -0.17018694702E+01  0.92944884224E+01  0.51100000000E-03 0.  1.
        -12    1    3    3    0    0  0.61813692230E+01 -0.16684971583E+02 -0.25625097538E+02  0.31196846411E+02  0.00000000000E+00 0.  1.
</event>
<event>
 7    1  0.3020651E-013  0.7246155E+02  0.7816164E-02  0.1226708E+00
        -11   -1    0    0    0    0  0.00000000000E+00  0.00000000000E+00  0.45593999997E+02  0.45594000000E+02  0.51100000000E-03 0.  1.
         11   -1    0    0    0    0 -0.00000000000E+00 -0.00000000000E+00 -0.45593999997E+02  0.45594000000E+02  0.51100000000E-03 0. -1.
    9900012    2    1    2    0    0 -0.17386289793E+02 -0.68196291911E+01  0.13745440999E+01  0.72461553819E+02  0.69999978538E+02 0.  0.
         12    1    1    2    0    0  0.17386289793E+02  0.68196291911E+01 -0.13745440999E+01  0.18726446181E+02  0.00000000000E+00 0. -1.
         11    1    3    3    0    0 -0.49253452520E+01 -0.84301821458E+01  0.13153798943E+02  0.16381374294E+02  0.51100000000E-03 0. -1.
        -11    1    3    3    0    0 -0.23881070499E+02 -0.17311593477E+02  0.27612676032E+01  0.29624675457E+02  0.51100000000E-03 0.  1.
         12    1    3    3    0    0  0.11420125958E+02  0.18922146431E+02 -0.14540522447E+02  0.26455504068E+02  0.00000000000E+00 0. -1.
</event>
<event>
 7    1  0.3020651E-013  0.7246149E+02  0.7816164E-02  0.1226708E+00
        -11   -1    0    0    0    0  0.00000000000E+00  0.00000000000E+00  0.45593999997E+02  0.45594000000E+02  0.51100000000E-03 0. -1.
         11   -1    0    0    0    0 -0.00000000000E+00 -0.00000000000E+00 -0.45593999997E+02  0.45594000000E+02  0.51100000000E-03 0.  1.
    9900012    2    1    2    0    0 -0.39143252207E+01  0.18312505709E+02 -0.11200942697E+00  0.72461485285E+02  0.69999889259E+02 0.  0.
         12    1    1    2    0    0  0.39143252207E+01 -0.18312505709E+02  0.11200942697E+00  0.18726514715E+02  0.00000000000E+00 0. -1.
         11    1    3    3    0    0  0.10955316867E+02  0.18777780651E+02 -0.82240238605E+00  0.21755467353E+02  0.51100000000E-03 0. -1.
        -11    1    3    3    0    0  0.75335854248E+01 -0.61194015742E+01  0.18935245428E+02  0.21277817197E+02  0.51100000000E-03 0.  1.
         12    1    3    3    0    0 -0.22403227512E+02  0.56541266321E+01 -0.18224852469E+02  0.29428200735E+02  0.00000000000E+00 0. -1.
</event>
<event>
 7    1  0.3020651E-013  0.7246181E+02  0.7816164E-02  0.1226707E+00
        -11   -1    0    0    0    0  0.00000000000E+00  0.00000000000E+00  0.45593999997E+02  0.45594000000E+02  0.51100000000E-03 0. -1.
         11   -1    0    0    0    0 -0.00000000000E+00 -0.00000000000E+00 -0.45593999997E+02  0.45594000000E+02  0.51100000000E-03 0.  1.
    9900012    2    1    2    0    0  0.67893927221E+01  0.47409304237E+01 -0.16795771835E+02  0.72461809081E+02  0.70000311063E+02 0.  0.
         12    1    1    2    0    0 -0.67893927221E+01 -0.47409304237E+01  0.16795771835E+02  0.18726190919E+02  0.00000000000E+00 0. -1.
         11    1    3    3    0    0 -0.79222334717E+01 -0.11354955882E+02 -0.64455553950E+01  0.15272262140E+02  0.51100000000E-03 0. -1.
        -11    1    3    3    0    0 -0.12499960425E+02  0.19798168231E+02 -0.16998705247E+02  0.28933932610E+02  0.51100000000E-03 0.  1.
        -12    1    3    3    0    0  0.27211586619E+02 -0.37022819256E+01  0.66484888073E+01  0.28255614331E+02  0.00000000000E+00 0.  1.
</event>
<event>
 7    1  0.3020651E-013  0.7246157E+02  0.7816164E-02  0.1226708E+00
        -11   -1    0    0    0    0  0.00000000000E+00  0.00000000000E+00  0.45593999997E+02  0.45594000000E+02  0.51100000000E-03 0.  1.
         11   -1    0    0    0    0 -0.00000000000E+00 -0.00000000000E+00 -0.45593999997E+02  0.45594000000E+02  0.51100000000E-03 0. -1.
    9900012    2    1    2    0    0 -0.17412584478E+02 -0.39913360523E+01  0.56169828174E+01  0.72461565272E+02  0.69999993457E+02 0.  0.
         12    1    1    2    0    0  0.17412584478E+02  0.39913360523E+01 -0.56169828174E+01  0.18726434728E+02  0.00000000000E+00 0. -1.
         11    1    3    3    0    0 -0.95769770711E+01 -0.16916250392E+02  0.10821133058E+02  0.22248032229E+02  0.51100000000E-03 0. -1.
        -11    1    3    3    0    0 -0.33413940189E+01 -0.17214473665E+02  0.47300431247E+01  0.18162497785E+02  0.51100000000E-03 0.  1.
        -12    1    3    3    0    0 -0.44942133876E+01  0.30139388005E+02 -0.99341933654E+01  0.32051035258E+02  0.00000000000E+00 0.  1.
</event>
<event>
 7    1  0.3020651E-013  0.7246152E+02  0.7816164E-02  0.1226708E+00
        -11   -1    0    0    0    0  0.00000000000E+00  0.00000000000E+00  0.45593999997E+02  0.45594000000E+02  0.51100000000E-03 0.  1.
         11   -1    0    0    0    0 -0.00000000000E+00 -0.00000000000E+00 -0.45593999997E+02  0.45594000000E+02  0.51100000000E-03 0. -1.
    9900012    2    1    2    0    0  0.47790816237E+01  0.68610053081E+01  0.16756130408E+02  0.72461523523E+02  0.69999939071E+02 0.  0.
         12    1    1    2    0    0 -0.47790816237E+01 -0.68610053081E+01 -0.16756130408E+02  0.18726476477E+02  0.00000000000E+00 0. -1.
         11    1    3    3    0    0  0.13097839212E+02  0.26342699310E+02  0.11743702292E+01  0.29442661983E+02  0.51100000000E-03 0. -1.
        -11    1    3    3    0    0 -0.40665338590E+01  0.96478595334E+01  0.22819397428E+01  0.10715649325E+02  0.51100000000E-03 0.  1.
        -12    1    3    3    0    0 -0.42522237297E+01 -0.29129553535E+02  0.13299820436E+02  0.32303212215E+02  0.00000000000E+00 0.  1.
</event>
<event>
 7    1  0.3020651E-013  0.7246156E+02  0.7816164E-02  0.1226708E+00
        -11   -1    0    0    0    0  0.00000000000E+00  0.00000000000E+00  0.45593999997E+02  0.45594000000E+02  0.51100000000E-03 0.  1.
         11   -1    0    0    0    0 -0.00000000000E+00 -0.00000000000E+00 -0.45593999997E+02  0.45594000000E+02  0.51100000000E-03 0. -1.
    9900012    2    1    2    0    0  0.13222327694E+02 -0.11898707612E+02  0.58540755618E+01  0.72461564323E+02  0.69999992221E+02 0.  0.
         12    1    1    2    0    0 -0.13222327694E+02  0.11898707612E+02 -0.58540755618E+01  0.18726435677E+02  0.00000000000E+00 0. -1.
         11    1    3    3    0    0  0.18933820663E+02 -0.15658831647E+02 -0.12050958880E+02  0.27366296491E+02  0.51100000000E-03 0. -1.
        -11    1    3    3    0    0  0.13320109380E+02 -0.49970717884E+01  0.19439753510E+02  0.24089417950E+02  0.51100000000E-03 0.  1.
         12    1    3    3    0    0 -0.19031602349E+02  0.87571958238E+01 -0.15347190676E+01  0.21005849882E+02  0.00000000000E+00 0. -1.
</event>
<event>
 7    1  0.3020651E-013  0.7246159E+02  0.7816164E-02  0.1226708E+00
        -11   -1    0    0    0    0  0.00000000000E+00  0.00000000000E+00  0.45593999997E+02  0.45594000000E+02  0.51100000000E-03 0. -1.
         11   -1    0    0    0    0 -0.00000000000E+00 -0.00000000000E+00 -0.45593999997E+02  0.45594000000E+02  0.51100000000E-03 0.  1.
    9900012    2    1    2    0    0  0.10558774878E+02  0.49200634971E+01 -0.14662321657E+02  0.72461590090E+02  0.70000025788E+02 0.  0.
         12    1    1    2    0    0 -0.10558774878E+02 -0.49200634971E+01  0.14662321657E+02  0.18726409910E+02  0.00000000000E+00 0. -1.
         11    1    3    3    0    0  0.26215863577E+02  0.12101762690E+01 -0.16546952353E+02  0.31024791089E+02  0.51100000000E-03 0. -1.
        -11    1    3    3    0    0 -0.61770384353E+00  0.18883183706E+02 -0.39260225730E+01  0.19296886755E+02  0.51100000000E-03 0.  1.
        -12    1    3    3    0    0 -0.15039384856E+02 -0.15173296478E+02  0.58106532687E+01  0.22139912246E+02  0.00000000000E+00 0.  1.
</event>
<event>
 7    1  0.3020651E-013  0.7246157E+02  0.7816164E-02  0.1226708E+00
        -11   -1    0    0    0    0  0.00000000000E+00  0.00000000000E+00  0.45593999997E+02  0.45594000000E+02  0.51100000000E-03 0. -1.
         11   -1    0    0    0    0 -0.00000000000E+00 -0.00000000000E+00 -0.45593999997E+02  0.45594000000E+02  0.51100000000E-03 0.  1.
    9900012    2    1    2    0    0 -0.13575633790E+02 -0.11341186057E+02  0.61448286781E+01  0.72461568053E+02  0.69999997080E+02 0.  0.
         12    1    1    2    0    0  0.13575633790E+02  0.11341186057E+02 -0.61448286781E+01  0.18726431947E+02  0.00000000000E+00 0. -1.
         11    1    3    3    0    0  0.63681846960E+01 -0.13606547070E+02  0.21816055252E+02  0.26488340199E+02  0.51100000000E-03 0. -1.
        -11    1    3    3    0    0 -0.19003171030E+01  0.17187046280E+02  0.85703754650E+00  0.17313008939E+02  0.51100000000E-03 0.  1.
        -12    1    3    3    0    0 -0.18043501383E+02 -0.14921685267E+02 -0.16528264121E+02  0.28660218914E+02  0.00000000000E+00 0.  1.
</event>
<event>
 7    1  0.3020651E-013  0.7246160E+02  0.7816164E-02  0.1226708E+00
        -11   -1    0    0    0    0  0.00000000000E+00  0.00000000000E+00  0.45593999997E+02  0.45594000000E+02  0.51100000000E-03 0.  1.
         11   -1    0    0    0    0 -0.00000000000E+00 -0.00000000000E+00 -0.45593999997E+02  0.45594000000E+02  0.51100000000E-03 0. -1.
    9900012    2    1    2    0    0 -0.10809967933E+02  0.15097416362E+02 -0.24270363755E+01  0.72461604375E+02  0.70000044397E+02 0.  0.
         12    1    1    2    0    0  0.10809967933E+02 -0.15097416362E+02  0.24270363755E+01  0.18726395625E+02  0.00000000000E+00 0. -1.
         11    1    3    3    0    0 -0.24539205875E+02  0.33753056283E+01 -0.16335408318E+02  0.29671718492E+02  0.51100000000E-03 0. -1.
        -11    1    3    3    0    0 -0.59790305351E+01 -0.81327530863E+01  0.10570438288E+02  0.14615903830E+02  0.51100000000E-03 0.  1.
         12    1    3    3    0    0  0.19708268477E+02  0.19854863820E+02  0.33379336543E+01  0.28173982054E+02  0.00000000000E+00 0. -1.
</event>
<event>
 7    1  0.3020651E-013  0.7246150E+02  0.7816164E-02  0.1226708E+00
        -11   -1    0    0    0    0  0.00000000000E+00  0.00000000000E+00  0.45593999997E+02  0.45594000000E+02  0.51100000000E-03 0. -1.
         11   -1    0    0    0    0 -0.00000000000E+00 -0.00000000000E+00 -0.45593999997E+02  0.45594000000E+02  0.51100000000E-03 0.  1.
    9900012    2    1    2    0    0 -0.17700385185E+02  0.41191944162E+01  0.45178047762E+01  0.72461495832E+02  0.69999902999E+02 0.  0.
         12    1    1    2    0    0  0.17700385185E+02 -0.41191944162E+01 -0.45178047762E+01  0.18726504168E+02  0.00000000000E+00 0. -1.
         11    1    3    3    0    0 -0.13829733213E+02 -0.10897058151E+02  0.57487972536E+01  0.18521772788E+02  0.51100000000E-03 0. -1.
        -11    1    3    3    0    0 -0.20128419330E+02 -0.11201437756E+02 -0.15669858833E+01  0.23088545159E+02  0.51100000000E-03 0.  1.
         12    1    3    3    0    0  0.16257767358E+02  0.26217690323E+02  0.33599340585E+00  0.30851177885E+02  0.00000000000E+00 0. -1.
</event>
<event>
 7    1  0.3023116E-013  0.7246158E+02  0.7816164E-02  0.1226708E+00
        -11   -1    0    0    0    0  0.00000000000E+00  0.00000000000E+00  0.45593999997E+02  0.45594000000E+02  0.51100000000E-03 0. -1.
         11   -1    0    0    0    0 -0.00000000000E+00 -0.00000000000E+00 -0.45593999997E+02  0.45594000000E+02  0.51100000000E-03 0.  1.
    9900012    2    1    2    0    0  0.16217806203E+02 -0.10750373506E+01 -0.93008585073E+01  0.72461577162E+02  0.70000008946E+02 0.  0.
         12    1    1    2    0    0 -0.16217806203E+02  0.10750373506E+01  0.93008585073E+01  0.18726422838E+02  0.00000000000E+00 0. -1.
         11    1    3    3    0    0 -0.61141552706E+01 -0.83791099452E+01 -0.10688260295E+02  0.14894001697E+02  0.51100000000E-03 0. -1.
        -11    1    3    3    0    0  0.18164967162E+02  0.71154548497E+01 -0.24515715382E+02  0.31330752156E+02  0.51100000000E-03 0.  1.
         12    1    3    3    0    0  0.41669943116E+01  0.18861774497E+00  0.25903117170E+02  0.26236823309E+02  0.00000000000E+00 0. -1.
</event>
<event>
 7    1  0.3020651E-013  0.7246161E+02  0.7816164E-02  0.1226708E+00
        -11   -1    0    0    0    0  0.00000000000E+00  0.00000000000E+00  0.45593999997E+02  0.45594000000E+02  0.51100000000E-03 0.  1.
         11   -1    0    0    0    0 -0.00000000000E+00 -0.00000000000E+00 -0.45593999997E+02  0.45594000000E+02  0.51100000000E-03 0. -1.
    9900012    2    1    2    0    0  0.71503907770E+01  0.17174810293E+02 -0.21390172558E+01  0.72461612423E+02  0.70000054880E+02 0.  0.
         12    1    1    2    0    0 -0.71503907770E+01 -0.17174810293E+02  0.21390172558E+01  0.18726387577E+02  0.00000000000E+00 0. -1.
         11    1    3    3    0    0  0.65619930574E+01  0.19581161333E+01 -0.24076402063E+02  0.25031322543E+02  0.51100000000E-03 0. -1.
        -11    1    3    3    0    0  0.74858521059E+01 -0.11701074836E+02  0.10354592996E+02  0.17325435938E+02  0.51100000000E-03 0.  1.
        -12    1    3    3    0    0 -0.68974543863E+01  0.26917768996E+02  0.11582791812E+02  0.30104853942E+02  0.00000000000E+00 0.  1.
</event>
<event>
 7    1  0.3020651E-013  0.7246155E+02  0.7816164E-02  0.1226708E+00
        -11   -1    0    0    0    0  0.00000000000E+00  0.00000000000E+00  0.45593999997E+02  0.45594000000E+02  0.51100000000E-03 0. -1.
         11   -1    0    0    0    0 -0.00000000000E+00 -0.00000000000E+00 -0.45593999997E+02  0.45594000000E+02  0.51100000000E-03 0.  1.
    9900012    2    1    2    0    0 -0.87181609043E+01  0.55228468683E+01 -0.15625991174E+02  0.72461554335E+02  0.69999979210E+02 0.  0.
         12    1    1    2    0    0  0.87181609043E+01 -0.55228468683E+01  0.15625991174E+02  0.18726445665E+02  0.00000000000E+00 0. -1.
         11    1    3    3    0    0 -0.18812310040E+02 -0.36454523710E+01  0.90269725427E+01  0.21182034028E+02  0.51100000000E-03 0.  1.
        -11    1    3    3    0    0  0.56800096267E+01 -0.16569044263E+02 -0.16128657887E+02  0.23810278089E+02  0.51100000000E-03 0. -1.
         12    1    3    3    0    0  0.44141395087E+01  0.25737343503E+02 -0.85243058292E+01  0.27469242218E+02  0.00000000000E+00 0. -1.
</event>
<event>
 7    1  0.4606085E-013  0.7246169E+02  0.7816164E-02  0.1226708E+00
        -11   -1    0    0    0    0  0.00000000000E+00  0.00000000000E+00  0.45593999997E+02  0.45594000000E+02  0.51100000000E-03 0. -1.
         11   -1    0    0    0    0 -0.00000000000E+00 -0.00000000000E+00 -0.45593999997E+02  0.45594000000E+02  0.51100000000E-03 0.  1.
    9900012    2    1    2    0    0 -0.13879195988E+02  0.61063765243E+01 -0.10988845777E+02  0.72461691046E+02  0.70000157302E+02 0.  0.
         12    1    1    2    0    0  0.13879195988E+02 -0.61063765243E+01  0.10988845777E+02  0.18726308954E+02  0.00000000000E+00 0. -1.
         11    1    3    3    0    0 -0.70728284683E+01 -0.81744206155E+01  0.21889225250E+02  0.24412788396E+02  0.51100000000E-03 0. -1.
        -11    1    3    3    0    0 -0.67803210975E+01 -0.91817755607E+01 -0.86425878975E+01  0.14316846107E+02  0.51100000000E-03 0.  1.
        -12    1    3    3    0    0 -0.26046422083E-01  0.23462572701E+02 -0.24235483129E+02  0.33732056543E+02  0.00000000000E+00 0.  1.
</event>
<event>
 7    1  0.3020651E-013  0.7246132E+02  0.7816164E-02  0.1226709E+00
        -11   -1    0    0    0    0  0.00000000000E+00  0.00000000000E+00  0.45593999997E+02  0.45594000000E+02  0.51100000000E-03 0.  1.
         11   -1    0    0    0    0 -0.00000000000E+00 -0.00000000000E+00 -0.45593999997E+02  0.45594000000E+02  0.51100000000E-03 0. -1.
    9900012    2    1    2    0    0  0.90765570913E+01 -0.54061075513E+01  0.15462164480E+02  0.72461323362E+02  0.69999678325E+02 0.  0.
         12    1    1    2    0    0 -0.90765570913E+01  0.54061075513E+01 -0.15462164480E+02  0.18726676638E+02  0.00000000000E+00 0. -1.
         11    1    3    3    0    0  0.49232877440E+01 -0.20533586518E+02  0.40986121089E+01  0.21509661992E+02  0.51100000000E-03 0. -1.
        -11    1    3    3    0    0  0.10527794318E+02 -0.14600536979E+02  0.98294152996E+01  0.20509206193E+02  0.51100000000E-03 0.  1.
         12    1    3    3    0    0 -0.63745249711E+01  0.29728015946E+02  0.15341370712E+01  0.30442455178E+02  0.00000000000E+00 0. -1.
</event>
<event>
 7    1  0.3020651E-013  0.7246159E+02  0.7816164E-02  0.1226708E+00
        -11   -1    0    0    0    0  0.00000000000E+00  0.00000000000E+00  0.45593999997E+02  0.45594000000E+02  0.51100000000E-03 0. -1.
         11   -1    0    0    0    0 -0.00000000000E+00 -0.00000000000E+00 -0.45593999997E+02  0.45594000000E+02  0.51100000000E-03 0.  1.
    9900012    2    1    2    0    0  0.35332770571E+01  0.17709942233E+02 -0.49550421812E+01  0.72461587005E+02  0.70000021769E+02 0.  0.
         12    1    1    2    0    0 -0.35332770571E+01 -0.17709942233E+02  0.49550421812E+01  0.18726412995E+02  0.00000000000E+00 0. -1.
         11    1    3    3    0    0  0.14259423818E+02  0.26351598794E+01 -0.15235173810E+02  0.21032968324E+02  0.51100000000E-03 0. -1.
        -11    1    3    3    0    0  0.17452321413E+02  0.13651121244E+02  0.52269105433E+01  0.22765263627E+02  0.51100000000E-03 0.  1.
         12    1    3    3    0    0 -0.28178468174E+02  0.14236611087E+01  0.50532210857E+01  0.28663355054E+02  0.00000000000E+00 0. -1.
</event>
<event>
 7    1  0.3020651E-013  0.7246161E+02  0.7816164E-02  0.1226708E+00
        -11   -1    0    0    0    0  0.00000000000E+00  0.00000000000E+00  0.45593999997E+02  0.45594000000E+02  0.51100000000E-03 0.  1.
         11   -1    0    0    0    0 -0.00000000000E+00 -0.00000000000E+00 -0.45593999997E+02  0.45594000000E+02  0.51100000000E-03 0. -1.
    9900012    2    1    2    0    0  0.66061237406E+01  0.15820426320E+02  0.75333176888E+01  0.72461611260E+02  0.70000053366E+02 0.  0.
         12    1    1    2    0    0 -0.66061237406E+01 -0.15820426320E+02 -0.75333176888E+01  0.18726388740E+02  0.00000000000E+00 0. -1.
         11    1    3    3    0    0 -0.65949746543E+01  0.21141427248E+02 -0.12542241495E+02  0.25451158299E+02  0.51100000000E-03 0. -1.
        -11    1    3    3    0    0  0.21723218337E+01  0.16964254573E+02  0.45543894263E+01  0.17698795967E+02  0.51100000000E-03 0.  1.
        -12    1    3    3    0    0  0.11028776561E+02 -0.22285255500E+02  0.15521169757E+02  0.29311656995E+02  0.00000000000E+00 0.  1.
</event>
<event>
 7    1  0.3020651E-013  0.7246156E+02  0.7816164E-02  0.1226708E+00
        -11   -1    0    0    0    0  0.00000000000E+00  0.00000000000E+00  0.45593999997E+02  0.45594000000E+02  0.51100000000E-03 0.  1.
         11   -1    0    0    0    0 -0.00000000000E+00 -0.00000000000E+00 -0.45593999997E+02  0.45594000000E+02  0.51100000000E-03 0. -1.
    9900012    2    1    2    0    0  0.11681451766E+02 -0.29047674776E+01  0.14345228637E+02  0.72461559492E+02  0.69999985928E+02 0.  0.
         12    1    1    2    0    0 -0.11681451766E+02  0.29047674776E+01 -0.14345228637E+02  0.18726440508E+02  0.00000000000E+00 0. -1.
         11    1    3    3    0    0 -0.46124552441E+01  0.23224777794E+02  0.10480206855E+02  0.25894010561E+02  0.51100000000E-03 0. -1.
        -11    1    3    3    0    0 -0.10670210503E+02 -0.11461396101E+02  0.26559777527E+00  0.15661658124E+02  0.51100000000E-03 0.  1.
        -12    1    3    3    0    0  0.26964117513E+02 -0.14668149171E+02  0.35994240063E+01  0.30905890806E+02  0.00000000000E+00 0.  1.
</event>
<event>
 7    1  0.3020651E-013  0.7246167E+02  0.7816164E-02  0.1226708E+00
        -11   -1    0    0    0    0  0.00000000000E+00  0.00000000000E+00  0.45593999997E+02  0.45594000000E+02  0.51100000000E-03 0.  1.
         11   -1    0    0    0    0 -0.00000000000E+00 -0.00000000000E+00 -0.45593999997E+02  0.45594000000E+02  0.51100000000E-03 0. -1.
    9900012    2    1    2    0    0 -0.10666644233E+02 -0.12949001082E+02  0.83199469410E+01  0.72461669732E+02  0.70000129536E+02 0.  0.
         12    1    1    2    0    0  0.10666644233E+02  0.12949001082E+02 -0.83199469410E+01  0.18726330268E+02  0.00000000000E+00 0. -1.
         11    1    3    3    0    0 -0.71337987737E+01 -0.18020278098E+02 -0.80270902754E+01  0.20977504289E+02  0.51100000000E-03 0. -1.
        -11    1    3    3    0    0 -0.30062686715E+01 -0.16893252724E+02  0.22846258283E+02  0.28572209518E+02  0.51100000000E-03 0.  1.
         12    1    3    3    0    0 -0.52657678802E+00  0.21964529741E+02 -0.64992210662E+01  0.22911955925E+02  0.00000000000E+00 0. -1.
</event>
<event>
 7    1  0.3020651E-013  0.7246160E+02  0.7816164E-02  0.1226708E+00
        -11   -1    0    0    0    0  0.00000000000E+00  0.00000000000E+00  0.45593999997E+02  0.45594000000E+02  0.51100000000E-03 0. -1.
         11   -1    0    0    0    0 -0.00000000000E+00 -0.00000000000E+00 -0.45593999997E+02  0.45594000000E+02  0.51100000000E-03 0.  1.
    9900012    2    1    2    0    0  0.86262866728E+01 -0.16550843280E+02  0.15279779736E+01  0.72461602810E+02  0.70000042358E+02 0.  0.
         12    1    1    2    0    0 -0.86262866728E+01  0.16550843280E+02 -0.15279779736E+01  0.18726397190E+02  0.00000000000E+00 0. -1.
         11    1    3    3    0    0  0.26490149020E+02  0.12004474752E+02 -0.97833113889E+01  0.30684663778E+02  0.51100000000E-03 0. -1.
        -11    1    3    3    0    0  0.35963774495E+01 -0.23285956842E+00 -0.16350716122E+01  0.39574756823E+01  0.51100000000E-03 0.  1.
        -12    1    3    3    0    0 -0.21460239797E+02 -0.28322458464E+02  0.12946360975E+02  0.37819463350E+02  0.00000000000E+00 0.  1.
</event>
<event>
 7    1  0.3020651E-013  0.7246159E+02  0.7816164E-02  0.1226708E+00
        -11   -1    0    0    0    0  0.00000000000E+00  0.00000000000E+00  0.45593999997E+02  0.45594000000E+02  0.51100000000E-03 0. -1.
         11   -1    0    0    0    0 -0.00000000000E+00 -0.00000000000E+00 -0.45593999997E+02  0.45594000000E+02  0.51100000000E-03 0.  1.
    9900012    2    1    2    0    0  0.31958643971E+01 -0.16090886621E+02 -0.90303984913E+01  0.72461594087E+02  0.70000030994E+02 0.  0.
         12    1    1    2    0    0 -0.31958643971E+01  0.16090886621E+02  0.90303984913E+01  0.18726405913E+02  0.00000000000E+00 0. -1.
         11    1    3    3    0    0  0.50873663143E+01 -0.10140078894E+02  0.12290167377E+02  0.16725749920E+02  0.51100000000E-03 0. -1.
        -11    1    3    3    0    0 -0.25070223108E+02 -0.82474522774E+01 -0.39640526442E+01  0.26688017337E+02  0.51100000000E-03 0.  1.
         12    1    3    3    0    0  0.23178721191E+02  0.22966445496E+01 -0.17356513224E+02  0.29047826830E+02  0.00000000000E+00 0. -1.
</event>
<event>
 7    1  0.3020651E-013  0.7246159E+02  0.7816164E-02  0.1226708E+00
        -11   -1    0    0    0    0  0.00000000000E+00  0.00000000000E+00  0.45593999997E+02  0.45594000000E+02  0.51100000000E-03 0. -1.
         11   -1    0    0    0    0 -0.00000000000E+00 -0.00000000000E+00 -0.45593999997E+02  0.45594000000E+02  0.51100000000E-03 0.  1.
    9900012    2    1    2    0    0  0.11889587162E+01 -0.14392582761E+02 -0.11921347293E+02  0.72461585964E+02  0.70000020413E+02 0.  0.
         12    1    1    2    0    0 -0.11889587162E+01  0.14392582761E+02  0.11921347293E+02  0.18726414036E+02  0.00000000000E+00 0. -1.
         11    1    3    3    0    0  0.72232812312E+01 -0.51905014358E+01  0.16801181506E+02  0.19010439163E+02  0.51100000000E-03 0. -1.
        -11    1    3    3    0    0  0.29091587698E+00 -0.22717056504E+02 -0.19518418985E+01  0.22802608959E+02  0.51100000000E-03 0.  1.
        -12    1    3    3    0    0 -0.63252383919E+01  0.13514975179E+02 -0.26770686900E+02  0.30648537843E+02  0.00000000000E+00 0.  1.
</event>
<event>
 7    1  0.3020651E-013  0.7246159E+02  0.7816164E-02  0.1226708E+00
        -11   -1    0    0    0    0  0.00000000000E+00  0.00000000000E+00  0.45593999997E+02  0.45594000000E+02  0.51100000000E-03 0.  1.
         11   -1    0    0    0    0 -0.00000000000E+00 -0.00000000000E+00 -0.45593999997E+02  0.45594000000E+02  0.51100000000E-03 0. -1.
    9900012    2    1    2    0    0 -0.39478152704E+01 -0.18979737035E+01  0.18206896190E+02  0.72461585008E+02  0.70000019167E+02 0.  0.
         12    1    1    2    0    0  0.39478152704E+01  0.18979737035E+01 -0.18206896190E+02  0.18726414992E+02  0.00000000000E+00 0. -1.
         11    1    3    3    0    0 -0.43532145999E+01 -0.15871736397E+00 -0.45111964882E+01  0.62710894246E+01  0.51100000000E-03 0. -1.
        -11    1    3    3    0    0 -0.89619669887E+01  0.28832760344E+02  0.11247890134E+02  0.32220489662E+02  0.51100000000E-03 0.  1.
         12    1    3    3    0    0  0.93673663183E+01 -0.30572016684E+02  0.11470202545E+02  0.33970005921E+02  0.00000000000E+00 0. -1.
</event>
<event>
 7    1  0.3020651E-013  0.7246158E+02  0.7816164E-02  0.1226708E+00
        -11   -1    0    0    0    0  0.00000000000E+00  0.00000000000E+00  0.45593999997E+02  0.45594000000E+02  0.51100000000E-03 0.  1.
         11   -1    0    0    0    0 -0.00000000000E+00 -0.00000000000E+00 -0.45593999997E+02  0.45594000000E+02  0.51100000000E-03 0. -1.
    9900012    2    1    2    0    0 -0.16941664464E+02  0.67675128177E+01 -0.42260710257E+01  0.72461577468E+02  0.70000009345E+02 0.  0.
         12    1    1    2    0    0  0.16941664464E+02 -0.67675128177E+01  0.42260710257E+01  0.18726422532E+02  0.00000000000E+00 0. -1.
         11    1    3    3    0    0 -0.17867559793E+02 -0.13302343563E+02 -0.23130466293E+01  0.22395361622E+02  0.51100000000E-03 0. -1.
        -11    1    3    3    0    0 -0.19478102939E+02  0.21385626293E+02  0.28679456173E+01  0.29068309520E+02  0.51100000000E-03 0.  1.
        -12    1    3    3    0    0  0.20403998268E+02 -0.13157699121E+01 -0.47809700137E+01  0.20997906325E+02  0.00000000000E+00 0.  1.
</event>
<event>
 7    1  0.3020651E-013  0.7246154E+02  0.7816164E-02  0.1226708E+00
        -11   -1    0    0    0    0  0.00000000000E+00  0.00000000000E+00  0.45593999997E+02  0.45594000000E+02  0.51100000000E-03 0. -1.
         11   -1    0    0    0    0 -0.00000000000E+00 -0.00000000000E+00 -0.45593999997E+02  0.45594000000E+02  0.51100000000E-03 0.  1.
    9900012    2    1    2    0    0  0.14560092343E+02  0.11679594637E+02  0.15069851853E+01  0.72461542132E+02  0.69999963314E+02 0.  0.
         12    1    1    2    0    0 -0.14560092343E+02 -0.11679594637E+02 -0.15069851853E+01  0.18726457868E+02  0.00000000000E+00 0. -1.
         11    1    3    3    0    0 -0.16339670533E+01  0.74804237848E+01  0.15218218063E+02  0.17035866565E+02  0.51100000000E-03 0. -1.
        -11    1    3    3    0    0 -0.99270229210E+01  0.13327001535E+02 -0.21030824766E+02  0.26803924052E+02  0.51100000000E-03 0.  1.
         12    1    3    3    0    0  0.26121082317E+02 -0.91278306827E+01  0.73195918879E+01  0.28621751515E+02  0.00000000000E+00 0. -1.
</event>
<event>
 7    1  0.3020651E-013  0.7246160E+02  0.7816164E-02  0.1226708E+00
        -11   -1    0    0    0    0  0.00000000000E+00  0.00000000000E+00  0.45593999997E+02  0.45594000000E+02  0.51100000000E-03 0.  1.
         11   -1    0    0    0    0 -0.00000000000E+00 -0.00000000000E+00 -0.45593999997E+02  0.45594000000E+02  0.51100000000E-03 0. -1.
    9900012    2    1    2    0    0  0.40885454308E+00 -0.12240525168E+02  0.14166177475E+02  0.72461596109E+02  0.70000033629E+02 0.  0.
         12    1    1    2    0    0 -0.40885454308E+00  0.12240525168E+02 -0.14166177475E+02  0.18726403891E+02  0.00000000000E+00 0. -1.
         11    1    3    3    0    0  0.26970660418E+01 -0.27285922932E+01 -0.17814350264E+01  0.42299990721E+01  0.51100000000E-03 0. -1.
        -11    1    3    3    0    0  0.21164732037E+02 -0.28949287552E+02  0.94602908408E+01  0.37087790916E+02  0.51100000000E-03 0.  1.
         12    1    3    3    0    0 -0.23452943536E+02  0.19437354678E+02  0.64873216607E+01  0.31143806121E+02  0.00000000000E+00 0. -1.
</event>
<event>
 7    1  0.3020651E-013  0.7246161E+02  0.7816164E-02  0.1226708E+00
        -11   -1    0    0    0    0  0.00000000000E+00  0.00000000000E+00  0.45593999997E+02  0.45594000000E+02  0.51100000000E-03 0.  1.
         11   -1    0    0    0    0 -0.00000000000E+00 -0.00000000000E+00 -0.45593999997E+02  0.45594000000E+02  0.51100000000E-03 0. -1.
    9900012    2    1    2    0    0 -0.35851259118E+00  0.18583392806E+02 -0.22818127959E+01  0.72461609822E+02  0.70000051492E+02 0.  0.
         12    1    1    2    0    0  0.35851259118E+00 -0.18583392806E+02  0.22818127959E+01  0.18726390178E+02  0.00000000000E+00 0. -1.
         11    1    3    3    0    0 -0.24322450802E+01  0.28871477767E+00  0.34451156440E+01  0.42270550522E+01  0.51100000000E-03 0. -1.
        -11    1    3    3    0    0 -0.17900853612E+02 -0.16047057100E+02 -0.13763311612E+02  0.27701576641E+02  0.51100000000E-03 0.  1.
         12    1    3    3    0    0  0.19974586101E+02  0.34341735128E+02  0.80363831724E+01  0.40532978129E+02  0.00000000000E+00 0. -1.
</event>
<event>
 7    1  0.3020651E-013  0.7246159E+02  0.7816164E-02  0.1226708E+00
        -11   -1    0    0    0    0  0.00000000000E+00  0.00000000000E+00  0.45593999997E+02  0.45594000000E+02  0.51100000000E-03 0. -1.
         11   -1    0    0    0    0 -0.00000000000E+00 -0.00000000000E+00 -0.45593999997E+02  0.45594000000E+02  0.51100000000E-03 0.  1.
    9900012    2    1    2    0    0  0.62819968167E+01 -0.15928649206E+02 -0.75824165084E+01  0.72461591117E+02  0.70000027126E+02 0.  0.
         12    1    1    2    0    0 -0.62819968167E+01  0.15928649206E+02  0.75824165084E+01  0.18726408883E+02  0.00000000000E+00 0. -1.
         11    1    3    3    0    0 -0.10343730471E+02 -0.28272408731E+02 -0.11671633791E+02  0.32288525688E+02  0.51100000000E-03 0. -1.
        -11    1    3    3    0    0 -0.28609414262E+01  0.32996611412E+01 -0.12364386735E+02  0.13113001529E+02  0.51100000000E-03 0.  1.
        -12    1    3    3    0    0  0.19486668714E+02  0.90440983833E+01  0.16453604018E+02  0.27060063901E+02  0.00000000000E+00 0.  1.
</event>
<event>
 7    1  0.3020651E-013  0.7246152E+02  0.7816164E-02  0.1226708E+00
        -11   -1    0    0    0    0  0.00000000000E+00  0.00000000000E+00  0.45593999997E+02  0.45594000000E+02  0.51100000000E-03 0.  1.
         11   -1    0    0    0    0 -0.00000000000E+00 -0.00000000000E+00 -0.45593999997E+02  0.45594000000E+02  0.51100000000E-03 0. -1.
    9900012    2    1    2    0    0 -0.33450961432E+01 -0.20919417690E+01  0.18306152638E+02  0.72461518403E+02  0.69999932402E+02 0.  0.
         12    1    1    2    0    0  0.33450961432E+01  0.20919417690E+01 -0.18306152638E+02  0.18726481597E+02  0.00000000000E+00 0. -1.
         11    1    3    3    0    0 -0.17891698774E+01 -0.11731980799E+01  0.13117266500E+00  0.21435319251E+01  0.51100000000E-03 0. -1.
        -11    1    3    3    0    0  0.90171607147E+01 -0.27102031907E+02 -0.10159276403E+02  0.30315676112E+02  0.51100000000E-03 0.  1.
         12    1    3    3    0    0 -0.10573086981E+02  0.26183288218E+02  0.28334256377E+02  0.40002310366E+02  0.00000000000E+00 0. -1.
</event>
<event>
 7    1  0.3020651E-013  0.7246158E+02  0.7816164E-02  0.1226708E+00
        -11   -1    0    0    0    0  0.00000000000E+00  0.00000000000E+00  0.45593999997E+02  0.45594000000E+02  0.51100000000E-03 0. -1.
         11   -1    0    0    0    0 -0.00000000000E+00 -0.00000000000E+00 -0.45593999997E+02  0.45594000000E+02  0.51100000000E-03 0.  1.
    9900012    2    1    2    0    0  0.79196301231E+01  0.59920764843E+01 -0.15876189907E+02  0.72461576747E+02  0.70000008406E+02 0.  0.
         12    1    1    2    0    0 -0.79196301231E+01 -0.59920764843E+01  0.15876189907E+02  0.18726423253E+02  0.00000000000E+00 0. -1.
         11    1    3    3    0    0  0.13177743205E+02 -0.42036972740E+00 -0.11735709148E+02  0.17650963038E+02  0.51100000000E-03 0. -1.
        -11    1    3    3    0    0 -0.18798232358E+01  0.99195476757E+01 -0.28361512891E+02  0.30104926095E+02  0.51100000000E-03 0.  1.
         12    1    3    3    0    0 -0.33782898463E+01 -0.35071014640E+01  0.24221032131E+02  0.24705687614E+02  0.00000000000E+00 0. -1.
</event>
<event>
 7    1  0.3020651E-013  0.7246157E+02  0.7816164E-02  0.1226708E+00
        -11   -1    0    0    0    0  0.00000000000E+00  0.00000000000E+00  0.45593999997E+02  0.45594000000E+02  0.51100000000E-03 0. -1.
         11   -1    0    0    0    0 -0.00000000000E+00 -0.00000000000E+00 -0.45593999997E+02  0.45594000000E+02  0.51100000000E-03 0.  1.
    9900012    2    1    2    0    0  0.10627031695E+02  0.57070221734E+01 -0.14323938609E+02  0.72461571563E+02  0.70000001652E+02 0.  0.
         12    1    1    2    0    0 -0.10627031695E+02 -0.57070221734E+01  0.14323938609E+02  0.18726428437E+02  0.00000000000E+00 0. -1.
         11    1    3    3    0    0  0.18813238886E+02  0.14373405040E+02 -0.11795530860E+02  0.26451224516E+02  0.51100000000E-03 0. -1.
        -11    1    3    3    0    0  0.10252611824E+02  0.98149442111E+01 -0.11643719598E+02  0.18358251153E+02  0.51100000000E-03 0.  1.
         12    1    3    3    0    0 -0.18438819015E+02 -0.18481327078E+02  0.91153118489E+01  0.27652095894E+02  0.00000000000E+00 0. -1.
</event>
<event>
 7    1  0.3020651E-013  0.7246153E+02  0.7816164E-02  0.1226708E+00
        -11   -1    0    0    0    0  0.00000000000E+00  0.00000000000E+00  0.45593999997E+02  0.45594000000E+02  0.51100000000E-03 0. -1.
         11   -1    0    0    0    0 -0.00000000000E+00 -0.00000000000E+00 -0.45593999997E+02  0.45594000000E+02  0.51100000000E-03 0.  1.
    9900012    2    1    2    0    0 -0.36483072771E+01 -0.12975307139E+02 -0.13000460307E+02  0.72461529175E+02  0.69999946435E+02 0.  0.
         12    1    1    2    0    0  0.36483072771E+01  0.12975307139E+02  0.13000460307E+02  0.18726470825E+02  0.00000000000E+00 0. -1.
         11    1    3    3    0    0  0.71232265660E+01 -0.10921108643E+02 -0.19711643309E+02  0.23633870883E+02  0.51100000000E-03 0. -1.
        -11    1    3    3    0    0 -0.27766571885E+01 -0.12885235539E+02 -0.17030123556E+02  0.21535185827E+02  0.51100000000E-03 0.  1.
        -12    1    3    3    0    0 -0.79948766545E+01  0.10831037043E+02  0.23741306558E+02  0.27292472465E+02  0.00000000000E+00 0.  1.
</event>
<event>
 7    1  0.3020651E-013  0.7246152E+02  0.7816164E-02  0.1226708E+00
        -11   -1    0    0    0    0  0.00000000000E+00  0.00000000000E+00  0.45593999997E+02  0.45594000000E+02  0.51100000000E-03 0. -1.
         11   -1    0    0    0    0 -0.00000000000E+00 -0.00000000000E+00 -0.45593999997E+02  0.45594000000E+02  0.51100000000E-03 0.  1.
    9900012    2    1    2    0    0  0.90408694902E+01 -0.14059770169E+02 -0.84419564411E+01  0.72461519100E+02  0.69999933310E+02 0.  0.
         12    1    1    2    0    0 -0.90408694902E+01  0.14059770169E+02  0.84419564411E+01  0.18726480900E+02  0.00000000000E+00 0. -1.
         11    1    3    3    0    0 -0.12221208707E+02 -0.65533925780E+00  0.10501447913E+02  0.16126618379E+02  0.51100000000E-03 0. -1.
        -11    1    3    3    0    0  0.68316780280E+01  0.17564555978E+02 -0.78122536296E+01  0.20401391090E+02  0.51100000000E-03 0.  1.
         12    1    3    3    0    0  0.14430400169E+02 -0.30968986889E+02 -0.11131150725E+02  0.35933509631E+02  0.00000000000E+00 0. -1.
</event>
<event>
 7    1  0.3020651E-013  0.7246153E+02  0.7816164E-02  0.1226708E+00
        -11   -1    0    0    0    0  0.00000000000E+00  0.00000000000E+00  0.45593999997E+02  0.45594000000E+02  0.51100000000E-03 0.  1.
         11   -1    0    0    0    0 -0.00000000000E+00 -0.00000000000E+00 -0.45593999997E+02  0.45594000000E+02  0.51100000000E-03 0. -1.
    9900012    2    1    2    0    0 -0.70948398456E+01 -0.17257660714E+02 -0.15864831977E+01  0.72461533844E+02  0.69999952517E+02 0.  0.
         12    1    1    2    0    0  0.70948398456E+01  0.17257660714E+02  0.15864831977E+01  0.18726466156E+02  0.00000000000E+00 0. -1.
         11    1    3    3    0    0  0.54108039347E+01  0.54139573169E+01  0.15408189290E+02  0.17204651421E+02  0.51100000000E-03 0. -1.
        -11    1    3    3    0    0  0.11937813983E+02 -0.10711442104E+02  0.83390596307E+01  0.18077231824E+02  0.51100000000E-03 0.  1.
        -12    1    3    3    0    0 -0.24443457763E+02 -0.11960175927E+02 -0.25333732118E+02  0.37179650599E+02  0.00000000000E+00 0.  1.
</event>
<event>
 7    1  0.3020651E-013  0.7246157E+02  0.7816164E-02  0.1226708E+00
        -11   -1    0    0    0    0  0.00000000000E+00  0.00000000000E+00  0.45593999997E+02  0.45594000000E+02  0.51100000000E-03 0.  1.
         11   -1    0    0    0    0 -0.00000000000E+00 -0.00000000000E+00 -0.45593999997E+02  0.45594000000E+02  0.51100000000E-03 0. -1.
    9900012    2    1    2    0    0  0.11500372939E+02 -0.88249385055E+01  0.11855006030E+02  0.72461567202E+02  0.69999995972E+02 0.  0.
         12    1    1    2    0    0 -0.11500372939E+02  0.88249385055E+01 -0.11855006030E+02  0.18726432798E+02  0.00000000000E+00 0. -1.
         11    1    3    3    0    0 -0.16571283032E+02  0.10113149225E+02  0.55833106733E+01  0.20200410067E+02  0.51100000000E-03 0. -1.
        -11    1    3    3    0    0 -0.43633910478E+01 -0.90459470659E-01 -0.10348177629E+02  0.11230856818E+02  0.51100000000E-03 0.  1.
        -12    1    3    3    0    0  0.32435047018E+02 -0.18847628260E+02  0.16619872986E+02  0.41030300317E+02  0.00000000000E+00 0.  1.
</event>
<event>
 7    1  0.3020651E-013  0.7246151E+02  0.7816164E-02  0.1226708E+00
        -11   -1    0    0    0    0  0.00000000000E+00  0.00000000000E+00  0.45593999997E+02  0.45594000000E+02  0.51100000000E-03 0. -1.
         11   -1    0    0    0    0 -0.00000000000E+00 -0.00000000000E+00 -0.45593999997E+02  0.45594000000E+02  0.51100000000E-03 0.  1.
    9900012    2    1    2    0    0  0.59091679964E+01 -0.43392277530E+01 -0.17231781233E+02  0.72461509449E+02  0.69999920738E+02 0.  0.
         12    1    1    2    0    0 -0.59091679964E+01  0.43392277530E+01  0.17231781233E+02  0.18726490551E+02  0.00000000000E+00 0. -1.
         11    1    3    3    0    0  0.18375710043E+02 -0.13569717586E+02 -0.21882560556E+02  0.31633058842E+02  0.51100000000E-03 0. -1.
        -11    1    3    3    0    0  0.39115504469E+01 -0.29102133447E+01 -0.12986086145E+02  0.13871121160E+02  0.51100000000E-03 0.  1.
         12    1    3    3    0    0 -0.16378092494E+02  0.12140703177E+02  0.17636865468E+02  0.26957329447E+02  0.00000000000E+00 0. -1.
</event>
<event>
 7    1  0.3020651E-013  0.7246152E+02  0.7816164E-02  0.1226708E+00
        -11   -1    0    0    0    0  0.00000000000E+00  0.00000000000E+00  0.45593999997E+02  0.45594000000E+02  0.51100000000E-03 0.  1.
         11   -1    0    0    0    0 -0.00000000000E+00 -0.00000000000E+00 -0.45593999997E+02  0.45594000000E+02  0.51100000000E-03 0. -1.
    9900012    2    1    2    0    0 -0.11038829766E+02  0.13318491609E+02  0.71723922813E+01  0.72461516284E+02  0.69999929641E+02 0.  0.
         12    1    1    2    0    0  0.11038829766E+02 -0.13318491609E+02 -0.71723922813E+01  0.18726483716E+02  0.00000000000E+00 0. -1.
         11    1    3    3    0    0  0.68675470679E+01  0.14973377757E+02 -0.18653717046E+02  0.24886269388E+02  0.51100000000E-03 0. -1.
        -11    1    3    3    0    0  0.61196715340E+00  0.69395168821E+01 -0.63780787648E+01  0.94451727006E+01  0.51100000000E-03 0.  1.
        -12    1    3    3    0    0 -0.18518343987E+02 -0.85944030299E+01  0.32204188092E+02  0.38130074195E+02  0.00000000000E+00 0.  1.
</event>
<event>
 7    1  0.3020651E-013  0.7246156E+02  0.7816164E-02  0.1226708E+00
        -11   -1    0    0    0    0  0.00000000000E+00  0.00000000000E+00  0.45593999997E+02  0.45594000000E+02  0.51100000000E-03 0.  1.
         11   -1    0    0    0    0 -0.00000000000E+00 -0.00000000000E+00 -0.45593999997E+02  0.45594000000E+02  0.51100000000E-03 0. -1.
    9900012    2    1    2    0    0  0.13399634859E+02  0.12429962436E+02 -0.40774152186E+01  0.72461561594E+02  0.69999988666E+02 0.  0.
         12    1    1    2    0    0 -0.13399634859E+02 -0.12429962436E+02  0.40774152186E+01  0.18726438406E+02  0.00000000000E+00 0. -1.
         11    1    3    3    0    0  0.27971531078E+02  0.65256184341E+00 -0.22855324149E+02  0.36127527317E+02  0.51100000000E-03 0. -1.
        -11    1    3    3    0    0  0.16914347153E+01 -0.20890334533E+01  0.14232059416E+02  0.14483664165E+02  0.51100000000E-03 0.  1.
        -12    1    3    3    0    0 -0.16263330935E+02  0.13866434046E+02  0.45458495147E+01  0.21850370112E+02  0.00000000000E+00 0.  1.
</event>
<event>
 7    1  0.3020651E-013  0.7246157E+02  0.7816164E-02  0.1226708E+00
        -11   -1    0    0    0    0  0.00000000000E+00  0.00000000000E+00  0.45593999997E+02  0.45594000000E+02  0.51100000000E-03 0.  1.
         11   -1    0    0    0    0 -0.00000000000E+00 -0.00000000000E+00 -0.45593999997E+02  0.45594000000E+02  0.51100000000E-03 0. -1.
    9900012    2    1    2    0    0 -0.17133650171E+02  0.74325817285E+01 -0.13688862834E+01  0.72461572445E+02  0.70000002801E+02 0.  0.
         12    1    1    2    0    0  0.17133650171E+02 -0.74325817285E+01  0.13688862834E+01  0.18726427555E+02  0.00000000000E+00 0. -1.
         11    1    3    3    0    0 -0.10576826404E+02 -0.23442265896E+02 -0.12304307704E+02  0.28509736502E+02  0.51100000000E-03 0. -1.
        -11    1    3    3    0    0  0.18931877148E+01 -0.49559751523E+01 -0.68108918420E+00  0.53488066119E+01  0.51100000000E-03 0.  1.
        -12    1    3    3    0    0 -0.84500114819E+01  0.35830822776E+02  0.11616510605E+02  0.38603029331E+02  0.00000000000E+00 0.  1.
</event>
<event>
 7    1  0.3020651E-013  0.7246157E+02  0.7816164E-02  0.1226708E+00
        -11   -1    0    0    0    0  0.00000000000E+00  0.00000000000E+00  0.45593999997E+02  0.45594000000E+02  0.51100000000E-03 0.  1.
         11   -1    0    0    0    0 -0.00000000000E+00 -0.00000000000E+00 -0.45593999997E+02  0.45594000000E+02  0.51100000000E-03 0. -1.
    9900012    2    1    2    0    0  0.66077420399E+01  0.99348482417E+01  0.14433152257E+02  0.72461565515E+02  0.69999993773E+02 0.  0.
         12    1    1    2    0    0 -0.66077420399E+01 -0.99348482417E+01 -0.14433152257E+02  0.18726434485E+02  0.00000000000E+00 0. -1.
         11    1    3    3    0    0 -0.13841281445E+01 -0.53923598878E+00  0.38695210963E+01  0.41448498100E+01  0.51100000000E-03 0. -1.
        -11    1    3    3    0    0  0.36575180703E+02  0.12861185582E+02  0.48834410570E+01  0.39076872123E+02  0.51100000000E-03 0.  1.
         12    1    3    3    0    0 -0.28583310519E+02 -0.23871013517E+01  0.56801901041E+01  0.29239843582E+02  0.00000000000E+00 0. -1.
</event>
<event>
 7    1  0.3020651E-013  0.7246198E+02  0.7816164E-02  0.1226707E+00
        -11   -1    0    0    0    0  0.00000000000E+00  0.00000000000E+00  0.45593999997E+02  0.45594000000E+02  0.51100000000E-03 0.  1.
         11   -1    0    0    0    0 -0.00000000000E+00 -0.00000000000E+00 -0.45593999997E+02  0.45594000000E+02  0.51100000000E-03 0. -1.
    9900012    2    1    2    0    0  0.38931066386E+01  0.14486513317E+02  0.11209307437E+02  0.72461977448E+02  0.70000530392E+02 0.  0.
         12    1    1    2    0    0 -0.38931066386E+01 -0.14486513317E+02 -0.11209307437E+02  0.18726022552E+02  0.00000000000E+00 0. -1.
         11    1    3    3    0    0 -0.13202359423E+02  0.52087006167E+01 -0.17438051427E+02  0.22483738441E+02  0.51100000000E-03 0. -1.
        -11    1    3    3    0    0 -0.22862369700E+01  0.20237976405E+01 -0.76271968185E+01  0.82156416634E+01  0.51100000000E-03 0.  1.
        -12    1    3    3    0    0  0.19381703032E+02  0.72540150598E+01  0.36274555683E+02  0.41762597344E+02  0.00000000000E+00 0.  1.
</event>
<event>
 7    1  0.3020651E-013  0.7246161E+02  0.7816164E-02  0.1226708E+00
        -11   -1    0    0    0    0  0.00000000000E+00  0.00000000000E+00  0.45593999997E+02  0.45594000000E+02  0.51100000000E-03 0.  1.
         11   -1    0    0    0    0 -0.00000000000E+00 -0.00000000000E+00 -0.45593999997E+02  0.45594000000E+02  0.51100000000E-03 0. -1.
    9900012    2    1    2    0    0  0.74809543625E+01 -0.99707952201E+01  0.13974839276E+02  0.72461613048E+02  0.70000055694E+02 0.  0.
         12    1    1    2    0    0 -0.74809543625E+01  0.99707952201E+01 -0.13974839276E+02  0.18726386952E+02  0.00000000000E+00 0. -1.
         11    1    3    3    0    0  0.38719590062E+01  0.59692677652E+01  0.10530170990E+02  0.12708608324E+02  0.51100000000E-03 0.  1.
        -11    1    3    3    0    0  0.10362913735E+02 -0.15901301116E+02  0.28255988833E+02  0.34038834637E+02  0.51100000000E-03 0. -1.
         12    1    3    3    0    0 -0.67539183786E+01 -0.38761869665E-01 -0.24811320547E+02  0.25714170087E+02  0.00000000000E+00 0. -1.
</event>
<event>
 7    1  0.3020651E-013  0.7246153E+02  0.7816164E-02  0.1226708E+00
        -11   -1    0    0    0    0  0.00000000000E+00  0.00000000000E+00  0.45593999997E+02  0.45594000000E+02  0.51100000000E-03 0.  1.
         11   -1    0    0    0    0 -0.00000000000E+00 -0.00000000000E+00 -0.45593999997E+02  0.45594000000E+02  0.51100000000E-03 0. -1.
    9900012    2    1    2    0    0  0.69412459458E+01  0.17391566655E+02  0.18208061041E+00  0.72461531050E+02  0.69999948877E+02 0.  0.
         12    1    1    2    0    0 -0.69412459458E+01 -0.17391566655E+02 -0.18208061041E+00  0.18726468950E+02  0.00000000000E+00 0. -1.
         11    1    3    3    0    0 -0.12460096652E+01  0.34925002560E+01  0.14054668118E+01  0.39655309032E+01  0.51100000000E-03 0. -1.
        -11    1    3    3    0    0  0.30365182493E+02  0.12375041636E+02  0.19461710879E+02  0.38130619637E+02  0.51100000000E-03 0.  1.
         12    1    3    3    0    0 -0.22177926882E+02  0.15240247626E+01 -0.20685097080E+02  0.30365380509E+02  0.00000000000E+00 0. -1.
</event>
<event>
 7    1  0.3020651E-013  0.7246156E+02  0.7816164E-02  0.1226708E+00
        -11   -1    0    0    0    0  0.00000000000E+00  0.00000000000E+00  0.45593999997E+02  0.45594000000E+02  0.51100000000E-03 0.  1.
         11   -1    0    0    0    0 -0.00000000000E+00 -0.00000000000E+00 -0.45593999997E+02  0.45594000000E+02  0.51100000000E-03 0. -1.
    9900012    2    1    2    0    0  0.19580007557E+00 -0.15864558833E+02  0.99477213611E+01  0.72461555466E+02  0.69999980683E+02 0.  0.
         12    1    1    2    0    0 -0.19580007557E+00  0.15864558833E+02 -0.99477213611E+01  0.18726444534E+02  0.00000000000E+00 0. -1.
         11    1    3    3    0    0 -0.15359287285E+02  0.68698621647E+01 -0.11041336156E+02  0.20124955067E+02  0.51100000000E-03 0. -1.
        -11    1    3    3    0    0  0.21309350959E+01  0.85876159231E+01 -0.43608263870E+01  0.98643215005E+01  0.51100000000E-03 0.  1.
        -12    1    3    3    0    0  0.13424152265E+02 -0.31322036920E+02  0.25349883904E+02  0.42472278898E+02  0.00000000000E+00 0.  1.
</event>
<event>
 7    1  0.3020651E-013  0.7246149E+02  0.7816164E-02  0.1226708E+00
        -11   -1    0    0    0    0  0.00000000000E+00  0.00000000000E+00  0.45593999997E+02  0.45594000000E+02  0.51100000000E-03 0. -1.
         11   -1    0    0    0    0 -0.00000000000E+00 -0.00000000000E+00 -0.45593999997E+02  0.45594000000E+02  0.51100000000E-03 0.  1.
    9900012    2    1    2    0    0  0.12698134555E+02 -0.68408944238E+01 -0.11943271678E+02  0.72461489485E+02  0.69999894731E+02 0.  0.
         12    1    1    2    0    0 -0.12698134555E+02  0.68408944238E+01  0.11943271678E+02  0.18726510515E+02  0.00000000000E+00 0. -1.
         11    1    3    3    0    0  0.61424900923E+01 -0.20565966754E+02  0.18714365937E+02  0.28476598564E+02  0.51100000000E-03 0.  1.
        -11    1    3    3    0    0 -0.79053109335E+01  0.10297847350E+02 -0.42101856361E+01  0.13647903295E+02  0.51100000000E-03 0. -1.
        -12    1    3    3    0    0  0.14460955396E+02  0.34272249799E+01 -0.26447451979E+02  0.30336987626E+02  0.00000000000E+00 0.  1.
</event>
<event>
 7    1  0.3020651E-013  0.7246170E+02  0.7816164E-02  0.1226708E+00
        -11   -1    0    0    0    0  0.00000000000E+00  0.00000000000E+00  0.45593999997E+02  0.45594000000E+02  0.51100000000E-03 0.  1.
         11   -1    0    0    0    0 -0.00000000000E+00 -0.00000000000E+00 -0.45593999997E+02  0.45594000000E+02  0.51100000000E-03 0. -1.
    9900012    2    1    2    0    0  0.56588916938E+01 -0.38369782945E+01  0.17433553130E+02  0.72461702118E+02  0.70000171725E+02 0.  0.
         12    1    1    2    0    0 -0.56588916938E+01  0.38369782945E+01 -0.17433553130E+02  0.18726297882E+02  0.00000000000E+00 0. -1.
         11    1    3    3    0    0  0.52715722179E+01  0.10234711714E+02  0.17168942044E+02  0.20671511040E+02  0.51100000000E-03 0. -1.
        -11    1    3    3    0    0  0.12309721801E+02  0.12251824697E+02  0.11451070855E+02  0.20802968134E+02  0.51100000000E-03 0.  1.
         12    1    3    3    0    0 -0.11922402325E+02 -0.26323514705E+02 -0.11186459770E+02  0.30987222944E+02  0.00000000000E+00 0. -1.
</event>
<event>
 7    1  0.3020651E-013  0.7246187E+02  0.7816164E-02  0.1226707E+00
        -11   -1    0    0    0    0  0.00000000000E+00  0.00000000000E+00  0.45593999997E+02  0.45594000000E+02  0.51100000000E-03 0.  1.
         11   -1    0    0    0    0 -0.00000000000E+00 -0.00000000000E+00 -0.45593999997E+02  0.45594000000E+02  0.51100000000E-03 0. -1.
    9900012    2    1    2    0    0 -0.94905617693E+00  0.53633706852E+01  0.17916517999E+02  0.72461866658E+02  0.70000386068E+02 0.  0.
         12    1    1    2    0    0  0.94905617693E+00 -0.53633706852E+01 -0.17916517999E+02  0.18726133342E+02  0.00000000000E+00 0. -1.
         11    1    3    3    0    0 -0.22947335605E+02 -0.38767071948E+01 -0.17047885185E+02  0.28848560789E+02  0.51100000000E-03 0. -1.
        -11    1    3    3    0    0  0.88524515149E+01  0.47985271112E+01  0.66081518958E+01  0.12044062105E+02  0.51100000000E-03 0.  1.
        -12    1    3    3    0    0  0.13145827913E+02  0.44415507689E+01  0.28356251288E+02  0.31569243764E+02  0.00000000000E+00 0.  1.
</event>
<event>
 7    1  0.3020651E-013  0.7246157E+02  0.7816164E-02  0.1226708E+00
        -11   -1    0    0    0    0  0.00000000000E+00  0.00000000000E+00  0.45593999997E+02  0.45594000000E+02  0.51100000000E-03 0.  1.
         11   -1    0    0    0    0 -0.00000000000E+00 -0.00000000000E+00 -0.45593999997E+02  0.45594000000E+02  0.51100000000E-03 0. -1.
    9900012    2    1    2    0    0  0.48913064759E+01 -0.54496561585E+01  0.17235301168E+02  0.72461568476E+02  0.69999997631E+02 0.  0.
         12    1    1    2    0    0 -0.48913064759E+01  0.54496561585E+01 -0.17235301168E+02  0.18726431524E+02  0.00000000000E+00 0. -1.
         11    1    3    3    0    0  0.18479750197E+02  0.56097724419E+00  0.68012619748E+01  0.19699569222E+02  0.51100000000E-03 0. -1.
        -11    1    3    3    0    0 -0.88428596568E+01 -0.99308050041E+01  0.29697736475E+02  0.32538786194E+02  0.51100000000E-03 0.  1.
         12    1    3    3    0    0 -0.47455840645E+01  0.39201716014E+01 -0.19263697282E+02  0.20223213060E+02  0.00000000000E+00 0. -1.
</event>
<event>
 7    1  0.3020651E-013  0.7246156E+02  0.7816164E-02  0.1226708E+00
        -11   -1    0    0    0    0  0.00000000000E+00  0.00000000000E+00  0.45593999997E+02  0.45594000000E+02  0.51100000000E-03 0.  1.
         11   -1    0    0    0    0 -0.00000000000E+00 -0.00000000000E+00 -0.45593999997E+02  0.45594000000E+02  0.51100000000E-03 0. -1.
    9900012    2    1    2    0    0 -0.32394833232E+01 -0.73372015256E+01  0.16921902864E+02  0.72461559469E+02  0.69999985897E+02 0.  0.
         12    1    1    2    0    0  0.32394833232E+01  0.73372015256E+01 -0.16921902864E+02  0.18726440531E+02  0.00000000000E+00 0. -1.
         11    1    3    3    0    0  0.72918296432E+01  0.24570703353E+01  0.14219994849E+02  0.16168371222E+02  0.51100000000E-03 0. -1.
        -11    1    3    3    0    0  0.44467326608E+01  0.21245369655E+02 -0.20086138819E+00  0.21706669682E+02  0.51100000000E-03 0.  1.
         12    1    3    3    0    0 -0.14978045627E+02 -0.31039641516E+02  0.29027694030E+01  0.34586518565E+02  0.00000000000E+00 0. -1.
</event>
<event>
 7    1  0.3020651E-013  0.7246145E+02  0.7816164E-02  0.1226708E+00
        -11   -1    0    0    0    0  0.00000000000E+00  0.00000000000E+00  0.45593999997E+02  0.45594000000E+02  0.51100000000E-03 0. -1.
         11   -1    0    0    0    0 -0.00000000000E+00 -0.00000000000E+00 -0.45593999997E+02  0.45594000000E+02  0.51100000000E-03 0.  1.
    9900012    2    1    2    0    0 -0.13279676225E+02 -0.79117037901E+01  0.10570655237E+02  0.72461451743E+02  0.69999845564E+02 0.  0.
         12    1    1    2    0    0  0.13279676225E+02  0.79117037901E+01 -0.10570655237E+02  0.18726548257E+02  0.00000000000E+00 0. -1.
         11    1    3    3    0    0  0.51891502528E+01 -0.40072230482E+01  0.25832141026E+02  0.26651165587E+02  0.51100000000E-03 0. -1.
        -11    1    3    3    0    0  0.37510618125E+01  0.13534560652E+02 -0.77535670938E+00  0.14066128645E+02  0.51100000000E-03 0.  1.
        -12    1    3    3    0    0 -0.22219888290E+02 -0.17439041394E+02 -0.14486129080E+02  0.31744157511E+02  0.00000000000E+00 0.  1.
</event>
<event>
 7    1  0.3020651E-013  0.7246160E+02  0.7816164E-02  0.1226708E+00
        -11   -1    0    0    0    0  0.00000000000E+00  0.00000000000E+00  0.45593999997E+02  0.45594000000E+02  0.51100000000E-03 0. -1.
         11   -1    0    0    0    0 -0.00000000000E+00 -0.00000000000E+00 -0.45593999997E+02  0.45594000000E+02  0.51100000000E-03 0.  1.
    9900012    2    1    2    0    0 -0.17070752152E+02 -0.74073980743E+01 -0.20971408839E+01  0.72461598179E+02  0.70000036325E+02 0.  0.
         12    1    1    2    0    0  0.17070752152E+02  0.74073980743E+01  0.20971408839E+01  0.18726401821E+02  0.00000000000E+00 0. -1.
         11    1    3    3    0    0 -0.63326063697E+01 -0.62055356515E+01  0.19493970489E+02  0.21415542530E+02  0.51100000000E-03 0. -1.
        -11    1    3    3    0    0 -0.28328337714E+00 -0.19843206445E+02  0.10979774330E+01  0.19875579141E+02  0.51100000000E-03 0.  1.
         12    1    3    3    0    0 -0.10454862406E+02  0.18641344023E+02 -0.22689088806E+02  0.31170476508E+02  0.00000000000E+00 0. -1.
</event>
<event>
 7    1  0.3020651E-013  0.7246154E+02  0.7816164E-02  0.1226708E+00
        -11   -1    0    0    0    0  0.00000000000E+00  0.00000000000E+00  0.45593999997E+02  0.45594000000E+02  0.51100000000E-03 0. -1.
         11   -1    0    0    0    0 -0.00000000000E+00 -0.00000000000E+00 -0.45593999997E+02  0.45594000000E+02  0.51100000000E-03 0.  1.
    9900012    2    1    2    0    0 -0.67768065574E+01 -0.98564706226E+01 -0.14408509080E+02  0.72461541334E+02  0.69999962274E+02 0.  0.
         12    1    1    2    0    0  0.67768065574E+01  0.98564706226E+01  0.14408509080E+02  0.18726458666E+02  0.00000000000E+00 0. -1.
         11    1    3    3    0    0 -0.10933414116E+02  0.70994529546E+00 -0.96302754457E+01  0.14587178341E+02  0.51100000000E-03 0. -1.
        -11    1    3    3    0    0 -0.18719544779E+02 -0.21140880487E+02  0.83658076404E+01  0.29450720233E+02  0.51100000000E-03 0.  1.
         12    1    3    3    0    0  0.22876152337E+02  0.10574464569E+02 -0.13144041275E+02  0.28423642760E+02  0.00000000000E+00 0. -1.
</event>
<event>
 7    1  0.3020651E-013  0.7246158E+02  0.7816164E-02  0.1226708E+00
        -11   -1    0    0    0    0  0.00000000000E+00  0.00000000000E+00  0.45593999997E+02  0.45594000000E+02  0.51100000000E-03 0.  1.
         11   -1    0    0    0    0 -0.00000000000E+00 -0.00000000000E+00 -0.45593999997E+02  0.45594000000E+02  0.51100000000E-03 0. -1.
    9900012    2    1    2    0    0 -0.16083117842E+02  0.48446720782E+01  0.82789761881E+01  0.72461575521E+02  0.70000006808E+02 0.  0.
         12    1    1    2    0    0  0.16083117842E+02 -0.48446720782E+01 -0.82789761881E+01  0.18726424479E+02  0.00000000000E+00 0. -1.
         11    1    3    3    0    0  0.12899368400E+02 -0.12386288556E+02 -0.13506475402E+02  0.22410683331E+02  0.51100000000E-03 0. -1.
        -11    1    3    3    0    0 -0.16025065204E+01  0.13980210835E+02 -0.12433479565E+01  0.14126579081E+02  0.51100000000E-03 0.  1.
        -12    1    3    3    0    0 -0.27379979722E+02  0.32507497997E+01  0.23028799546E+02  0.35924313109E+02  0.00000000000E+00 0.  1.
</event>
<event>
 7    1  0.3020651E-013  0.7246175E+02  0.7816164E-02  0.1226708E+00
        -11   -1    0    0    0    0  0.00000000000E+00  0.00000000000E+00  0.45593999997E+02  0.45594000000E+02  0.51100000000E-03 0.  1.
         11   -1    0    0    0    0 -0.00000000000E+00 -0.00000000000E+00 -0.45593999997E+02  0.45594000000E+02  0.51100000000E-03 0. -1.
    9900012    2    1    2    0    0  0.81281593898E+01  0.12645477154E+02  0.11166800178E+02  0.72461748540E+02  0.70000232198E+02 0.  0.
         12    1    1    2    0    0 -0.81281593898E+01 -0.12645477154E+02 -0.11166800178E+02  0.18726251460E+02  0.00000000000E+00 0. -1.
         11    1    3    3    0    0 -0.30549623084E+01  0.25640061020E+02  0.13251502760E+02  0.29023229480E+02  0.51100000000E-03 0. -1.
        -11    1    3    3    0    0  0.12823032109E+02  0.51189907078E+01  0.13630679319E+02  0.19401794693E+02  0.51100000000E-03 0.  1.
         12    1    3    3    0    0 -0.16399104104E+01 -0.18113574573E+02 -0.15715381902E+02  0.24036724367E+02  0.00000000000E+00 0. -1.
</event>
<event>
 7    1  0.3020651E-013  0.7246153E+02  0.7816164E-02  0.1226708E+00
        -11   -1    0    0    0    0  0.00000000000E+00  0.00000000000E+00  0.45593999997E+02  0.45594000000E+02  0.51100000000E-03 0.  1.
         11   -1    0    0    0    0 -0.00000000000E+00 -0.00000000000E+00 -0.45593999997E+02  0.45594000000E+02  0.51100000000E-03 0. -1.
    9900012    2    1    2    0    0 -0.18391485873E+02 -0.29889918616E+01 -0.18708264103E+01  0.72461526321E+02  0.69999942717E+02 0.  0.
         12    1    1    2    0    0  0.18391485873E+02  0.29889918616E+01  0.18708264103E+01  0.18726473679E+02  0.00000000000E+00 0. -1.
         11    1    3    3    0    0  0.58868308477E+01 -0.75010929031E+01  0.23092600256E+01  0.98109048664E+01  0.51100000000E-03 0. -1.
        -11    1    3    3    0    0 -0.24043477937E+02 -0.13769722125E+02  0.18651836190E+02  0.33400375331E+02  0.51100000000E-03 0.  1.
         12    1    3    3    0    0 -0.23483878422E+00  0.18281823167E+02 -0.22831922626E+02  0.29250246124E+02  0.00000000000E+00 0. -1.
</event>
<event>
 7    1  0.3020651E-013  0.7246158E+02  0.7816164E-02  0.1226708E+00
        -11   -1    0    0    0    0  0.00000000000E+00  0.00000000000E+00  0.45593999997E+02  0.45594000000E+02  0.51100000000E-03 0.  1.
         11   -1    0    0    0    0 -0.00000000000E+00 -0.00000000000E+00 -0.45593999997E+02  0.45594000000E+02  0.51100000000E-03 0. -1.
    9900012    2    1    2    0    0 -0.18558955074E+01  0.17735298058E+02  0.57178349635E+01  0.72461580641E+02  0.70000013479E+02 0.  0.
         12    1    1    2    0    0  0.18558955074E+01 -0.17735298058E+02 -0.57178349635E+01  0.18726419359E+02  0.00000000000E+00 0. -1.
         11    1    3    3    0    0  0.10106767838E+01 -0.18498507931E+02  0.20827240594E+02  0.27874544199E+02  0.51100000000E-03 0. -1.
        -11    1    3    3    0    0  0.57945364512E+01  0.13086413045E+01 -0.16067333561E+01  0.61539245272E+01  0.51100000000E-03 0.  1.
        -12    1    3    3    0    0 -0.86611087424E+01  0.34925164685E+02 -0.13502672275E+02  0.38433111915E+02  0.00000000000E+00 0.  1.
</event>
<event>
 7    1  0.3020651E-013  0.7246141E+02  0.7816164E-02  0.1226708E+00
        -11   -1    0    0    0    0  0.00000000000E+00  0.00000000000E+00  0.45593999997E+02  0.45594000000E+02  0.51100000000E-03 0.  1.
         11   -1    0    0    0    0 -0.00000000000E+00 -0.00000000000E+00 -0.45593999997E+02  0.45594000000E+02  0.51100000000E-03 0. -1.
    9900012    2    1    2    0    0 -0.13442431430E+02 -0.12959803711E+02 -0.14246756094E+01  0.72461409932E+02  0.69999791098E+02 0.  0.
         12    1    1    2    0    0  0.13442431430E+02  0.12959803711E+02  0.14246756094E+01  0.18726590068E+02  0.00000000000E+00 0. -1.
         11    1    3    3    0    0 -0.90341101911E+01  0.15196842503E+02  0.91290495375E+01  0.19897203691E+02  0.51100000000E-03 0. -1.
        -11    1    3    3    0    0 -0.30691191069E+01  0.57141600451E+01  0.10730603511E+02  0.12538619106E+02  0.51100000000E-03 0.  1.
        -12    1    3    3    0    0 -0.13392021320E+01 -0.33870806260E+02 -0.21284328658E+02  0.40025587134E+02  0.00000000000E+00 0.  1.
</event>
<event>
 7    1  0.3020651E-013  0.7246170E+02  0.7816164E-02  0.1226708E+00
        -11   -1    0    0    0    0  0.00000000000E+00  0.00000000000E+00  0.45593999997E+02  0.45594000000E+02  0.51100000000E-03 0. -1.
         11   -1    0    0    0    0 -0.00000000000E+00 -0.00000000000E+00 -0.45593999997E+02  0.45594000000E+02  0.51100000000E-03 0.  1.
    9900012    2    1    2    0    0 -0.11596977887E+02  0.13784934170E+02  0.51146876288E+01  0.72461699359E+02  0.70000168130E+02 0.  0.
         12    1    1    2    0    0  0.11596977887E+02 -0.13784934170E+02 -0.51146876288E+01  0.18726300641E+02  0.00000000000E+00 0. -1.
         11    1    3    3    0    0  0.50177479738E+01  0.65256797883E+01 -0.15098125365E+02  0.17196385702E+02  0.51100000000E-03 0. -1.
        -11    1    3    3    0    0 -0.89571275366E+01  0.53184441446E+01 -0.15507718772E+02  0.18681684174E+02  0.51100000000E-03 0.  1.
         12    1    3    3    0    0 -0.76575983237E+01  0.19408102368E+01  0.35720531766E+02  0.36583629482E+02  0.00000000000E+00 0. -1.
</event>
<event>
 7    1  0.3020651E-013  0.7246123E+02  0.7816164E-02  0.1226709E+00
        -11   -1    0    0    0    0  0.00000000000E+00  0.00000000000E+00  0.45593999997E+02  0.45594000000E+02  0.51100000000E-03 0. -1.
         11   -1    0    0    0    0 -0.00000000000E+00 -0.00000000000E+00 -0.45593999997E+02  0.45594000000E+02  0.51100000000E-03 0.  1.
    9900012    2    1    2    0    0 -0.72100172010E+01 -0.16701409330E+02  0.44464050109E+01  0.72461229345E+02  0.69999555849E+02 0.  0.
         12    1    1    2    0    0  0.72100172010E+01  0.16701409330E+02 -0.44464050109E+01  0.18726770655E+02  0.00000000000E+00 0. -1.
         11    1    3    3    0    0  0.13958808615E+01 -0.20535979417E+02  0.13723840297E+02  0.24739012243E+02  0.51100000000E-03 0. -1.
        -11    1    3    3    0    0 -0.17031522884E+02 -0.17022478978E+02 -0.23967914721E+01  0.24198805176E+02  0.51100000000E-03 0.  1.
         12    1    3    3    0    0  0.84256248217E+01  0.20857049065E+02 -0.68806438143E+01  0.23523411926E+02  0.00000000000E+00 0. -1.
</event>
<event>
 7    1  0.3020651E-013  0.7246165E+02  0.7816164E-02  0.1226708E+00
        -11   -1    0    0    0    0  0.00000000000E+00  0.00000000000E+00  0.45593999997E+02  0.45594000000E+02  0.51100000000E-03 0.  1.
         11   -1    0    0    0    0 -0.00000000000E+00 -0.00000000000E+00 -0.45593999997E+02  0.45594000000E+02  0.51100000000E-03 0. -1.
    9900012    2    1    2    0    0  0.12596351705E+02 -0.42243921199E+01  0.13197065356E+02  0.72461652276E+02  0.70000106797E+02 0.  0.
         12    1    1    2    0    0 -0.12596351705E+02  0.42243921199E+01 -0.13197065356E+02  0.18726347724E+02  0.00000000000E+00 0. -1.
         11    1    3    3    0    0  0.22985628482E+02 -0.19159479488E+02 -0.60006299377E+01  0.30519376319E+02  0.51100000000E-03 0. -1.
        -11    1    3    3    0    0  0.62387329305E+01 -0.70191773847E+01  0.24351904032E+01  0.97015871019E+01  0.51100000000E-03 0.  1.
        -12    1    3    3    0    0 -0.16628009708E+02  0.21954264753E+02  0.16762504891E+02  0.32240688856E+02  0.00000000000E+00 0.  1.
</event>
<event>
 7    1  0.3020651E-013  0.7246166E+02  0.7816164E-02  0.1226708E+00
        -11   -1    0    0    0    0  0.00000000000E+00  0.00000000000E+00  0.45593999997E+02  0.45594000000E+02  0.51100000000E-03 0.  1.
         11   -1    0    0    0    0 -0.00000000000E+00 -0.00000000000E+00 -0.45593999997E+02  0.45594000000E+02  0.51100000000E-03 0. -1.
    9900012    2    1    2    0    0  0.13678660054E+02  0.76250121470E+01  0.10267869445E+02  0.72461663090E+02  0.70000120884E+02 0.  0.
         12    1    1    2    0    0 -0.13678660054E+02 -0.76250121470E+01 -0.10267869445E+02  0.18726336910E+02  0.00000000000E+00 0. -1.
         11    1    3    3    0    0  0.28212056889E+02 -0.11963557913E+02 -0.24696229367E+00  0.30644866821E+02  0.51100000000E-03 0. -1.
        -11    1    3    3    0    0  0.56972298977E+01 -0.28685726662E+01 -0.47520077327E+01  0.79541634005E+01  0.51100000000E-03 0.  1.
        -12    1    3    3    0    0 -0.20230626732E+02  0.22457142726E+02  0.15266839471E+02  0.33862632869E+02  0.00000000000E+00 0.  1.
</event>
<event>
 7    1  0.3020651E-013  0.7246170E+02  0.7816164E-02  0.1226708E+00
        -11   -1    0    0    0    0  0.00000000000E+00  0.00000000000E+00  0.45593999997E+02  0.45594000000E+02  0.51100000000E-03 0.  1.
         11   -1    0    0    0    0 -0.00000000000E+00 -0.00000000000E+00 -0.45593999997E+02  0.45594000000E+02  0.51100000000E-03 0. -1.
    9900012    2    1    2    0    0 -0.15247983854E+02  0.10792334857E+02  0.13034042825E+01  0.72461698550E+02  0.70000167076E+02 0.  0.
         12    1    1    2    0    0  0.15247983854E+02 -0.10792334857E+02 -0.13034042825E+01  0.18726301450E+02  0.00000000000E+00 0. -1.
         11    1    3    3    0    0  0.18710603962E+02 -0.80544434411E+01 -0.12418633585E+02  0.23857561069E+02  0.51100000000E-03 0. -1.
        -11    1    3    3    0    0  0.32567510870E+01  0.89876344280E+00  0.55334262895E+01  0.64832869851E+01  0.51100000000E-03 0.  1.
        -12    1    3    3    0    0 -0.37215338903E+02  0.17948014855E+02  0.81886115783E+01  0.42120850496E+02  0.00000000000E+00 0.  1.
</event>
<event>
 7    1  0.3020651E-013  0.7246158E+02  0.7816164E-02  0.1226708E+00
        -11   -1    0    0    0    0  0.00000000000E+00  0.00000000000E+00  0.45593999997E+02  0.45594000000E+02  0.51100000000E-03 0.  1.
         11   -1    0    0    0    0 -0.00000000000E+00 -0.00000000000E+00 -0.45593999997E+02  0.45594000000E+02  0.51100000000E-03 0. -1.
    9900012    2    1    2    0    0 -0.24406916183E+01  0.18063525990E+02  0.42931187975E+01  0.72461579739E+02  0.70000012304E+02 0.  0.
         12    1    1    2    0    0  0.24406916183E+01 -0.18063525990E+02 -0.42931187975E+01  0.18726420261E+02  0.00000000000E+00 0. -1.
         11    1    3    3    0    0 -0.15011316093E+02  0.13465051922E+02  0.79350847058E+01  0.21670551531E+02  0.51100000000E-03 0. -1.
        -11    1    3    3    0    0 -0.41945453522E+01  0.24249093044E+02 -0.41435779050E+01  0.24955599819E+02  0.51100000000E-03 0.  1.
         12    1    3    3    0    0  0.16765169827E+02 -0.19650618977E+02  0.50161199668E+00  0.25835428390E+02  0.00000000000E+00 0. -1.
</event>
<event>
 7    1  0.3020651E-013  0.7246117E+02  0.7816164E-02  0.1226709E+00
        -11   -1    0    0    0    0  0.00000000000E+00  0.00000000000E+00  0.45593999997E+02  0.45594000000E+02  0.51100000000E-03 0. -1.
         11   -1    0    0    0    0 -0.00000000000E+00 -0.00000000000E+00 -0.45593999997E+02  0.45594000000E+02  0.51100000000E-03 0.  1.
    9900012    2    1    2    0    0  0.17740888793E+02 -0.28891728893E+01 -0.52543177514E+01  0.72461166039E+02  0.69999473381E+02 0.  0.
         12    1    1    2    0    0 -0.17740888793E+02  0.28891728893E+01  0.52543177514E+01  0.18726833961E+02  0.00000000000E+00 0. -1.
         11    1    3    3    0    0  0.76961462000E+01 -0.31072627364E+01  0.55617779405E+01  0.99909520150E+01  0.51100000000E-03 0. -1.
        -11    1    3    3    0    0  0.10057653592E+02 -0.95804521012E+01 -0.34309869896E+02  0.37014978465E+02  0.51100000000E-03 0.  1.
         12    1    3    3    0    0 -0.12910998409E-01  0.97985419483E+01  0.23493774204E+02  0.25455235559E+02  0.00000000000E+00 0. -1.
</event>
<event>
 7    1  0.3020651E-013  0.7246160E+02  0.7816164E-02  0.1226708E+00
        -11   -1    0    0    0    0  0.00000000000E+00  0.00000000000E+00  0.45593999997E+02  0.45594000000E+02  0.51100000000E-03 0. -1.
         11   -1    0    0    0    0 -0.00000000000E+00 -0.00000000000E+00 -0.45593999997E+02  0.45594000000E+02  0.51100000000E-03 0.  1.
    9900012    2    1    2    0    0 -0.12991390636E+02  0.12216662408E+02  0.57144693961E+01  0.72461595340E+02  0.70000032626E+02 0.  0.
         12    1    1    2    0    0  0.12991390636E+02 -0.12216662408E+02 -0.57144693961E+01  0.18726404660E+02  0.00000000000E+00 0. -1.
         11    1    3    3    0    0  0.19405231908E+02  0.78892309642E+01 -0.40421231472E+00  0.20951524491E+02  0.51100000000E-03 0.  1.
        -11    1    3    3    0    0 -0.67206701306E+00 -0.14326656107E+02  0.16152657065E+01  0.14433081197E+02  0.51100000000E-03 0. -1.
         12    1    3    3    0    0 -0.31724555531E+02  0.18654087550E+02  0.45034160043E+01  0.37076989652E+02  0.00000000000E+00 0. -1.
</event>
<event>
 7    1  0.3020651E-013  0.7246158E+02  0.7816164E-02  0.1226708E+00
        -11   -1    0    0    0    0  0.00000000000E+00  0.00000000000E+00  0.45593999997E+02  0.45594000000E+02  0.51100000000E-03 0.  1.
         11   -1    0    0    0    0 -0.00000000000E+00 -0.00000000000E+00 -0.45593999997E+02  0.45594000000E+02  0.51100000000E-03 0. -1.
    9900012    2    1    2    0    0 -0.12755248040E+02  0.13052877197E+02  0.41957963472E+01  0.72461583827E+02  0.70000017629E+02 0.  0.
         12    1    1    2    0    0  0.12755248040E+02 -0.13052877197E+02 -0.41957963472E+01  0.18726416173E+02  0.00000000000E+00 0. -1.
         11    1    3    3    0    0  0.40413847335E+00  0.56299189112E+01  0.14278035158E+02  0.15353227775E+02  0.51100000000E-03 0. -1.
        -11    1    3    3    0    0 -0.21665106461E+01  0.20186095907E+02  0.16144099746E+02  0.25938469369E+02  0.51100000000E-03 0.  1.
        -12    1    3    3    0    0 -0.10992875867E+02 -0.12763137620E+02 -0.26226338558E+02  0.31169886684E+02  0.00000000000E+00 0.  1.
</event>
<event>
 7    1  0.3020651E-013  0.7246155E+02  0.7816164E-02  0.1226708E+00
        -11   -1    0    0    0    0  0.00000000000E+00  0.00000000000E+00  0.45593999997E+02  0.45594000000E+02  0.51100000000E-03 0.  1.
         11   -1    0    0    0    0 -0.00000000000E+00 -0.00000000000E+00 -0.45593999997E+02  0.45594000000E+02  0.51100000000E-03 0. -1.
    9900012    2    1    2    0    0 -0.13509455961E+02  0.70786165267E+01 -0.10865903378E+02  0.72461546291E+02  0.69999968731E+02 0.  0.
         12    1    1    2    0    0  0.13509455961E+02 -0.70786165267E+01  0.10865903378E+02  0.18726453709E+02  0.00000000000E+00 0. -1.
         11    1    3    3    0    0  0.50623390922E+01  0.11352127080E+02  0.10856107069E+02  0.16503124774E+02  0.51100000000E-03 0. -1.
        -11    1    3    3    0    0  0.10419936366E+01  0.10827633020E+02  0.10639038566E+02  0.15215535792E+02  0.51100000000E-03 0.  1.
         12    1    3    3    0    0 -0.19613788690E+02 -0.15101143574E+02 -0.32361049013E+02  0.40742885726E+02  0.00000000000E+00 0. -1.
</event>
<event>
 7    1  0.3020651E-013  0.7246236E+02  0.7816164E-02  0.1226706E+00
        -11   -1    0    0    0    0  0.00000000000E+00  0.00000000000E+00  0.45593999997E+02  0.45594000000E+02  0.51100000000E-03 0.  1.
         11   -1    0    0    0    0 -0.00000000000E+00 -0.00000000000E+00 -0.45593999997E+02  0.45594000000E+02  0.51100000000E-03 0. -1.
    9900012    2    1    2    0    0  0.12034557040E+02 -0.13606938396E+02  0.45464608148E+01  0.72462358713E+02  0.70001027054E+02 0.  0.
         12    1    1    2    0    0 -0.12034557040E+02  0.13606938396E+02 -0.45464608148E+01  0.18725641287E+02  0.00000000000E+00 0. -1.
         11    1    3    3    0    0 -0.12763781053E+02  0.51225528902E+01 -0.17949600472E+02  0.22612890400E+02  0.51100000000E-03 0. -1.
        -11    1    3    3    0    0  0.17064729555E+02 -0.72339015742E+00 -0.33588001124E+01  0.17407177444E+02  0.51100000000E-03 0.  1.
        -12    1    3    3    0    0  0.77336085375E+01 -0.18006101129E+02  0.25854861399E+02  0.32442290869E+02  0.00000000000E+00 0.  1.
</event>
<event>
 7    1  0.3020651E-013  0.7246159E+02  0.7816164E-02  0.1226708E+00
        -11   -1    0    0    0    0  0.00000000000E+00  0.00000000000E+00  0.45593999997E+02  0.45594000000E+02  0.51100000000E-03 0.  1.
         11   -1    0    0    0    0 -0.00000000000E+00 -0.00000000000E+00 -0.45593999997E+02  0.45594000000E+02  0.51100000000E-03 0. -1.
    9900012    2    1    2    0    0 -0.11886577663E+01 -0.18673045580E+02  0.76356290896E+00  0.72461586386E+02  0.70000020963E+02 0.  0.
         12    1    1    2    0    0  0.11886577663E+01  0.18673045580E+02 -0.76356290896E+00  0.18726413614E+02  0.00000000000E+00 0. -1.
         11    1    3    3    0    0  0.11426584573E+02 -0.22284868722E+01 -0.22616757231E+02  0.25437191210E+02  0.51100000000E-03 0. -1.
        -11    1    3    3    0    0 -0.65881330037E+01 -0.46288928955E+01 -0.89740439171E+01  0.12056683225E+02  0.51100000000E-03 0.  1.
        -12    1    3    3    0    0 -0.60271093357E+01 -0.11815665812E+02  0.32354364057E+02  0.34967711951E+02  0.00000000000E+00 0.  1.
</event>
<event>
 7    1  0.3020651E-013  0.7246159E+02  0.7816164E-02  0.1226708E+00
        -11   -1    0    0    0    0  0.00000000000E+00  0.00000000000E+00  0.45593999997E+02  0.45594000000E+02  0.51100000000E-03 0.  1.
         11   -1    0    0    0    0 -0.00000000000E+00 -0.00000000000E+00 -0.45593999997E+02  0.45594000000E+02  0.51100000000E-03 0. -1.
    9900012    2    1    2    0    0 -0.66092578549E+01 -0.93403709694E+01  0.14824086227E+02  0.72461592131E+02  0.70000028446E+02 0.  0.
         12    1    1    2    0    0  0.66092578549E+01  0.93403709694E+01 -0.14824086227E+02  0.18726407869E+02  0.00000000000E+00 0. -1.
         11    1    3    3    0    0  0.63619003250E+01  0.53538060155E+01 -0.75680806542E+01  0.11243347351E+02  0.51100000000E-03 0. -1.
        -11    1    3    3    0    0 -0.18200053297E+02  0.21462981039E+01 -0.12458848240E+02  0.22160131662E+02  0.51100000000E-03 0.  1.
        -12    1    3    3    0    0  0.52288951170E+01 -0.16840475089E+02  0.34851015121E+02  0.39058113118E+02  0.00000000000E+00 0.  1.
</event>
<event>
 7    1  0.3020651E-013  0.7246154E+02  0.7816164E-02  0.1226708E+00
        -11   -1    0    0    0    0  0.00000000000E+00  0.00000000000E+00  0.45593999997E+02  0.45594000000E+02  0.51100000000E-03 0.  1.
         11   -1    0    0    0    0 -0.00000000000E+00 -0.00000000000E+00 -0.45593999997E+02  0.45594000000E+02  0.51100000000E-03 0. -1.
    9900012    2    1    2    0    0 -0.82989813355E+01 -0.34824570891E+00  0.16783502916E+02  0.72461539138E+02  0.69999959413E+02 0.  0.
         12    1    1    2    0    0  0.82989813355E+01  0.34824570891E+00 -0.16783502916E+02  0.18726460862E+02  0.00000000000E+00 0. -1.
         11    1    3    3    0    0 -0.19817116631E+02 -0.50830755212E+01  0.25961489408E+02  0.33053815223E+02  0.51100000000E-03 0. -1.
        -11    1    3    3    0    0 -0.12409046274E+02  0.61497075892E+01 -0.64705752152E+01  0.15286323192E+02  0.51100000000E-03 0.  1.
        -12    1    3    3    0    0  0.23927181569E+02 -0.14148777770E+01 -0.27074112761E+01  0.24121400722E+02  0.00000000000E+00 0.  1.
</event>
<event>
 7    1  0.3020651E-013  0.7246159E+02  0.7816164E-02  0.1226708E+00
        -11   -1    0    0    0    0  0.00000000000E+00  0.00000000000E+00  0.45593999997E+02  0.45594000000E+02  0.51100000000E-03 0.  1.
         11   -1    0    0    0    0 -0.00000000000E+00 -0.00000000000E+00 -0.45593999997E+02  0.45594000000E+02  0.51100000000E-03 0. -1.
    9900012    2    1    2    0    0  0.73813390872E+01  0.14578923447E+02  0.91460019892E+01  0.72461587424E+02  0.70000022314E+02 0.  0.
         12    1    1    2    0    0 -0.73813390872E+01 -0.14578923447E+02 -0.91460019892E+01  0.18726412576E+02  0.00000000000E+00 0. -1.
         11    1    3    3    0    0  0.45201603145E+01  0.12921550805E+02  0.10600108510E+02  0.17313596540E+02  0.51100000000E-03 0. -1.
        -11    1    3    3    0    0  0.25518286796E+01 -0.22492774588E+02  0.13866485083E+02  0.26546490297E+02  0.51100000000E-03 0.  1.
         12    1    3    3    0    0  0.30935009306E+00  0.24150147230E+02 -0.15320591603E+02  0.28601500586E+02  0.00000000000E+00 0. -1.
</event>
<event>
 7    1  0.3020651E-013  0.7246154E+02  0.7816164E-02  0.1226708E+00
        -11   -1    0    0    0    0  0.00000000000E+00  0.00000000000E+00  0.45593999997E+02  0.45594000000E+02  0.51100000000E-03 0.  1.
         11   -1    0    0    0    0 -0.00000000000E+00 -0.00000000000E+00 -0.45593999997E+02  0.45594000000E+02  0.51100000000E-03 0. -1.
    9900012    2    1    2    0    0  0.65343946014E+01  0.10389684005E+02  0.14143429579E+02  0.72461536191E+02  0.69999955574E+02 0.  0.
         12    1    1    2    0    0 -0.65343946014E+01 -0.10389684005E+02 -0.14143429579E+02  0.18726463809E+02  0.00000000000E+00 0. -1.
         11    1    3    3    0    0  0.54538681883E+01  0.12241092303E+02 -0.19024026540E+02  0.23270208531E+02  0.51100000000E-03 0. -1.
        -11    1    3    3    0    0  0.22242973771E+01 -0.16916772773E+02  0.59656409802E+01  0.18075219845E+02  0.51100000000E-03 0.  1.
        -12    1    3    3    0    0 -0.11437709640E+01  0.15065364474E+02  0.27201815139E+02  0.31116107816E+02  0.00000000000E+00 0.  1.
</event>
<event>
 7    1  0.3020651E-013  0.7246151E+02  0.7816164E-02  0.1226708E+00
        -11   -1    0    0    0    0  0.00000000000E+00  0.00000000000E+00  0.45593999997E+02  0.45594000000E+02  0.51100000000E-03 0. -1.
         11   -1    0    0    0    0 -0.00000000000E+00 -0.00000000000E+00 -0.45593999997E+02  0.45594000000E+02  0.51100000000E-03 0.  1.
    9900012    2    1    2    0    0 -0.63571721781E+01  0.10232625326E+02 -0.14337408419E+02  0.72461507020E+02  0.69999917573E+02 0.  0.
         12    1    1    2    0    0  0.63571721781E+01 -0.10232625326E+02  0.14337408419E+02  0.18726492980E+02  0.00000000000E+00 0. -1.
         11    1    3    3    0    0 -0.56346926246E+01 -0.10308228232E+02 -0.29023206261E+01  0.12100941927E+02  0.51100000000E-03 0. -1.
        -11    1    3    3    0    0  0.64421066419E+01  0.22215060422E+01  0.21193064048E+02  0.22261666404E+02  0.51100000000E-03 0.  1.
        -12    1    3    3    0    0 -0.71645861954E+01  0.18319347516E+02 -0.32628151841E+02  0.38098898689E+02  0.00000000000E+00 0.  1.
</event>
<event>
 7    1  0.3020651E-013  0.7246155E+02  0.7816164E-02  0.1226708E+00
        -11   -1    0    0    0    0  0.00000000000E+00  0.00000000000E+00  0.45593999997E+02  0.45594000000E+02  0.51100000000E-03 0.  1.
         11   -1    0    0    0    0 -0.00000000000E+00 -0.00000000000E+00 -0.45593999997E+02  0.45594000000E+02  0.51100000000E-03 0. -1.
    9900012    2    1    2    0    0 -0.17593602134E+01  0.17318466524E+02  0.69032899723E+01  0.72461546958E+02  0.69999969600E+02 0.  0.
         12    1    1    2    0    0  0.17593602134E+01 -0.17318466524E+02 -0.69032899723E+01  0.18726453042E+02  0.00000000000E+00 0. -1.
         11    1    3    3    0    0  0.85416296462E+01 -0.64003263828E+01 -0.41092841410E+00  0.10681408018E+02  0.51100000000E-03 0. -1.
        -11    1    3    3    0    0 -0.21241585008E+02  0.59806544350E+01  0.25780387169E+02  0.33935254883E+02  0.51100000000E-03 0.  1.
         12    1    3    3    0    0  0.10940595148E+02  0.17738138472E+02 -0.18466168783E+02  0.27844884057E+02  0.00000000000E+00 0. -1.
</event>
<event>
 7    1  0.3020651E-013  0.7246157E+02  0.7816164E-02  0.1226708E+00
        -11   -1    0    0    0    0  0.00000000000E+00  0.00000000000E+00  0.45593999997E+02  0.45594000000E+02  0.51100000000E-03 0.  1.
         11   -1    0    0    0    0 -0.00000000000E+00 -0.00000000000E+00 -0.45593999997E+02  0.45594000000E+02  0.51100000000E-03 0. -1.
    9900012    2    1    2    0    0 -0.14661202423E+02 -0.11492679101E+02  0.19096015387E+01  0.72461571952E+02  0.70000002159E+02 0.  0.
         12    1    1    2    0    0  0.14661202423E+02  0.11492679101E+02 -0.19096015387E+01  0.18726428048E+02  0.00000000000E+00 0. -1.
         11    1    3    3    0    0 -0.27546631141E+02  0.89034290283E+00 -0.28170298366E+01  0.27704607109E+02  0.51100000000E-03 0. -1.
        -11    1    3    3    0    0 -0.67799602132E+01  0.82798035875E+01 -0.81584518612E+01  0.13456721182E+02  0.51100000000E-03 0.  1.
        -12    1    3    3    0    0  0.19665388931E+02 -0.20662825591E+02  0.12885083236E+02  0.31300243661E+02  0.00000000000E+00 0.  1.
</event>
<event>
 7    1  0.3020651E-013  0.7246155E+02  0.7816164E-02  0.1226708E+00
        -11   -1    0    0    0    0  0.00000000000E+00  0.00000000000E+00  0.45593999997E+02  0.45594000000E+02  0.51100000000E-03 0. -1.
         11   -1    0    0    0    0 -0.00000000000E+00 -0.00000000000E+00 -0.45593999997E+02  0.45594000000E+02  0.51100000000E-03 0.  1.
    9900012    2    1    2    0    0 -0.14325874608E+02  0.28169887350E+00 -0.12056941951E+02  0.72461551144E+02  0.69999975053E+02 0.  0.
         12    1    1    2    0    0  0.14325874608E+02 -0.28169887350E+00  0.12056941951E+02  0.18726448856E+02  0.00000000000E+00 0. -1.
         11    1    3    3    0    0 -0.25958478121E+01  0.13598863935E+02  0.21654055384E+02  0.25701471573E+02  0.51100000000E-03 0. -1.
        -11    1    3    3    0    0 -0.14603426961E+02 -0.30427797598E-01 -0.57970114068E+01  0.15711980982E+02  0.51100000000E-03 0.  1.
        -12    1    3    3    0    0  0.28734001653E+01 -0.13286737264E+02 -0.27913985928E+02  0.31048098589E+02  0.00000000000E+00 0.  1.
</event>
<event>
 7    1  0.3020651E-013  0.7246207E+02  0.7816164E-02  0.1226707E+00
        -11   -1    0    0    0    0  0.00000000000E+00  0.00000000000E+00  0.45593999997E+02  0.45594000000E+02  0.51100000000E-03 0.  1.
         11   -1    0    0    0    0 -0.00000000000E+00 -0.00000000000E+00 -0.45593999997E+02  0.45594000000E+02  0.51100000000E-03 0. -1.
    9900012    2    1    2    0    0  0.72714503772E+01  0.30452785560E+01  0.16985664857E+02  0.72462068176E+02  0.70000648580E+02 0.  0.
         12    1    1    2    0    0 -0.72714503772E+01 -0.30452785560E+01 -0.16985664857E+02  0.18725931824E+02  0.00000000000E+00 0. -1.
         11    1    3    3    0    0 -0.23849566348E+01 -0.10000260971E+02 -0.14370666621E+02  0.17669445295E+02  0.51100000000E-03 0. -1.
        -11    1    3    3    0    0  0.21928898053E+01  0.12506439209E+02 -0.78172750069E+01  0.14910720177E+02  0.51100000000E-03 0.  1.
        -12    1    3    3    0    0  0.74635172066E+01  0.53910031757E+00  0.39173606485E+02  0.39881902704E+02  0.00000000000E+00 0.  1.
</event>
<event>
 7    1  0.3020651E-013  0.7246154E+02  0.7816164E-02  0.1226708E+00
        -11   -1    0    0    0    0  0.00000000000E+00  0.00000000000E+00  0.45593999997E+02  0.45594000000E+02  0.51100000000E-03 0. -1.
         11   -1    0    0    0    0 -0.00000000000E+00 -0.00000000000E+00 -0.45593999997E+02  0.45594000000E+02  0.51100000000E-03 0.  1.
    9900012    2    1    2    0    0 -0.14048901886E+02 -0.12070507466E+02 -0.27588663222E+01  0.72461544434E+02  0.69999966312E+02 0.  0.
         12    1    1    2    0    0  0.14048901886E+02  0.12070507466E+02  0.27588663222E+01  0.18726455566E+02  0.00000000000E+00 0. -1.
         11    1    3    3    0    0 -0.75189825377E+01 -0.10200382254E+02 -0.10082815575E+02  0.16194013298E+02  0.51100000000E-03 0. -1.
        -11    1    3    3    0    0  0.21402866177E+02 -0.86427863412E+00 -0.97279873416E+01  0.23525802773E+02  0.51100000000E-03 0.  1.
         12    1    3    3    0    0 -0.27932785525E+02 -0.10058465784E+01  0.17051936594E+02  0.32741728362E+02  0.00000000000E+00 0. -1.
</event>
<event>
 7    1  0.3020651E-013  0.7246161E+02  0.7816164E-02  0.1226708E+00
        -11   -1    0    0    0    0  0.00000000000E+00  0.00000000000E+00  0.45593999997E+02  0.45594000000E+02  0.51100000000E-03 0.  1.
         11   -1    0    0    0    0 -0.00000000000E+00 -0.00000000000E+00 -0.45593999997E+02  0.45594000000E+02  0.51100000000E-03 0. -1.
    9900012    2    1    2    0    0 -0.16847173788E+02 -0.81740098019E+01 -0.18976476568E+00  0.72461609223E+02  0.70000050711E+02 0.  0.
         12    1    1    2    0    0  0.16847173788E+02  0.81740098019E+01  0.18976476568E+00  0.18726390777E+02  0.00000000000E+00 0. -1.
         11    1    3    3    0    0 -0.17555319504E+02 -0.14102988832E+02 -0.13567033725E+02  0.26289692681E+02  0.51100000000E-03 0. -1.
        -11    1    3    3    0    0  0.35399201733E+01 -0.17979399055E+02  0.12304770922E+02  0.22072544324E+02  0.51100000000E-03 0.  1.
        -12    1    3    3    0    0 -0.28317744569E+01  0.23908378085E+02  0.10724980371E+01  0.24099372218E+02  0.00000000000E+00 0.  1.
</event>
<event>
 7    1  0.3020651E-013  0.7246148E+02  0.7816164E-02  0.1226708E+00
        -11   -1    0    0    0    0  0.00000000000E+00  0.00000000000E+00  0.45593999997E+02  0.45594000000E+02  0.51100000000E-03 0. -1.
         11   -1    0    0    0    0 -0.00000000000E+00 -0.00000000000E+00 -0.45593999997E+02  0.45594000000E+02  0.51100000000E-03 0.  1.
    9900012    2    1    2    0    0  0.10006626823E+02 -0.14003282251E+02 -0.73795613904E+01  0.72461483493E+02  0.69999886925E+02 0.  0.
         12    1    1    2    0    0 -0.10006626823E+02  0.14003282251E+02  0.73795613904E+01  0.18726516507E+02  0.00000000000E+00 0. -1.
         11    1    3    3    0    0 -0.74316179725E+00  0.20036174094E+02  0.30653763382E+01  0.20282926173E+02  0.51100000000E-03 0. -1.
        -11    1    3    3    0    0  0.16670791888E+02 -0.37516306473E+00 -0.59426047675E+01  0.17702276723E+02  0.51100000000E-03 0.  1.
        -12    1    3    3    0    0 -0.59210032677E+01 -0.33664293280E+02 -0.45023329611E+01  0.34476280597E+02  0.00000000000E+00 0.  1.
</event>
<event>
 7    1  0.3020651E-013  0.7246156E+02  0.7816164E-02  0.1226708E+00
        -11   -1    0    0    0    0  0.00000000000E+00  0.00000000000E+00  0.45593999997E+02  0.45594000000E+02  0.51100000000E-03 0.  1.
         11   -1    0    0    0    0 -0.00000000000E+00 -0.00000000000E+00 -0.45593999997E+02  0.45594000000E+02  0.51100000000E-03 0. -1.
    9900012    2    1    2    0    0  0.18260859588E+02 -0.39746091359E+01  0.11929317876E+01  0.72461558883E+02  0.69999985135E+02 0.  0.
         12    1    1    2    0    0 -0.18260859588E+02  0.39746091359E+01 -0.11929317876E+01  0.18726441117E+02  0.00000000000E+00 0. -1.
         11    1    3    3    0    0  0.11214724021E+02  0.20619594902E+02 -0.58591586204E+00  0.23479374490E+02  0.51100000000E-03 0. -1.
        -11    1    3    3    0    0 -0.91742039442E+01 -0.90639582391E+01  0.17377199631E+02  0.21639972834E+02  0.51100000000E-03 0.  1.
        -12    1    3    3    0    0  0.16220339511E+02 -0.15530245799E+02 -0.15598351981E+02  0.27342211559E+02  0.00000000000E+00 0.  1.
</event>
<event>
 7    1  0.3020651E-013  0.7246154E+02  0.7816164E-02  0.1226708E+00
        -11   -1    0    0    0    0  0.00000000000E+00  0.00000000000E+00  0.45593999997E+02  0.45594000000E+02  0.51100000000E-03 0. -1.
         11   -1    0    0    0    0 -0.00000000000E+00 -0.00000000000E+00 -0.45593999997E+02  0.45594000000E+02  0.51100000000E-03 0.  1.
    9900012    2    1    2    0    0  0.10413662996E+02 -0.97769722030E+01 -0.12109774291E+02  0.72461542892E+02  0.69999964303E+02 0.  0.
         12    1    1    2    0    0 -0.10413662996E+02  0.97769722030E+01  0.12109774291E+02  0.18726457108E+02  0.00000000000E+00 0. -1.
         11    1    3    3    0    0  0.31337992804E+02 -0.17168038923E+02 -0.20257221041E+02  0.41075130651E+02  0.51100000000E-03 0. -1.
        -11    1    3    3    0    0 -0.17390182291E+00 -0.38042592979E+01 -0.34248384948E+01  0.51217330686E+01  0.51100000000E-03 0.  1.
        -12    1    3    3    0    0 -0.20750427985E+02  0.11195326018E+02  0.11572285245E+02  0.26264679172E+02  0.00000000000E+00 0.  1.
</event>
<event>
 7    1  0.3020651E-013  0.7246158E+02  0.7816164E-02  0.1226708E+00
        -11   -1    0    0    0    0  0.00000000000E+00  0.00000000000E+00  0.45593999997E+02  0.45594000000E+02  0.51100000000E-03 0.  1.
         11   -1    0    0    0    0 -0.00000000000E+00 -0.00000000000E+00 -0.45593999997E+02  0.45594000000E+02  0.51100000000E-03 0. -1.
    9900012    2    1    2    0    0 -0.16771064078E+02 -0.38244898845E+01 -0.74015946455E+01  0.72461577050E+02  0.70000008801E+02 0.  0.
         12    1    1    2    0    0  0.16771064078E+02  0.38244898845E+01  0.74015946455E+01  0.18726422950E+02  0.00000000000E+00 0. -1.
         11    1    3    3    0    0 -0.13036108470E+02 -0.16744314179E+02 -0.16608152937E+02  0.26947039274E+02  0.51100000000E-03 0. -1.
        -11    1    3    3    0    0 -0.20140135545E+02 -0.13080276493E-01 -0.43589499866E+01  0.20606447440E+02  0.51100000000E-03 0.  1.
        -12    1    3    3    0    0  0.16405179936E+02  0.12932904571E+02  0.13565508278E+02  0.24908090337E+02  0.00000000000E+00 0.  1.
</event>
<event>
 7    1  0.3020651E-013  0.7246156E+02  0.7816164E-02  0.1226708E+00
        -11   -1    0    0    0    0  0.00000000000E+00  0.00000000000E+00  0.45593999997E+02  0.45594000000E+02  0.51100000000E-03 0.  1.
         11   -1    0    0    0    0 -0.00000000000E+00 -0.00000000000E+00 -0.45593999997E+02  0.45594000000E+02  0.51100000000E-03 0. -1.
    9900012    2    1    2    0    0 -0.16632615535E+02 -0.50190435564E+01 -0.69889152941E+01  0.72461557873E+02  0.69999983819E+02 0.  0.
         12    1    1    2    0    0  0.16632615535E+02  0.50190435564E+01  0.69889152941E+01  0.18726442127E+02  0.00000000000E+00 0. -1.
         11    1    3    3    0    0  0.15410859300E+02  0.12334186470E+02  0.11749502271E+02  0.22971232969E+02  0.51100000000E-03 0. -1.
        -11    1    3    3    0    0  0.49467590164E+01 -0.33850206170E+01 -0.71507255146E+00  0.60365651126E+01  0.51100000000E-03 0.  1.
        -12    1    3    3    0    0 -0.36990233852E+02 -0.13968209409E+02 -0.18023345014E+02  0.43453759791E+02  0.00000000000E+00 0.  1.
</event>
<event>
 7    1  0.3020651E-013  0.7246158E+02  0.7816164E-02  0.1226708E+00
        -11   -1    0    0    0    0  0.00000000000E+00  0.00000000000E+00  0.45593999997E+02  0.45594000000E+02  0.51100000000E-03 0. -1.
         11   -1    0    0    0    0 -0.00000000000E+00 -0.00000000000E+00 -0.45593999997E+02  0.45594000000E+02  0.51100000000E-03 0.  1.
    9900012    2    1    2    0    0 -0.11682476746E+02  0.88091429329E+00 -0.14608993686E+02  0.72461575637E+02  0.70000006960E+02 0.  0.
         12    1    1    2    0    0  0.11682476746E+02 -0.88091429329E+00  0.14608993686E+02  0.18726424363E+02  0.00000000000E+00 0. -1.
         11    1    3    3    0    0 -0.17654130653E+00  0.17045019858E+02 -0.83367919334E+01  0.18975404312E+02  0.51100000000E-03 0. -1.
        -11    1    3    3    0    0 -0.18045071407E+02  0.85168885787E+01 -0.16587943557E+02  0.25948446290E+02  0.51100000000E-03 0.  1.
         12    1    3    3    0    0  0.65391359671E+01 -0.24680994144E+02  0.10315741805E+02  0.27537725035E+02  0.00000000000E+00 0. -1.
</event>
<event>
 7    1  0.3020651E-013  0.7246179E+02  0.7816164E-02  0.1226707E+00
        -11   -1    0    0    0    0  0.00000000000E+00  0.00000000000E+00  0.45593999997E+02  0.45594000000E+02  0.51100000000E-03 0. -1.
         11   -1    0    0    0    0 -0.00000000000E+00 -0.00000000000E+00 -0.45593999997E+02  0.45594000000E+02  0.51100000000E-03 0.  1.
    9900012    2    1    2    0    0  0.20824330110E+01  0.13227071425E+02 -0.13091177697E+02  0.72461791648E+02  0.70000288354E+02 0.  0.
         12    1    1    2    0    0 -0.20824330110E+01 -0.13227071425E+02  0.13091177697E+02  0.18726208352E+02  0.00000000000E+00 0. -1.
         11    1    3    3    0    0 -0.91395518000E+01  0.21942411403E+01 -0.29568180076E+02  0.31026172413E+02  0.51100000000E-03 0. -1.
        -11    1    3    3    0    0 -0.11027174344E+02  0.43341205426E+00  0.12150059849E+02  0.16413725190E+02  0.51100000000E-03 0.  1.
         12    1    3    3    0    0  0.22249159155E+02  0.10599418231E+02  0.43269425304E+01  0.25021894045E+02  0.00000000000E+00 0. -1.
</event>
<event>
 7    1  0.3020651E-013  0.7246159E+02  0.7816164E-02  0.1226708E+00
        -11   -1    0    0    0    0  0.00000000000E+00  0.00000000000E+00  0.45593999997E+02  0.45594000000E+02  0.51100000000E-03 0.  1.
         11   -1    0    0    0    0 -0.00000000000E+00 -0.00000000000E+00 -0.45593999997E+02  0.45594000000E+02  0.51100000000E-03 0. -1.
    9900012    2    1    2    0    0 -0.11029252334E+02 -0.67247869554E+01  0.13557707302E+02  0.72461585663E+02  0.70000020020E+02 0.  0.
         12    1    1    2    0    0  0.11029252334E+02  0.67247869554E+01 -0.13557707302E+02  0.18726414337E+02  0.00000000000E+00 0. -1.
         11    1    3    3    0    0 -0.10903152379E+01  0.74456574774E+01 -0.38655439613E+01  0.84598482828E+01  0.51100000000E-03 0. -1.
        -11    1    3    3    0    0  0.82027419535E+01 -0.28065327144E+02  0.26454091143E+02  0.39430527536E+02  0.51100000000E-03 0.  1.
         12    1    3    3    0    0 -0.18141679049E+02  0.13894882711E+02 -0.90308398793E+01  0.24571209844E+02  0.00000000000E+00 0. -1.
</event>
<event>
 7    1  0.3020651E-013  0.7246181E+02  0.7816164E-02  0.1226707E+00
        -11   -1    0    0    0    0  0.00000000000E+00  0.00000000000E+00  0.45593999997E+02  0.45594000000E+02  0.51100000000E-03 0.  1.
         11   -1    0    0    0    0 -0.00000000000E+00 -0.00000000000E+00 -0.45593999997E+02  0.45594000000E+02  0.51100000000E-03 0. -1.
    9900012    2    1    2    0    0 -0.42262779491E+01  0.14948184817E+02 -0.10457561511E+02  0.72461808519E+02  0.70000310331E+02 0.  0.
         12    1    1    2    0    0  0.42262779491E+01 -0.14948184817E+02  0.10457561511E+02  0.18726191481E+02  0.00000000000E+00 0. -1.
         11    1    3    3    0    0  0.34416517190E+01  0.57219388756E+01 -0.19462508856E+01  0.69551019993E+01  0.51100000000E-03 0. -1.
        -11    1    3    3    0    0  0.28000024448E+02  0.21015038424E+01 -0.77396752877E+01  0.29125937947E+02  0.51100000000E-03 0.  1.
         12    1    3    3    0    0 -0.35667954116E+02  0.71247420992E+01 -0.77163533728E+00  0.36380768572E+02  0.00000000000E+00 0. -1.
</event>
<event>
 7    1  0.3020651E-013  0.7246155E+02  0.7816164E-02  0.1226708E+00
        -11   -1    0    0    0    0  0.00000000000E+00  0.00000000000E+00  0.45593999997E+02  0.45594000000E+02  0.51100000000E-03 0. -1.
         11   -1    0    0    0    0 -0.00000000000E+00 -0.00000000000E+00 -0.45593999997E+02  0.45594000000E+02  0.51100000000E-03 0.  1.
    9900012    2    1    2    0    0 -0.12371033112E+02 -0.11015775563E+02 -0.87344300230E+01  0.72461547070E+02  0.69999969746E+02 0.  0.
         12    1    1    2    0    0  0.12371033112E+02  0.11015775563E+02  0.87344300230E+01  0.18726452930E+02  0.00000000000E+00 0. -1.
         11    1    3    3    0    0  0.44723384849E+01 -0.66517572448E+01 -0.16461200035E+00  0.80171555641E+01  0.51100000000E-03 0. -1.
        -11    1    3    3    0    0  0.17917399315E+02 -0.18353766996E+02 -0.83469309044E+01  0.26973416857E+02  0.51100000000E-03 0.  1.
         12    1    3    3    0    0 -0.34760770912E+02  0.13989748677E+02 -0.22288711823E+00  0.37470974649E+02  0.00000000000E+00 0. -1.
</event>
<event>
 7    1  0.3020651E-013  0.7246157E+02  0.7816164E-02  0.1226708E+00
        -11   -1    0    0    0    0  0.00000000000E+00  0.00000000000E+00  0.45593999997E+02  0.45594000000E+02  0.51100000000E-03 0. -1.
         11   -1    0    0    0    0 -0.00000000000E+00 -0.00000000000E+00 -0.45593999997E+02  0.45594000000E+02  0.51100000000E-03 0.  1.
    9900012    2    1    2    0    0 -0.13814039859E+02 -0.12195358630E+02  0.33353508107E+01  0.72461573903E+02  0.70000004701E+02 0.  0.
         12    1    1    2    0    0  0.13814039859E+02  0.12195358630E+02 -0.33353508107E+01  0.18726426097E+02  0.00000000000E+00 0. -1.
         11    1    3    3    0    0  0.10866079498E+02 -0.12890629027E+02  0.18128974671E+02  0.24756811653E+02  0.51100000000E-03 0. -1.
        -11    1    3    3    0    0  0.40832122157E+01 -0.34452659754E+01  0.87853719664E+01  0.10282277982E+02  0.51100000000E-03 0.  1.
        -12    1    3    3    0    0 -0.28763331572E+02  0.41405363722E+01 -0.23578995827E+02  0.37422484268E+02  0.00000000000E+00 0.  1.
</event>
<event>
 7    1  0.3020651E-013  0.7246158E+02  0.7816164E-02  0.1226708E+00
        -11   -1    0    0    0    0  0.00000000000E+00  0.00000000000E+00  0.45593999997E+02  0.45594000000E+02  0.51100000000E-03 0. -1.
         11   -1    0    0    0    0 -0.00000000000E+00 -0.00000000000E+00 -0.45593999997E+02  0.45594000000E+02  0.51100000000E-03 0.  1.
    9900012    2    1    2    0    0 -0.16626453406E+02  0.55326272970E+01 -0.66052992578E+01  0.72461577599E+02  0.70000009515E+02 0.  0.
         12    1    1    2    0    0  0.16626453406E+02 -0.55326272970E+01  0.66052992578E+01  0.18726422401E+02  0.00000000000E+00 0. -1.
         11    1    3    3    0    0 -0.22452913136E+02  0.23014815538E+02  0.16277066499E+02  0.36038284318E+02  0.51100000000E-03 0. -1.
        -11    1    3    3    0    0 -0.36456850841E+01  0.33102362815E+01 -0.15448897396E+01  0.51609464772E+01  0.51100000000E-03 0.  1.
        -12    1    3    3    0    0  0.94721448140E+01 -0.20792424522E+02 -0.21337476017E+02  0.31262346803E+02  0.00000000000E+00 0.  1.
</event>
<event>
 7    1  0.3020651E-013  0.7246159E+02  0.7816164E-02  0.1226708E+00
        -11   -1    0    0    0    0  0.00000000000E+00  0.00000000000E+00  0.45593999997E+02  0.45594000000E+02  0.51100000000E-03 0.  1.
         11   -1    0    0    0    0 -0.00000000000E+00 -0.00000000000E+00 -0.45593999997E+02  0.45594000000E+02  0.51100000000E-03 0. -1.
    9900012    2    1    2    0    0 -0.15976067746E+02  0.22757213095E+01 -0.95007837259E+01  0.72461587116E+02  0.70000021913E+02 0.  0.
         12    1    1    2    0    0  0.15976067746E+02 -0.22757213095E+01  0.95007837259E+01  0.18726412884E+02  0.00000000000E+00 0. -1.
         11    1    3    3    0    0 -0.10957102267E+02  0.18952834909E+02  0.59680457109E+01  0.22691091007E+02  0.51100000000E-03 0. -1.
        -11    1    3    3    0    0  0.74757532591E+01  0.94902619292E+01  0.61925284972E+01  0.13575690322E+02  0.51100000000E-03 0.  1.
         12    1    3    3    0    0 -0.12494718738E+02 -0.26167375529E+02 -0.21661357934E+02  0.36194805787E+02  0.00000000000E+00 0. -1.
</event>
<event>
 7    1  0.3020651E-013  0.7246164E+02  0.7816164E-02  0.1226708E+00
        -11   -1    0    0    0    0  0.00000000000E+00  0.00000000000E+00  0.45593999997E+02  0.45594000000E+02  0.51100000000E-03 0.  1.
         11   -1    0    0    0    0 -0.00000000000E+00 -0.00000000000E+00 -0.45593999997E+02  0.45594000000E+02  0.51100000000E-03 0. -1.
    9900012    2    1    2    0    0  0.18825071312E+01 -0.15574548717E+02  0.10225766494E+02  0.72461636199E+02  0.70000085853E+02 0.  0.
         12    1    1    2    0    0 -0.18825071312E+01  0.15574548717E+02 -0.10225766494E+02  0.18726363801E+02  0.00000000000E+00 0. -1.
         11    1    3    3    0    0  0.16338710266E+02 -0.23520881357E+02 -0.18414575965E+02  0.34048229340E+02  0.51100000000E-03 0. -1.
        -11    1    3    3    0    0 -0.12923227162E+01  0.44245210846E+00  0.21707209156E+02  0.21750144631E+02  0.51100000000E-03 0.  1.
        -12    1    3    3    0    0 -0.13163880418E+02  0.75038805321E+01  0.69331333025E+01  0.16663262228E+02  0.00000000000E+00 0.  1.
</event>
<event>
 7    1  0.3020651E-013  0.7246152E+02  0.7816164E-02  0.1226708E+00
        -11   -1    0    0    0    0  0.00000000000E+00  0.00000000000E+00  0.45593999997E+02  0.45594000000E+02  0.51100000000E-03 0.  1.
         11   -1    0    0    0    0 -0.00000000000E+00 -0.00000000000E+00 -0.45593999997E+02  0.45594000000E+02  0.51100000000E-03 0. -1.
    9900012    2    1    2    0    0 -0.17758901223E+02 -0.47775763090E+01  0.35323129038E+01  0.72461520286E+02  0.69999934854E+02 0.  0.
         12    1    1    2    0    0  0.17758901223E+02  0.47775763090E+01 -0.35323129038E+01  0.18726479714E+02  0.00000000000E+00 0. -1.
         11    1    3    3    0    0  0.10908799182E+02 -0.97926802311E+01  0.17418813638E+02  0.22766500709E+02  0.51100000000E-03 0. -1.
        -11    1    3    3    0    0 -0.79273569632E+01 -0.82962772858E+01  0.10113160080E+02  0.15295333023E+02  0.51100000000E-03 0.  1.
         12    1    3    3    0    0 -0.20740343442E+02  0.13311381208E+02 -0.23999660814E+02  0.34399686553E+02  0.00000000000E+00 0. -1.
</event>
<event>
 7    1  0.3020651E-013  0.7246155E+02  0.7816164E-02  0.1226708E+00
        -11   -1    0    0    0    0  0.00000000000E+00  0.00000000000E+00  0.45593999997E+02  0.45594000000E+02  0.51100000000E-03 0. -1.
         11   -1    0    0    0    0 -0.00000000000E+00 -0.00000000000E+00 -0.45593999997E+02  0.45594000000E+02  0.51100000000E-03 0.  1.
    9900012    2    1    2    0    0  0.22619668999E+01 -0.17349121247E+02 -0.66761778876E+01  0.72461552033E+02  0.69999976211E+02 0.  0.
         12    1    1    2    0    0 -0.22619668999E+01  0.17349121247E+02  0.66761778876E+01  0.18726447967E+02  0.00000000000E+00 0. -1.
         11    1    3    3    0    0  0.19973145203E+02 -0.13142724974E+01  0.97496280769E+01  0.22264525358E+02  0.51100000000E-03 0. -1.
        -11    1    3    3    0    0 -0.22001758834E+02 -0.14290971769E+02  0.63186419131E+01  0.26985820384E+02  0.51100000000E-03 0.  1.
         12    1    3    3    0    0  0.42905805306E+01 -0.17438769801E+01 -0.22744447878E+02  0.23211206291E+02  0.00000000000E+00 0. -1.
</event>
<event>
 7    1  0.3020651E-013  0.7246159E+02  0.7816164E-02  0.1226708E+00
        -11   -1    0    0    0    0  0.00000000000E+00  0.00000000000E+00  0.45593999997E+02  0.45594000000E+02  0.51100000000E-03 0.  1.
         11   -1    0    0    0    0 -0.00000000000E+00 -0.00000000000E+00 -0.45593999997E+02  0.45594000000E+02  0.51100000000E-03 0. -1.
    9900012    2    1    2    0    0 -0.70836130409E+01 -0.12249211998E+02  0.12266113240E+02  0.72461593449E+02  0.70000030164E+02 0.  0.
         12    1    1    2    0    0  0.70836130409E+01  0.12249211998E+02 -0.12266113240E+02  0.18726406551E+02  0.00000000000E+00 0. -1.
         11    1    3    3    0    0  0.66944548728E+01  0.18993041695E+02 -0.12593371645E+02  0.23751723485E+02  0.51100000000E-03 0. -1.
        -11    1    3    3    0    0  0.39645130981E+01 -0.13721717159E+01  0.10148488172E+02  0.10981440332E+02  0.51100000000E-03 0.  1.
        -12    1    3    3    0    0 -0.17742581012E+02 -0.29870081977E+02  0.14710996712E+02  0.37728429633E+02  0.00000000000E+00 0.  1.
</event>
<event>
 7    1  0.3020651E-013  0.7246159E+02  0.7816164E-02  0.1226708E+00
        -11   -1    0    0    0    0  0.00000000000E+00  0.00000000000E+00  0.45593999997E+02  0.45594000000E+02  0.51100000000E-03 0. -1.
         11   -1    0    0    0    0 -0.00000000000E+00 -0.00000000000E+00 -0.45593999997E+02  0.45594000000E+02  0.51100000000E-03 0.  1.
    9900012    2    1    2    0    0  0.12085810490E+02  0.68381756074E+00 -0.14287899000E+02  0.72461588719E+02  0.70000024001E+02 0.  0.
         12    1    1    2    0    0 -0.12085810490E+02 -0.68381756074E+00  0.14287899000E+02  0.18726411281E+02  0.00000000000E+00 0. -1.
         11    1    3    3    0    0 -0.77531793749E+01 -0.15779230867E+02  0.51906916784E+01  0.18331371949E+02  0.51100000000E-03 0. -1.
        -11    1    3    3    0    0 -0.11714436298E+02  0.12089550723E+02 -0.81604225094E-01  0.16834248245E+02  0.51100000000E-03 0.  1.
         12    1    3    3    0    0  0.31553426162E+02  0.43734977047E+01 -0.19396986453E+02  0.37295968525E+02  0.00000000000E+00 0. -1.
</event>
<event>
 7    1  0.3020651E-013  0.7246155E+02  0.7816164E-02  0.1226708E+00
        -11   -1    0    0    0    0  0.00000000000E+00  0.00000000000E+00  0.45593999997E+02  0.45594000000E+02  0.51100000000E-03 0.  1.
         11   -1    0    0    0    0 -0.00000000000E+00 -0.00000000000E+00 -0.45593999997E+02  0.45594000000E+02  0.51100000000E-03 0. -1.
    9900012    2    1    2    0    0 -0.87997091632E+01  0.16509470216E+02  0.82616831430E+00  0.72461546992E+02  0.69999969644E+02 0.  0.
         12    1    1    2    0    0  0.87997091632E+01 -0.16509470216E+02 -0.82616831430E+00  0.18726453008E+02  0.00000000000E+00 0. -1.
         11    1    3    3    0    0 -0.98767645864E+01  0.92772642311E+01 -0.25163315886E+02  0.28579898127E+02  0.51100000000E-03 0. -1.
        -11    1    3    3    0    0  0.14552935467E+02  0.13490584708E+02  0.10630906507E+02  0.22512218457E+02  0.51100000000E-03 0.  1.
         12    1    3    3    0    0 -0.13475880043E+02 -0.62583787223E+01  0.15358577693E+02  0.21369430407E+02  0.00000000000E+00 0. -1.
</event>
<event>
 7    1  0.3020651E-013  0.7246191E+02  0.7816164E-02  0.1226707E+00
        -11   -1    0    0    0    0  0.00000000000E+00  0.00000000000E+00  0.45593999997E+02  0.45594000000E+02  0.51100000000E-03 0. -1.
         11   -1    0    0    0    0 -0.00000000000E+00 -0.00000000000E+00 -0.45593999997E+02  0.45594000000E+02  0.51100000000E-03 0.  1.
    9900012    2    1    2    0    0  0.15335005663E+02 -0.74706557908E+01  0.77261459981E+01  0.72461910482E+02  0.70000443157E+02 0.  0.
         12    1    1    2    0    0 -0.15335005663E+02  0.74706557908E+01 -0.77261459981E+01  0.18726089518E+02  0.00000000000E+00 0. -1.
         11    1    3    3    0    0  0.10885938010E+02 -0.18921221012E+01  0.11764770692E+02  0.16139814191E+02  0.51100000000E-03 0. -1.
        -11    1    3    3    0    0  0.13257078856E+02  0.19521110803E+02  0.10702051053E+02  0.25910573204E+02  0.51100000000E-03 0.  1.
        -12    1    3    3    0    0 -0.88080112027E+01 -0.25099644493E+02 -0.14740675747E+02  0.30411523087E+02  0.00000000000E+00 0.  1.
</event>
<event>
 7    1  0.3020651E-013  0.7246167E+02  0.7816164E-02  0.1226708E+00
        -11   -1    0    0    0    0  0.00000000000E+00  0.00000000000E+00  0.45593999997E+02  0.45594000000E+02  0.51100000000E-03 0.  1.
         11   -1    0    0    0    0 -0.00000000000E+00 -0.00000000000E+00 -0.45593999997E+02  0.45594000000E+02  0.51100000000E-03 0. -1.
    9900012    2    1    2    0    0  0.96960101149E+01 -0.16001111707E+02 -0.79203033896E+00  0.72461668270E+02  0.70000127631E+02 0.  0.
         12    1    1    2    0    0 -0.96960101149E+01  0.16001111707E+02  0.79203033896E+00  0.18726331730E+02  0.00000000000E+00 0. -1.
         11    1    3    3    0    0 -0.14291930708E+02  0.32417473710E+01  0.30339872671E+01  0.14965737148E+02  0.51100000000E-03 0. -1.
        -11    1    3    3    0    0 -0.79921581259E+00 -0.28412605889E+02  0.64381286258E+01  0.29143857325E+02  0.51100000000E-03 0.  1.
         12    1    3    3    0    0  0.24787156636E+02  0.91697468115E+01 -0.10264146232E+02  0.28352073796E+02  0.00000000000E+00 0. -1.
</event>
<event>
 7    1  0.3020651E-013  0.7246153E+02  0.7816164E-02  0.1226708E+00
        -11   -1    0    0    0    0  0.00000000000E+00  0.00000000000E+00  0.45593999997E+02  0.45594000000E+02  0.51100000000E-03 0.  1.
         11   -1    0    0    0    0 -0.00000000000E+00 -0.00000000000E+00 -0.45593999997E+02  0.45594000000E+02  0.51100000000E-03 0. -1.
    9900012    2    1    2    0    0  0.95639933194E+01 -0.78948452404E+01  0.14031462907E+02  0.72461534747E+02  0.69999953693E+02 0.  0.
         12    1    1    2    0    0 -0.95639933194E+01  0.78948452404E+01 -0.14031462907E+02  0.18726465253E+02  0.00000000000E+00 0. -1.
         11    1    3    3    0    0  0.29795818086E+01 -0.10508808023E+02  0.94580342208E+01  0.14448784219E+02  0.51100000000E-03 0. -1.
        -11    1    3    3    0    0  0.14842512945E+02 -0.16540759313E+02  0.21671854334E+02  0.31041362401E+02  0.51100000000E-03 0.  1.
         12    1    3    3    0    0 -0.82581014339E+01  0.19154722096E+02 -0.17098425648E+02  0.26971388127E+02  0.00000000000E+00 0. -1.
</event>
<event>
 7    1  0.3020651E-013  0.7246155E+02  0.7816164E-02  0.1226708E+00
        -11   -1    0    0    0    0  0.00000000000E+00  0.00000000000E+00  0.45593999997E+02  0.45594000000E+02  0.51100000000E-03 0. -1.
         11   -1    0    0    0    0 -0.00000000000E+00 -0.00000000000E+00 -0.45593999997E+02  0.45594000000E+02  0.51100000000E-03 0.  1.
    9900012    2    1    2    0    0  0.12721077241E+02  0.36621432133E+01  0.13245483183E+02  0.72461550154E+02  0.69999973764E+02 0.  0.
         12    1    1    2    0    0 -0.12721077241E+02 -0.36621432133E+01 -0.13245483183E+02  0.18726449846E+02  0.00000000000E+00 0. -1.
         11    1    3    3    0    0 -0.66118162887E+01  0.10767143781E+01 -0.48740159306E+01  0.82844106634E+01  0.51100000000E-03 0. -1.
        -11    1    3    3    0    0 -0.14816195061E+02  0.41100619119E+01 -0.11296688582E+02  0.19079502567E+02  0.51100000000E-03 0.  1.
         12    1    3    3    0    0  0.34149088591E+02 -0.15246330768E+01  0.29416187695E+02  0.45097636924E+02  0.00000000000E+00 0. -1.
</event>
<event>
 7    1  0.3020651E-013  0.7246159E+02  0.7816164E-02  0.1226708E+00
        -11   -1    0    0    0    0  0.00000000000E+00  0.00000000000E+00  0.45593999997E+02  0.45594000000E+02  0.51100000000E-03 0.  1.
         11   -1    0    0    0    0 -0.00000000000E+00 -0.00000000000E+00 -0.45593999997E+02  0.45594000000E+02  0.51100000000E-03 0. -1.
    9900012    2    1    2    0    0 -0.67426307283E+01  0.12805898675E+02  0.11883781265E+02  0.72461591718E+02  0.70000027908E+02 0.  0.
         12    1    1    2    0    0  0.67426307283E+01 -0.12805898675E+02 -0.11883781265E+02  0.18726408282E+02  0.00000000000E+00 0. -1.
         11    1    3    3    0    0 -0.93892622417E+01  0.14063455926E+02 -0.10161493725E+02  0.19728025573E+02  0.51100000000E-03 0.  1.
        -11    1    3    3    0    0  0.54484557198E+01 -0.43224665568E+01  0.36776452806E+02  0.37428289676E+02  0.51100000000E-03 0. -1.
         12    1    3    3    0    0 -0.28018242064E+01  0.30649093060E+01 -0.14731177816E+02  0.15305276469E+02  0.00000000000E+00 0. -1.
</event>
<event>
 7    1  0.3020651E-013  0.7246149E+02  0.7816164E-02  0.1226708E+00
        -11   -1    0    0    0    0  0.00000000000E+00  0.00000000000E+00  0.45593999997E+02  0.45594000000E+02  0.51100000000E-03 0. -1.
         11   -1    0    0    0    0 -0.00000000000E+00 -0.00000000000E+00 -0.45593999997E+02  0.45594000000E+02  0.51100000000E-03 0.  1.
    9900012    2    1    2    0    0 -0.18071736844E+02 -0.48371037983E+01 -0.83484405715E+00  0.72461489105E+02  0.69999894235E+02 0.  0.
         12    1    1    2    0    0  0.18071736844E+02  0.48371037983E+01  0.83484405715E+00  0.18726510895E+02  0.00000000000E+00 0. -1.
         11    1    3    3    0    0  0.66624370402E+01 -0.15577539054E+01  0.76959539997E+01  0.10297687739E+02  0.51100000000E-03 0. -1.
        -11    1    3    3    0    0  0.42555696434E+01  0.21892016833E+02  0.18905908074E+01  0.22381791883E+02  0.51100000000E-03 0.  1.
        -12    1    3    3    0    0 -0.28989743528E+02 -0.25171366726E+02 -0.10421388864E+02  0.39782009483E+02  0.00000000000E+00 0.  1.
</event>
<event>
 7    1  0.3020651E-013  0.7246154E+02  0.7816164E-02  0.1226708E+00
        -11   -1    0    0    0    0  0.00000000000E+00  0.00000000000E+00  0.45593999997E+02  0.45594000000E+02  0.51100000000E-03 0.  1.
         11   -1    0    0    0    0 -0.00000000000E+00 -0.00000000000E+00 -0.45593999997E+02  0.45594000000E+02  0.51100000000E-03 0. -1.
    9900012    2    1    2    0    0 -0.10270983608E+02 -0.14898929251E+02 -0.48175941448E+01  0.72461537161E+02  0.69999956838E+02 0.  0.
         12    1    1    2    0    0  0.10270983608E+02  0.14898929251E+02  0.48175941448E+01  0.18726462839E+02  0.00000000000E+00 0. -1.
         11    1    3    3    0    0  0.18418799374E+02 -0.19464434051E+02 -0.15783490767E+02  0.31100401032E+02  0.51100000000E-03 0. -1.
        -11    1    3    3    0    0  0.15895713909E+01  0.15643146647E+01  0.10702369406E+02  0.10932270064E+02  0.51100000000E-03 0.  1.
        -12    1    3    3    0    0 -0.30279354373E+02  0.30011901350E+01  0.26352721608E+00  0.30428866066E+02  0.00000000000E+00 0.  1.
</event>
<event>
 7    1  0.3020651E-013  0.7246153E+02  0.7816164E-02  0.1226708E+00
        -11   -1    0    0    0    0  0.00000000000E+00  0.00000000000E+00  0.45593999997E+02  0.45594000000E+02  0.51100000000E-03 0.  1.
         11   -1    0    0    0    0 -0.00000000000E+00 -0.00000000000E+00 -0.45593999997E+02  0.45594000000E+02  0.51100000000E-03 0. -1.
    9900012    2    1    2    0    0 -0.14178301122E+02 -0.30267958624E+01  0.11853050112E+02  0.72461534427E+02  0.69999953276E+02 0.  0.
         12    1    1    2    0    0  0.14178301122E+02  0.30267958624E+01 -0.11853050112E+02  0.18726465573E+02  0.00000000000E+00 0. -1.
         11    1    3    3    0    0  0.56046849825E+01  0.10640249235E+01 -0.96717430331E+01  0.11228858194E+02  0.51100000000E-03 0. -1.
        -11    1    3    3    0    0  0.15612135560E+02  0.88723722878E+01  0.14059401294E+02  0.22806238878E+02  0.51100000000E-03 0.  1.
        -12    1    3    3    0    0 -0.35395121664E+02 -0.12963193074E+02  0.74653918510E+01  0.38426437355E+02  0.00000000000E+00 0.  1.
</event>
<event>
 7    1  0.3020651E-013  0.7246155E+02  0.7816164E-02  0.1226708E+00
        -11   -1    0    0    0    0  0.00000000000E+00  0.00000000000E+00  0.45593999997E+02  0.45594000000E+02  0.51100000000E-03 0.  1.
         11   -1    0    0    0    0 -0.00000000000E+00 -0.00000000000E+00 -0.45593999997E+02  0.45594000000E+02  0.51100000000E-03 0. -1.
    9900012    2    1    2    0    0  0.10925823671E+02  0.12156661398E+02  0.91390269742E+01  0.72461552038E+02  0.69999976218E+02 0.  0.
         12    1    1    2    0    0 -0.10925823671E+02 -0.12156661398E+02 -0.91390269742E+01  0.18726447962E+02  0.00000000000E+00 0. -1.
         11    1    3    3    0    0 -0.37802935484E+01  0.16251757976E+01  0.34396072170E+01  0.53630880800E+01  0.51100000000E-03 0. -1.
        -11    1    3    3    0    0 -0.15717627379E+02 -0.25580871703E+00  0.24968633030E+02  0.29504946774E+02  0.51100000000E-03 0.  1.
         12    1    3    3    0    0  0.30423744599E+02  0.10787294318E+02 -0.19269213272E+02  0.37593517184E+02  0.00000000000E+00 0. -1.
</event>
<event>
 7    1  0.3020651E-013  0.7246153E+02  0.7816164E-02  0.1226708E+00
        -11   -1    0    0    0    0  0.00000000000E+00  0.00000000000E+00  0.45593999997E+02  0.45594000000E+02  0.51100000000E-03 0. -1.
         11   -1    0    0    0    0 -0.00000000000E+00 -0.00000000000E+00 -0.45593999997E+02  0.45594000000E+02  0.51100000000E-03 0.  1.
    9900012    2    1    2    0    0 -0.22818526325E+00  0.16513682453E+02 -0.88276313216E+01  0.72461525387E+02  0.69999941500E+02 0.  0.
         12    1    1    2    0    0  0.22818526325E+00 -0.16513682453E+02  0.88276313216E+01  0.18726474613E+02  0.00000000000E+00 0. -1.
         11    1    3    3    0    0  0.12054129001E+02  0.27176872799E+01 -0.22265440076E+01  0.12555689890E+02  0.51100000000E-03 0. -1.
        -11    1    3    3    0    0  0.69273331814E+01  0.19251728127E+02 -0.25307324228E+02  0.32543473089E+02  0.51100000000E-03 0.  1.
         12    1    3    3    0    0 -0.19209647446E+02 -0.54557329542E+01  0.18706236914E+02  0.27362362408E+02  0.00000000000E+00 0. -1.
</event>
<event>
 7    1  0.3020651E-013  0.7246157E+02  0.7816164E-02  0.1226708E+00
        -11   -1    0    0    0    0  0.00000000000E+00  0.00000000000E+00  0.45593999997E+02  0.45594000000E+02  0.51100000000E-03 0.  1.
         11   -1    0    0    0    0 -0.00000000000E+00 -0.00000000000E+00 -0.45593999997E+02  0.45594000000E+02  0.51100000000E-03 0. -1.
    9900012    2    1    2    0    0  0.77515394869E+01  0.64592072706E+01  0.15775660091E+02  0.72461570167E+02  0.69999999834E+02 0.  0.
         12    1    1    2    0    0 -0.77515394869E+01 -0.64592072706E+01 -0.15775660091E+02  0.18726429833E+02  0.00000000000E+00 0. -1.
         11    1    3    3    0    0  0.14559213123E+02 -0.21082675708E+02  0.30005797073E+02  0.39456276561E+02  0.51100000000E-03 0. -1.
        -11    1    3    3    0    0  0.96768506540E+00  0.14943749537E+02 -0.70460314793E+01  0.16549882914E+02  0.51100000000E-03 0.  1.
        -12    1    3    3    0    0 -0.77753587019E+01  0.12598133442E+02 -0.71841055022E+01  0.16455410692E+02  0.00000000000E+00 0.  1.
</event>
<event>
 7    1  0.3020651E-013  0.7246169E+02  0.7816164E-02  0.1226708E+00
        -11   -1    0    0    0    0  0.00000000000E+00  0.00000000000E+00  0.45593999997E+02  0.45594000000E+02  0.51100000000E-03 0.  1.
         11   -1    0    0    0    0 -0.00000000000E+00 -0.00000000000E+00 -0.45593999997E+02  0.45594000000E+02  0.51100000000E-03 0. -1.
    9900012    2    1    2    0    0  0.12048053471E+02  0.27741749524E+01  0.14064952370E+02  0.72461694324E+02  0.70000161571E+02 0.  0.
         12    1    1    2    0    0 -0.12048053471E+02 -0.27741749524E+01 -0.14064952370E+02  0.18726305676E+02  0.00000000000E+00 0. -1.
         11    1    3    3    0    0 -0.15750350751E+01 -0.79828942577E+01 -0.15753819463E+02  0.17731050847E+02  0.51100000000E-03 0. -1.
        -11    1    3    3    0    0 -0.61197981497E+01 -0.79746177960E+00 -0.82588356855E+01  0.10310006878E+02  0.51100000000E-03 0.  1.
        -12    1    3    3    0    0  0.19742886696E+02  0.11554530990E+02  0.38077607518E+02  0.44420636598E+02  0.00000000000E+00 0.  1.
</event>
<event>
 7    1  0.3020651E-013  0.7246161E+02  0.7816164E-02  0.1226708E+00
        -11   -1    0    0    0    0  0.00000000000E+00  0.00000000000E+00  0.45593999997E+02  0.45594000000E+02  0.51100000000E-03 0.  1.
         11   -1    0    0    0    0 -0.00000000000E+00 -0.00000000000E+00 -0.45593999997E+02  0.45594000000E+02  0.51100000000E-03 0. -1.
    9900012    2    1    2    0    0 -0.46422702572E+01  0.46475433264E+01  0.17536459344E+02  0.72461608505E+02  0.70000049776E+02 0.  0.
         12    1    1    2    0    0  0.46422702572E+01 -0.46475433264E+01 -0.17536459344E+02  0.18726391495E+02  0.00000000000E+00 0. -1.
         11    1    3    3    0    0 -0.32500938605E+02  0.60300425466E+01  0.84789479876E+01  0.34125723180E+02  0.51100000000E-03 0. -1.
        -11    1    3    3    0    0  0.64210004498E+01 -0.10283787830E+02  0.90410141087E+01  0.15123672678E+02  0.51100000000E-03 0.  1.
        -12    1    3    3    0    0  0.21437667898E+02  0.89012886095E+01  0.16497247907E-01  0.23212212647E+02  0.00000000000E+00 0.  1.
</event>
<event>
 7    1  0.3020651E-013  0.7246159E+02  0.7816164E-02  0.1226708E+00
        -11   -1    0    0    0    0  0.00000000000E+00  0.00000000000E+00  0.45593999997E+02  0.45594000000E+02  0.51100000000E-03 0.  1.
         11   -1    0    0    0    0 -0.00000000000E+00 -0.00000000000E+00 -0.45593999997E+02  0.45594000000E+02  0.51100000000E-03 0. -1.
    9900012    2    1    2    0    0 -0.54494713199E+01 -0.17798782969E+02 -0.20457695641E+01  0.72461585875E+02  0.70000020297E+02 0.  0.
         12    1    1    2    0    0  0.54494713199E+01  0.17798782969E+02  0.20457695641E+01  0.18726414125E+02  0.00000000000E+00 0. -1.
         11    1    3    3    0    0  0.14712385627E+00 -0.76611316029E+01 -0.60066424460E+01  0.97362383189E+01  0.51100000000E-03 0. -1.
        -11    1    3    3    0    0  0.96604564494E+01 -0.28420007281E+02 -0.13781941588E+02  0.33029731257E+02  0.51100000000E-03 0.  1.
        -12    1    3    3    0    0 -0.15257051626E+02  0.18282355915E+02  0.17742814470E+02  0.29695616300E+02  0.00000000000E+00 0.  1.
</event>
<event>
 7    1  0.3020651E-013  0.7246161E+02  0.7816164E-02  0.1226708E+00
        -11   -1    0    0    0    0  0.00000000000E+00  0.00000000000E+00  0.45593999997E+02  0.45594000000E+02  0.51100000000E-03 0. -1.
         11   -1    0    0    0    0 -0.00000000000E+00 -0.00000000000E+00 -0.45593999997E+02  0.45594000000E+02  0.51100000000E-03 0.  1.
    9900012    2    1    2    0    0  0.12090131688E+02 -0.12426499699E+02 -0.70773235529E+01  0.72461609860E+02  0.70000051542E+02 0.  0.
         12    1    1    2    0    0 -0.12090131688E+02  0.12426499699E+02  0.70773235529E+01  0.18726390140E+02  0.00000000000E+00 0. -1.
         11    1    3    3    0    0  0.45317563852E+01  0.12382177029E+02  0.47455888189E+01  0.14013412769E+02  0.51100000000E-03 0. -1.
        -11    1    3    3    0    0 -0.21656026114E+02 -0.14505491663E+02 -0.29936747171E+01  0.26236517376E+02  0.51100000000E-03 0.  1.
         12    1    3    3    0    0  0.29214401416E+02 -0.10303185065E+02 -0.88292376546E+01  0.32211679716E+02  0.00000000000E+00 0. -1.
</event>
<event>
 7    1  0.3020651E-013  0.7246150E+02  0.7816164E-02  0.1226708E+00
        -11   -1    0    0    0    0  0.00000000000E+00  0.00000000000E+00  0.45593999997E+02  0.45594000000E+02  0.51100000000E-03 0. -1.
         11   -1    0    0    0    0 -0.00000000000E+00 -0.00000000000E+00 -0.45593999997E+02  0.45594000000E+02  0.51100000000E-03 0.  1.
    9900012    2    1    2    0    0  0.12661190245E+02  0.21955333622E+01  0.13621881530E+02  0.72461501086E+02  0.69999909843E+02 0.  0.
         12    1    1    2    0    0 -0.12661190245E+02 -0.21955333622E+01 -0.13621881530E+02  0.18726498914E+02  0.00000000000E+00 0. -1.
         11    1    3    3    0    0  0.59731655262E+01  0.12257970991E+02  0.35690877565E+00  0.13640525773E+02  0.51100000000E-03 0. -1.
        -11    1    3    3    0    0  0.15426737945E+02  0.16300414365E+02 -0.80161996656E+01  0.23831643028E+02  0.51100000000E-03 0.  1.
         12    1    3    3    0    0 -0.87387132258E+01 -0.26362851995E+02  0.21281172420E+02  0.34989332284E+02  0.00000000000E+00 0. -1.
</event>
<event>
 7    1  0.3020651E-013  0.7246159E+02  0.7816164E-02  0.1226708E+00
        -11   -1    0    0    0    0  0.00000000000E+00  0.00000000000E+00  0.45593999997E+02  0.45594000000E+02  0.51100000000E-03 0.  1.
         11   -1    0    0    0    0 -0.00000000000E+00 -0.00000000000E+00 -0.45593999997E+02  0.45594000000E+02  0.51100000000E-03 0. -1.
    9900012    2    1    2    0    0  0.15780468102E+02  0.62572596883E+01  0.79058210821E+01  0.72461588724E+02  0.70000024008E+02 0.  0.
         12    1    1    2    0    0 -0.15780468102E+02 -0.62572596883E+01 -0.79058210821E+01  0.18726411276E+02  0.00000000000E+00 0. -1.
         11    1    3    3    0    0  0.32889035947E+01  0.10661743039E+02 -0.13345044757E+02  0.17394823118E+02  0.51100000000E-03 0. -1.
        -11    1    3    3    0    0 -0.14041803039E+02  0.12219225912E+02  0.30854322515E+01  0.18868004847E+02  0.51100000000E-03 0.  1.
        -12    1    3    3    0    0  0.26533367546E+02 -0.16623709263E+02  0.18165433587E+02  0.36198760758E+02  0.00000000000E+00 0.  1.
</event>
<event>
 7    1  0.3020651E-013  0.7246155E+02  0.7816164E-02  0.1226708E+00
        -11   -1    0    0    0    0  0.00000000000E+00  0.00000000000E+00  0.45593999997E+02  0.45594000000E+02  0.51100000000E-03 0. -1.
         11   -1    0    0    0    0 -0.00000000000E+00 -0.00000000000E+00 -0.45593999997E+02  0.45594000000E+02  0.51100000000E-03 0.  1.
    9900012    2    1    2    0    0  0.14785316895E+02  0.70752426016E+01 -0.90562351010E+01  0.72461546845E+02  0.69999969453E+02 0.  0.
         12    1    1    2    0    0 -0.14785316895E+02 -0.70752426016E+01  0.90562351010E+01  0.18726453155E+02  0.00000000000E+00 0. -1.
         11    1    3    3    0    0 -0.20318965646E+02  0.35234297094E+01  0.14500498331E+02  0.25209906266E+02  0.51100000000E-03 0. -1.
        -11    1    3    3    0    0  0.28959368569E+01  0.71642469217E+01 -0.85844876425E+01  0.11550165046E+02  0.51100000000E-03 0.  1.
        -12    1    3    3    0    0  0.32208345683E+02 -0.36124340295E+01 -0.14972245790E+02  0.35701475534E+02  0.00000000000E+00 0.  1.
</event>
<event>
 7    1  0.3020651E-013  0.7246161E+02  0.7816164E-02  0.1226708E+00
        -11   -1    0    0    0    0  0.00000000000E+00  0.00000000000E+00  0.45593999997E+02  0.45594000000E+02  0.51100000000E-03 0. -1.
         11   -1    0    0    0    0 -0.00000000000E+00 -0.00000000000E+00 -0.45593999997E+02  0.45594000000E+02  0.51100000000E-03 0.  1.
    9900012    2    1    2    0    0 -0.84680436568E+01  0.13355870354E+02 -0.10029483250E+02  0.72461612987E+02  0.70000055616E+02 0.  0.
         12    1    1    2    0    0  0.84680436568E+01 -0.13355870354E+02  0.10029483250E+02  0.18726387013E+02  0.00000000000E+00 0. -1.
         11    1    3    3    0    0  0.13990387458E+02  0.45040481478E+01  0.65840579311E+00  0.14712270028E+02  0.51100000000E-03 0. -1.
        -11    1    3    3    0    0 -0.21466414685E+02  0.14625108459E+02 -0.28758813643E+02  0.38752678866E+02  0.51100000000E-03 0.  1.
         12    1    3    3    0    0 -0.99201642928E+00 -0.57732862527E+01  0.18070924600E+02  0.18996664093E+02  0.00000000000E+00 0. -1.
</event>
<event>
 7    1  0.3020651E-013  0.7246158E+02  0.7816164E-02  0.1226708E+00
        -11   -1    0    0    0    0  0.00000000000E+00  0.00000000000E+00  0.45593999997E+02  0.45594000000E+02  0.51100000000E-03 0.  1.
         11   -1    0    0    0    0 -0.00000000000E+00 -0.00000000000E+00 -0.45593999997E+02  0.45594000000E+02  0.51100000000E-03 0. -1.
    9900012    2    1    2    0    0  0.11442657260E+02  0.10469755776E+02 -0.10494223555E+02  0.72461576978E+02  0.70000008707E+02 0.  0.
         12    1    1    2    0    0 -0.11442657260E+02 -0.10469755776E+02  0.10494223555E+02  0.18726423022E+02  0.00000000000E+00 0. -1.
         11    1    3    3    0    0  0.39938599963E+01 -0.11840226284E+02 -0.29740664687E+02  0.32259091934E+02  0.51100000000E-03 0. -1.
        -11    1    3    3    0    0 -0.75165795425E+00 -0.25908629455E+01 -0.42259945355E+01  0.50136404496E+01  0.51100000000E-03 0.  1.
        -12    1    3    3    0    0  0.82004552176E+01  0.24900845005E+02  0.23472435667E+02  0.35188844595E+02  0.00000000000E+00 0.  1.
</event>
<event>
 7    1  0.3020651E-013  0.7246154E+02  0.7816164E-02  0.1226708E+00
        -11   -1    0    0    0    0  0.00000000000E+00  0.00000000000E+00  0.45593999997E+02  0.45594000000E+02  0.51100000000E-03 0.  1.
         11   -1    0    0    0    0 -0.00000000000E+00 -0.00000000000E+00 -0.45593999997E+02  0.45594000000E+02  0.51100000000E-03 0. -1.
    9900012    2    1    2    0    0  0.14485896868E+02  0.39336115459E+01  0.11196693677E+02  0.72461535914E+02  0.69999955214E+02 0.  0.
         12    1    1    2    0    0 -0.14485896868E+02 -0.39336115459E+01 -0.11196693677E+02  0.18726464086E+02  0.00000000000E+00 0. -1.
         11    1    3    3    0    0 -0.40073635358E+01 -0.30607648633E+02  0.57139119879E+01  0.31393246214E+02  0.51100000000E-03 0. -1.
        -11    1    3    3    0    0  0.80560319688E+01  0.20295964313E+02 -0.19182968552E+01  0.21920439813E+02  0.51100000000E-03 0.  1.
        -12    1    3    3    0    0  0.10437228435E+02  0.14245295866E+02  0.74010785445E+01  0.19147849888E+02  0.00000000000E+00 0.  1.
</event>
<event>
 7    1  0.3020651E-013  0.7246156E+02  0.7816164E-02  0.1226708E+00
        -11   -1    0    0    0    0  0.00000000000E+00  0.00000000000E+00  0.45593999997E+02  0.45594000000E+02  0.51100000000E-03 0.  1.
         11   -1    0    0    0    0 -0.00000000000E+00 -0.00000000000E+00 -0.45593999997E+02  0.45594000000E+02  0.51100000000E-03 0. -1.
    9900012    2    1    2    0    0  0.14655979219E+02  0.30964726732E+01  0.11238038597E+02  0.72461564637E+02  0.69999992631E+02 0.  0.
         12    1    1    2    0    0 -0.14655979219E+02 -0.30964726732E+01 -0.11238038597E+02  0.18726435363E+02  0.00000000000E+00 0. -1.
         11    1    3    3    0    0 -0.13902113098E+02 -0.96289418594E+01 -0.88631824942E+01  0.19092963995E+02  0.51100000000E-03 0. -1.
        -11    1    3    3    0    0  0.15490791831E+01 -0.66081115079E+01 -0.75482121386E+01  0.10150974868E+02  0.51100000000E-03 0.  1.
        -12    1    3    3    0    0  0.27009013135E+02  0.19333526041E+02  0.27649433229E+02  0.43217625774E+02  0.00000000000E+00 0.  1.
</event>
<event>
 7    1  0.3020651E-013  0.7246155E+02  0.7816164E-02  0.1226708E+00
        -11   -1    0    0    0    0  0.00000000000E+00  0.00000000000E+00  0.45593999997E+02  0.45594000000E+02  0.51100000000E-03 0.  1.
         11   -1    0    0    0    0 -0.00000000000E+00 -0.00000000000E+00 -0.45593999997E+02  0.45594000000E+02  0.51100000000E-03 0. -1.
    9900012    2    1    2    0    0  0.41716589365E+00  0.16261283280E+02  0.92777487728E+01  0.72461548559E+02  0.69999971685E+02 0.  0.
         12    1    1    2    0    0 -0.41716589365E+00 -0.16261283280E+02 -0.92777487728E+01  0.18726451441E+02  0.00000000000E+00 0. -1.
         11    1    3    3    0    0  0.25586836023E+01  0.10353706527E+01  0.73308075883E+01  0.78332365165E+01  0.51100000000E-03 0. -1.
        -11    1    3    3    0    0  0.75164618715E+01  0.21862730190E+02  0.27851513597E+02  0.36196449831E+02  0.51100000000E-03 0.  1.
         12    1    3    3    0    0 -0.96579795802E+01 -0.66368175623E+01 -0.25904572413E+02  0.28431862212E+02  0.00000000000E+00 0. -1.
</event>
<event>
 7    1  0.3020651E-013  0.7246149E+02  0.7816164E-02  0.1226708E+00
        -11   -1    0    0    0    0  0.00000000000E+00  0.00000000000E+00  0.45593999997E+02  0.45594000000E+02  0.51100000000E-03 0.  1.
         11   -1    0    0    0    0 -0.00000000000E+00 -0.00000000000E+00 -0.45593999997E+02  0.45594000000E+02  0.51100000000E-03 0. -1.
    9900012    2    1    2    0    0 -0.69125084330E+01 -0.11774081149E+02  0.12816794870E+02  0.72461494974E+02  0.69999901881E+02 0.  0.
         12    1    1    2    0    0  0.69125084330E+01  0.11774081149E+02 -0.12816794870E+02  0.18726505026E+02  0.00000000000E+00 0. -1.
         11    1    3    3    0    0  0.36587986002E+01 -0.87746741071E+01  0.13584231721E+02  0.16580502544E+02  0.51100000000E-03 0. -1.
        -11    1    3    3    0    0 -0.22059066957E+01 -0.18026408074E+02  0.21243118991E+02  0.27947942985E+02  0.51100000000E-03 0.  1.
         12    1    3    3    0    0 -0.83654003375E+01  0.15027001031E+02 -0.22010555842E+02  0.27933049445E+02  0.00000000000E+00 0. -1.
</event>
<event>
 7    1  0.3020651E-013  0.7246165E+02  0.7816164E-02  0.1226708E+00
        -11   -1    0    0    0    0  0.00000000000E+00  0.00000000000E+00  0.45593999997E+02  0.45594000000E+02  0.51100000000E-03 0. -1.
         11   -1    0    0    0    0 -0.00000000000E+00 -0.00000000000E+00 -0.45593999997E+02  0.45594000000E+02  0.51100000000E-03 0.  1.
    9900012    2    1    2    0    0  0.15137852625E+02 -0.33997356943E+01  0.10486342155E+02  0.72461650738E+02  0.70000104793E+02 0.  0.
         12    1    1    2    0    0 -0.15137852625E+02  0.33997356943E+01 -0.10486342155E+02  0.18726349262E+02  0.00000000000E+00 0. -1.
         11    1    3    3    0    0  0.10277178017E+02  0.21055774344E+01  0.22669289182E+02  0.24979001513E+02  0.51100000000E-03 0. -1.
        -11    1    3    3    0    0  0.89531710204E+01  0.19475633933E+01  0.15784606852E+02  0.18251194159E+02  0.51100000000E-03 0.  1.
        -12    1    3    3    0    0 -0.40924964134E+01 -0.74528765220E+01 -0.27967553878E+02  0.29231455066E+02  0.00000000000E+00 0.  1.
</event>
<event>
 7    1  0.3020651E-013  0.7246154E+02  0.7816164E-02  0.1226708E+00
        -11   -1    0    0    0    0  0.00000000000E+00  0.00000000000E+00  0.45593999997E+02  0.45594000000E+02  0.51100000000E-03 0. -1.
         11   -1    0    0    0    0 -0.00000000000E+00 -0.00000000000E+00 -0.45593999997E+02  0.45594000000E+02  0.51100000000E-03 0.  1.
    9900012    2    1    2    0    0 -0.18142201063E+02 -0.20821491996E+01 -0.41479726418E+01  0.72461535258E+02  0.69999954359E+02 0.  0.
         12    1    1    2    0    0  0.18142201063E+02  0.20821491996E+01  0.41479726418E+01  0.18726464742E+02  0.00000000000E+00 0. -1.
         11    1    3    3    0    0 -0.10569303709E+01 -0.10694436884E+00 -0.14077110626E+02  0.14117137909E+02  0.51100000000E-03 0. -1.
        -11    1    3    3    0    0  0.68415662867E+01  0.70681183449E+01 -0.17974930468E+02  0.20490569826E+02  0.51100000000E-03 0.  1.
         12    1    3    3    0    0 -0.23926836979E+02 -0.90433231756E+01  0.27904068453E+02  0.37853827522E+02  0.00000000000E+00 0. -1.
</event>
<event>
 7    1  0.3020651E-013  0.7246157E+02  0.7816164E-02  0.1226708E+00
        -11   -1    0    0    0    0  0.00000000000E+00  0.00000000000E+00  0.45593999997E+02  0.45594000000E+02  0.51100000000E-03 0.  1.
         11   -1    0    0    0    0 -0.00000000000E+00 -0.00000000000E+00 -0.45593999997E+02  0.45594000000E+02  0.51100000000E-03 0. -1.
    9900012    2    1    2    0    0 -0.18068840888E+02 -0.32090156081E+01 -0.37280331951E+01  0.72461574187E+02  0.70000005071E+02 0.  0.
         12    1    1    2    0    0  0.18068840888E+02  0.32090156081E+01  0.37280331951E+01  0.18726425813E+02  0.00000000000E+00 0. -1.
         11    1    3    3    0    0  0.54503057980E+01 -0.47505058471E+00  0.56081929406E+01  0.78347517299E+01  0.51100000000E-03 0. -1.
        -11    1    3    3    0    0  0.89529156067E+01  0.21041595400E+02  0.15962635463E+01  0.22922728729E+02  0.51100000000E-03 0.  1.
        -12    1    3    3    0    0 -0.32472062293E+02 -0.23775560423E+02 -0.10932489682E+02  0.41704093728E+02  0.00000000000E+00 0.  1.
</event>
<event>
 7    1  0.3020651E-013  0.7246156E+02  0.7816164E-02  0.1226708E+00
        -11   -1    0    0    0    0  0.00000000000E+00  0.00000000000E+00  0.45593999997E+02  0.45594000000E+02  0.51100000000E-03 0.  1.
         11   -1    0    0    0    0 -0.00000000000E+00 -0.00000000000E+00 -0.45593999997E+02  0.45594000000E+02  0.51100000000E-03 0. -1.
    9900012    2    1    2    0    0 -0.63015516300E+01  0.38958541393E+01  0.17198613104E+02  0.72461560800E+02  0.69999987632E+02 0.  0.
         12    1    1    2    0    0  0.63015516300E+01 -0.38958541393E+01 -0.17198613104E+02  0.18726439200E+02  0.00000000000E+00 0. -1.
         11    1    3    3    0    0  0.16037964106E+02 -0.53012548517E+01 -0.11373544780E+02  0.20363622389E+02  0.51100000000E-03 0. -1.
        -11    1    3    3    0    0  0.24827731418E+01 -0.14833418812E+01 -0.69138648591E+01  0.74943974515E+01  0.51100000000E-03 0.  1.
        -12    1    3    3    0    0 -0.24822288878E+02  0.10680450872E+02  0.35486022743E+02  0.44603540959E+02  0.00000000000E+00 0.  1.
</event>
<event>
 7    1  0.3020651E-013  0.7246153E+02  0.7816164E-02  0.1226708E+00
        -11   -1    0    0    0    0  0.00000000000E+00  0.00000000000E+00  0.45593999997E+02  0.45594000000E+02  0.51100000000E-03 0. -1.
         11   -1    0    0    0    0 -0.00000000000E+00 -0.00000000000E+00 -0.45593999997E+02  0.45594000000E+02  0.51100000000E-03 0.  1.
    9900012    2    1    2    0    0  0.38486973996E+01 -0.44204298292E+01 -0.17785611373E+02  0.72461530940E+02  0.69999948734E+02 0.  0.
         12    1    1    2    0    0 -0.38486973996E+01  0.44204298292E+01  0.17785611373E+02  0.18726469060E+02  0.00000000000E+00 0. -1.
         11    1    3    3    0    0 -0.18075475997E+01 -0.10747385272E+02 -0.56473144085E+01  0.12274594853E+02  0.51100000000E-03 0. -1.
        -11    1    3    3    0    0 -0.16076875535E+01 -0.24714750265E+02 -0.13633775591E+02  0.28271600186E+02  0.51100000000E-03 0.  1.
         12    1    3    3    0    0  0.72639325529E+01  0.31041705708E+02  0.14954786268E+01  0.31915335902E+02  0.00000000000E+00 0. -1.
</event>
<event>
 7    1  0.3020651E-013  0.7246156E+02  0.7816164E-02  0.1226708E+00
        -11   -1    0    0    0    0  0.00000000000E+00  0.00000000000E+00  0.45593999997E+02  0.45594000000E+02  0.51100000000E-03 0.  1.
         11   -1    0    0    0    0 -0.00000000000E+00 -0.00000000000E+00 -0.45593999997E+02  0.45594000000E+02  0.51100000000E-03 0. -1.
    9900012    2    1    2    0    0 -0.10080426047E+02 -0.12536751802E+02  0.95861584847E+01  0.72461559614E+02  0.69999986087E+02 0.  0.
         12    1    1    2    0    0  0.10080426047E+02  0.12536751802E+02 -0.95861584847E+01  0.18726440386E+02  0.00000000000E+00 0. -1.
         11    1    3    3    0    0 -0.10023339322E+02 -0.29921240837E+02  0.53127093663E+00  0.31559946664E+02  0.51100000000E-03 0. -1.
        -11    1    3    3    0    0 -0.24411659371E+01  0.12885819388E+01  0.20705788433E+02  0.20888978181E+02  0.51100000000E-03 0.  1.
         12    1    3    3    0    0  0.23840792123E+01  0.16095907096E+02 -0.11650900885E+02  0.20012634768E+02  0.00000000000E+00 0. -1.
</event>
<event>
 7    1  0.3020651E-013  0.7246158E+02  0.7816164E-02  0.1226708E+00
        -11   -1    0    0    0    0  0.00000000000E+00  0.00000000000E+00  0.45593999997E+02  0.45594000000E+02  0.51100000000E-03 0.  1.
         11   -1    0    0    0    0 -0.00000000000E+00 -0.00000000000E+00 -0.45593999997E+02  0.45594000000E+02  0.51100000000E-03 0. -1.
    9900012    2    1    2    0    0 -0.13712534388E+02  0.12741146665E+02  0.55530433245E+00  0.72461580679E+02  0.70000013528E+02 0.  0.
         12    1    1    2    0    0  0.13712534388E+02 -0.12741146665E+02 -0.55530433245E+00  0.18726419321E+02  0.00000000000E+00 0. -1.
         11    1    3    3    0    0 -0.11816775570E+02  0.75780805179E+01  0.21206059811E+02  0.25431485647E+02  0.51100000000E-03 0. -1.
        -11    1    3    3    0    0 -0.21102319918E+01  0.13322141411E+01  0.12961500212E+02  0.13199559144E+02  0.51100000000E-03 0.  1.
        -12    1    3    3    0    0  0.21447317376E+00  0.38308520059E+01 -0.33612255691E+02  0.33830535888E+02  0.00000000000E+00 0.  1.
</event>
<event>
 7    1  0.3020651E-013  0.7246159E+02  0.7816164E-02  0.1226708E+00
        -11   -1    0    0    0    0  0.00000000000E+00  0.00000000000E+00  0.45593999997E+02  0.45594000000E+02  0.51100000000E-03 0.  1.
         11   -1    0    0    0    0 -0.00000000000E+00 -0.00000000000E+00 -0.45593999997E+02  0.45594000000E+02  0.51100000000E-03 0. -1.
    9900012    2    1    2    0    0 -0.43018947627E+01 -0.17717145397E+02 -0.42748985670E+01  0.72461593583E+02  0.70000030337E+02 0.  0.
         12    1    1    2    0    0  0.43018947627E+01  0.17717145397E+02  0.42748985670E+01  0.18726406417E+02  0.00000000000E+00 0. -1.
         11    1    3    3    0    0  0.15198888453E+01 -0.99433907916E+01 -0.30836695697E+02  0.32435827172E+02  0.51100000000E-03 0. -1.
        -11    1    3    3    0    0  0.10773831479E+02 -0.66366297895E+01  0.74315281495E+01  0.14674737156E+02  0.51100000000E-03 0.  1.
        -12    1    3    3    0    0 -0.16595615087E+02 -0.11371248155E+01  0.19130268981E+02  0.25351029254E+02  0.00000000000E+00 0.  1.
</event>
<event>
 7    1  0.3020651E-013  0.7246179E+02  0.7816164E-02  0.1226707E+00
        -11   -1    0    0    0    0  0.00000000000E+00  0.00000000000E+00  0.45593999997E+02  0.45594000000E+02  0.51100000000E-03 0. -1.
         11   -1    0    0    0    0 -0.00000000000E+00 -0.00000000000E+00 -0.45593999997E+02  0.45594000000E+02  0.51100000000E-03 0.  1.
    9900012    2    1    2    0    0 -0.16519257047E+02 -0.63506669760E+01 -0.61199881139E+01  0.72461786316E+02  0.70000281408E+02 0.  0.
         12    1    1    2    0    0  0.16519257047E+02  0.63506669760E+01  0.61199881139E+01  0.18726213684E+02  0.00000000000E+00 0. -1.
         11    1    3    3    0    0 -0.29744325033E+01 -0.34246939825E+01  0.48759215746E+01  0.66596087762E+01  0.51100000000E-03 0. -1.
        -11    1    3    3    0    0 -0.70965557172E+01  0.27703561100E+02  0.73414894672E+01  0.29525342818E+02  0.51100000000E-03 0.  1.
         12    1    3    3    0    0 -0.64482688264E+01 -0.30629534093E+02 -0.18337399156E+02  0.36276834722E+02  0.00000000000E+00 0. -1.
</event>
<event>
 7    1  0.3020651E-013  0.7246156E+02  0.7816164E-02  0.1226708E+00
        -11   -1    0    0    0    0  0.00000000000E+00  0.00000000000E+00  0.45593999997E+02  0.45594000000E+02  0.51100000000E-03 0.  1.
         11   -1    0    0    0    0 -0.00000000000E+00 -0.00000000000E+00 -0.45593999997E+02  0.45594000000E+02  0.51100000000E-03 0. -1.
    9900012    2    1    2    0    0 -0.12773634306E+02 -0.12360899779E+02  0.58925479169E+01  0.72461556192E+02  0.69999981629E+02 0.  0.
         12    1    1    2    0    0  0.12773634306E+02  0.12360899779E+02 -0.58925479169E+01  0.18726443808E+02  0.00000000000E+00 0. -1.
         11    1    3    3    0    0 -0.43001428672E+01 -0.14778898533E+02  0.19480167379E+02  0.24827081824E+02  0.51100000000E-03 0. -1.
        -11    1    3    3    0    0 -0.85118141690E+01 -0.20701595883E+02 -0.47389420148E+01  0.22879349296E+02  0.51100000000E-03 0.  1.
         12    1    3    3    0    0  0.38322730196E-01  0.23119594636E+02 -0.88486774473E+01  0.24755125072E+02  0.00000000000E+00 0. -1.
</event>
<event>
 7    1  0.3020651E-013  0.7246162E+02  0.7816164E-02  0.1226708E+00
        -11   -1    0    0    0    0  0.00000000000E+00  0.00000000000E+00  0.45593999997E+02  0.45594000000E+02  0.51100000000E-03 0.  1.
         11   -1    0    0    0    0 -0.00000000000E+00 -0.00000000000E+00 -0.45593999997E+02  0.45594000000E+02  0.51100000000E-03 0. -1.
    9900012    2    1    2    0    0 -0.65518730183E+01  0.14954411191E+02  0.91714715641E+01  0.72461619015E+02  0.70000063468E+02 0.  0.
         12    1    1    2    0    0  0.65518730183E+01 -0.14954411191E+02 -0.91714715641E+01  0.18726380985E+02  0.00000000000E+00 0. -1.
         11    1    3    3    0    0 -0.19196643029E+02 -0.27211199314E+01  0.56231293782E+01  0.20187500626E+02  0.51100000000E-03 0. -1.
        -11    1    3    3    0    0 -0.18083788276E+02  0.40085192038E+01  0.12493706575E+01  0.18564820277E+02  0.51100000000E-03 0.  1.
        -12    1    3    3    0    0  0.30728558286E+02  0.13667011919E+02  0.22989715285E+01  0.33709298113E+02  0.00000000000E+00 0.  1.
</event>
<event>
 7    1  0.3020651E-013  0.7246160E+02  0.7816164E-02  0.1226708E+00
        -11   -1    0    0    0    0  0.00000000000E+00  0.00000000000E+00  0.45593999997E+02  0.45594000000E+02  0.51100000000E-03 0.  1.
         11   -1    0    0    0    0 -0.00000000000E+00 -0.00000000000E+00 -0.45593999997E+02  0.45594000000E+02  0.51100000000E-03 0. -1.
    9900012    2    1    2    0    0 -0.58659076415E+00 -0.19483268816E+01  0.18615530543E+02  0.72461600352E+02  0.70000039156E+02 0.  0.
         12    1    1    2    0    0  0.58659076415E+00  0.19483268816E+01 -0.18615530543E+02  0.18726399648E+02  0.00000000000E+00 0. -1.
         11    1    3    3    0    0  0.99335954390E+01  0.14048414014E+02 -0.15841370937E+02  0.23387673850E+02  0.51100000000E-03 0. -1.
        -11    1    3    3    0    0  0.24775234505E+01 -0.37639212073E+01 -0.44097140978E+01  0.63048238665E+01  0.51100000000E-03 0.  1.
        -12    1    3    3    0    0 -0.12997709654E+02 -0.12232819689E+02  0.38866615578E+02  0.42769102636E+02  0.00000000000E+00 0.  1.
</event>
<event>
 7    1  0.3020651E-013  0.7246159E+02  0.7816164E-02  0.1226708E+00
        -11   -1    0    0    0    0  0.00000000000E+00  0.00000000000E+00  0.45593999997E+02  0.45594000000E+02  0.51100000000E-03 0.  1.
         11   -1    0    0    0    0 -0.00000000000E+00 -0.00000000000E+00 -0.45593999997E+02  0.45594000000E+02  0.51100000000E-03 0. -1.
    9900012    2    1    2    0    0 -0.16071841526E+02 -0.63777318404E+01 -0.71901905911E+01  0.72461590996E+02  0.70000026967E+02 0.  0.
         12    1    1    2    0    0  0.16071841526E+02  0.63777318404E+01  0.71901905911E+01  0.18726409004E+02  0.00000000000E+00 0. -1.
         11    1    3    3    0    0  0.87287051439E+01 -0.85343465831E+01  0.93384905221E+01  0.15369865666E+02  0.51100000000E-03 0.  1.
        -11    1    3    3    0    0 -0.15238709349E+02 -0.22858969864E+02 -0.11786547428E+02  0.29894371818E+02  0.51100000000E-03 0. -1.
         12    1    3    3    0    0 -0.95618373210E+01  0.25015584607E+02 -0.47421336848E+01  0.27197353512E+02  0.00000000000E+00 0. -1.
</event>
<event>
 7    1  0.3020651E-013  0.7246158E+02  0.7816164E-02  0.1226708E+00
        -11   -1    0    0    0    0  0.00000000000E+00  0.00000000000E+00  0.45593999997E+02  0.45594000000E+02  0.51100000000E-03 0.  1.
         11   -1    0    0    0    0 -0.00000000000E+00 -0.00000000000E+00 -0.45593999997E+02  0.45594000000E+02  0.51100000000E-03 0. -1.
    9900012    2    1    2    0    0 -0.12463478104E+02 -0.12509126393E+02  0.62339559064E+01  0.72461581875E+02  0.70000015086E+02 0.  0.
         12    1    1    2    0    0  0.12463478104E+02  0.12509126393E+02 -0.62339559064E+01  0.18726418125E+02  0.00000000000E+00 0. -1.
         11    1    3    3    0    0  0.48668257442E+01  0.14427796983E+01 -0.22380355923E+02  0.22948811246E+02  0.51100000000E-03 0. -1.
        -11    1    3    3    0    0 -0.19701029533E+02 -0.15801539393E+02  0.50470428018E+01  0.25754453074E+02  0.51100000000E-03 0.  1.
        -12    1    3    3    0    0  0.23707256850E+01  0.18496333023E+01  0.23567269028E+02  0.23758317555E+02  0.00000000000E+00 0.  1.
</event>
<event>
 7    1  0.3020651E-013  0.7246150E+02  0.7816164E-02  0.1226708E+00
        -11   -1    0    0    0    0  0.00000000000E+00  0.00000000000E+00  0.45593999997E+02  0.45594000000E+02  0.51100000000E-03 0.  1.
         11   -1    0    0    0    0 -0.00000000000E+00 -0.00000000000E+00 -0.45593999997E+02  0.45594000000E+02  0.51100000000E-03 0. -1.
    9900012    2    1    2    0    0  0.62293878369E+01 -0.17446935850E+02 -0.27351653397E+01  0.72461495446E+02  0.69999902496E+02 0.  0.
         12    1    1    2    0    0 -0.62293878369E+01  0.17446935850E+02  0.27351653397E+01  0.18726504554E+02  0.00000000000E+00 0. -1.
         11    1    3    3    0    0 -0.90945850552E+00 -0.79295046185E+01  0.25984701318E+01  0.83938194855E+01  0.51100000000E-03 0. -1.
        -11    1    3    3    0    0  0.59829245363E+01 -0.27194806693E+02  0.19188218810E+02  0.33816277714E+02  0.51100000000E-03 0.  1.
         12    1    3    3    0    0  0.11559218061E+01  0.17677375462E+02 -0.24521854282E+02  0.30251398246E+02  0.00000000000E+00 0. -1.
</event>
<event>
 7    1  0.3020651E-013  0.7246162E+02  0.7816164E-02  0.1226708E+00
        -11   -1    0    0    0    0  0.00000000000E+00  0.00000000000E+00  0.45593999997E+02  0.45594000000E+02  0.51100000000E-03 0. -1.
         11   -1    0    0    0    0 -0.00000000000E+00 -0.00000000000E+00 -0.45593999997E+02  0.45594000000E+02  0.51100000000E-03 0.  1.
    9900012    2    1    2    0    0 -0.13563144636E+02  0.38650944163E+01 -0.12319880174E+02  0.72461620351E+02  0.70000065208E+02 0.  0.
         12    1    1    2    0    0  0.13563144636E+02 -0.38650944163E+01  0.12319880174E+02  0.18726379649E+02  0.00000000000E+00 0. -1.
         11    1    3    3    0    0 -0.36309497200E+00  0.62752221230E+01 -0.12983288513E+01  0.64184039074E+01  0.51100000000E-03 0. -1.
        -11    1    3    3    0    0 -0.22953918056E+02  0.26105676798E+02 -0.32118791171E+01  0.34909953923E+02  0.51100000000E-03 0.  1.
         12    1    3    3    0    0  0.97538683923E+01 -0.28515804505E+02 -0.78096722060E+01  0.31133262520E+02  0.00000000000E+00 0. -1.
</event>
<event>
 7    1  0.3020651E-013  0.7246162E+02  0.7816164E-02  0.1226708E+00
        -11   -1    0    0    0    0  0.00000000000E+00  0.00000000000E+00  0.45593999997E+02  0.45594000000E+02  0.51100000000E-03 0.  1.
         11   -1    0    0    0    0 -0.00000000000E+00 -0.00000000000E+00 -0.45593999997E+02  0.45594000000E+02  0.51100000000E-03 0. -1.
    9900012    2    1    2    0    0  0.82356209619E+01 -0.11877960629E+02  0.11906547119E+02  0.72461621129E+02  0.70000066221E+02 0.  0.
         12    1    1    2    0    0 -0.82356209619E+01  0.11877960629E+02 -0.11906547119E+02  0.18726378871E+02  0.00000000000E+00 0. -1.
         11    1    3    3    0    0  0.13932163298E+02  0.52971210295E+01 -0.83951276747E+01  0.17106806666E+02  0.51100000000E-03 0. -1.
        -11    1    3    3    0    0  0.14695445572E+02  0.17155292757E+01 -0.70219415756E+01  0.16377021250E+02  0.51100000000E-03 0.  1.
        -12    1    3    3    0    0 -0.20391987908E+02 -0.18890610934E+02  0.27323616369E+02  0.38977793213E+02  0.00000000000E+00 0.  1.
</event>
<event>
 7    1  0.3020651E-013  0.7246183E+02  0.7816164E-02  0.1226707E+00
        -11   -1    0    0    0    0  0.00000000000E+00  0.00000000000E+00  0.45593999997E+02  0.45594000000E+02  0.51100000000E-03 0. -1.
         11   -1    0    0    0    0 -0.00000000000E+00 -0.00000000000E+00 -0.45593999997E+02  0.45594000000E+02  0.51100000000E-03 0.  1.
    9900012    2    1    2    0    0 -0.96591376708E+01  0.13187149798E+02 -0.91361736210E+01  0.72461827706E+02  0.70000335326E+02 0.  0.
         12    1    1    2    0    0  0.96591376708E+01 -0.13187149798E+02  0.91361736210E+01  0.18726172294E+02  0.00000000000E+00 0. -1.
         11    1    3    3    0    0 -0.12722219383E+02  0.15138629849E+02 -0.49901679029E+01  0.20394478559E+02  0.51100000000E-03 0. -1.
        -11    1    3    3    0    0 -0.66495880977E+01  0.23183239674E+02 -0.66140374220E+01  0.25008500854E+02  0.51100000000E-03 0.  1.
         12    1    3    3    0    0  0.97126698102E+01 -0.25134719725E+02  0.24680317040E+01  0.27058848293E+02  0.00000000000E+00 0. -1.
</event>
<event>
 7    1  0.3020651E-013  0.7246150E+02  0.7816164E-02  0.1226708E+00
        -11   -1    0    0    0    0  0.00000000000E+00  0.00000000000E+00  0.45593999997E+02  0.45594000000E+02  0.51100000000E-03 0.  1.
         11   -1    0    0    0    0 -0.00000000000E+00 -0.00000000000E+00 -0.45593999997E+02  0.45594000000E+02  0.51100000000E-03 0. -1.
    9900012    2    1    2    0    0 -0.10062315050E+02 -0.14766802997E+02 -0.56011896287E+01  0.72461495250E+02  0.69999902240E+02 0.  0.
         12    1    1    2    0    0  0.10062315050E+02  0.14766802997E+02  0.56011896287E+01  0.18726504750E+02  0.00000000000E+00 0. -1.
         11    1    3    3    0    0 -0.23007649504E+02 -0.32103983694E+02  0.61940750279E+01  0.39979798279E+02  0.51100000000E-03 0.  1.
        -11    1    3    3    0    0 -0.12398386585E+00 -0.14145750943E+01  0.42987559542E+01  0.45272174359E+01  0.51100000000E-03 0. -1.
        -12    1    3    3    0    0  0.13069318321E+02  0.18751755791E+02 -0.16094020611E+02  0.27954479534E+02  0.00000000000E+00 0.  1.
</event>
<event>
 7    1  0.3020651E-013  0.7246157E+02  0.7816164E-02  0.1226708E+00
        -11   -1    0    0    0    0  0.00000000000E+00  0.00000000000E+00  0.45593999997E+02  0.45594000000E+02  0.51100000000E-03 0. -1.
         11   -1    0    0    0    0 -0.00000000000E+00 -0.00000000000E+00 -0.45593999997E+02  0.45594000000E+02  0.51100000000E-03 0.  1.
    9900012    2    1    2    0    0  0.41704928162E+01  0.17852655117E+02  0.38169292209E+01  0.72461568046E+02  0.69999997071E+02 0.  0.
         12    1    1    2    0    0 -0.41704928162E+01 -0.17852655117E+02 -0.38169292209E+01  0.18726431954E+02  0.00000000000E+00 0. -1.
         11    1    3    3    0    0 -0.15235411952E+02  0.16490279958E+01  0.21874066819E+02  0.26707899021E+02  0.51100000000E-03 0. -1.
        -11    1    3    3    0    0  0.34124062511E+01  0.11117816090E+02  0.84534297512E+01  0.14377441561E+02  0.51100000000E-03 0.  1.
         12    1    3    3    0    0  0.15993498517E+02  0.50858110312E+01 -0.26510567349E+02  0.31376227463E+02  0.00000000000E+00 0. -1.
</event>
<event>
 7    1  0.3020651E-013  0.7246159E+02  0.7816164E-02  0.1226708E+00
        -11   -1    0    0    0    0  0.00000000000E+00  0.00000000000E+00  0.45593999997E+02  0.45594000000E+02  0.51100000000E-03 0.  1.
         11   -1    0    0    0    0 -0.00000000000E+00 -0.00000000000E+00 -0.45593999997E+02  0.45594000000E+02  0.51100000000E-03 0. -1.
    9900012    2    1    2    0    0 -0.29628111940E+01  0.18289309041E+02 -0.27205655972E+01  0.72461586768E+02  0.70000021460E+02 0.  0.
         12    1    1    2    0    0  0.29628111940E+01 -0.18289309041E+02  0.27205655972E+01  0.18726413232E+02  0.00000000000E+00 0. -1.
         11    1    3    3    0    0 -0.16492656741E+02  0.70826299436E+01 -0.26595543855E+02  0.32085734003E+02  0.51100000000E-03 0. -1.
        -11    1    3    3    0    0 -0.14168917388E-01  0.24462103128E+01 -0.59694778299E+01  0.64512643315E+01  0.51100000000E-03 0.  1.
        -12    1    3    3    0    0  0.13544014465E+02  0.87604687846E+01  0.29844456088E+02  0.33924588433E+02  0.00000000000E+00 0.  1.
</event>
<event>
 7    1  0.3020651E-013  0.7246157E+02  0.7816164E-02  0.1226708E+00
        -11   -1    0    0    0    0  0.00000000000E+00  0.00000000000E+00  0.45593999997E+02  0.45594000000E+02  0.51100000000E-03 0.  1.
         11   -1    0    0    0    0 -0.00000000000E+00 -0.00000000000E+00 -0.45593999997E+02  0.45594000000E+02  0.51100000000E-03 0. -1.
    9900012    2    1    2    0    0  0.37318148777E+01 -0.14245643727E+02  0.11567813953E+02  0.72461571426E+02  0.70000001474E+02 0.  0.
         12    1    1    2    0    0 -0.37318148777E+01  0.14245643727E+02 -0.11567813953E+02  0.18726428574E+02  0.00000000000E+00 0. -1.
         11    1    3    3    0    0  0.78194536573E+01 -0.90673667774E+01  0.10346635868E+02  0.15824470602E+02  0.51100000000E-03 0. -1.
        -11    1    3    3    0    0 -0.23592336467E+02  0.62532416329E+01  0.16401169477E+02  0.29405777176E+02  0.51100000000E-03 0.  1.
         12    1    3    3    0    0  0.19504697687E+02 -0.11431518583E+02 -0.15179991392E+02  0.27231323648E+02  0.00000000000E+00 0. -1.
</event>
<event>
 7    1  0.3020651E-013  0.7246160E+02  0.7816164E-02  0.1226708E+00
        -11   -1    0    0    0    0  0.00000000000E+00  0.00000000000E+00  0.45593999997E+02  0.45594000000E+02  0.51100000000E-03 0. -1.
         11   -1    0    0    0    0 -0.00000000000E+00 -0.00000000000E+00 -0.45593999997E+02  0.45594000000E+02  0.51100000000E-03 0.  1.
    9900012    2    1    2    0    0  0.59200748132E+01  0.15485043706E+02  0.87088467384E+01  0.72461604834E+02  0.70000044995E+02 0.  0.
         12    1    1    2    0    0 -0.59200748132E+01 -0.15485043706E+02 -0.87088467384E+01  0.18726395166E+02  0.00000000000E+00 0. -1.
         11    1    3    3    0    0 -0.67329440778E+01 -0.12870299390E+02 -0.83735221367E+01  0.16765828807E+02  0.51100000000E-03 0. -1.
        -11    1    3    3    0    0  0.14573773321E+02 -0.74280044767E+01  0.99866304973E+01  0.19165148271E+02  0.51100000000E-03 0.  1.
        -12    1    3    3    0    0 -0.19207544298E+01  0.35783347573E+02  0.70957383779E+01  0.36530627756E+02  0.00000000000E+00 0.  1.
</event>
<event>
 7    1  0.3020651E-013  0.7246157E+02  0.7816164E-02  0.1226708E+00
        -11   -1    0    0    0    0  0.00000000000E+00  0.00000000000E+00  0.45593999997E+02  0.45594000000E+02  0.51100000000E-03 0. -1.
         11   -1    0    0    0    0 -0.00000000000E+00 -0.00000000000E+00 -0.45593999997E+02  0.45594000000E+02  0.51100000000E-03 0.  1.
    9900012    2    1    2    0    0  0.67920508273E+01 -0.87427811647E+01 -0.15103347834E+02  0.72461567004E+02  0.69999995714E+02 0.  0.
         12    1    1    2    0    0 -0.67920508273E+01  0.87427811647E+01  0.15103347834E+02  0.18726432996E+02  0.00000000000E+00 0. -1.
         11    1    3    3    0    0  0.25644525164E+01 -0.19464676632E+01  0.20415636889E+02  0.20667931268E+02  0.51100000000E-03 0. -1.
        -11    1    3    3    0    0  0.32593624523E+01 -0.16173819533E+02 -0.15855360013E+01  0.16574975311E+02  0.51100000000E-03 0.  1.
         12    1    3    3    0    0  0.96823585866E+00  0.93775060315E+01 -0.33933448721E+02  0.35218660426E+02  0.00000000000E+00 0. -1.
</event>
<event>
 7    1  0.3020651E-013  0.7246156E+02  0.7816164E-02  0.1226708E+00
        -11   -1    0    0    0    0  0.00000000000E+00  0.00000000000E+00  0.45593999997E+02  0.45594000000E+02  0.51100000000E-03 0.  1.
         11   -1    0    0    0    0 -0.00000000000E+00 -0.00000000000E+00 -0.45593999997E+02  0.45594000000E+02  0.51100000000E-03 0. -1.
    9900012    2    1    2    0    0 -0.95923385169E+01 -0.10980934586E+02  0.11750990117E+02  0.72461557430E+02  0.69999983242E+02 0.  0.
         12    1    1    2    0    0  0.95923385169E+01  0.10980934586E+02 -0.11750990117E+02  0.18726442570E+02  0.00000000000E+00 0. -1.
         11    1    3    3    0    0 -0.22092270198E+02  0.74933248648E+01  0.15151548441E+02  0.27817040468E+02  0.51100000000E-03 0. -1.
        -11    1    3    3    0    0 -0.86614995361E+01  0.32459458937E+00  0.10078919985E+02  0.13293290194E+02  0.51100000000E-03 0.  1.
         12    1    3    3    0    0  0.21161431217E+02 -0.18798854040E+02 -0.13479478308E+02  0.31351226768E+02  0.00000000000E+00 0. -1.
</event>
<event>
 7    1  0.3020651E-013  0.7246151E+02  0.7816164E-02  0.1226708E+00
        -11   -1    0    0    0    0  0.00000000000E+00  0.00000000000E+00  0.45593999997E+02  0.45594000000E+02  0.51100000000E-03 0.  1.
         11   -1    0    0    0    0 -0.00000000000E+00 -0.00000000000E+00 -0.45593999997E+02  0.45594000000E+02  0.51100000000E-03 0. -1.
    9900012    2    1    2    0    0 -0.25496185910E+01 -0.15973562236E+02 -0.94353782424E+01  0.72461505185E+02  0.69999915183E+02 0.  0.
         12    1    1    2    0    0  0.25496185910E+01  0.15973562236E+02  0.94353782424E+01  0.18726494815E+02  0.00000000000E+00 0. -1.
         11    1    3    3    0    0 -0.44909792388E+01  0.94622607678E+01 -0.28621298652E+02  0.30477565686E+02  0.51100000000E-03 0.  1.
        -11    1    3    3    0    0 -0.50413554161E+01 -0.65566015976E+01 -0.56490906402E+01  0.10015813210E+02  0.51100000000E-03 0. -1.
        -12    1    3    3    0    0  0.69827160640E+01 -0.18879221407E+02  0.24835011050E+02  0.31968126289E+02  0.00000000000E+00 0.  1.
</event>
<event>
 7    1  0.3020651E-013  0.7246154E+02  0.7816164E-02  0.1226708E+00
        -11   -1    0    0    0    0  0.00000000000E+00  0.00000000000E+00  0.45593999997E+02  0.45594000000E+02  0.51100000000E-03 0.  1.
         11   -1    0    0    0    0 -0.00000000000E+00 -0.00000000000E+00 -0.45593999997E+02  0.45594000000E+02  0.51100000000E-03 0. -1.
    9900012    2    1    2    0    0 -0.17332421860E+02 -0.69643641296E+01  0.13286246855E+01  0.72461535870E+02  0.69999955156E+02 0.  0.
         12    1    1    2    0    0  0.17332421860E+02  0.69643641296E+01 -0.13286246855E+01  0.18726464130E+02  0.00000000000E+00 0. -1.
         11    1    3    3    0    0  0.19644847923E+02 -0.56408522045E+01 -0.13117978453E+02  0.24286222894E+02  0.51100000000E-03 0. -1.
        -11    1    3    3    0    0 -0.39902375814E+01  0.29539350572E+01  0.14059014140E+02  0.14909849333E+02  0.51100000000E-03 0.  1.
        -12    1    3    3    0    0 -0.32987032201E+02 -0.42774469824E+01  0.38758899785E+00  0.33265463643E+02  0.00000000000E+00 0.  1.
</event>
<event>
 7    1  0.3020651E-013  0.7246160E+02  0.7816164E-02  0.1226708E+00
        -11   -1    0    0    0    0  0.00000000000E+00  0.00000000000E+00  0.45593999997E+02  0.45594000000E+02  0.51100000000E-03 0.  1.
         11   -1    0    0    0    0 -0.00000000000E+00 -0.00000000000E+00 -0.45593999997E+02  0.45594000000E+02  0.51100000000E-03 0. -1.
    9900012    2    1    2    0    0 -0.13980537680E+02 -0.42378718639E+01  0.11715929246E+02  0.72461601792E+02  0.70000041031E+02 0.  0.
         12    1    1    2    0    0  0.13980537680E+02  0.42378718639E+01 -0.11715929246E+02  0.18726398208E+02  0.00000000000E+00 0. -1.
         11    1    3    3    0    0 -0.28314087901E+01  0.25828202110E+02 -0.54919591090E+01  0.26557005010E+02  0.51100000000E-03 0. -1.
        -11    1    3    3    0    0 -0.49567468356E+01 -0.21703602956E+01 -0.67247430603E+01  0.86314525135E+01  0.51100000000E-03 0.  1.
        -12    1    3    3    0    0 -0.61923820541E+01 -0.27895713679E+02  0.23932631416E+02  0.37273144268E+02  0.00000000000E+00 0.  1.
</event>
<event>
 7    1  0.3020651E-013  0.7246157E+02  0.7816164E-02  0.1226708E+00
        -11   -1    0    0    0    0  0.00000000000E+00  0.00000000000E+00  0.45593999997E+02  0.45594000000E+02  0.51100000000E-03 0. -1.
         11   -1    0    0    0    0 -0.00000000000E+00 -0.00000000000E+00 -0.45593999997E+02  0.45594000000E+02  0.51100000000E-03 0.  1.
    9900012    2    1    2    0    0 -0.12917347129E+02  0.10750423933E+02  0.82613488258E+01  0.72461565315E+02  0.69999993513E+02 0.  0.
         12    1    1    2    0    0  0.12917347129E+02 -0.10750423933E+02 -0.82613488258E+01  0.18726434685E+02  0.00000000000E+00 0. -1.
         11    1    3    3    0    0 -0.14699221496E+02  0.14260696718E+02  0.42365903426E-01  0.20480145961E+02  0.51100000000E-03 0. -1.
        -11    1    3    3    0    0  0.89545446894E+01  0.11873044856E+02  0.24371735879E+02  0.28550561724E+02  0.51100000000E-03 0.  1.
         12    1    3    3    0    0 -0.71726703226E+01 -0.15383317640E+02 -0.16152752957E+02  0.23430857629E+02  0.00000000000E+00 0. -1.
</event>
<event>
 7    1  0.3020651E-013  0.7246161E+02  0.7816164E-02  0.1226708E+00
        -11   -1    0    0    0    0  0.00000000000E+00  0.00000000000E+00  0.45593999997E+02  0.45594000000E+02  0.51100000000E-03 0. -1.
         11   -1    0    0    0    0 -0.00000000000E+00 -0.00000000000E+00 -0.45593999997E+02  0.45594000000E+02  0.51100000000E-03 0.  1.
    9900012    2    1    2    0    0  0.15643456013E+02  0.39564932467E+01 -0.95029611117E+01  0.72461606201E+02  0.70000046775E+02 0.  0.
         12    1    1    2    0    0 -0.15643456013E+02 -0.39564932467E+01  0.95029611117E+01  0.18726393799E+02  0.00000000000E+00 0. -1.
         11    1    3    3    0    0  0.87264624322E+00 -0.32130749568E+01  0.16908107081E+02  0.17232801498E+02  0.51100000000E-03 0. -1.
        -11    1    3    3    0    0 -0.12808838306E+02  0.74619971853E+00 -0.23483617635E+02  0.26760109309E+02  0.51100000000E-03 0.  1.
         12    1    3    3    0    0  0.27579648075E+02  0.64233684850E+01 -0.29274505573E+01  0.28468695394E+02  0.00000000000E+00 0. -1.
</event>
<event>
 7    1  0.3020651E-013  0.7246157E+02  0.7816164E-02  0.1226708E+00
        -11   -1    0    0    0    0  0.00000000000E+00  0.00000000000E+00  0.45593999997E+02  0.45594000000E+02  0.51100000000E-03 0. -1.
         11   -1    0    0    0    0 -0.00000000000E+00 -0.00000000000E+00 -0.45593999997E+02  0.45594000000E+02  0.51100000000E-03 0.  1.
    9900012    2    1    2    0    0  0.10897454433E+02  0.89428798485E+01 -0.12326783956E+02  0.72461569058E+02  0.69999998390E+02 0.  0.
         12    1    1    2    0    0 -0.10897454433E+02 -0.89428798485E+01  0.12326783956E+02  0.18726430942E+02  0.00000000000E+00 0. -1.
         11    1    3    3    0    0  0.98508336190E+01 -0.48766936183E+00 -0.16177160334E+02  0.18946695256E+02  0.51100000000E-03 0. -1.
        -11    1    3    3    0    0  0.53293688827E+01 -0.20804623967E+02 -0.43138675110E+01  0.21905341912E+02  0.51100000000E-03 0.  1.
         12    1    3    3    0    0 -0.42827480682E+01  0.30235173177E+02  0.81642438884E+01  0.31609531891E+02  0.00000000000E+00 0. -1.
</event>
<event>
 7    1  0.3020651E-013  0.7246155E+02  0.7816164E-02  0.1226708E+00
        -11   -1    0    0    0    0  0.00000000000E+00  0.00000000000E+00  0.45593999997E+02  0.45594000000E+02  0.51100000000E-03 0.  1.
         11   -1    0    0    0    0 -0.00000000000E+00 -0.00000000000E+00 -0.45593999997E+02  0.45594000000E+02  0.51100000000E-03 0. -1.
    9900012    2    1    2    0    0  0.17804311105E+02 -0.57963728847E+01  0.29720315309E+00  0.72461554469E+02  0.69999979384E+02 0.  0.
         12    1    1    2    0    0 -0.17804311105E+02  0.57963728847E+01 -0.29720315309E+00  0.18726445531E+02  0.00000000000E+00 0. -1.
         11    1    3    3    0    0  0.99265157959E+01 -0.16078748102E+02  0.32848701200E+01  0.19179474142E+02  0.51100000000E-03 0. -1.
        -11    1    3    3    0    0 -0.14422524781E+02 -0.98232125236E+01  0.10500711286E+02  0.20365894606E+02  0.51100000000E-03 0.  1.
        -12    1    3    3    0    0  0.22300320089E+02  0.20105587741E+02 -0.13488378253E+02  0.32916185721E+02  0.00000000000E+00 0.  1.
</event>
<event>
 7    1  0.3020651E-013  0.7246156E+02  0.7816164E-02  0.1226708E+00
        -11   -1    0    0    0    0  0.00000000000E+00  0.00000000000E+00  0.45593999997E+02  0.45594000000E+02  0.51100000000E-03 0.  1.
         11   -1    0    0    0    0 -0.00000000000E+00 -0.00000000000E+00 -0.45593999997E+02  0.45594000000E+02  0.51100000000E-03 0. -1.
    9900012    2    1    2    0    0 -0.72462630686E+01  0.14119222596E+01  0.17209808984E+02  0.72461564723E+02  0.69999992742E+02 0.  0.
         12    1    1    2    0    0  0.72462630686E+01 -0.14119222596E+01 -0.17209808984E+02  0.18726435277E+02  0.00000000000E+00 0. -1.
         11    1    3    3    0    0 -0.85629915644E+01  0.48044572863E+01  0.99995758228E+01  0.14014248151E+02  0.51100000000E-03 0. -1.
        -11    1    3    3    0    0 -0.16409433212E+02  0.63971978167E+01  0.25613363344E+02  0.31084369389E+02  0.51100000000E-03 0.  1.
         12    1    3    3    0    0  0.17726161707E+02 -0.97897328434E+01 -0.18403130183E+02  0.27362947183E+02  0.00000000000E+00 0. -1.
</event>
<event>
 7    1  0.3020651E-013  0.7246165E+02  0.7816164E-02  0.1226708E+00
        -11   -1    0    0    0    0  0.00000000000E+00  0.00000000000E+00  0.45593999997E+02  0.45594000000E+02  0.51100000000E-03 0.  1.
         11   -1    0    0    0    0 -0.00000000000E+00 -0.00000000000E+00 -0.45593999997E+02  0.45594000000E+02  0.51100000000E-03 0. -1.
    9900012    2    1    2    0    0 -0.77666936601E+01 -0.10726315094E+02  0.13240126333E+02  0.72461646612E+02  0.70000099418E+02 0.  0.
         12    1    1    2    0    0  0.77666936601E+01  0.10726315094E+02 -0.13240126333E+02  0.18726353388E+02  0.00000000000E+00 0. -1.
         11    1    3    3    0    0 -0.16601243676E+01 -0.19550738506E+02 -0.58309149464E+01  0.20469170927E+02  0.51100000000E-03 0. -1.
        -11    1    3    3    0    0 -0.57287299910E+01 -0.18703065387E+02  0.21514015498E+01  0.19678707556E+02  0.51100000000E-03 0.  1.
        -12    1    3    3    0    0 -0.37783930151E+00  0.27527488799E+02  0.16919639729E+02  0.32313768129E+02  0.00000000000E+00 0.  1.
</event>
<event>
 7    1  0.3020651E-013  0.7246082E+02  0.7816164E-02  0.1226710E+00
        -11   -1    0    0    0    0  0.00000000000E+00  0.00000000000E+00  0.45593999997E+02  0.45594000000E+02  0.51100000000E-03 0.  1.
         11   -1    0    0    0    0 -0.00000000000E+00 -0.00000000000E+00 -0.45593999997E+02  0.45594000000E+02  0.51100000000E-03 0. -1.
    9900012    2    1    2    0    0  0.14686459705E+02 -0.90644672206E+01  0.72698500288E+01  0.72460816974E+02  0.69999018654E+02 0.  0.
         12    1    1    2    0    0 -0.14686459705E+02  0.90644672206E+01 -0.72698500288E+01  0.18727183026E+02  0.00000000000E+00 0. -1.
         11    1    3    3    0    0 -0.33219087870E+01  0.15348422109E+02 -0.17372223698E+01  0.15799591167E+02  0.51100000000E-03 0. -1.
        -11    1    3    3    0    0  0.31505610821E+02 -0.19868748517E+02 -0.38870386930E+01  0.37449696272E+02  0.51100000000E-03 0.  1.
         12    1    3    3    0    0 -0.13497242329E+02 -0.45441408129E+01  0.12894111092E+02  0.19211529535E+02  0.00000000000E+00 0. -1.
</event>
<event>
 7    1  0.3020651E-013  0.7246151E+02  0.7816164E-02  0.1226708E+00
        -11   -1    0    0    0    0  0.00000000000E+00  0.00000000000E+00  0.45593999997E+02  0.45594000000E+02  0.51100000000E-03 0.  1.
         11   -1    0    0    0    0 -0.00000000000E+00 -0.00000000000E+00 -0.45593999997E+02  0.45594000000E+02  0.51100000000E-03 0. -1.
    9900012    2    1    2    0    0  0.83795155936E+01 -0.44919796776E+01  0.16133425077E+02  0.72461506262E+02  0.69999916586E+02 0.  0.
         12    1    1    2    0    0 -0.83795155936E+01  0.44919796776E+01 -0.16133425077E+02  0.18726493738E+02  0.00000000000E+00 0. -1.
         11    1    3    3    0    0  0.12279445699E+02 -0.65971424410E+01 -0.20925491680E+01  0.14095596382E+02  0.51100000000E-03 0. -1.
        -11    1    3    3    0    0 -0.10301421396E+02 -0.20131042426E+02 -0.74428564090E+01  0.23807021312E+02  0.51100000000E-03 0.  1.
        -12    1    3    3    0    0  0.64014912903E+01  0.22236205190E+02  0.25668830654E+02  0.34558888569E+02  0.00000000000E+00 0.  1.
</event>
<event>
 7    1  0.3020651E-013  0.7246142E+02  0.7816164E-02  0.1226708E+00
        -11   -1    0    0    0    0  0.00000000000E+00  0.00000000000E+00  0.45593999997E+02  0.45594000000E+02  0.51100000000E-03 0.  1.
         11   -1    0    0    0    0 -0.00000000000E+00 -0.00000000000E+00 -0.45593999997E+02  0.45594000000E+02  0.51100000000E-03 0. -1.
    9900012    2    1    2    0    0  0.13708060605E+02 -0.12635877302E+02 -0.17631017617E+01  0.72461418664E+02  0.69999802473E+02 0.  0.
         12    1    1    2    0    0 -0.13708060605E+02  0.12635877302E+02  0.17631017617E+01  0.18726581336E+02  0.00000000000E+00 0. -1.
         11    1    3    3    0    0  0.51912070897E-01  0.89026075837E+01 -0.84745380293E+00  0.89430025641E+01  0.51100000000E-03 0. -1.
        -11    1    3    3    0    0 -0.13172533310E+02 -0.29456394015E+02  0.95514428115E+01  0.33651520653E+02  0.51100000000E-03 0.  1.
         12    1    3    3    0    0  0.26828681843E+02  0.79179091301E+01 -0.10467090770E+02  0.29866895447E+02  0.00000000000E+00 0. -1.
</event>
<event>
 7    1  0.3020651E-013  0.7246157E+02  0.7816164E-02  0.1226708E+00
        -11   -1    0    0    0    0  0.00000000000E+00  0.00000000000E+00  0.45593999997E+02  0.45594000000E+02  0.51100000000E-03 0. -1.
         11   -1    0    0    0    0 -0.00000000000E+00 -0.00000000000E+00 -0.45593999997E+02  0.45594000000E+02  0.51100000000E-03 0.  1.
    9900012    2    1    2    0    0  0.88809104926E+01 -0.28745980532E+01 -0.16234082436E+02  0.72461566339E+02  0.69999994847E+02 0.  0.
         12    1    1    2    0    0 -0.88809104926E+01  0.28745980532E+01  0.16234082436E+02  0.18726433661E+02  0.00000000000E+00 0. -1.
         11    1    3    3    0    0  0.13212690104E+02  0.18593575623E+02  0.81006502354E+00  0.22824382573E+02  0.51100000000E-03 0. -1.
        -11    1    3    3    0    0 -0.17357678636E+02  0.22807548313E+01  0.23501354032E+00  0.17508457438E+02  0.51100000000E-03 0.  1.
        -12    1    3    3    0    0  0.13025899025E+02 -0.23748928507E+02 -0.17279160999E+02  0.32128726328E+02  0.00000000000E+00 0.  1.
</event>
<event>
 7    1  0.3020651E-013  0.7246156E+02  0.7816164E-02  0.1226708E+00
        -11   -1    0    0    0    0  0.00000000000E+00  0.00000000000E+00  0.45593999997E+02  0.45594000000E+02  0.51100000000E-03 0. -1.
         11   -1    0    0    0    0 -0.00000000000E+00 -0.00000000000E+00 -0.45593999997E+02  0.45594000000E+02  0.51100000000E-03 0.  1.
    9900012    2    1    2    0    0  0.19597026307E+00  0.17138229905E+02 -0.75446787329E+01  0.72461561315E+02  0.69999988303E+02 0.  0.
         12    1    1    2    0    0 -0.19597026307E+00 -0.17138229905E+02  0.75446787329E+01  0.18726438685E+02  0.00000000000E+00 0. -1.
         11    1    3    3    0    0 -0.13807083738E+02  0.29279562198E+02  0.16052788725E+02  0.36133368926E+02  0.51100000000E-03 0. -1.
        -11    1    3    3    0    0 -0.21909602600E+01  0.37578941717E+01 -0.13665035625E+01  0.45595402964E+01  0.51100000000E-03 0.  1.
        -12    1    3    3    0    0  0.16194014261E+02 -0.15899226465E+02 -0.22230963896E+02  0.31768652093E+02  0.00000000000E+00 0.  1.
</event>
<event>
 7    1  0.3020651E-013  0.7246133E+02  0.7816164E-02  0.1226709E+00
        -11   -1    0    0    0    0  0.00000000000E+00  0.00000000000E+00  0.45593999997E+02  0.45594000000E+02  0.51100000000E-03 0.  1.
         11   -1    0    0    0    0 -0.00000000000E+00 -0.00000000000E+00 -0.45593999997E+02  0.45594000000E+02  0.51100000000E-03 0. -1.
    9900012    2    1    2    0    0 -0.36520621268E+01 -0.14076828379E+02  0.11798024603E+02  0.72461333465E+02  0.69999691485E+02 0.  0.
         12    1    1    2    0    0  0.36520621268E+01  0.14076828379E+02 -0.11798024603E+02  0.18726666535E+02  0.00000000000E+00 0. -1.
         11    1    3    3    0    0  0.14247626575E+02 -0.84788536183E+01  0.28537382963E+01  0.16823484901E+02  0.51100000000E-03 0. -1.
        -11    1    3    3    0    0  0.18087411876E+02 -0.46934692075E+00 -0.42722353507E+00  0.18098543452E+02  0.51100000000E-03 0.  1.
        -12    1    3    3    0    0 -0.35987100577E+02 -0.51286278402E+01  0.93715098416E+01  0.37539305111E+02  0.00000000000E+00 0.  1.
</event>
<event>
 7    1  0.3020651E-013  0.7246143E+02  0.7816164E-02  0.1226708E+00
        -11   -1    0    0    0    0  0.00000000000E+00  0.00000000000E+00  0.45593999997E+02  0.45594000000E+02  0.51100000000E-03 0.  1.
         11   -1    0    0    0    0 -0.00000000000E+00 -0.00000000000E+00 -0.45593999997E+02  0.45594000000E+02  0.51100000000E-03 0. -1.
    9900012    2    1    2    0    0 -0.16214935790E+02 -0.75390864653E+01  0.55607829283E+01  0.72461434000E+02  0.69999822450E+02 0.  0.
         12    1    1    2    0    0  0.16214935790E+02  0.75390864653E+01 -0.55607829283E+01  0.18726566000E+02  0.00000000000E+00 0. -1.
         11    1    3    3    0    0  0.41593157000E+01 -0.55816467060E+00  0.11680735901E+02  0.12411730191E+02  0.51100000000E-03 0. -1.
        -11    1    3    3    0    0  0.81907195350E+01 -0.56981703149E+01  0.19341025306E+02  0.21763094715E+02  0.51100000000E-03 0.  1.
         12    1    3    3    0    0 -0.28564971025E+02 -0.12827514798E+01 -0.25460978278E+02  0.38286609093E+02  0.00000000000E+00 0. -1.
</event>
<event>
 7    1  0.3020651E-013  0.7246157E+02  0.7816164E-02  0.1226708E+00
        -11   -1    0    0    0    0  0.00000000000E+00  0.00000000000E+00  0.45593999997E+02  0.45594000000E+02  0.51100000000E-03 0.  1.
         11   -1    0    0    0    0 -0.00000000000E+00 -0.00000000000E+00 -0.45593999997E+02  0.45594000000E+02  0.51100000000E-03 0. -1.
    9900012    2    1    2    0    0  0.87918296546E+01  0.15521179142E+02  0.56987680069E+01  0.72461568749E+02  0.69999997986E+02 0.  0.
         12    1    1    2    0    0 -0.87918296546E+01 -0.15521179142E+02 -0.56987680069E+01  0.18726431251E+02  0.00000000000E+00 0. -1.
         11    1    3    3    0    0  0.21040938406E+02 -0.18321156256E+02 -0.46344728555E+01  0.28281870420E+02  0.51100000000E-03 0. -1.
        -11    1    3    3    0    0 -0.94495127757E+01  0.19748566375E+01  0.71868520639E+01  0.12035123318E+02  0.51100000000E-03 0.  1.
        -12    1    3    3    0    0 -0.27995959757E+01  0.31867478760E+02  0.31463887984E+01  0.32144575010E+02  0.00000000000E+00 0.  1.
</event>
<event>
 7    1  0.3020651E-013  0.7246152E+02  0.7816164E-02  0.1226708E+00
        -11   -1    0    0    0    0  0.00000000000E+00  0.00000000000E+00  0.45593999997E+02  0.45594000000E+02  0.51100000000E-03 0. -1.
         11   -1    0    0    0    0 -0.00000000000E+00 -0.00000000000E+00 -0.45593999997E+02  0.45594000000E+02  0.51100000000E-03 0.  1.
    9900012    2    1    2    0    0  0.60059560873E+01  0.11249683127E+02 -0.13713279058E+02  0.72461524050E+02  0.69999939758E+02 0.  0.
         12    1    1    2    0    0 -0.60059560873E+01 -0.11249683127E+02  0.13713279058E+02  0.18726475950E+02  0.00000000000E+00 0. -1.
         11    1    3    3    0    0  0.17394766362E+02  0.17045649170E+02 -0.12336290546E+02  0.27300478331E+02  0.51100000000E-03 0. -1.
        -11    1    3    3    0    0 -0.22357563535E+02  0.52205450576E+01 -0.12409569998E+02  0.26098125713E+02  0.51100000000E-03 0.  1.
         12    1    3    3    0    0  0.10968753260E+02 -0.11016511100E+02  0.11032581486E+02  0.19062920006E+02  0.00000000000E+00 0. -1.
</event>
<event>
 7    1  0.3020651E-013  0.7246158E+02  0.7816164E-02  0.1226708E+00
        -11   -1    0    0    0    0  0.00000000000E+00  0.00000000000E+00  0.45593999997E+02  0.45594000000E+02  0.51100000000E-03 0. -1.
         11   -1    0    0    0    0 -0.00000000000E+00 -0.00000000000E+00 -0.45593999997E+02  0.45594000000E+02  0.51100000000E-03 0.  1.
    9900012    2    1    2    0    0  0.15296308310E+02 -0.53426033723E+01 -0.93892674954E+01  0.72461580086E+02  0.70000012756E+02 0.  0.
         12    1    1    2    0    0 -0.15296308310E+02  0.53426033723E+01  0.93892674954E+01  0.18726419914E+02  0.00000000000E+00 0. -1.
         11    1    3    3    0    0  0.15075356017E+02  0.96185787325E+01 -0.14852497462E+02  0.23246077023E+02  0.51100000000E-03 0. -1.
        -11    1    3    3    0    0  0.12223598398E+02  0.10769014743E+02 -0.75834700423E+01  0.17969336506E+02  0.51100000000E-03 0.  1.
         12    1    3    3    0    0 -0.12002646105E+02 -0.25730196848E+02  0.13046700008E+02  0.31246166556E+02  0.00000000000E+00 0. -1.
</event>
<event>
 7    1  0.3020651E-013  0.7246146E+02  0.7816164E-02  0.1226708E+00
        -11   -1    0    0    0    0  0.00000000000E+00  0.00000000000E+00  0.45593999997E+02  0.45594000000E+02  0.51100000000E-03 0. -1.
         11   -1    0    0    0    0 -0.00000000000E+00 -0.00000000000E+00 -0.45593999997E+02  0.45594000000E+02  0.51100000000E-03 0.  1.
    9900012    2    1    2    0    0 -0.16186217670E+02 -0.89791974345E+01  0.28396326606E+01  0.72461464211E+02  0.69999861806E+02 0.  0.
         12    1    1    2    0    0  0.16186217670E+02  0.89791974345E+01 -0.28396326606E+01  0.18726535789E+02  0.00000000000E+00 0. -1.
         11    1    3    3    0    0  0.12362060036E+01 -0.25588331626E+01 -0.68965885935E+01  0.74591398249E+01  0.51100000000E-03 0.  1.
        -11    1    3    3    0    0 -0.34178252162E+02 -0.71833836363E+01  0.24496432063E+02  0.42659455053E+02  0.51100000000E-03 0. -1.
         12    1    3    3    0    0  0.16755828489E+02  0.76301936432E+00 -0.14760210809E+02  0.22342869333E+02  0.00000000000E+00 0. -1.
</event>
<event>
 7    1  0.3020651E-013  0.7246160E+02  0.7816164E-02  0.1226708E+00
        -11   -1    0    0    0    0  0.00000000000E+00  0.00000000000E+00  0.45593999997E+02  0.45594000000E+02  0.51100000000E-03 0.  1.
         11   -1    0    0    0    0 -0.00000000000E+00 -0.00000000000E+00 -0.45593999997E+02  0.45594000000E+02  0.51100000000E-03 0. -1.
    9900012    2    1    2    0    0 -0.62654704675E+01  0.15577807382E+02  0.82917891098E+01  0.72461602332E+02  0.70000041734E+02 0.  0.
         12    1    1    2    0    0  0.62654704675E+01 -0.15577807382E+02 -0.82917891098E+01  0.18726397668E+02  0.00000000000E+00 0. -1.
         11    1    3    3    0    0 -0.11104177553E+02 -0.15042768691E+01 -0.21944244293E+02  0.24639713186E+02  0.51100000000E-03 0. -1.
        -11    1    3    3    0    0 -0.98040826576E+01 -0.44784415206E+01  0.66068627253E+01  0.12642274738E+02  0.51100000000E-03 0.  1.
        -12    1    3    3    0    0  0.14642789743E+02  0.21560525771E+02  0.23629170678E+02  0.35179614408E+02  0.00000000000E+00 0.  1.
</event>
<event>
 7    1  0.3020651E-013  0.7246156E+02  0.7816164E-02  0.1226708E+00
        -11   -1    0    0    0    0  0.00000000000E+00  0.00000000000E+00  0.45593999997E+02  0.45594000000E+02  0.51100000000E-03 0.  1.
         11   -1    0    0    0    0 -0.00000000000E+00 -0.00000000000E+00 -0.45593999997E+02  0.45594000000E+02  0.51100000000E-03 0. -1.
    9900012    2    1    2    0    0  0.25817162438E+01  0.16511710041E+02 -0.84485295283E+01  0.72461562046E+02  0.69999989255E+02 0.  0.
         12    1    1    2    0    0 -0.25817162438E+01 -0.16511710041E+02  0.84485295283E+01  0.18726437954E+02  0.00000000000E+00 0. -1.
         11    1    3    3    0    0  0.16832355865E+02  0.14828417103E+02 -0.93138875143E+01  0.24289064590E+02  0.51100000000E-03 0. -1.
        -11    1    3    3    0    0  0.13704510577E+01  0.21315131539E+02 -0.59546469480E+01  0.22173650786E+02  0.51100000000E-03 0.  1.
         12    1    3    3    0    0 -0.15621090679E+02 -0.19631838601E+02  0.68200049340E+01  0.25998846670E+02  0.00000000000E+00 0. -1.
</event>
<event>
 7    1  0.3020651E-013  0.7246157E+02  0.7816164E-02  0.1226708E+00
        -11   -1    0    0    0    0  0.00000000000E+00  0.00000000000E+00  0.45593999997E+02  0.45594000000E+02  0.51100000000E-03 0.  1.
         11   -1    0    0    0    0 -0.00000000000E+00 -0.00000000000E+00 -0.45593999997E+02  0.45594000000E+02  0.51100000000E-03 0. -1.
    9900012    2    1    2    0    0  0.12894945893E+02 -0.87657034079E+01  0.10371207340E+02  0.72461571416E+02  0.70000001461E+02 0.  0.
         12    1    1    2    0    0 -0.12894945893E+02  0.87657034079E+01 -0.10371207340E+02  0.18726428584E+02  0.00000000000E+00 0. -1.
         11    1    3    3    0    0  0.18673015229E+02  0.56080470432E+01 -0.83853694079E+01  0.21223715739E+02  0.51100000000E-03 0. -1.
        -11    1    3    3    0    0 -0.11323768955E+00  0.14624791788E+02  0.15821595929E+02  0.21545771177E+02  0.51100000000E-03 0.  1.
        -12    1    3    3    0    0 -0.56648316466E+01 -0.28998542239E+02  0.29349808198E+01  0.29692084500E+02  0.00000000000E+00 0.  1.
</event>
<event>
 7    1  0.3020651E-013  0.7246121E+02  0.7816164E-02  0.1226709E+00
        -11   -1    0    0    0    0  0.00000000000E+00  0.00000000000E+00  0.45593999997E+02  0.45594000000E+02  0.51100000000E-03 0.  1.
         11   -1    0    0    0    0 -0.00000000000E+00 -0.00000000000E+00 -0.45593999997E+02  0.45594000000E+02  0.51100000000E-03 0. -1.
    9900012    2    1    2    0    0  0.71229831892E+01  0.33910159984E+01  0.16984011110E+02  0.72461214040E+02  0.69999535911E+02 0.  0.
         12    1    1    2    0    0 -0.71229831892E+01 -0.33910159984E+01 -0.16984011110E+02  0.18726785960E+02  0.00000000000E+00 0. -1.
         11    1    3    3    0    0  0.30080735883E+02  0.19480052653E+02  0.98151077441E+01  0.37157226255E+02  0.51100000000E-03 0. -1.
        -11    1    3    3    0    0 -0.16692792950E+01 -0.63141503853E+01  0.97516476702E+01  0.11736678448E+02  0.51100000000E-03 0.  1.
        -12    1    3    3    0    0 -0.21288473399E+02 -0.97748862693E+01 -0.25827443046E+01  0.23567309337E+02  0.00000000000E+00 0.  1.
</event>
<event>
 7    1  0.3020651E-013  0.7246160E+02  0.7816164E-02  0.1226708E+00
        -11   -1    0    0    0    0  0.00000000000E+00  0.00000000000E+00  0.45593999997E+02  0.45594000000E+02  0.51100000000E-03 0.  1.
         11   -1    0    0    0    0 -0.00000000000E+00 -0.00000000000E+00 -0.45593999997E+02  0.45594000000E+02  0.51100000000E-03 0. -1.
    9900012    2    1    2    0    0 -0.42680414013E+01  0.47227697587E+01  0.17611286146E+02  0.72461598015E+02  0.70000036111E+02 0.  0.
         12    1    1    2    0    0  0.42680414013E+01 -0.47227697587E+01 -0.17611286146E+02  0.18726401985E+02  0.00000000000E+00 0. -1.
         11    1    3    3    0    0  0.18721119326E+02 -0.20293653276E+02 -0.48004015834E+01  0.28024213240E+02  0.51100000000E-03 0. -1.
        -11    1    3    3    0    0 -0.95833872325E+01  0.53388388093E+01 -0.10373909485E+01  0.11019105722E+02  0.51100000000E-03 0.  1.
        -12    1    3    3    0    0 -0.13405773495E+02  0.19677584225E+02  0.23449078678E+02  0.33418279052E+02  0.00000000000E+00 0.  1.
</event>
<event>
 7    1  0.3020651E-013  0.7246153E+02  0.7816164E-02  0.1226708E+00
        -11   -1    0    0    0    0  0.00000000000E+00  0.00000000000E+00  0.45593999997E+02  0.45594000000E+02  0.51100000000E-03 0.  1.
         11   -1    0    0    0    0 -0.00000000000E+00 -0.00000000000E+00 -0.45593999997E+02  0.45594000000E+02  0.51100000000E-03 0. -1.
    9900012    2    1    2    0    0  0.13235514290E+02 -0.12821616690E+02  0.33328872273E+01  0.72461525950E+02  0.69999942234E+02 0.  0.
         12    1    1    2    0    0 -0.13235514290E+02  0.12821616690E+02 -0.33328872273E+01  0.18726474050E+02  0.00000000000E+00 0. -1.
         11    1    3    3    0    0  0.24289616123E+02 -0.23209661782E+02 -0.54289016858E+00  0.33600127699E+02  0.51100000000E-03 0.  1.
        -11    1    3    3    0    0  0.10833877639E+01  0.19708632345E+01 -0.14845525491E+02  0.15014914529E+02  0.51100000000E-03 0. -1.
         12    1    3    3    0    0 -0.12137489597E+02  0.84171818574E+01  0.18721302887E+02  0.23846483722E+02  0.00000000000E+00 0. -1.
</event>
<event>
 7    1  0.3020651E-013  0.7246170E+02  0.7816164E-02  0.1226708E+00
        -11   -1    0    0    0    0  0.00000000000E+00  0.00000000000E+00  0.45593999997E+02  0.45594000000E+02  0.51100000000E-03 0. -1.
         11   -1    0    0    0    0 -0.00000000000E+00 -0.00000000000E+00 -0.45593999997E+02  0.45594000000E+02  0.51100000000E-03 0.  1.
    9900012    2    1    2    0    0  0.98102813127E+01  0.15263040653E+02 -0.46338097392E+01  0.72461702392E+02  0.70000172082E+02 0.  0.
         12    1    1    2    0    0 -0.98102813127E+01 -0.15263040653E+02  0.46338097392E+01  0.18726297608E+02  0.00000000000E+00 0. -1.
         11    1    3    3    0    0 -0.73218263714E+01  0.52351801766E+01 -0.28158816185E+01  0.94310891442E+01  0.51100000000E-03 0. -1.
        -11    1    3    3    0    0  0.22517199422E+02  0.30936205797E+02  0.83527704209E+01  0.39164293341E+02  0.51100000000E-03 0.  1.
         12    1    3    3    0    0 -0.53850917378E+01 -0.20908345321E+02 -0.10170698542E+02  0.23866319907E+02  0.00000000000E+00 0. -1.
</event>
<event>
 8    1  0.3020651E-013  0.7246156E+02  0.7816164E-02  0.1226708E+00
        -11   -1    0    0    0    0  0.00000000000E+00  0.00000000000E+00  0.45593999997E+02  0.45594000000E+02  0.51100000000E-03 0. -1.
         11   -1    0    0    0    0 -0.00000000000E+00 -0.00000000000E+00 -0.45593999997E+02  0.45594000000E+02  0.51100000000E-03 0.  1.
    9900012    2    1    2    0    0 -0.40823012389E+00 -0.12417763875E+02 -0.14011142453E+02  0.72461558151E+02  0.69999984181E+02 0.  0.
         23    2    3    3    0    0  0.17938806532E+00  0.18328999430E+00 -0.10772735601E+02  0.59437767125E+02  0.58452806205E+02 0.  0.
         12    1    1    2    0    0  0.40823012389E+00  0.12417763875E+02  0.14011142453E+02  0.18726441849E+02  0.00000000000E+00 0. -1.
         11    1    4    4    0    0  0.19241668286E+02  0.27355598893E+01  0.16888387814E+02  0.25747674255E+02  0.51100000000E-03 0. -1.
        -11    1    4    4    0    0 -0.19062280221E+02 -0.25522698950E+01 -0.27661123414E+02  0.33690092871E+02  0.51100000000E-03 0.  1.
        -12    1    3    3    0    0 -0.58761818921E+00 -0.12601053869E+02 -0.32384068523E+01  0.13023791026E+02  0.00000000000E+00 0.  1.
</event>
<event>
 7    1  0.3020651E-013  0.7246164E+02  0.7816164E-02  0.1226708E+00
        -11   -1    0    0    0    0  0.00000000000E+00  0.00000000000E+00  0.45593999997E+02  0.45594000000E+02  0.51100000000E-03 0. -1.
         11   -1    0    0    0    0 -0.00000000000E+00 -0.00000000000E+00 -0.45593999997E+02  0.45594000000E+02  0.51100000000E-03 0.  1.
    9900012    2    1    2    0    0  0.26053817695E+00  0.13956483944E+02 -0.12482991052E+02  0.72461644513E+02  0.70000096683E+02 0.  0.
         12    1    1    2    0    0 -0.26053817695E+00 -0.13956483944E+02  0.12482991052E+02  0.18726355487E+02  0.00000000000E+00 0. -1.
         11    1    3    3    0    0 -0.14113118102E+02  0.23495923117E+02 -0.14019330122E+02  0.30786037794E+02  0.51100000000E-03 0. -1.
        -11    1    3    3    0    0  0.38323268733E-01  0.14099218957E+00 -0.16607110420E+02  0.16607753136E+02  0.51100000000E-03 0.  1.
         12    1    3    3    0    0  0.14335333010E+02 -0.96804313627E+01  0.18143449490E+02  0.25067853583E+02  0.00000000000E+00 0. -1.
</event>
<event>
 7    1  0.3020651E-013  0.7246157E+02  0.7816164E-02  0.1226708E+00
        -11   -1    0    0    0    0  0.00000000000E+00  0.00000000000E+00  0.45593999997E+02  0.45594000000E+02  0.51100000000E-03 0. -1.
         11   -1    0    0    0    0 -0.00000000000E+00 -0.00000000000E+00 -0.45593999997E+02  0.45594000000E+02  0.51100000000E-03 0.  1.
    9900012    2    1    2    0    0 -0.10381357656E+02  0.99090552202E+01 -0.12029853611E+02  0.72461565742E+02  0.69999994069E+02 0.  0.
         12    1    1    2    0    0  0.10381357656E+02 -0.99090552202E+01  0.12029853611E+02  0.18726434258E+02  0.00000000000E+00 0. -1.
         11    1    3    3    0    0  0.95801846785E+01  0.89719938200E+01  0.16640643155E+01  0.13230484567E+02  0.51100000000E-03 0. -1.
        -11    1    3    3    0    0 -0.33117622343E+01  0.26479730279E+02 -0.10085492612E+02  0.28528249968E+02  0.51100000000E-03 0.  1.
         12    1    3    3    0    0 -0.16649780100E+02 -0.25542668879E+02 -0.36084253139E+01  0.30702831206E+02  0.00000000000E+00 0. -1.
</event>
<event>
 7    1  0.3020651E-013  0.7246160E+02  0.7816164E-02  0.1226708E+00
        -11   -1    0    0    0    0  0.00000000000E+00  0.00000000000E+00  0.45593999997E+02  0.45594000000E+02  0.51100000000E-03 0. -1.
         11   -1    0    0    0    0 -0.00000000000E+00 -0.00000000000E+00 -0.45593999997E+02  0.45594000000E+02  0.51100000000E-03 0.  1.
    9900012    2    1    2    0    0 -0.55875836184E+01 -0.17718591640E+02 -0.23470443610E+01  0.72461596244E+02  0.70000033804E+02 0.  0.
         12    1    1    2    0    0  0.55875836184E+01  0.17718591640E+02  0.23470443610E+01  0.18726403756E+02  0.00000000000E+00 0. -1.
         11    1    3    3    0    0  0.10914341313E+02  0.14206534455E+02 -0.69416263754E+01  0.19212877050E+02  0.51100000000E-03 0. -1.
        -11    1    3    3    0    0  0.20574209362E+01 -0.25356745943E+02 -0.11405248790E+02  0.27879692358E+02  0.51100000000E-03 0.  1.
        -12    1    3    3    0    0 -0.18559345868E+02 -0.65683801526E+01  0.15999830804E+02  0.25369026837E+02  0.00000000000E+00 0.  1.
</event>
<event>
 7    1  0.3020651E-013  0.7246157E+02  0.7816164E-02  0.1226708E+00
        -11   -1    0    0    0    0  0.00000000000E+00  0.00000000000E+00  0.45593999997E+02  0.45594000000E+02  0.51100000000E-03 0. -1.
         11   -1    0    0    0    0 -0.00000000000E+00 -0.00000000000E+00 -0.45593999997E+02  0.45594000000E+02  0.51100000000E-03 0.  1.
    9900012    2    1    2    0    0  0.44000986438E+01  0.16670932720E+02 -0.73074182485E+01  0.72461568752E+02  0.69999997991E+02 0.  0.
         12    1    1    2    0    0 -0.44000986438E+01 -0.16670932720E+02  0.73074182485E+01  0.18726431248E+02  0.00000000000E+00 0. -1.
         11    1    3    3    0    0  0.15042079871E+02 -0.35277849184E+01  0.49285179485E+01  0.16217266191E+02  0.51100000000E-03 0. -1.
        -11    1    3    3    0    0  0.15197738530E+02  0.15074090834E+02 -0.19459647122E+02  0.28928832283E+02  0.51100000000E-03 0.  1.
         12    1    3    3    0    0 -0.25839719757E+02  0.51246268043E+01  0.72237109247E+01  0.27315470278E+02  0.00000000000E+00 0. -1.
</event>
<event>
 7    1  0.3020651E-013  0.7246157E+02  0.7816164E-02  0.1226708E+00
        -11   -1    0    0    0    0  0.00000000000E+00  0.00000000000E+00  0.45593999997E+02  0.45594000000E+02  0.51100000000E-03 0.  1.
         11   -1    0    0    0    0 -0.00000000000E+00 -0.00000000000E+00 -0.45593999997E+02  0.45594000000E+02  0.51100000000E-03 0. -1.
    9900012    2    1    2    0    0  0.33412862876E+01  0.15168466569E+02  0.10461003644E+02  0.72461570298E+02  0.70000000005E+02 0.  0.
         12    1    1    2    0    0 -0.33412862876E+01 -0.15168466569E+02 -0.10461003644E+02  0.18726429702E+02  0.00000000000E+00 0. -1.
         11    1    3    3    0    0 -0.69357039341E+01 -0.13115155014E+02  0.30033586686E+00  0.14839187377E+02  0.51100000000E-03 0.  1.
        -11    1    3    3    0    0  0.98226411792E+00 -0.26630655582E+01 -0.15874561562E+02  0.16126328348E+02  0.51100000000E-03 0. -1.
        -12    1    3    3    0    0  0.92947261038E+01  0.30946687142E+02  0.26035229339E+02  0.41496054573E+02  0.00000000000E+00 0.  1.
</event>
<event>
 7    1  0.3020651E-013  0.7246152E+02  0.7816164E-02  0.1226708E+00
        -11   -1    0    0    0    0  0.00000000000E+00  0.00000000000E+00  0.45593999997E+02  0.45594000000E+02  0.51100000000E-03 0.  1.
         11   -1    0    0    0    0 -0.00000000000E+00 -0.00000000000E+00 -0.45593999997E+02  0.45594000000E+02  0.51100000000E-03 0. -1.
    9900012    2    1    2    0    0 -0.27764072115E+01  0.27040526130E+01  0.18321047518E+02  0.72461518224E+02  0.69999932169E+02 0.  0.
         12    1    1    2    0    0  0.27764072115E+01 -0.27040526130E+01 -0.18321047518E+02  0.18726481776E+02  0.00000000000E+00 0. -1.
         11    1    3    3    0    0 -0.14718303038E+02 -0.39526426857E+01  0.31543674834E+01  0.15562835956E+02  0.51100000000E-03 0. -1.
        -11    1    3    3    0    0 -0.34954338770E+01 -0.21919448646E+02  0.40040124015E+01  0.22554653678E+02  0.51100000000E-03 0.  1.
        -12    1    3    3    0    0  0.15437329703E+02  0.28576143945E+02  0.11162667633E+02  0.34344028590E+02  0.00000000000E+00 0.  1.
</event>
<event>
 7    1  0.3020651E-013  0.7246158E+02  0.7816164E-02  0.1226708E+00
        -11   -1    0    0    0    0  0.00000000000E+00  0.00000000000E+00  0.45593999997E+02  0.45594000000E+02  0.51100000000E-03 0.  1.
         11   -1    0    0    0    0 -0.00000000000E+00 -0.00000000000E+00 -0.45593999997E+02  0.45594000000E+02  0.51100000000E-03 0. -1.
    9900012    2    1    2    0    0  0.15386204387E+02  0.34850291054E+01  0.10089496551E+02  0.72461584060E+02  0.70000017932E+02 0.  0.
         12    1    1    2    0    0 -0.15386204387E+02 -0.34850291054E+01 -0.10089496551E+02  0.18726415940E+02  0.00000000000E+00 0. -1.
         11    1    3    3    0    0 -0.79397473442E+01  0.68640715131E+01 -0.37660381555E+01  0.11150699946E+02  0.51100000000E-03 0. -1.
        -11    1    3    3    0    0 -0.51086898383E+01  0.21398490261E+02  0.56315335216E+01  0.22709211070E+02  0.51100000000E-03 0.  1.
        -12    1    3    3    0    0  0.28434641569E+02 -0.24777532669E+02  0.82240011853E+01  0.38601673045E+02  0.00000000000E+00 0.  1.
</event>
<event>
 7    1  0.3020651E-013  0.7246160E+02  0.7816164E-02  0.1226708E+00
        -11   -1    0    0    0    0  0.00000000000E+00  0.00000000000E+00  0.45593999997E+02  0.45594000000E+02  0.51100000000E-03 0.  1.
         11   -1    0    0    0    0 -0.00000000000E+00 -0.00000000000E+00 -0.45593999997E+02  0.45594000000E+02  0.51100000000E-03 0. -1.
    9900012    2    1    2    0    0 -0.62054351546E+00 -0.11952034897E+02  0.14402843949E+02  0.72461598150E+02  0.70000036287E+02 0.  0.
         12    1    1    2    0    0  0.62054351546E+00  0.11952034897E+02 -0.14402843949E+02  0.18726401850E+02  0.00000000000E+00 0. -1.
         11    1    3    3    0    0  0.24955829673E+01 -0.27510224427E+02 -0.15669733645E+02  0.31758163283E+02  0.51100000000E-03 0. -1.
        -11    1    3    3    0    0  0.94178221890E+01  0.73596013415E+01  0.17254900067E+02  0.20990252101E+02  0.51100000000E-03 0.  1.
        -12    1    3    3    0    0 -0.12533948672E+02  0.81985881880E+01  0.12817677526E+02  0.19713182765E+02  0.00000000000E+00 0.  1.
</event>
<event>
 7    1  0.3020651E-013  0.7246142E+02  0.7816164E-02  0.1226708E+00
        -11   -1    0    0    0    0  0.00000000000E+00  0.00000000000E+00  0.45593999997E+02  0.45594000000E+02  0.51100000000E-03 0.  1.
         11   -1    0    0    0    0 -0.00000000000E+00 -0.00000000000E+00 -0.45593999997E+02  0.45594000000E+02  0.51100000000E-03 0. -1.
    9900012    2    1    2    0    0  0.15459574217E+02 -0.65745894061E+01  0.82741357505E+01  0.72461415068E+02  0.69999797788E+02 0.  0.
         12    1    1    2    0    0 -0.15459574217E+02  0.65745894061E+01 -0.82741357505E+01  0.18726584932E+02  0.00000000000E+00 0. -1.
         11    1    3    3    0    0 -0.46603174933E+01  0.22344956439E+02 -0.13391169117E+02  0.26463919740E+02  0.51100000000E-03 0. -1.
        -11    1    3    3    0    0 -0.28821896339E+01  0.64713229367E+00  0.27346577119E+01  0.40254379084E+01  0.51100000000E-03 0.  1.
        -12    1    3    3    0    0  0.23002081344E+02 -0.29566678139E+02  0.18930647156E+02  0.41972057420E+02  0.00000000000E+00 0.  1.
</event>
<event>
 7    1  0.3020651E-013  0.7246151E+02  0.7816164E-02  0.1226708E+00
        -11   -1    0    0    0    0  0.00000000000E+00  0.00000000000E+00  0.45593999997E+02  0.45594000000E+02  0.51100000000E-03 0. -1.
         11   -1    0    0    0    0 -0.00000000000E+00 -0.00000000000E+00 -0.45593999997E+02  0.45594000000E+02  0.51100000000E-03 0.  1.
    9900012    2    1    2    0    0 -0.14826614327E+02 -0.82710781336E+01 -0.79020446092E+01  0.72461507138E+02  0.69999917728E+02 0.  0.
         12    1    1    2    0    0  0.14826614327E+02  0.82710781336E+01  0.79020446092E+01  0.18726492862E+02  0.00000000000E+00 0. -1.
         11    1    3    3    0    0 -0.15126708476E+02  0.13673566398E+02  0.11783941344E+02  0.23550902345E+02  0.51100000000E-03 0. -1.
        -11    1    3    3    0    0 -0.17507110975E+02 -0.55565625412E+01 -0.16140394303E+02  0.24451720808E+02  0.51100000000E-03 0.  1.
         12    1    3    3    0    0  0.17807205125E+02 -0.16388081990E+02 -0.35455916506E+01  0.24458883986E+02  0.00000000000E+00 0. -1.
</event>
<event>
 7    1  0.3020651E-013  0.7246157E+02  0.7816164E-02  0.1226708E+00
        -11   -1    0    0    0    0  0.00000000000E+00  0.00000000000E+00  0.45593999997E+02  0.45594000000E+02  0.51100000000E-03 0. -1.
         11   -1    0    0    0    0 -0.00000000000E+00 -0.00000000000E+00 -0.45593999997E+02  0.45594000000E+02  0.51100000000E-03 0.  1.
    9900012    2    1    2    0    0  0.16190132993E+02  0.46284755345E+01 -0.81936649660E+01  0.72461565804E+02  0.69999994151E+02 0.  0.
         12    1    1    2    0    0 -0.16190132993E+02 -0.46284755345E+01  0.81936649660E+01  0.18726434196E+02  0.00000000000E+00 0. -1.
         11    1    3    3    0    0  0.81445074719E+01  0.19678605000E+02  0.87282240096E+01  0.23016567758E+02  0.51100000000E-03 0. -1.
        -11    1    3    3    0    0  0.93638864663E+01  0.44438007005E+01 -0.25933821744E+02  0.27928351991E+02  0.51100000000E-03 0.  1.
         12    1    3    3    0    0 -0.13182609452E+01 -0.19493930166E+02  0.90119327689E+01  0.21516646056E+02  0.00000000000E+00 0. -1.
</event>
<event>
 7    1  0.3020651E-013  0.7246110E+02  0.7816164E-02  0.1226709E+00
        -11   -1    0    0    0    0  0.00000000000E+00  0.00000000000E+00  0.45593999997E+02  0.45594000000E+02  0.51100000000E-03 0.  1.
         11   -1    0    0    0    0 -0.00000000000E+00 -0.00000000000E+00 -0.45593999997E+02  0.45594000000E+02  0.51100000000E-03 0. -1.
    9900012    2    1    2    0    0 -0.69977750520E+01 -0.16610730694E+02  0.50805157394E+01  0.72461097692E+02  0.69999384345E+02 0.  0.
         12    1    1    2    0    0  0.69977750520E+01  0.16610730694E+02 -0.50805157394E+01  0.18726902308E+02  0.00000000000E+00 0. -1.
         11    1    3    3    0    0  0.11151444509E+01  0.23791198602E+01 -0.16122735408E+01  0.30827235827E+01  0.51100000000E-03 0. -1.
        -11    1    3    3    0    0 -0.10381507925E+02  0.19663457513E+02  0.18470927104E+02  0.28906788416E+02  0.51100000000E-03 0.  1.
         12    1    3    3    0    0  0.22685884219E+01 -0.38653308067E+02 -0.11778137824E+02  0.40471585694E+02  0.00000000000E+00 0. -1.
</event>
<event>
 7    1  0.3074080E-013  0.7246148E+02  0.7816164E-02  0.1226708E+00
        -11   -1    0    0    0    0  0.00000000000E+00  0.00000000000E+00  0.45593999997E+02  0.45594000000E+02  0.51100000000E-03 0. -1.
         11   -1    0    0    0    0 -0.00000000000E+00 -0.00000000000E+00 -0.45593999997E+02  0.45594000000E+02  0.51100000000E-03 0.  1.
    9900012    2    1    2    0    0 -0.25834288878E+01  0.67158507183E+01 -0.17288892310E+02  0.72461479955E+02  0.69999882316E+02 0.  0.
         12    1    1    2    0    0  0.25834288878E+01 -0.67158507183E+01  0.17288892310E+02  0.18726520045E+02  0.00000000000E+00 0. -1.
         11    1    3    3    0    0  0.10250480888E+02  0.19808099160E+01  0.93279390558E+01  0.14000229057E+02  0.51100000000E-03 0. -1.
        -11    1    3    3    0    0  0.58032071553E+01 -0.15079654640E+02 -0.26758674519E+02  0.31258596571E+02  0.51100000000E-03 0.  1.
         12    1    3    3    0    0 -0.18637116931E+02  0.19814695442E+02  0.14184315322E+00  0.27202654327E+02  0.00000000000E+00 0. -1.
</event>
<event>
 7    1  0.3020651E-013  0.7246163E+02  0.7816164E-02  0.1226708E+00
        -11   -1    0    0    0    0  0.00000000000E+00  0.00000000000E+00  0.45593999997E+02  0.45594000000E+02  0.51100000000E-03 0.  1.
         11   -1    0    0    0    0 -0.00000000000E+00 -0.00000000000E+00 -0.45593999997E+02  0.45594000000E+02  0.51100000000E-03 0. -1.
    9900012    2    1    2    0    0 -0.11287002523E+02 -0.49389983743E+01  0.14102728174E+02  0.72461626276E+02  0.70000072926E+02 0.  0.
         12    1    1    2    0    0  0.11287002523E+02  0.49389983743E+01 -0.14102728174E+02  0.18726373724E+02  0.00000000000E+00 0. -1.
         11    1    3    3    0    0 -0.19192655157E+02 -0.81962717810E+01  0.12123543406E+02  0.24135392851E+02  0.51100000000E-03 0. -1.
        -11    1    3    3    0    0 -0.82347963339E+01  0.14032707552E+02  0.17189739686E+02  0.23668880469E+02  0.51100000000E-03 0.  1.
         12    1    3    3    0    0  0.16140448968E+02 -0.10775434146E+02 -0.15210554918E+02  0.24657352956E+02  0.00000000000E+00 0. -1.
</event>
<event>
 7    1  0.3020651E-013  0.7246155E+02  0.7816164E-02  0.1226708E+00
        -11   -1    0    0    0    0  0.00000000000E+00  0.00000000000E+00  0.45593999997E+02  0.45594000000E+02  0.51100000000E-03 0. -1.
         11   -1    0    0    0    0 -0.00000000000E+00 -0.00000000000E+00 -0.45593999997E+02  0.45594000000E+02  0.51100000000E-03 0.  1.
    9900012    2    1    2    0    0  0.16829517550E+02 -0.62667835820E+01  0.53079738063E+01  0.72461552837E+02  0.69999977258E+02 0.  0.
         12    1    1    2    0    0 -0.16829517550E+02  0.62667835820E+01 -0.53079738063E+01  0.18726447163E+02  0.00000000000E+00 0. -1.
         11    1    3    3    0    0  0.27719283256E+02  0.15663023703E+02  0.22742310872E+02  0.39126738682E+02  0.51100000000E-03 0. -1.
        -11    1    3    3    0    0  0.60843706474E+00 -0.12569494223E+01  0.21911141904E+01  0.25982877378E+01  0.51100000000E-03 0.  1.
        -12    1    3    3    0    0 -0.11498202771E+02 -0.20672857863E+02 -0.19625451257E+02  0.30736526417E+02  0.00000000000E+00 0.  1.
</event>
<event>
 7    1  0.3020651E-013  0.7246154E+02  0.7816164E-02  0.1226708E+00
        -11   -1    0    0    0    0  0.00000000000E+00  0.00000000000E+00  0.45593999997E+02  0.45594000000E+02  0.51100000000E-03 0. -1.
         11   -1    0    0    0    0 -0.00000000000E+00 -0.00000000000E+00 -0.45593999997E+02  0.45594000000E+02  0.51100000000E-03 0.  1.
    9900012    2    1    2    0    0 -0.12956221513E+02  0.13520648621E+02 -0.94028170012E-01  0.72461535937E+02  0.69999955243E+02 0.  0.
         12    1    1    2    0    0  0.12956221513E+02 -0.13520648621E+02  0.94028170012E-01  0.18726464063E+02  0.00000000000E+00 0. -1.
         11    1    3    3    0    0 -0.93488648071E+01  0.12710002773E+02 -0.55845554397E+00  0.15787885119E+02  0.51100000000E-03 0. -1.
        -11    1    3    3    0    0  0.19996274746E+02  0.18425760546E+02 -0.67524058601E+00  0.27199551568E+02  0.51100000000E-03 0.  1.
         12    1    3    3    0    0 -0.23603631451E+02 -0.17615114698E+02  0.11396679600E+01  0.29474099250E+02  0.00000000000E+00 0. -1.
</event>
<event>
 7    1  0.3020651E-013  0.7246132E+02  0.7816164E-02  0.1226709E+00
        -11   -1    0    0    0    0  0.00000000000E+00  0.00000000000E+00  0.45593999997E+02  0.45594000000E+02  0.51100000000E-03 0.  1.
         11   -1    0    0    0    0 -0.00000000000E+00 -0.00000000000E+00 -0.45593999997E+02  0.45594000000E+02  0.51100000000E-03 0. -1.
    9900012    2    1    2    0    0  0.90369366956E+01  0.16391517341E+02 -0.58348005498E+00  0.72461320781E+02  0.69999674962E+02 0.  0.
         12    1    1    2    0    0 -0.90369366956E+01 -0.16391517341E+02  0.58348005498E+00  0.18726679219E+02  0.00000000000E+00 0. -1.
         11    1    3    3    0    0  0.13316958228E+01  0.96800571951E+01  0.14969059354E+01  0.98852237560E+01  0.51100000000E-03 0. -1.
        -11    1    3    3    0    0  0.34908771633E+02  0.43834148313E+01 -0.24800857619E+01  0.35270206806E+02  0.51100000000E-03 0.  1.
         12    1    3    3    0    0 -0.27203530760E+02  0.23280453146E+01  0.39969977154E+00  0.27305890220E+02  0.00000000000E+00 0. -1.
</event>
<event>
 7    1  0.3020651E-013  0.7246160E+02  0.7816164E-02  0.1226708E+00
        -11   -1    0    0    0    0  0.00000000000E+00  0.00000000000E+00  0.45593999997E+02  0.45594000000E+02  0.51100000000E-03 0.  1.
         11   -1    0    0    0    0 -0.00000000000E+00 -0.00000000000E+00 -0.45593999997E+02  0.45594000000E+02  0.51100000000E-03 0. -1.
    9900012    2    1    2    0    0  0.16885940938E+02  0.77362323178E+01  0.23861847331E+01  0.72461596998E+02  0.70000034786E+02 0.  0.
         12    1    1    2    0    0 -0.16885940938E+02 -0.77362323178E+01 -0.23861847331E+01  0.18726403002E+02  0.00000000000E+00 0. -1.
         11    1    3    3    0    0  0.31185151184E+02 -0.70308355166E+01 -0.16773349619E+02  0.36101129624E+02  0.51100000000E-03 0.  1.
        -11    1    3    3    0    0 -0.77510980376E+01  0.14210257698E+02  0.86473352187E-01  0.16186983120E+02  0.51100000000E-03 0. -1.
        -12    1    3    3    0    0 -0.65481122087E+01  0.55681013664E+00  0.19073061000E+02  0.20173484254E+02  0.00000000000E+00 0.  1.
</event>
<event>
 7    1  0.3031547E-013  0.7246156E+02  0.7816164E-02  0.1226708E+00
        -11   -1    0    0    0    0  0.00000000000E+00  0.00000000000E+00  0.45593999997E+02  0.45594000000E+02  0.51100000000E-03 0. -1.
         11   -1    0    0    0    0 -0.00000000000E+00 -0.00000000000E+00 -0.45593999997E+02  0.45594000000E+02  0.51100000000E-03 0.  1.
    9900012    2    1    2    0    0  0.17092473188E+02  0.20785441877E+00 -0.76474579718E+01  0.72461562630E+02  0.69999990016E+02 0.  0.
         12    1    1    2    0    0 -0.17092473188E+02 -0.20785441877E+00  0.76474579718E+01  0.18726437370E+02  0.00000000000E+00 0. -1.
         11    1    3    3    0    0  0.22402571149E+02 -0.52809420095E+01  0.19404169790E+02  0.30104573541E+02  0.51100000000E-03 0. -1.
        -11    1    3    3    0    0 -0.13277801865E+02  0.78617187961E+01 -0.15193576585E+01  0.15505324658E+02  0.51100000000E-03 0.  1.
        -12    1    3    3    0    0  0.79677039043E+01 -0.23729223679E+01 -0.25532270103E+02  0.26851664431E+02  0.00000000000E+00 0.  1.
</event>
<event>
 7    1  0.3020651E-013  0.7246202E+02  0.7816164E-02  0.1226707E+00
        -11   -1    0    0    0    0  0.00000000000E+00  0.00000000000E+00  0.45593999997E+02  0.45594000000E+02  0.51100000000E-03 0.  1.
         11   -1    0    0    0    0 -0.00000000000E+00 -0.00000000000E+00 -0.45593999997E+02  0.45594000000E+02  0.51100000000E-03 0. -1.
    9900012    2    1    2    0    0 -0.94695781615E+01 -0.18156238678E+01  0.16052813758E+02  0.72462022585E+02  0.70000589190E+02 0.  0.
         12    1    1    2    0    0  0.94695781615E+01  0.18156238678E+01 -0.16052813758E+02  0.18725977415E+02  0.00000000000E+00 0. -1.
         11    1    3    3    0    0  0.14344128552E+02 -0.12658236336E+02  0.66192147254E+01  0.20243492161E+02  0.51100000000E-03 0. -1.
        -11    1    3    3    0    0  0.11504530932E+02  0.10538255475E+02  0.60639903609E+01  0.16738609255E+02  0.51100000000E-03 0.  1.
         12    1    3    3    0    0 -0.35318237645E+02  0.30435699253E+00  0.33696086720E+01  0.35479921169E+02  0.00000000000E+00 0. -1.
</event>
<event>
 7    1  0.3020651E-013  0.7246155E+02  0.7816164E-02  0.1226708E+00
        -11   -1    0    0    0    0  0.00000000000E+00  0.00000000000E+00  0.45593999997E+02  0.45594000000E+02  0.51100000000E-03 0.  1.
         11   -1    0    0    0    0 -0.00000000000E+00 -0.00000000000E+00 -0.45593999997E+02  0.45594000000E+02  0.51100000000E-03 0. -1.
    9900012    2    1    2    0    0 -0.94780385941E+01 -0.14646589908E+02 -0.68061881073E+01  0.72461547905E+02  0.69999970834E+02 0.  0.
         12    1    1    2    0    0  0.94780385941E+01  0.14646589908E+02  0.68061881073E+01  0.18726452095E+02  0.00000000000E+00 0. -1.
         11    1    3    3    0    0  0.16917510787E+02  0.11044756387E+02 -0.17060987972E+02  0.26443640553E+02  0.51100000000E-03 0. -1.
        -11    1    3    3    0    0 -0.13172706768E+02  0.16893586775E+01  0.80541589159E+01  0.15532018942E+02  0.51100000000E-03 0.  1.
        -12    1    3    3    0    0 -0.13222842613E+02 -0.27380704972E+02  0.22006409485E+01  0.30485888410E+02  0.00000000000E+00 0.  1.
</event>
<event>
 7    1  0.3020651E-013  0.7246158E+02  0.7816164E-02  0.1226708E+00
        -11   -1    0    0    0    0  0.00000000000E+00  0.00000000000E+00  0.45593999997E+02  0.45594000000E+02  0.51100000000E-03 0.  1.
         11   -1    0    0    0    0 -0.00000000000E+00 -0.00000000000E+00 -0.45593999997E+02  0.45594000000E+02  0.51100000000E-03 0. -1.
    9900012    2    1    2    0    0 -0.17647305406E+02  0.49489354395E+01  0.38418177767E+01  0.72461577120E+02  0.70000008891E+02 0.  0.
         12    1    1    2    0    0  0.17647305406E+02 -0.49489354395E+01 -0.38418177767E+01  0.18726422880E+02  0.00000000000E+00 0. -1.
         11    1    3    3    0    0 -0.42240605036E+01 -0.10822537759E+01  0.14220742243E+02  0.14874255295E+02  0.51100000000E-03 0. -1.
        -11    1    3    3    0    0 -0.65334561651E+01 -0.12949434354E+02  0.17774436058E+02  0.22941326836E+02  0.51100000000E-03 0.  1.
         12    1    3    3    0    0 -0.68897887368E+01  0.18980623569E+02 -0.28153360525E+02  0.34645994989E+02  0.00000000000E+00 0. -1.
</event>
<event>
 7    1  0.3020651E-013  0.7246151E+02  0.7816164E-02  0.1226708E+00
        -11   -1    0    0    0    0  0.00000000000E+00  0.00000000000E+00  0.45593999997E+02  0.45594000000E+02  0.51100000000E-03 0. -1.
         11   -1    0    0    0    0 -0.00000000000E+00 -0.00000000000E+00 -0.45593999997E+02  0.45594000000E+02  0.51100000000E-03 0.  1.
    9900012    2    1    2    0    0 -0.30306709867E+01 -0.18458580073E+02  0.88158548771E+00  0.72461512397E+02  0.69999924578E+02 0.  0.
         12    1    1    2    0    0  0.30306709867E+01  0.18458580073E+02 -0.88158548771E+00  0.18726487603E+02  0.00000000000E+00 0. -1.
         11    1    3    3    0    0 -0.99735524525E+01 -0.61702496270E+01 -0.12489308008E+02  0.17132616372E+02  0.51100000000E-03 0. -1.
        -11    1    3    3    0    0 -0.11575221606E+02 -0.15694639166E+02 -0.12624303707E+02  0.23231024474E+02  0.51100000000E-03 0.  1.
         12    1    3    3    0    0  0.18518103072E+02  0.34063087197E+01  0.25995197203E+02  0.32097871551E+02  0.00000000000E+00 0. -1.
</event>
<event>
 7    1  0.3020651E-013  0.7246159E+02  0.7816164E-02  0.1226708E+00
        -11   -1    0    0    0    0  0.00000000000E+00  0.00000000000E+00  0.45593999997E+02  0.45594000000E+02  0.51100000000E-03 0. -1.
         11   -1    0    0    0    0 -0.00000000000E+00 -0.00000000000E+00 -0.45593999997E+02  0.45594000000E+02  0.51100000000E-03 0.  1.
    9900012    2    1    2    0    0 -0.90426386442E+01 -0.82624532355E+01 -0.14164777403E+02  0.72461591749E+02  0.70000027948E+02 0.  0.
         12    1    1    2    0    0  0.90426386442E+01  0.82624532355E+01  0.14164777403E+02  0.18726408251E+02  0.00000000000E+00 0. -1.
         11    1    3    3    0    0 -0.92950686631E+00 -0.75305875664E+01 -0.52882375772E+01  0.92487398624E+01  0.51100000000E-03 0. -1.
        -11    1    3    3    0    0 -0.29731615726E+02 -0.12704115321E+01 -0.22803490754E+02  0.37491093742E+02  0.51100000000E-03 0.  1.
         12    1    3    3    0    0  0.21618483948E+02  0.53854586299E+00  0.13926950928E+02  0.25721758144E+02  0.00000000000E+00 0. -1.
</event>
<event>
 7    1  0.3020651E-013  0.7246156E+02  0.7816164E-02  0.1226708E+00
        -11   -1    0    0    0    0  0.00000000000E+00  0.00000000000E+00  0.45593999997E+02  0.45594000000E+02  0.51100000000E-03 0.  1.
         11   -1    0    0    0    0 -0.00000000000E+00 -0.00000000000E+00 -0.45593999997E+02  0.45594000000E+02  0.51100000000E-03 0. -1.
    9900012    2    1    2    0    0  0.79732579853E+01  0.13251873360E+02  0.10559093599E+02  0.72461562856E+02  0.69999990311E+02 0.  0.
         12    1    1    2    0    0 -0.79732579853E+01 -0.13251873360E+02 -0.10559093599E+02  0.18726437144E+02  0.00000000000E+00 0. -1.
         11    1    3    3    0    0 -0.12213206869E+02  0.26592857915E+02  0.64802731454E+01  0.29972261417E+02  0.51100000000E-03 0. -1.
        -11    1    3    3    0    0  0.96549705569E+01  0.11675050448E+02  0.15600225924E+01  0.15230197969E+02  0.51100000000E-03 0.  1.
         12    1    3    3    0    0  0.10531494298E+02 -0.25016035003E+02  0.25187978613E+01  0.27259103471E+02  0.00000000000E+00 0. -1.
</event>
<event>
 7    1  0.3020651E-013  0.7246153E+02  0.7816164E-02  0.1226708E+00
        -11   -1    0    0    0    0  0.00000000000E+00  0.00000000000E+00  0.45593999997E+02  0.45594000000E+02  0.51100000000E-03 0.  1.
         11   -1    0    0    0    0 -0.00000000000E+00 -0.00000000000E+00 -0.45593999997E+02  0.45594000000E+02  0.51100000000E-03 0. -1.
    9900012    2    1    2    0    0  0.95859648696E+01 -0.15737016161E+02 -0.33370948101E+01  0.72461532049E+02  0.69999950178E+02 0.  0.
         12    1    1    2    0    0 -0.95859648696E+01  0.15737016161E+02  0.33370948101E+01  0.18726467951E+02  0.00000000000E+00 0. -1.
         11    1    3    3    0    0  0.16412383786E+02 -0.13621256397E+02  0.77272238069E+01  0.22685126304E+02  0.51100000000E-03 0. -1.
        -11    1    3    3    0    0  0.18759272056E+02 -0.37822537916E+01  0.46637968578E+01  0.19696871153E+02  0.51100000000E-03 0.  1.
         12    1    3    3    0    0 -0.25585690973E+02  0.16664940275E+01 -0.15728115475E+02  0.30079534592E+02  0.00000000000E+00 0. -1.
</event>
<event>
 7    1  0.3020651E-013  0.7246156E+02  0.7816164E-02  0.1226708E+00
        -11   -1    0    0    0    0  0.00000000000E+00  0.00000000000E+00  0.45593999997E+02  0.45594000000E+02  0.51100000000E-03 0.  1.
         11   -1    0    0    0    0 -0.00000000000E+00 -0.00000000000E+00 -0.45593999997E+02  0.45594000000E+02  0.51100000000E-03 0. -1.
    9900012    2    1    2    0    0 -0.18228957131E+02  0.21149675342E+01 -0.37298466579E+01  0.72461555547E+02  0.69999980789E+02 0.  0.
         12    1    1    2    0    0  0.18228957131E+02 -0.21149675342E+01  0.37298466579E+01  0.18726444453E+02  0.00000000000E+00 0. -1.
         11    1    3    3    0    0 -0.82634044145E+01 -0.66859588287E+00 -0.49483419346E+01  0.96548931187E+01  0.51100000000E-03 0. -1.
        -11    1    3    3    0    0 -0.25697720781E+02  0.24731787198E+02  0.26552433396E+01  0.35764290414E+02  0.51100000000E-03 0.  1.
         12    1    3    3    0    0  0.15732168065E+02 -0.21948223781E+02 -0.14367480629E+01  0.27042372014E+02  0.00000000000E+00 0. -1.
</event>
<event>
 7    1  0.3020651E-013  0.7246157E+02  0.7816164E-02  0.1226708E+00
        -11   -1    0    0    0    0  0.00000000000E+00  0.00000000000E+00  0.45593999997E+02  0.45594000000E+02  0.51100000000E-03 0.  1.
         11   -1    0    0    0    0 -0.00000000000E+00 -0.00000000000E+00 -0.45593999997E+02  0.45594000000E+02  0.51100000000E-03 0. -1.
    9900012    2    1    2    0    0 -0.42048783857E+01  0.55446206346E+01  0.17385490276E+02  0.72461572354E+02  0.70000002684E+02 0.  0.
         12    1    1    2    0    0  0.42048783857E+01 -0.55446206346E+01 -0.17385490276E+02  0.18726427646E+02  0.00000000000E+00 0. -1.
         11    1    3    3    0    0 -0.37415007032E+01 -0.30361025174E+01 -0.14628282951E+02  0.15401409298E+02  0.51100000000E-03 0. -1.
        -11    1    3    3    0    0 -0.19624952706E+02  0.12874621701E+02  0.55705449970E+01  0.24123134632E+02  0.51100000000E-03 0.  1.
        -12    1    3    3    0    0  0.19161575024E+02 -0.42938985486E+01  0.26443228231E+02  0.32937028424E+02  0.00000000000E+00 0.  1.
</event>
<event>
 7    1  0.3020651E-013  0.7246159E+02  0.7816164E-02  0.1226708E+00
        -11   -1    0    0    0    0  0.00000000000E+00  0.00000000000E+00  0.45593999997E+02  0.45594000000E+02  0.51100000000E-03 0. -1.
         11   -1    0    0    0    0 -0.00000000000E+00 -0.00000000000E+00 -0.45593999997E+02  0.45594000000E+02  0.51100000000E-03 0.  1.
    9900012    2    1    2    0    0 -0.16875567771E+02 -0.38251025553E+01 -0.71597770562E+01  0.72461585376E+02  0.70000019647E+02 0.  0.
         12    1    1    2    0    0  0.16875567771E+02  0.38251025553E+01  0.71597770562E+01  0.18726414624E+02  0.00000000000E+00 0. -1.
         11    1    3    3    0    0 -0.20745511181E+02 -0.11044735660E+02  0.17674051038E+02  0.29406368364E+02  0.51100000000E-03 0. -1.
        -11    1    3    3    0    0 -0.83387754947E+01  0.66395165630E+00  0.52895896501E+01  0.98972606048E+01  0.51100000000E-03 0.  1.
        -12    1    3    3    0    0  0.12208718905E+02  0.65556814485E+01 -0.30123417744E+02  0.33157956408E+02  0.00000000000E+00 0.  1.
</event>
<event>
 7    1  0.3020651E-013  0.7246155E+02  0.7816164E-02  0.1226708E+00
        -11   -1    0    0    0    0  0.00000000000E+00  0.00000000000E+00  0.45593999997E+02  0.45594000000E+02  0.51100000000E-03 0. -1.
         11   -1    0    0    0    0 -0.00000000000E+00 -0.00000000000E+00 -0.45593999997E+02  0.45594000000E+02  0.51100000000E-03 0.  1.
    9900012    2    1    2    0    0  0.90731810895E+01 -0.12992732520E+02 -0.99772812772E+01  0.72461551989E+02  0.69999976154E+02 0.  0.
         12    1    1    2    0    0 -0.90731810895E+01  0.12992732520E+02  0.99772812772E+01  0.18726448011E+02  0.00000000000E+00 0. -1.
         11    1    3    3    0    0  0.46453843911E+01  0.12828017688E+02 -0.11063417506E+02  0.17565216797E+02  0.51100000000E-03 0. -1.
        -11    1    3    3    0    0  0.11270914298E+02  0.11379900514E+02  0.52209668996E+01  0.16846190681E+02  0.51100000000E-03 0.  1.
         12    1    3    3    0    0 -0.68431176000E+01 -0.37200650722E+02 -0.41348306704E+01  0.38050144511E+02  0.00000000000E+00 0. -1.
</event>
<event>
 7    1  0.3020651E-013  0.7246159E+02  0.7816164E-02  0.1226708E+00
        -11   -1    0    0    0    0  0.00000000000E+00  0.00000000000E+00  0.45593999997E+02  0.45594000000E+02  0.51100000000E-03 0. -1.
         11   -1    0    0    0    0 -0.00000000000E+00 -0.00000000000E+00 -0.45593999997E+02  0.45594000000E+02  0.51100000000E-03 0.  1.
    9900012    2    1    2    0    0  0.19420869033E+01 -0.26247249039E+01 -0.18439561297E+02  0.72461593426E+02  0.70000030133E+02 0.  0.
         12    1    1    2    0    0 -0.19420869033E+01  0.26247249039E+01  0.18439561297E+02  0.18726406574E+02  0.00000000000E+00 0. -1.
         11    1    3    3    0    0 -0.37180073393E+00 -0.79140270275E+00  0.11655116167E+01  0.14570420768E+01  0.51100000000E-03 0. -1.
        -11    1    3    3    0    0  0.29272756563E+02  0.82113142089E+01 -0.27688200366E+02  0.41121240225E+02  0.51100000000E-03 0.  1.
         12    1    3    3    0    0 -0.26958868925E+02 -0.10044636410E+02  0.80831274529E+01  0.29883311124E+02  0.00000000000E+00 0. -1.
</event>
<event>
 7    1  0.3020651E-013  0.7246158E+02  0.7816164E-02  0.1226708E+00
        -11   -1    0    0    0    0  0.00000000000E+00  0.00000000000E+00  0.45593999997E+02  0.45594000000E+02  0.51100000000E-03 0.  1.
         11   -1    0    0    0    0 -0.00000000000E+00 -0.00000000000E+00 -0.45593999997E+02  0.45594000000E+02  0.51100000000E-03 0. -1.
    9900012    2    1    2    0    0  0.85511342081E+01 -0.16659367965E+02  0.14951015269E+00  0.72461580414E+02  0.70000013182E+02 0.  0.
         12    1    1    2    0    0 -0.85511342081E+01  0.16659367965E+02 -0.14951015269E+00  0.18726419586E+02  0.00000000000E+00 0. -1.
         11    1    3    3    0    0  0.77470170343E+01 -0.13206135689E+02 -0.54362666045E+00  0.15320372808E+02  0.51100000000E-03 0. -1.
        -11    1    3    3    0    0  0.13874663812E+02 -0.13317991438E+02  0.22673527927E+02  0.29731533104E+02  0.51100000000E-03 0.  1.
         12    1    3    3    0    0 -0.13070546638E+02  0.98647591622E+01 -0.21980391113E+02  0.27409674501E+02  0.00000000000E+00 0. -1.
</event>
<event>
 7    1  0.3020651E-013  0.7246159E+02  0.7816164E-02  0.1226708E+00
        -11   -1    0    0    0    0  0.00000000000E+00  0.00000000000E+00  0.45593999997E+02  0.45594000000E+02  0.51100000000E-03 0.  1.
         11   -1    0    0    0    0 -0.00000000000E+00 -0.00000000000E+00 -0.45593999997E+02  0.45594000000E+02  0.51100000000E-03 0. -1.
    9900012    2    1    2    0    0 -0.32667555633E+01  0.18432550782E+02  0.49771077798E+00  0.72461592543E+02  0.70000028983E+02 0.  0.
         12    1    1    2    0    0  0.32667555633E+01 -0.18432550782E+02 -0.49771077798E+00  0.18726407457E+02  0.00000000000E+00 0. -1.
         11    1    3    3    0    0 -0.67711982817E+01  0.10199620194E+02 -0.16054407381E+02  0.20189734394E+02  0.51100000000E-03 0. -1.
        -11    1    3    3    0    0 -0.72404031645E+01  0.71264551593E+01 -0.15452851963E+02  0.18493253775E+02  0.51100000000E-03 0.  1.
        -12    1    3    3    0    0  0.10744845883E+02  0.11064754290E+01  0.32004970122E+02  0.33778604374E+02  0.00000000000E+00 0.  1.
</event>
<event>
 7    1  0.3020651E-013  0.7246158E+02  0.7816164E-02  0.1226708E+00
        -11   -1    0    0    0    0  0.00000000000E+00  0.00000000000E+00  0.45593999997E+02  0.45594000000E+02  0.51100000000E-03 0.  1.
         11   -1    0    0    0    0 -0.00000000000E+00 -0.00000000000E+00 -0.45593999997E+02  0.45594000000E+02  0.51100000000E-03 0. -1.
    9900012    2    1    2    0    0  0.18501590938E+02 -0.60729889041E+00 -0.28286009125E+01  0.72461583837E+02  0.70000017642E+02 0.  0.
         12    1    1    2    0    0 -0.18501590938E+02  0.60729889041E+00  0.28286009125E+01  0.18726416163E+02  0.00000000000E+00 0. -1.
         11    1    3    3    0    0  0.51420527892E+01 -0.14166741142E+02 -0.28784530183E+02  0.32491328683E+02  0.51100000000E-03 0. -1.
        -11    1    3    3    0    0  0.18430211514E+02  0.31695346971E+01  0.14191376446E+02  0.23475813347E+02  0.51100000000E-03 0.  1.
        -12    1    3    3    0    0 -0.50706733649E+01  0.10389907554E+02  0.11764552825E+02  0.16494441807E+02  0.00000000000E+00 0.  1.
</event>
<event>
 7    1  0.3020651E-013  0.7246157E+02  0.7816164E-02  0.1226708E+00
        -11   -1    0    0    0    0  0.00000000000E+00  0.00000000000E+00  0.45593999997E+02  0.45594000000E+02  0.51100000000E-03 0. -1.
         11   -1    0    0    0    0 -0.00000000000E+00 -0.00000000000E+00 -0.45593999997E+02  0.45594000000E+02  0.51100000000E-03 0.  1.
    9900012    2    1    2    0    0  0.17237398598E+02  0.72520482824E+01  0.97929818427E+00  0.72461571092E+02  0.70000001039E+02 0.  0.
         12    1    1    2    0    0 -0.17237398598E+02 -0.72520482824E+01 -0.97929818427E+00  0.18726428908E+02  0.00000000000E+00 0. -1.
         11    1    3    3    0    0 -0.15042877846E+02 -0.12355546895E+02  0.14221910415E+02  0.24108306641E+02  0.51100000000E-03 0. -1.
        -11    1    3    3    0    0  0.35765104932E+01  0.53854776457E+01 -0.14935457792E+02  0.16274602806E+02  0.51100000000E-03 0.  1.
        -12    1    3    3    0    0  0.28703765951E+02  0.14222117532E+02  0.16928455609E+01  0.32078661645E+02  0.00000000000E+00 0.  1.
</event>
<event>
 7    1  0.3020651E-013  0.7246158E+02  0.7816164E-02  0.1226708E+00
        -11   -1    0    0    0    0  0.00000000000E+00  0.00000000000E+00  0.45593999997E+02  0.45594000000E+02  0.51100000000E-03 0.  1.
         11   -1    0    0    0    0 -0.00000000000E+00 -0.00000000000E+00 -0.45593999997E+02  0.45594000000E+02  0.51100000000E-03 0. -1.
    9900012    2    1    2    0    0 -0.15160587094E+02 -0.90705752969E+01  0.62096765570E+01  0.72461579622E+02  0.70000012151E+02 0.  0.
         12    1    1    2    0    0  0.15160587094E+02  0.90705752969E+01 -0.62096765570E+01  0.18726420378E+02  0.00000000000E+00 0. -1.
         11    1    3    3    0    0 -0.53107019806E+01 -0.35880972114E+01  0.58780486235E+01  0.86965195916E+01  0.51100000000E-03 0. -1.
        -11    1    3    3    0    0 -0.34555876113E+02  0.52687602097E+01  0.77800088874E+01  0.35810570319E+02  0.51100000000E-03 0.  1.
         12    1    3    3    0    0  0.24705990999E+02 -0.10751238295E+02 -0.74483809539E+01  0.27954489711E+02  0.00000000000E+00 0. -1.
</event>
<event>
 7    1  0.3020651E-013  0.7246196E+02  0.7816164E-02  0.1226707E+00
        -11   -1    0    0    0    0  0.00000000000E+00  0.00000000000E+00  0.45593999997E+02  0.45594000000E+02  0.51100000000E-03 0. -1.
         11   -1    0    0    0    0 -0.00000000000E+00 -0.00000000000E+00 -0.45593999997E+02  0.45594000000E+02  0.51100000000E-03 0.  1.
    9900012    2    1    2    0    0  0.52420291640E+01 -0.63198176254E+01 -0.16829901937E+02  0.72461960275E+02  0.70000508020E+02 0.  0.
         12    1    1    2    0    0 -0.52420291640E+01  0.63198176254E+01  0.16829901937E+02  0.18726039725E+02  0.00000000000E+00 0. -1.
         11    1    3    3    0    0  0.18929131359E+02 -0.70575292939E+01  0.88278780361E+01  0.22046590771E+02  0.51100000000E-03 0. -1.
        -11    1    3    3    0    0  0.12960211561E+02  0.16083236599E+01  0.49401992683E+00  0.13068964942E+02  0.51100000000E-03 0.  1.
         12    1    3    3    0    0 -0.26647313756E+02 -0.87061199147E+00 -0.26151799900E+02  0.37346404562E+02  0.00000000000E+00 0. -1.
</event>
<event>
 7    1  0.3020651E-013  0.7246157E+02  0.7816164E-02  0.1226708E+00
        -11   -1    0    0    0    0  0.00000000000E+00  0.00000000000E+00  0.45593999997E+02  0.45594000000E+02  0.51100000000E-03 0.  1.
         11   -1    0    0    0    0 -0.00000000000E+00 -0.00000000000E+00 -0.45593999997E+02  0.45594000000E+02  0.51100000000E-03 0. -1.
    9900012    2    1    2    0    0  0.11391569117E+02 -0.11448156239E+02  0.94789841431E+01  0.72461567649E+02  0.69999996554E+02 0.  0.
         12    1    1    2    0    0 -0.11391569117E+02  0.11448156239E+02 -0.94789841431E+01  0.18726432351E+02  0.00000000000E+00 0. -1.
         11    1    3    3    0    0 -0.51378065320E+01 -0.13947584720E+02 -0.40059000958E+01  0.15394135615E+02  0.51100000000E-03 0. -1.
        -11    1    3    3    0    0  0.35049894904E+02 -0.51097417700E+01  0.81425891856E+01  0.36344275377E+02  0.51100000000E-03 0.  1.
         12    1    3    3    0    0 -0.18520519255E+02  0.76091702517E+01  0.53422950532E+01  0.20723156657E+02  0.00000000000E+00 0. -1.
</event>
<event>
 7    1  0.3020651E-013  0.7246153E+02  0.7816164E-02  0.1226708E+00
        -11   -1    0    0    0    0  0.00000000000E+00  0.00000000000E+00  0.45593999997E+02  0.45594000000E+02  0.51100000000E-03 0.  1.
         11   -1    0    0    0    0 -0.00000000000E+00 -0.00000000000E+00 -0.45593999997E+02  0.45594000000E+02  0.51100000000E-03 0. -1.
    9900012    2    1    2    0    0  0.15993322233E+02 -0.66483182282E+00  0.97186575412E+01  0.72461530450E+02  0.69999948096E+02 0.  0.
         12    1    1    2    0    0 -0.15993322233E+02  0.66483182282E+00 -0.97186575412E+01  0.18726469550E+02  0.00000000000E+00 0. -1.
         11    1    3    3    0    0  0.18658942711E+02  0.60237969842E+00 -0.13603714647E+02  0.23099351871E+02  0.51100000000E-03 0. -1.
        -11    1    3    3    0    0  0.79703577878E+01 -0.24166673179E+01 -0.10779200633E+02  0.13621969415E+02  0.51100000000E-03 0.  1.
        -12    1    3    3    0    0 -0.10635978266E+02  0.11494557966E+01  0.34101572821E+02  0.35740209165E+02  0.00000000000E+00 0.  1.
</event>
<event>
 7    1  0.3020651E-013  0.7246152E+02  0.7816164E-02  0.1226708E+00
        -11   -1    0    0    0    0  0.00000000000E+00  0.00000000000E+00  0.45593999997E+02  0.45594000000E+02  0.51100000000E-03 0.  1.
         11   -1    0    0    0    0 -0.00000000000E+00 -0.00000000000E+00 -0.45593999997E+02  0.45594000000E+02  0.51100000000E-03 0. -1.
    9900012    2    1    2    0    0 -0.15529158891E+01  0.18439335469E+02 -0.28740754408E+01  0.72461522757E+02  0.69999938073E+02 0.  0.
         12    1    1    2    0    0  0.15529158891E+01 -0.18439335469E+02  0.28740754408E+01  0.18726477243E+02  0.00000000000E+00 0. -1.
         11    1    3    3    0    0  0.15978037258E+02 -0.12754613911E+02 -0.13595377486E+02  0.24552232890E+02  0.51100000000E-03 0. -1.
        -11    1    3    3    0    0  0.75019724845E+01  0.50281828645E+01  0.71555891401E+01  0.11522355240E+02  0.51100000000E-03 0.  1.
         12    1    3    3    0    0 -0.25032925632E+02  0.26165766515E+02  0.35657129047E+01  0.36386934627E+02  0.00000000000E+00 0. -1.
</event>
<event>
 7    1  0.3020651E-013  0.7246153E+02  0.7816164E-02  0.1226708E+00
        -11   -1    0    0    0    0  0.00000000000E+00  0.00000000000E+00  0.45593999997E+02  0.45594000000E+02  0.51100000000E-03 0.  1.
         11   -1    0    0    0    0 -0.00000000000E+00 -0.00000000000E+00 -0.45593999997E+02  0.45594000000E+02  0.51100000000E-03 0. -1.
    9900012    2    1    2    0    0 -0.17484679560E+02  0.40618903258E+01  0.53355178472E+01  0.72461528815E+02  0.69999945966E+02 0.  0.
         12    1    1    2    0    0  0.17484679560E+02 -0.40618903258E+01 -0.53355178472E+01  0.18726471185E+02  0.00000000000E+00 0. -1.
         11    1    3    3    0    0  0.19010524982E+02 -0.13996747184E+02 -0.92452251305E+01  0.25353169029E+02  0.51100000000E-03 0. -1.
        -11    1    3    3    0    0 -0.14925785304E+01  0.30729320359E+01 -0.35583047128E+01  0.49327714985E+01  0.51100000000E-03 0.  1.
        -12    1    3    3    0    0 -0.35002626012E+02  0.14985705474E+02  0.18139047691E+02  0.42175588288E+02  0.00000000000E+00 0.  1.
</event>
<event>
 7    1  0.3020651E-013  0.7246157E+02  0.7816164E-02  0.1226708E+00
        -11   -1    0    0    0    0  0.00000000000E+00  0.00000000000E+00  0.45593999997E+02  0.45594000000E+02  0.51100000000E-03 0. -1.
         11   -1    0    0    0    0 -0.00000000000E+00 -0.00000000000E+00 -0.45593999997E+02  0.45594000000E+02  0.51100000000E-03 0.  1.
    9900012    2    1    2    0    0 -0.10734979158E+02  0.14571647102E+02  0.48069154118E+01  0.72461571815E+02  0.70000001981E+02 0.  0.
         12    1    1    2    0    0  0.10734979158E+02 -0.14571647102E+02 -0.48069154118E+01  0.18726428185E+02  0.00000000000E+00 0. -1.
         11    1    3    3    0    0 -0.19395370036E+01  0.51908025913E+01  0.41309376191E+01  0.69116482263E+01  0.51100000000E-03 0. -1.
        -11    1    3    3    0    0  0.58722359906E+01  0.31723580080E+02  0.14601163284E+02  0.35412747114E+02  0.51100000000E-03 0.  1.
        -12    1    3    3    0    0 -0.14667678145E+02 -0.22342735570E+02 -0.13925185492E+02  0.30137176475E+02  0.00000000000E+00 0.  1.
</event>
<event>
 7    1  0.3020651E-013  0.7246156E+02  0.7816164E-02  0.1226708E+00
        -11   -1    0    0    0    0  0.00000000000E+00  0.00000000000E+00  0.45593999997E+02  0.45594000000E+02  0.51100000000E-03 0. -1.
         11   -1    0    0    0    0 -0.00000000000E+00 -0.00000000000E+00 -0.45593999997E+02  0.45594000000E+02  0.51100000000E-03 0.  1.
    9900012    2    1    2    0    0 -0.16649521898E+02 -0.51699688808E+01  0.68369891069E+01  0.72461559396E+02  0.69999985803E+02 0.  0.
         12    1    1    2    0    0  0.16649521898E+02  0.51699688808E+01 -0.68369891069E+01  0.18726440604E+02  0.00000000000E+00 0. -1.
         11    1    3    3    0    0 -0.21069112094E+01  0.13797323151E+02  0.53831288193E+01  0.14959387592E+02  0.51100000000E-03 0. -1.
        -11    1    3    3    0    0 -0.34029557781E+02 -0.94351501616E+01 -0.26933993773E+01  0.35415918198E+02  0.51100000000E-03 0.  1.
         12    1    3    3    0    0  0.19486947092E+02 -0.95321418706E+01  0.41472596648E+01  0.22086253606E+02  0.00000000000E+00 0. -1.
</event>
<event>
 7    1  0.3020651E-013  0.7246148E+02  0.7816164E-02  0.1226708E+00
        -11   -1    0    0    0    0  0.00000000000E+00  0.00000000000E+00  0.45593999997E+02  0.45594000000E+02  0.51100000000E-03 0.  1.
         11   -1    0    0    0    0 -0.00000000000E+00 -0.00000000000E+00 -0.45593999997E+02  0.45594000000E+02  0.51100000000E-03 0. -1.
    9900012    2    1    2    0    0  0.18489830196E+02  0.27394793007E+00 -0.29552983878E+01  0.72461477186E+02  0.69999878709E+02 0.  0.
         12    1    1    2    0    0 -0.18489830196E+02 -0.27394793007E+00  0.29552983878E+01  0.18726522814E+02  0.00000000000E+00 0. -1.
         11    1    3    3    0    0 -0.18709637510E+02  0.11039216567E+02 -0.43822669977E+01  0.22161207153E+02  0.51100000000E-03 0. -1.
        -11    1    3    3    0    0  0.61825127757E+01 -0.86480575549E+01 -0.12350039084E+02  0.16295270152E+02  0.51100000000E-03 0.  1.
        -12    1    3    3    0    0  0.31016954930E+02 -0.21172110822E+01  0.13777007694E+02  0.34004999881E+02  0.00000000000E+00 0.  1.
</event>
<event>
 7    1  0.3020651E-013  0.7246164E+02  0.7816164E-02  0.1226708E+00
        -11   -1    0    0    0    0  0.00000000000E+00  0.00000000000E+00  0.45593999997E+02  0.45594000000E+02  0.51100000000E-03 0.  1.
         11   -1    0    0    0    0 -0.00000000000E+00 -0.00000000000E+00 -0.45593999997E+02  0.45594000000E+02  0.51100000000E-03 0. -1.
    9900012    2    1    2    0    0 -0.14050222397E+01  0.18109344462E+02  0.45556761510E+01  0.72461638113E+02  0.70000088346E+02 0.  0.
         12    1    1    2    0    0  0.14050222397E+01 -0.18109344462E+02 -0.45556761510E+01  0.18726361887E+02  0.00000000000E+00 0. -1.
         11    1    3    3    0    0 -0.98445318168E+01 -0.16352707099E+02  0.11209508942E+02  0.22135467629E+02  0.51100000000E-03 0. -1.
        -11    1    3    3    0    0 -0.98930768943E+01  0.20074365460E+01  0.50098009961E+01  0.11269466634E+02  0.51100000000E-03 0.  1.
        -12    1    3    3    0    0  0.18332586471E+02  0.32454615015E+02 -0.11663633788E+02  0.39056703850E+02  0.00000000000E+00 0.  1.
</event>
<event>
 7    1  0.3020651E-013  0.7246153E+02  0.7816164E-02  0.1226708E+00
        -11   -1    0    0    0    0  0.00000000000E+00  0.00000000000E+00  0.45593999997E+02  0.45594000000E+02  0.51100000000E-03 0.  1.
         11   -1    0    0    0    0 -0.00000000000E+00 -0.00000000000E+00 -0.45593999997E+02  0.45594000000E+02  0.51100000000E-03 0. -1.
    9900012    2    1    2    0    0  0.10365212224E+02 -0.45497334017E+01  0.14917873593E+02  0.72461530738E+02  0.69999948471E+02 0.  0.
         12    1    1    2    0    0 -0.10365212224E+02  0.45497334017E+01 -0.14917873593E+02  0.18726469262E+02  0.00000000000E+00 0. -1.
         11    1    3    3    0    0  0.10290784204E-01  0.51627062027E+01 -0.67068891429E+00  0.52060988385E+01  0.51100000000E-03 0. -1.
        -11    1    3    3    0    0  0.28310627030E+02 -0.22034166826E+02 -0.62494783563E+01  0.36414998153E+02  0.51100000000E-03 0.  1.
         12    1    3    3    0    0 -0.17955705589E+02  0.12321727221E+02  0.21838040863E+02  0.30840433747E+02  0.00000000000E+00 0. -1.
</event>
<event>
 7    1  0.3020651E-013  0.7246157E+02  0.7816164E-02  0.1226708E+00
        -11   -1    0    0    0    0  0.00000000000E+00  0.00000000000E+00  0.45593999997E+02  0.45594000000E+02  0.51100000000E-03 0. -1.
         11   -1    0    0    0    0 -0.00000000000E+00 -0.00000000000E+00 -0.45593999997E+02  0.45594000000E+02  0.51100000000E-03 0.  1.
    9900012    2    1    2    0    0  0.13764871814E+02 -0.79403596471E+01 -0.99074830521E+01  0.72461568738E+02  0.69999997973E+02 0.  0.
         12    1    1    2    0    0 -0.13764871814E+02  0.79403596471E+01  0.99074830521E+01  0.18726431262E+02  0.00000000000E+00 0. -1.
         11    1    3    3    0    0  0.32104315119E+02 -0.65990743366E+01  0.58804326251E+01  0.33298863637E+02  0.51100000000E-03 0. -1.
        -11    1    3    3    0    0 -0.19243381896E+01 -0.10740973180E+02  0.41545567844E+01  0.11676126269E+02  0.51100000000E-03 0.  1.
        -12    1    3    3    0    0 -0.16415105116E+02  0.93996878692E+01 -0.19942472462E+02  0.27486578832E+02  0.00000000000E+00 0.  1.
</event>
<event>
 7    1  0.3020651E-013  0.7246159E+02  0.7816164E-02  0.1226708E+00
        -11   -1    0    0    0    0  0.00000000000E+00  0.00000000000E+00  0.45593999997E+02  0.45594000000E+02  0.51100000000E-03 0.  1.
         11   -1    0    0    0    0 -0.00000000000E+00 -0.00000000000E+00 -0.45593999997E+02  0.45594000000E+02  0.51100000000E-03 0. -1.
    9900012    2    1    2    0    0 -0.24856655862E+01  0.62929280749E+01  0.17461352840E+02  0.72461592973E+02  0.70000029543E+02 0.  0.
         12    1    1    2    0    0  0.24856655862E+01 -0.62929280749E+01 -0.17461352840E+02  0.18726407027E+02  0.00000000000E+00 0. -1.
         11    1    3    3    0    0  0.11328350941E+02 -0.17754802660E+02 -0.95521028292E+01  0.23125899361E+02  0.51100000000E-03 0. -1.
        -11    1    3    3    0    0 -0.11653891529E+01 -0.72797620647E+01  0.34121148507E+01  0.81237673288E+01  0.51100000000E-03 0.  1.
        -12    1    3    3    0    0 -0.12648627375E+02  0.31327492799E+02  0.23601340818E+02  0.41211926283E+02  0.00000000000E+00 0.  1.
</event>
<event>
 7    1  0.3020651E-013  0.7246187E+02  0.7816164E-02  0.1226707E+00
        -11   -1    0    0    0    0  0.00000000000E+00  0.00000000000E+00  0.45593999997E+02  0.45594000000E+02  0.51100000000E-03 0.  1.
         11   -1    0    0    0    0 -0.00000000000E+00 -0.00000000000E+00 -0.45593999997E+02  0.45594000000E+02  0.51100000000E-03 0. -1.
    9900012    2    1    2    0    0 -0.17654574845E+02  0.61967796330E+01 -0.76412610321E+00  0.72461869073E+02  0.70000389214E+02 0.  0.
         12    1    1    2    0    0  0.17654574845E+02 -0.61967796330E+01  0.76412610321E+00  0.18726130927E+02  0.00000000000E+00 0. -1.
         11    1    3    3    0    0 -0.14096519127E+02 -0.14516978349E+02 -0.64359917099E+01  0.21233852722E+02  0.51100000000E-03 0. -1.
        -11    1    3    3    0    0 -0.24482576188E+02  0.14075610517E+02  0.74420961274E+01  0.29204522651E+02  0.51100000000E-03 0.  1.
         12    1    3    3    0    0  0.20924520470E+02  0.66381474651E+01 -0.17702305207E+01  0.22023493700E+02  0.00000000000E+00 0. -1.
</event>
<event>
 7    1  0.3020651E-013  0.7246156E+02  0.7816164E-02  0.1226708E+00
        -11   -1    0    0    0    0  0.00000000000E+00  0.00000000000E+00  0.45593999997E+02  0.45594000000E+02  0.51100000000E-03 0. -1.
         11   -1    0    0    0    0 -0.00000000000E+00 -0.00000000000E+00 -0.45593999997E+02  0.45594000000E+02  0.51100000000E-03 0.  1.
    9900012    2    1    2    0    0 -0.90008737760E+00 -0.18183748483E+02 -0.43841590018E+01  0.72461555694E+02  0.69999980980E+02 0.  0.
         12    1    1    2    0    0  0.90008737760E+00  0.18183748483E+02  0.43841590018E+01  0.18726444306E+02  0.00000000000E+00 0. -1.
         11    1    3    3    0    0 -0.62706621721E+01  0.12158586005E+02  0.11320649899E+02  0.17756957288E+02  0.51100000000E-03 0. -1.
        -11    1    3    3    0    0 -0.15622365157E+02 -0.12369035977E+02 -0.18159919155E+02  0.26959859200E+02  0.51100000000E-03 0.  1.
        -12    1    3    3    0    0  0.20992939952E+02 -0.17973298512E+02  0.24551102549E+01  0.27744739206E+02  0.00000000000E+00 0.  1.
</event>
<event>
 7    1  0.3020651E-013  0.7246154E+02  0.7816164E-02  0.1226708E+00
        -11   -1    0    0    0    0  0.00000000000E+00  0.00000000000E+00  0.45593999997E+02  0.45594000000E+02  0.51100000000E-03 0.  1.
         11   -1    0    0    0    0 -0.00000000000E+00 -0.00000000000E+00 -0.45593999997E+02  0.45594000000E+02  0.51100000000E-03 0. -1.
    9900012    2    1    2    0    0  0.37897116785E-01 -0.10620044154E+02  0.15423796876E+02  0.72461540535E+02  0.69999961232E+02 0.  0.
         12    1    1    2    0    0 -0.37897116785E-01  0.10620044154E+02 -0.15423796876E+02  0.18726459465E+02  0.00000000000E+00 0. -1.
         11    1    3    3    0    0  0.15438794618E+02 -0.12054384574E+02 -0.79871456459E+01  0.21153228183E+02  0.51100000000E-03 0. -1.
        -11    1    3    3    0    0  0.13275281462E+02 -0.32936012754E+01 -0.47943726815E+00  0.13686152403E+02  0.51100000000E-03 0.  1.
        -12    1    3    3    0    0 -0.28676178963E+02  0.47279416956E+01  0.23890379791E+02  0.37622159948E+02  0.00000000000E+00 0.  1.
</event>
<event>
 7    1  0.3020651E-013  0.7246156E+02  0.7816164E-02  0.1226708E+00
        -11   -1    0    0    0    0  0.00000000000E+00  0.00000000000E+00  0.45593999997E+02  0.45594000000E+02  0.51100000000E-03 0. -1.
         11   -1    0    0    0    0 -0.00000000000E+00 -0.00000000000E+00 -0.45593999997E+02  0.45594000000E+02  0.51100000000E-03 0.  1.
    9900012    2    1    2    0    0  0.12828605121E+02  0.12012823478E+02 -0.64651699760E+01  0.72461562536E+02  0.69999989893E+02 0.  0.
         12    1    1    2    0    0 -0.12828605121E+02 -0.12012823478E+02  0.64651699760E+01  0.18726437464E+02  0.00000000000E+00 0. -1.
         11    1    3    3    0    0  0.30854924456E+02  0.28187819980E+01 -0.90335381045E+01  0.32273467525E+02  0.51100000000E-03 0. -1.
        -11    1    3    3    0    0  0.14545122663E-01  0.13512614161E+02  0.13130439435E+02  0.18841427574E+02  0.51100000000E-03 0.  1.
        -12    1    3    3    0    0 -0.18040864458E+02 -0.43185726804E+01 -0.10562071306E+02  0.21346667437E+02  0.00000000000E+00 0.  1.
</event>
<event>
 7    1  0.3020651E-013  0.7246156E+02  0.7816164E-02  0.1226708E+00
        -11   -1    0    0    0    0  0.00000000000E+00  0.00000000000E+00  0.45593999997E+02  0.45594000000E+02  0.51100000000E-03 0.  1.
         11   -1    0    0    0    0 -0.00000000000E+00 -0.00000000000E+00 -0.45593999997E+02  0.45594000000E+02  0.51100000000E-03 0. -1.
    9900012    2    1    2    0    0 -0.65206218254E+01 -0.16706834861E+02 -0.53891365798E+01  0.72461557916E+02  0.69999983875E+02 0.  0.
         12    1    1    2    0    0  0.65206218254E+01  0.16706834861E+02  0.53891365798E+01  0.18726442084E+02  0.00000000000E+00 0. -1.
         11    1    3    3    0    0  0.94798994899E+00 -0.19105781919E+02  0.21632159160E+01  0.19251210118E+02  0.51100000000E-03 0.  1.
        -11    1    3    3    0    0 -0.25286953456E+02  0.15048444809E+02  0.17121117381E+01  0.29475702420E+02  0.51100000000E-03 0. -1.
         12    1    3    3    0    0  0.17818341682E+02 -0.12649497752E+02 -0.92644642339E+01  0.23734645378E+02  0.00000000000E+00 0. -1.
</event>
<event>
 7    1  0.3020651E-013  0.7246155E+02  0.7816164E-02  0.1226708E+00
        -11   -1    0    0    0    0  0.00000000000E+00  0.00000000000E+00  0.45593999997E+02  0.45594000000E+02  0.51100000000E-03 0.  1.
         11   -1    0    0    0    0 -0.00000000000E+00 -0.00000000000E+00 -0.45593999997E+02  0.45594000000E+02  0.51100000000E-03 0. -1.
    9900012    2    1    2    0    0  0.11193240524E+02  0.13956654382E+02  0.55320036755E+01  0.72461550800E+02  0.69999974605E+02 0.  0.
         12    1    1    2    0    0 -0.11193240524E+02 -0.13956654382E+02 -0.55320036755E+01  0.18726449200E+02  0.00000000000E+00 0. -1.
         11    1    3    3    0    0  0.26095923050E+02  0.40092085373E+01 -0.16922797264E+02  0.31360038591E+02  0.51100000000E-03 0. -1.
        -11    1    3    3    0    0 -0.13507225757E+02  0.42344199025E+01 -0.34233934748E+01  0.14563484566E+02  0.51100000000E-03 0.  1.
        -12    1    3    3    0    0 -0.13954567679E+01  0.57130259426E+01  0.25878194414E+02  0.26538027643E+02  0.00000000000E+00 0.  1.
</event>
<event>
 7    1  0.3020651E-013  0.7246154E+02  0.7816164E-02  0.1226708E+00
        -11   -1    0    0    0    0  0.00000000000E+00  0.00000000000E+00  0.45593999997E+02  0.45594000000E+02  0.51100000000E-03 0. -1.
         11   -1    0    0    0    0 -0.00000000000E+00 -0.00000000000E+00 -0.45593999997E+02  0.45594000000E+02  0.51100000000E-03 0.  1.
    9900012    2    1    2    0    0  0.12412758953E+02  0.10552678189E+02 -0.92327963886E+01  0.72461544624E+02  0.69999966560E+02 0.  0.
         12    1    1    2    0    0 -0.12412758953E+02 -0.10552678189E+02  0.92327963886E+01  0.18726455376E+02  0.00000000000E+00 0. -1.
         11    1    3    3    0    0 -0.12364599661E+02 -0.68980246709E+01 -0.12151446503E+02  0.18658073896E+02  0.51100000000E-03 0.  1.
        -11    1    3    3    0    0  0.54952178179E+01  0.14120407939E+02 -0.19077996857E+02  0.24362949403E+02  0.51100000000E-03 0. -1.
        -12    1    3    3    0    0  0.19282140796E+02  0.33302949203E+01  0.21996646972E+02  0.29440521326E+02  0.00000000000E+00 0.  1.
</event>
<event>
 7    1  0.3020651E-013  0.7246153E+02  0.7816164E-02  0.1226708E+00
        -11   -1    0    0    0    0  0.00000000000E+00  0.00000000000E+00  0.45593999997E+02  0.45594000000E+02  0.51100000000E-03 0. -1.
         11   -1    0    0    0    0 -0.00000000000E+00 -0.00000000000E+00 -0.45593999997E+02  0.45594000000E+02  0.51100000000E-03 0.  1.
    9900012    2    1    2    0    0 -0.16703557682E+02 -0.53426095811E+01 -0.65672281995E+01  0.72461526691E+02  0.69999943198E+02 0.  0.
         12    1    1    2    0    0  0.16703557682E+02  0.53426095811E+01  0.65672281995E+01  0.18726473309E+02  0.00000000000E+00 0. -1.
         11    1    3    3    0    0  0.89745657787E+00  0.21851973109E+02 -0.34334407208E+01  0.22138262635E+02  0.51100000000E-03 0. -1.
        -11    1    3    3    0    0  0.42319331462E+01  0.50074989981E+01  0.75283961341E+01  0.99830382642E+01  0.51100000000E-03 0.  1.
         12    1    3    3    0    0 -0.21832947406E+02 -0.32202081688E+02 -0.10662183613E+02  0.40340225791E+02  0.00000000000E+00 0. -1.
</event>
<event>
 7    1  0.3020651E-013  0.7246184E+02  0.7816164E-02  0.1226707E+00
        -11   -1    0    0    0    0  0.00000000000E+00  0.00000000000E+00  0.45593999997E+02  0.45594000000E+02  0.51100000000E-03 0. -1.
         11   -1    0    0    0    0 -0.00000000000E+00 -0.00000000000E+00 -0.45593999997E+02  0.45594000000E+02  0.51100000000E-03 0.  1.
    9900012    2    1    2    0    0  0.13878080269E+02 -0.10161534808E+02 -0.74034689884E+01  0.72461835025E+02  0.70000344860E+02 0.  0.
         12    1    1    2    0    0 -0.13878080269E+02  0.10161534808E+02  0.74034689884E+01  0.18726164975E+02  0.00000000000E+00 0. -1.
         11    1    3    3    0    0 -0.16438220005E+02 -0.24305288708E+02  0.24677664138E+01  0.29445746848E+02  0.51100000000E-03 0. -1.
        -11    1    3    3    0    0  0.14091796499E+02  0.41013949314E+01 -0.17169105678E+02  0.22587128170E+02  0.51100000000E-03 0.  1.
        -12    1    3    3    0    0  0.16224503775E+02  0.10042358968E+02  0.72978702757E+01  0.20428960007E+02  0.00000000000E+00 0.  1.
</event>
<event>
 7    1  0.3020651E-013  0.7246160E+02  0.7816164E-02  0.1226708E+00
        -11   -1    0    0    0    0  0.00000000000E+00  0.00000000000E+00  0.45593999997E+02  0.45594000000E+02  0.51100000000E-03 0.  1.
         11   -1    0    0    0    0 -0.00000000000E+00 -0.00000000000E+00 -0.45593999997E+02  0.45594000000E+02  0.51100000000E-03 0. -1.
    9900012    2    1    2    0    0  0.16588355347E+02 -0.50598360403E+01  0.70641663488E+01  0.72461603655E+02  0.70000043458E+02 0.  0.
         12    1    1    2    0    0 -0.16588355347E+02  0.50598360403E+01 -0.70641663488E+01  0.18726396345E+02  0.00000000000E+00 0. -1.
         11    1    3    3    0    0  0.20298133357E+01 -0.22311604856E+01 -0.21986334664E+02  0.22192276393E+02  0.51100000000E-03 0. -1.
        -11    1    3    3    0    0 -0.84999003801E+01  0.11081009607E+02  0.80479996421E+01  0.16118541463E+02  0.51100000000E-03 0.  1.
        -12    1    3    3    0    0  0.23058442392E+02 -0.13909685162E+02  0.21002501371E+02  0.34150785799E+02  0.00000000000E+00 0.  1.
</event>
<event>
 7    1  0.3020651E-013  0.7246155E+02  0.7816164E-02  0.1226708E+00
        -11   -1    0    0    0    0  0.00000000000E+00  0.00000000000E+00  0.45593999997E+02  0.45594000000E+02  0.51100000000E-03 0. -1.
         11   -1    0    0    0    0 -0.00000000000E+00 -0.00000000000E+00 -0.45593999997E+02  0.45594000000E+02  0.51100000000E-03 0.  1.
    9900012    2    1    2    0    0  0.35037951950E+01  0.17524479045E+02 -0.55942802023E+01  0.72461550322E+02  0.69999973982E+02 0.  0.
         12    1    1    2    0    0 -0.35037951950E+01 -0.17524479045E+02  0.55942802023E+01  0.18726449678E+02  0.00000000000E+00 0. -1.
         11    1    3    3    0    0 -0.49521083503E+01  0.12278013751E+02 -0.61646256338E+01  0.14603958650E+02  0.51100000000E-03 0. -1.
        -11    1    3    3    0    0 -0.10157490272E+02  0.26712954816E+02 -0.46930203253E+01  0.28961716173E+02  0.51100000000E-03 0.  1.
         12    1    3    3    0    0  0.18613393817E+02 -0.21466489522E+02  0.52633657568E+01  0.28895875499E+02  0.00000000000E+00 0. -1.
</event>
<event>
 7    1  0.3020651E-013  0.7246161E+02  0.7816164E-02  0.1226708E+00
        -11   -1    0    0    0    0  0.00000000000E+00  0.00000000000E+00  0.45593999997E+02  0.45594000000E+02  0.51100000000E-03 0.  1.
         11   -1    0    0    0    0 -0.00000000000E+00 -0.00000000000E+00 -0.45593999997E+02  0.45594000000E+02  0.51100000000E-03 0. -1.
    9900012    2    1    2    0    0 -0.15129570033E+02  0.79066272391E+01 -0.76979918797E+01  0.72461608926E+02  0.70000050324E+02 0.  0.
         12    1    1    2    0    0  0.15129570033E+02 -0.79066272391E+01  0.76979918797E+01  0.18726391074E+02  0.00000000000E+00 0. -1.
         11    1    3    3    0    0 -0.85119181591E+01  0.10527830538E+02 -0.14395103856E+02  0.19761249502E+02  0.51100000000E-03 0. -1.
        -11    1    3    3    0    0 -0.29031750934E+02 -0.22879852234E+01 -0.59407237704E+00  0.29127827947E+02  0.51100000000E-03 0.  1.
        -12    1    3    3    0    0  0.22414099060E+02 -0.33321807571E+00  0.72911843535E+01  0.23572531477E+02  0.00000000000E+00 0.  1.
</event>
<event>
 7    1  0.3020651E-013  0.7246154E+02  0.7816164E-02  0.1226708E+00
        -11   -1    0    0    0    0  0.00000000000E+00  0.00000000000E+00  0.45593999997E+02  0.45594000000E+02  0.51100000000E-03 0. -1.
         11   -1    0    0    0    0 -0.00000000000E+00 -0.00000000000E+00 -0.45593999997E+02  0.45594000000E+02  0.51100000000E-03 0.  1.
    9900012    2    1    2    0    0  0.59872820751E+01 -0.39601959381E+00 -0.17739109939E+02  0.72461537451E+02  0.69999957215E+02 0.  0.
         12    1    1    2    0    0 -0.59872820751E+01  0.39601959381E+00  0.17739109939E+02  0.18726462549E+02  0.00000000000E+00 0. -1.
         11    1    3    3    0    0  0.13323143418E+02 -0.20150221246E+02 -0.18209285839E+02  0.30250878629E+02  0.51100000000E-03 0. -1.
        -11    1    3    3    0    0  0.18134142873E+01  0.13898779211E+02 -0.16756019628E+02  0.21845565430E+02  0.51100000000E-03 0.  1.
         12    1    3    3    0    0 -0.91492756303E+01  0.58554224412E+01  0.17226195528E+02  0.20365093392E+02  0.00000000000E+00 0. -1.
</event>
<event>
 7    1  0.3020651E-013  0.7246156E+02  0.7816164E-02  0.1226708E+00
        -11   -1    0    0    0    0  0.00000000000E+00  0.00000000000E+00  0.45593999997E+02  0.45594000000E+02  0.51100000000E-03 0. -1.
         11   -1    0    0    0    0 -0.00000000000E+00 -0.00000000000E+00 -0.45593999997E+02  0.45594000000E+02  0.51100000000E-03 0.  1.
    9900012    2    1    2    0    0 -0.99269851772E+01 -0.15153490581E+02 -0.47440706001E+01  0.72461561007E+02  0.69999987902E+02 0.  0.
         12    1    1    2    0    0  0.99269851772E+01  0.15153490581E+02  0.47440706001E+01  0.18726438993E+02  0.00000000000E+00 0. -1.
         11    1    3    3    0    0  0.35806246873E+01  0.32771628364E+01  0.23503781377E+02  0.23999758513E+02  0.51100000000E-03 0. -1.
        -11    1    3    3    0    0 -0.12565647130E+02  0.46950237717E+01 -0.21600652297E+01  0.13586928206E+02  0.51100000000E-03 0.  1.
        -12    1    3    3    0    0 -0.94196273454E+00 -0.23125677189E+02 -0.26087786748E+02  0.34874874288E+02  0.00000000000E+00 0.  1.
</event>
<event>
 7    1  0.3020651E-013  0.7246154E+02  0.7816164E-02  0.1226708E+00
        -11   -1    0    0    0    0  0.00000000000E+00  0.00000000000E+00  0.45593999997E+02  0.45594000000E+02  0.51100000000E-03 0. -1.
         11   -1    0    0    0    0 -0.00000000000E+00 -0.00000000000E+00 -0.45593999997E+02  0.45594000000E+02  0.51100000000E-03 0.  1.
    9900012    2    1    2    0    0 -0.73586740227E+01  0.76353286370E+01 -0.15434765328E+02  0.72461539910E+02  0.69999960419E+02 0.  0.
         12    1    1    2    0    0  0.73586740227E+01 -0.76353286370E+01  0.15434765328E+02  0.18726460090E+02  0.00000000000E+00 0. -1.
         11    1    3    3    0    0  0.14196960243E+02  0.23779756822E+02  0.69138519886E+01  0.28545259926E+02  0.51100000000E-03 0. -1.
        -11    1    3    3    0    0 -0.43646744017E+01  0.73858775750E+01 -0.38807367702E+01  0.94160335772E+01  0.51100000000E-03 0.  1.
        -12    1    3    3    0    0 -0.17190959864E+02 -0.23530305760E+02 -0.18467880547E+02  0.34500246407E+02  0.00000000000E+00 0.  1.
</event>
<event>
 7    1  0.3020651E-013  0.7246158E+02  0.7816164E-02  0.1226708E+00
        -11   -1    0    0    0    0  0.00000000000E+00  0.00000000000E+00  0.45593999997E+02  0.45594000000E+02  0.51100000000E-03 0. -1.
         11   -1    0    0    0    0 -0.00000000000E+00 -0.00000000000E+00 -0.45593999997E+02  0.45594000000E+02  0.51100000000E-03 0.  1.
    9900012    2    1    2    0    0  0.10568172569E+01  0.14496141782E+02 -0.11807781895E+02  0.72461582763E+02  0.70000016242E+02 0.  0.
         12    1    1    2    0    0 -0.10568172569E+01 -0.14496141782E+02  0.11807781895E+02  0.18726417237E+02  0.00000000000E+00 0. -1.
         11    1    3    3    0    0  0.15741392912E+02  0.34717121726E+01  0.52082656664E+01  0.16940196803E+02  0.51100000000E-03 0. -1.
        -11    1    3    3    0    0  0.17944692591E+02  0.83689985378E+01 -0.35166508418E+01  0.20110170614E+02  0.51100000000E-03 0.  1.
         12    1    3    3    0    0 -0.32629268246E+02  0.26554310716E+01 -0.13499396719E+02  0.35411215345E+02  0.00000000000E+00 0. -1.
</event>
<event>
 7    1  0.3020651E-013  0.7246170E+02  0.7816164E-02  0.1226708E+00
        -11   -1    0    0    0    0  0.00000000000E+00  0.00000000000E+00  0.45593999997E+02  0.45594000000E+02  0.51100000000E-03 0.  1.
         11   -1    0    0    0    0 -0.00000000000E+00 -0.00000000000E+00 -0.45593999997E+02  0.45594000000E+02  0.51100000000E-03 0. -1.
    9900012    2    1    2    0    0 -0.11837674711E+02 -0.14447544467E+02  0.13461719024E+01  0.72461701314E+02  0.70000170677E+02 0.  0.
         12    1    1    2    0    0  0.11837674711E+02  0.14447544467E+02 -0.13461719024E+01  0.18726298686E+02  0.00000000000E+00 0. -1.
         11    1    3    3    0    0 -0.29024394500E+02 -0.13726116078E+02 -0.13735976015E+02  0.34921322656E+02  0.51100000000E-03 0. -1.
        -11    1    3    3    0    0 -0.48046179813E+01  0.74817220617E+01 -0.12030187806E+01  0.89726124068E+01  0.51100000000E-03 0.  1.
         12    1    3    3    0    0  0.21991337770E+02 -0.82031504503E+01  0.16285166698E+02  0.28567766252E+02  0.00000000000E+00 0. -1.
</event>
<event>
 7    1  0.3020651E-013  0.7246154E+02  0.7816164E-02  0.1226708E+00
        -11   -1    0    0    0    0  0.00000000000E+00  0.00000000000E+00  0.45593999997E+02  0.45594000000E+02  0.51100000000E-03 0. -1.
         11   -1    0    0    0    0 -0.00000000000E+00 -0.00000000000E+00 -0.45593999997E+02  0.45594000000E+02  0.51100000000E-03 0.  1.
    9900012    2    1    2    0    0  0.18259081364E+02 -0.39834900994E+01 -0.11907981486E+01  0.72461541556E+02  0.69999962563E+02 0.  0.
         12    1    1    2    0    0 -0.18259081364E+02  0.39834900994E+01  0.11907981486E+01  0.18726458444E+02  0.00000000000E+00 0. -1.
         11    1    3    3    0    0 -0.16981761108E+02 -0.14668975051E+02 -0.62896526752E+00  0.22448933982E+02  0.51100000000E-03 0. -1.
        -11    1    3    3    0    0  0.27849973587E+01 -0.13473005762E+00 -0.13237477836E+02  0.13527940796E+02  0.51100000000E-03 0.  1.
         12    1    3    3    0    0  0.32455845113E+02  0.10820215009E+02  0.12675644955E+02  0.36484666777E+02  0.00000000000E+00 0. -1.
</event>
<event>
 7    1  0.3020651E-013  0.7246161E+02  0.7816164E-02  0.1226708E+00
        -11   -1    0    0    0    0  0.00000000000E+00  0.00000000000E+00  0.45593999997E+02  0.45594000000E+02  0.51100000000E-03 0.  1.
         11   -1    0    0    0    0 -0.00000000000E+00 -0.00000000000E+00 -0.45593999997E+02  0.45594000000E+02  0.51100000000E-03 0. -1.
    9900012    2    1    2    0    0 -0.18315202264E+02 -0.20191755603E+01  0.33397470429E+01  0.72461611821E+02  0.70000054096E+02 0.  0.
         12    1    1    2    0    0  0.18315202264E+02  0.20191755603E+01 -0.33397470429E+01  0.18726388179E+02  0.00000000000E+00 0. -1.
         11    1    3    3    0    0 -0.34968480365E+01  0.84903833636E-01 -0.24404233525E+01  0.42650699000E+01  0.51100000000E-03 0. -1.
        -11    1    3    3    0    0 -0.15641165359E+02 -0.31806270516E+02 -0.65180356314E+01  0.36038447340E+02  0.51100000000E-03 0.  1.
         12    1    3    3    0    0  0.82281113117E+00  0.29702191122E+02  0.12298206027E+02  0.32158094581E+02  0.00000000000E+00 0. -1.
</event>
<event>
 7    1  0.3020651E-013  0.7246157E+02  0.7816164E-02  0.1226708E+00
        -11   -1    0    0    0    0  0.00000000000E+00  0.00000000000E+00  0.45593999997E+02  0.45594000000E+02  0.51100000000E-03 0. -1.
         11   -1    0    0    0    0 -0.00000000000E+00 -0.00000000000E+00 -0.45593999997E+02  0.45594000000E+02  0.51100000000E-03 0.  1.
    9900012    2    1    2    0    0 -0.83726270685E+00 -0.68733215806E-01 -0.18707572716E+02  0.72461574553E+02  0.70000005547E+02 0.  0.
         12    1    1    2    0    0  0.83726270685E+00  0.68733215806E-01  0.18707572716E+02  0.18726425447E+02  0.00000000000E+00 0. -1.
         11    1    3    3    0    0  0.77500030370E+01  0.13846151444E+02 -0.21955545302E+01  0.16018705217E+02  0.51100000000E-03 0. -1.
        -11    1    3    3    0    0 -0.57518473990E+01  0.89635693710E+01 -0.28524141275E+02  0.30447593667E+02  0.51100000000E-03 0.  1.
         12    1    3    3    0    0 -0.28354183449E+01 -0.22878454030E+02  0.12012123089E+02  0.25995275669E+02  0.00000000000E+00 0. -1.
</event>
<event>
 7    1  0.3020651E-013  0.7246156E+02  0.7816164E-02  0.1226708E+00
        -11   -1    0    0    0    0  0.00000000000E+00  0.00000000000E+00  0.45593999997E+02  0.45594000000E+02  0.51100000000E-03 0. -1.
         11   -1    0    0    0    0 -0.00000000000E+00 -0.00000000000E+00 -0.45593999997E+02  0.45594000000E+02  0.51100000000E-03 0.  1.
    9900012    2    1    2    0    0  0.91277749287E+01 -0.15822218262E+02 -0.41256093964E+01  0.72461560969E+02  0.69999987852E+02 0.  0.
         12    1    1    2    0    0 -0.91277749287E+01  0.15822218262E+02  0.41256093964E+01  0.18726439031E+02  0.00000000000E+00 0. -1.
         11    1    3    3    0    0  0.79993688029E+01  0.16786521627E+02 -0.72168718464E+01  0.19946439509E+02  0.51100000000E-03 0. -1.
        -11    1    3    3    0    0  0.67141915342E+01  0.59904475283E+01 -0.79222324159E+01  0.11988644471E+02  0.51100000000E-03 0.  1.
         12    1    3    3    0    0 -0.55857854084E+01 -0.38599187418E+02  0.11013494866E+02  0.40526476989E+02  0.00000000000E+00 0. -1.
</event>
<event>
 7    1  0.3020651E-013  0.7246158E+02  0.7816164E-02  0.1226708E+00
        -11   -1    0    0    0    0  0.00000000000E+00  0.00000000000E+00  0.45593999997E+02  0.45594000000E+02  0.51100000000E-03 0.  1.
         11   -1    0    0    0    0 -0.00000000000E+00 -0.00000000000E+00 -0.45593999997E+02  0.45594000000E+02  0.51100000000E-03 0. -1.
    9900012    2    1    2    0    0  0.64230044371E+01  0.71082747367E+01  0.16090249609E+02  0.72461583146E+02  0.70000016741E+02 0.  0.
         12    1    1    2    0    0 -0.64230044371E+01 -0.71082747367E+01 -0.16090249609E+02  0.18726416854E+02  0.00000000000E+00 0. -1.
         11    1    3    3    0    0  0.31697534356E+01 -0.11900543895E+02  0.34520198149E+01  0.12790102537E+02  0.51100000000E-03 0. -1.
        -11    1    3    3    0    0 -0.22464004368E+02  0.85514178194E+01  0.19639934016E+02  0.31040058753E+02  0.51100000000E-03 0.  1.
        -12    1    3    3    0    0  0.25717255370E+02  0.10457400812E+02 -0.70017042220E+01  0.28631421856E+02  0.00000000000E+00 0.  1.
</event>
<event>
 7    1  0.3020651E-013  0.7246146E+02  0.7816164E-02  0.1226708E+00
        -11   -1    0    0    0    0  0.00000000000E+00  0.00000000000E+00  0.45593999997E+02  0.45594000000E+02  0.51100000000E-03 0.  1.
         11   -1    0    0    0    0 -0.00000000000E+00 -0.00000000000E+00 -0.45593999997E+02  0.45594000000E+02  0.51100000000E-03 0. -1.
    9900012    2    1    2    0    0  0.11666733582E+02  0.52766282915E+01  0.13664844397E+02  0.72461455978E+02  0.69999851082E+02 0.  0.
         12    1    1    2    0    0 -0.11666733582E+02 -0.52766282915E+01 -0.13664844397E+02  0.18726544022E+02  0.00000000000E+00 0. -1.
         11    1    3    3    0    0  0.10240933747E+02 -0.25729987723E+02 -0.76052044724E+01  0.28718428361E+02  0.51100000000E-03 0. -1.
        -11    1    3    3    0    0 -0.86855730992E+01  0.13231591625E+02  0.25750767377E+01  0.16035748111E+02  0.51100000000E-03 0.  1.
        -12    1    3    3    0    0  0.10111372934E+02  0.17775024389E+02  0.18694972132E+02  0.27707279506E+02  0.00000000000E+00 0.  1.
</event>
<event>
 7    1  0.3020651E-013  0.7246167E+02  0.7816164E-02  0.1226708E+00
        -11   -1    0    0    0    0  0.00000000000E+00  0.00000000000E+00  0.45593999997E+02  0.45594000000E+02  0.51100000000E-03 0.  1.
         11   -1    0    0    0    0 -0.00000000000E+00 -0.00000000000E+00 -0.45593999997E+02  0.45594000000E+02  0.51100000000E-03 0. -1.
    9900012    2    1    2    0    0 -0.53520332227E+01  0.14332733326E+02  0.10798337374E+02  0.72461665755E+02  0.70000124355E+02 0.  0.
         12    1    1    2    0    0  0.53520332227E+01 -0.14332733326E+02 -0.10798337374E+02  0.18726334245E+02  0.00000000000E+00 0. -1.
         11    1    3    3    0    0  0.62762796008E+00 -0.21080103438E+01 -0.11905591760E+02  0.12107053311E+02  0.51100000000E-03 0. -1.
        -11    1    3    3    0    0  0.36975498841E+01 -0.10129903101E+02  0.29382297366E+02  0.31298661485E+02  0.51100000000E-03 0.  1.
         12    1    3    3    0    0 -0.96772110669E+01  0.26570646772E+02 -0.66783682322E+01  0.29055950959E+02  0.00000000000E+00 0. -1.
</event>
<event>
 7    1  0.3020651E-013  0.7246182E+02  0.7816164E-02  0.1226707E+00
        -11   -1    0    0    0    0  0.00000000000E+00  0.00000000000E+00  0.45593999997E+02  0.45594000000E+02  0.51100000000E-03 0. -1.
         11   -1    0    0    0    0 -0.00000000000E+00 -0.00000000000E+00 -0.45593999997E+02  0.45594000000E+02  0.51100000000E-03 0.  1.
    9900012    2    1    2    0    0 -0.17437201823E+02 -0.64549502749E+01  0.22242674734E+01  0.72461821633E+02  0.70000327414E+02 0.  0.
         12    1    1    2    0    0  0.17437201823E+02  0.64549502749E+01 -0.22242674734E+01  0.18726178367E+02  0.00000000000E+00 0. -1.
         11    1    3    3    0    0  0.80945443527E+01  0.12488982096E+02  0.20495044924E+02  0.25328702864E+02  0.51100000000E-03 0. -1.
        -11    1    3    3    0    0 -0.80476854687E+00  0.25033146646E+01 -0.13857267466E+02  0.14104541772E+02  0.51100000000E-03 0.  1.
        -12    1    3    3    0    0 -0.24726977628E+02 -0.21447247036E+02 -0.44135099844E+01  0.33028576997E+02  0.00000000000E+00 0.  1.
</event>
<event>
 7    1  0.3020651E-013  0.7246156E+02  0.7816164E-02  0.1226708E+00
        -11   -1    0    0    0    0  0.00000000000E+00  0.00000000000E+00  0.45593999997E+02  0.45594000000E+02  0.51100000000E-03 0.  1.
         11   -1    0    0    0    0 -0.00000000000E+00 -0.00000000000E+00 -0.45593999997E+02  0.45594000000E+02  0.51100000000E-03 0. -1.
    9900012    2    1    2    0    0 -0.74692082744E+01 -0.16558748480E+02  0.45495534197E+01  0.72461557204E+02  0.69999982947E+02 0.  0.
         12    1    1    2    0    0  0.74692082744E+01  0.16558748480E+02 -0.45495534197E+01  0.18726442796E+02  0.00000000000E+00 0. -1.
         11    1    3    3    0    0  0.17800682410E+02 -0.82011815976E+01  0.13577776568E+02  0.23842812138E+02  0.51100000000E-03 0. -1.
        -11    1    3    3    0    0  0.89677754532E+01 -0.74617035772E+01  0.34523946378E+01  0.12166225621E+02  0.51100000000E-03 0.  1.
         12    1    3    3    0    0 -0.34237666138E+02 -0.89586330524E+00 -0.12480617786E+02  0.36452519446E+02  0.00000000000E+00 0. -1.
</event>
<event>
 7    1  0.3020651E-013  0.7246159E+02  0.7816164E-02  0.1226708E+00
        -11   -1    0    0    0    0  0.00000000000E+00  0.00000000000E+00  0.45593999997E+02  0.45594000000E+02  0.51100000000E-03 0. -1.
         11   -1    0    0    0    0 -0.00000000000E+00 -0.00000000000E+00 -0.45593999997E+02  0.45594000000E+02  0.51100000000E-03 0.  1.
    9900012    2    1    2    0    0  0.16591521244E+02 -0.86794150198E+01 -0.26034842781E+00  0.72461585405E+02  0.70000019685E+02 0.  0.
         12    1    1    2    0    0 -0.16591521244E+02  0.86794150198E+01  0.26034842781E+00  0.18726414595E+02  0.00000000000E+00 0. -1.
         11    1    3    3    0    0  0.24501181720E+01  0.36655136045E+01 -0.96687671712E+01  0.10626576491E+02  0.51100000000E-03 0. -1.
        -11    1    3    3    0    0  0.21405891280E+02 -0.91776194401E+01 -0.20418347403E+02  0.30973372290E+02  0.51100000000E-03 0.  1.
         12    1    3    3    0    0 -0.72644882076E+01 -0.31673091842E+01  0.29826766147E+02  0.30861636625E+02  0.00000000000E+00 0. -1.
</event>
<event>
 7    1  0.3020651E-013  0.7246154E+02  0.7816164E-02  0.1226708E+00
        -11   -1    0    0    0    0  0.00000000000E+00  0.00000000000E+00  0.45593999997E+02  0.45594000000E+02  0.51100000000E-03 0. -1.
         11   -1    0    0    0    0 -0.00000000000E+00 -0.00000000000E+00 -0.45593999997E+02  0.45594000000E+02  0.51100000000E-03 0.  1.
    9900012    2    1    2    0    0 -0.93267171338E+01 -0.19051428468E+01 -0.16126469784E+02  0.72461541460E+02  0.69999962437E+02 0.  0.
         12    1    1    2    0    0  0.93267171338E+01  0.19051428468E+01  0.16126469784E+02  0.18726458540E+02  0.00000000000E+00 0. -1.
         11    1    3    3    0    0 -0.11541075000E+02  0.85604453396E+01  0.53535380785E+01  0.15334210341E+02  0.51100000000E-03 0. -1.
        -11    1    3    3    0    0 -0.23805407799E+02  0.21102638877E+01 -0.76834439252E+01  0.25103505033E+02  0.51100000000E-03 0.  1.
         12    1    3    3    0    0  0.26019765665E+02 -0.12575852074E+02 -0.13796563938E+02  0.32023826085E+02  0.00000000000E+00 0. -1.
</event>
<event>
 7    1  0.3020651E-013  0.7246159E+02  0.7816164E-02  0.1226708E+00
        -11   -1    0    0    0    0  0.00000000000E+00  0.00000000000E+00  0.45593999997E+02  0.45594000000E+02  0.51100000000E-03 0. -1.
         11   -1    0    0    0    0 -0.00000000000E+00 -0.00000000000E+00 -0.45593999997E+02  0.45594000000E+02  0.51100000000E-03 0.  1.
    9900012    2    1    2    0    0 -0.18574118995E+02 -0.49721712604E+00 -0.23309547825E+01  0.72461588931E+02  0.70000024278E+02 0.  0.
         12    1    1    2    0    0  0.18574118995E+02  0.49721712604E+00  0.23309547825E+01  0.18726411069E+02  0.00000000000E+00 0. -1.
         11    1    3    3    0    0  0.96008501016E+01 -0.12303157104E+02  0.17125960603E+02  0.23169862413E+02  0.51100000000E-03 0. -1.
        -11    1    3    3    0    0 -0.22363159947E+02 -0.17760661840E+01  0.27690981178E+01  0.22603832386E+02  0.51100000000E-03 0.  1.
        -12    1    3    3    0    0 -0.58118091500E+01  0.13582006162E+02 -0.22226013503E+02  0.26687894133E+02  0.00000000000E+00 0.  1.
</event>
<event>
 7    1  0.3020651E-013  0.7246158E+02  0.7816164E-02  0.1226708E+00
        -11   -1    0    0    0    0  0.00000000000E+00  0.00000000000E+00  0.45593999997E+02  0.45594000000E+02  0.51100000000E-03 0. -1.
         11   -1    0    0    0    0 -0.00000000000E+00 -0.00000000000E+00 -0.45593999997E+02  0.45594000000E+02  0.51100000000E-03 0.  1.
    9900012    2    1    2    0    0 -0.16503709019E+01  0.17653625452E+02  0.60253330393E+01  0.72461578720E+02  0.70000010977E+02 0.  0.
         12    1    1    2    0    0  0.16503709019E+01 -0.17653625452E+02 -0.60253330393E+01  0.18726421280E+02  0.00000000000E+00 0. -1.
         11    1    3    3    0    0  0.37050575602E+01  0.33437745610E+01  0.51033785049E+01  0.71381196589E+01  0.51100000000E-03 0.  1.
        -11    1    3    3    0    0  0.23697468476E+02  0.16301269580E+02  0.15590752418E+02  0.32716554881E+02  0.51100000000E-03 0. -1.
         12    1    3    3    0    0 -0.29052896938E+02 -0.19914186888E+01 -0.14668797884E+02  0.32606904180E+02  0.00000000000E+00 0. -1.
</event>
<event>
 7    1  0.3020651E-013  0.7246159E+02  0.7816164E-02  0.1226708E+00
        -11   -1    0    0    0    0  0.00000000000E+00  0.00000000000E+00  0.45593999997E+02  0.45594000000E+02  0.51100000000E-03 0.  1.
         11   -1    0    0    0    0 -0.00000000000E+00 -0.00000000000E+00 -0.45593999997E+02  0.45594000000E+02  0.51100000000E-03 0. -1.
    9900012    2    1    2    0    0  0.13512863840E+02  0.12719861116E+02  0.25072117886E+01  0.72461589054E+02  0.70000024438E+02 0.  0.
         12    1    1    2    0    0 -0.13512863840E+02 -0.12719861116E+02 -0.25072117886E+01  0.18726410946E+02  0.00000000000E+00 0. -1.
         11    1    3    3    0    0  0.65513132250E+00 -0.71513438630E+01 -0.15578652250E+02  0.17154163410E+02  0.51100000000E-03 0. -1.
        -11    1    3    3    0    0  0.15647677667E+02  0.23486751017E+02 -0.75930900974E+01  0.29225542034E+02  0.51100000000E-03 0.  1.
        -12    1    3    3    0    0 -0.27899451498E+01 -0.36155460378E+01  0.25678954136E+02  0.26081883610E+02  0.00000000000E+00 0.  1.
</event>
<event>
 7    1  0.3020651E-013  0.7246166E+02  0.7816164E-02  0.1226708E+00
        -11   -1    0    0    0    0  0.00000000000E+00  0.00000000000E+00  0.45593999997E+02  0.45594000000E+02  0.51100000000E-03 0.  1.
         11   -1    0    0    0    0 -0.00000000000E+00 -0.00000000000E+00 -0.45593999997E+02  0.45594000000E+02  0.51100000000E-03 0. -1.
    9900012    2    1    2    0    0  0.18441755187E+02 -0.10052097238E+01 -0.30930825812E+01  0.72461656501E+02  0.70000112300E+02 0.  0.
         12    1    1    2    0    0 -0.18441755187E+02  0.10052097238E+01  0.30930825812E+01  0.18726343499E+02  0.00000000000E+00 0. -1.
         11    1    3    3    0    0  0.14033026585E+01  0.20535751044E+02 -0.10466234726E+02  0.23091738758E+02  0.51100000000E-03 0. -1.
        -11    1    3    3    0    0 -0.82212586192E+01  0.27454517870E+01 -0.73470351079E+01  0.11362461174E+02  0.51100000000E-03 0.  1.
        -12    1    3    3    0    0  0.25259711148E+02 -0.24286412555E+02  0.14720187253E+02  0.38007456569E+02  0.00000000000E+00 0.  1.
</event>
<event>
 7    1  0.3020651E-013  0.7246154E+02  0.7816164E-02  0.1226708E+00
        -11   -1    0    0    0    0  0.00000000000E+00  0.00000000000E+00  0.45593999997E+02  0.45594000000E+02  0.51100000000E-03 0.  1.
         11   -1    0    0    0    0 -0.00000000000E+00 -0.00000000000E+00 -0.45593999997E+02  0.45594000000E+02  0.51100000000E-03 0. -1.
    9900012    2    1    2    0    0  0.10387589011E+02 -0.15536607776E+02  0.11798362926E+01  0.72461542772E+02  0.69999964147E+02 0.  0.
         12    1    1    2    0    0 -0.10387589011E+02  0.15536607776E+02 -0.11798362926E+01  0.18726457228E+02  0.00000000000E+00 0. -1.
         11    1    3    3    0    0  0.31378445915E+01 -0.25581685317E+02 -0.77733618849E+01  0.26920138328E+02  0.51100000000E-03 0. -1.
        -11    1    3    3    0    0  0.25340978509E+02  0.66412185922E+01  0.42257254061E+01  0.26535405248E+02  0.51100000000E-03 0.  1.
        -12    1    3    3    0    0 -0.18091234090E+02  0.34038589491E+01  0.47274727715E+01  0.19005999196E+02  0.00000000000E+00 0.  1.
</event>
<event>
 7    1  0.3020651E-013  0.7246159E+02  0.7816164E-02  0.1226708E+00
        -11   -1    0    0    0    0  0.00000000000E+00  0.00000000000E+00  0.45593999997E+02  0.45594000000E+02  0.51100000000E-03 0. -1.
         11   -1    0    0    0    0 -0.00000000000E+00 -0.00000000000E+00 -0.45593999997E+02  0.45594000000E+02  0.51100000000E-03 0.  1.
    9900012    2    1    2    0    0  0.13055193186E+02  0.36488133861E+00 -0.13420408438E+02  0.72461586298E+02  0.70000020847E+02 0.  0.
         12    1    1    2    0    0 -0.13055193186E+02 -0.36488133861E+00  0.13420408438E+02  0.18726413702E+02  0.00000000000E+00 0. -1.
         11    1    3    3    0    0 -0.11529602054E+02 -0.79910708156E+01 -0.12962331859E+02  0.19100025754E+02  0.51100000000E-03 0. -1.
        -11    1    3    3    0    0  0.32571719388E+02 -0.93797389051E+01 -0.86033445006E+00  0.33906291178E+02  0.51100000000E-03 0.  1.
         12    1    3    3    0    0 -0.79869241484E+01  0.17735691059E+02  0.40225787166E+00  0.19455269366E+02  0.00000000000E+00 0. -1.
</event>
<event>
 7    1  0.3020651E-013  0.7246154E+02  0.7816164E-02  0.1226708E+00
        -11   -1    0    0    0    0  0.00000000000E+00  0.00000000000E+00  0.45593999997E+02  0.45594000000E+02  0.51100000000E-03 0.  1.
         11   -1    0    0    0    0 -0.00000000000E+00 -0.00000000000E+00 -0.45593999997E+02  0.45594000000E+02  0.51100000000E-03 0. -1.
    9900012    2    1    2    0    0 -0.22699505587E+01  0.16668433265E+02  0.82274449800E+01  0.72461542942E+02  0.69999964368E+02 0.  0.
         12    1    1    2    0    0  0.22699505587E+01 -0.16668433265E+02 -0.82274449800E+01  0.18726457058E+02  0.00000000000E+00 0. -1.
         11    1    3    3    0    0 -0.18202632837E+02 -0.14764925609E+01 -0.14401396396E+02  0.23257602862E+02  0.51100000000E-03 0. -1.
        -11    1    3    3    0    0  0.79817863865E+00  0.55829144412E+01 -0.97823677970E+01  0.11291622681E+02  0.51100000000E-03 0.  1.
        -12    1    3    3    0    0  0.15134503640E+02  0.12562011385E+02  0.32411209173E+02  0.37912317398E+02  0.00000000000E+00 0.  1.
</event>
<event>
 7    1  0.4629537E-013  0.7246158E+02  0.7816164E-02  0.1226708E+00
        -11   -1    0    0    0    0  0.00000000000E+00  0.00000000000E+00  0.45593999997E+02  0.45594000000E+02  0.51100000000E-03 0. -1.
         11   -1    0    0    0    0 -0.00000000000E+00 -0.00000000000E+00 -0.45593999997E+02  0.45594000000E+02  0.51100000000E-03 0.  1.
    9900012    2    1    2    0    0 -0.10260772440E+02 -0.13755447611E+02 -0.74955350038E+01  0.72461579225E+02  0.70000011634E+02 0.  0.
         12    1    1    2    0    0  0.10260772440E+02  0.13755447611E+02  0.74955350038E+01  0.18726420775E+02  0.00000000000E+00 0. -1.
         11    1    3    3    0    0  0.37454660682E+01  0.16974955721E+02  0.13654251019E+02  0.22104664868E+02  0.51100000000E-03 0. -1.
        -11    1    3    3    0    0 -0.30066236883E+01  0.51227360852E+01 -0.92847945443E+01  0.11022233031E+02  0.51100000000E-03 0.  1.
        -12    1    3    3    0    0 -0.10999614820E+02 -0.35853139417E+02 -0.11864991479E+02  0.39334681326E+02  0.00000000000E+00 0.  1.
</event>
<event>
 7    1  0.3020651E-013  0.7246156E+02  0.7816164E-02  0.1226708E+00
        -11   -1    0    0    0    0  0.00000000000E+00  0.00000000000E+00  0.45593999997E+02  0.45594000000E+02  0.51100000000E-03 0.  1.
         11   -1    0    0    0    0 -0.00000000000E+00 -0.00000000000E+00 -0.45593999997E+02  0.45594000000E+02  0.51100000000E-03 0. -1.
    9900012    2    1    2    0    0 -0.11190996562E+02  0.28571654780E+01  0.14740344237E+02  0.72461560220E+02  0.69999986876E+02 0.  0.
         12    1    1    2    0    0  0.11190996562E+02 -0.28571654780E+01 -0.14740344237E+02  0.18726439780E+02  0.00000000000E+00 0. -1.
         11    1    3    3    0    0 -0.10960143145E+02 -0.80530527219E+01 -0.25120718901E+02  0.28566184804E+02  0.51100000000E-03 0. -1.
        -11    1    3    3    0    0 -0.16017028376E+01 -0.31897601247E+01  0.41312083717E+01  0.54595699927E+01  0.51100000000E-03 0.  1.
        -12    1    3    3    0    0  0.13708494204E+01  0.14099978325E+02  0.35729854766E+02  0.38435805423E+02  0.00000000000E+00 0.  1.
</event>
<event>
 7    1  0.3020651E-013  0.7246121E+02  0.7816164E-02  0.1226709E+00
        -11   -1    0    0    0    0  0.00000000000E+00  0.00000000000E+00  0.45593999997E+02  0.45594000000E+02  0.51100000000E-03 0.  1.
         11   -1    0    0    0    0 -0.00000000000E+00 -0.00000000000E+00 -0.45593999997E+02  0.45594000000E+02  0.51100000000E-03 0. -1.
    9900012    2    1    2    0    0 -0.12474401831E+01  0.18685184360E+02 -0.18586722999E-01  0.72461212581E+02  0.69999534010E+02 0.  0.
         12    1    1    2    0    0  0.12474401831E+01 -0.18685184360E+02  0.18586722999E-01  0.18726787419E+02  0.00000000000E+00 0. -1.
         11    1    3    3    0    0 -0.95653824998E+01  0.26900848662E+01  0.11534270425E+02  0.15224076112E+02  0.51100000000E-03 0.  1.
        -11    1    3    3    0    0 -0.16520365455E+02  0.29944327222E+01  0.11987374093E+02  0.20629741637E+02  0.51100000000E-03 0. -1.
        -12    1    3    3    0    0  0.24838307771E+02  0.13000666772E+02 -0.23540231242E+02  0.36607394832E+02  0.00000000000E+00 0.  1.
</event>
<event>
 7    1  0.3020651E-013  0.7246155E+02  0.7816164E-02  0.1226708E+00
        -11   -1    0    0    0    0  0.00000000000E+00  0.00000000000E+00  0.45593999997E+02  0.45594000000E+02  0.51100000000E-03 0. -1.
         11   -1    0    0    0    0 -0.00000000000E+00 -0.00000000000E+00 -0.45593999997E+02  0.45594000000E+02  0.51100000000E-03 0.  1.
    9900012    2    1    2    0    0 -0.91764861152E+01  0.14431881509E+02 -0.76284143185E+01  0.72461553291E+02  0.69999977850E+02 0.  0.
         12    1    1    2    0    0  0.91764861152E+01 -0.14431881509E+02  0.76284143185E+01  0.18726446709E+02  0.00000000000E+00 0. -1.
         11    1    3    3    0    0 -0.27470628853E+01  0.63220456144E+01 -0.56919611956E+01  0.89394092512E+01  0.51100000000E-03 0. -1.
        -11    1    3    3    0    0  0.18738181149E+02 -0.71295815157E+01 -0.20547550149E+02  0.28708050835E+02  0.51100000000E-03 0.  1.
         12    1    3    3    0    0 -0.25167604379E+02  0.15239417411E+02  0.18611097026E+02  0.34814093205E+02  0.00000000000E+00 0. -1.
</event>
<event>
 7    1  0.3020651E-013  0.7246156E+02  0.7816164E-02  0.1226708E+00
        -11   -1    0    0    0    0  0.00000000000E+00  0.00000000000E+00  0.45593999997E+02  0.45594000000E+02  0.51100000000E-03 0. -1.
         11   -1    0    0    0    0 -0.00000000000E+00 -0.00000000000E+00 -0.45593999997E+02  0.45594000000E+02  0.51100000000E-03 0.  1.
    9900012    2    1    2    0    0 -0.17401498488E+02 -0.68645597666E+01  0.86331339078E+00  0.72461557721E+02  0.69999983621E+02 0.  0.
         12    1    1    2    0    0  0.17401498488E+02  0.68645597666E+01 -0.86331339078E+00  0.18726442279E+02  0.00000000000E+00 0. -1.
         11    1    3    3    0    0 -0.57109183027E+01  0.47296624607E+01  0.14693515419E+02  0.16458544604E+02  0.51100000000E-03 0. -1.
        -11    1    3    3    0    0  0.15450838769E+02  0.86239269099E+01  0.34107611051E+01  0.18020372515E+02  0.51100000000E-03 0.  1.
        -12    1    3    3    0    0 -0.27141418953E+02 -0.20218149137E+02 -0.17240963134E+02  0.37982640602E+02  0.00000000000E+00 0.  1.
</event>
<event>
 7    1  0.3020651E-013  0.7246151E+02  0.7816164E-02  0.1226708E+00
        -11   -1    0    0    0    0  0.00000000000E+00  0.00000000000E+00  0.45593999997E+02  0.45594000000E+02  0.51100000000E-03 0. -1.
         11   -1    0    0    0    0 -0.00000000000E+00 -0.00000000000E+00 -0.45593999997E+02  0.45594000000E+02  0.51100000000E-03 0.  1.
    9900012    2    1    2    0    0  0.15735001676E+02 -0.68014640358E+01 -0.75386426284E+01  0.72461512784E+02  0.69999925082E+02 0.  0.
         12    1    1    2    0    0 -0.15735001676E+02  0.68014640358E+01  0.75386426284E+01  0.18726487216E+02  0.00000000000E+00 0. -1.
         11    1    3    3    0    0  0.40511960841E+01  0.99093708423E+01 -0.33315897830E+01  0.11211927174E+02  0.51100000000E-03 0. -1.
        -11    1    3    3    0    0 -0.82784248320E+01  0.13252632688E+02  0.13931531814E+02  0.20934473239E+02  0.51100000000E-03 0.  1.
        -12    1    3    3    0    0  0.19962230424E+02 -0.29963467566E+02 -0.18138584660E+02  0.40315112371E+02  0.00000000000E+00 0.  1.
</event>
<event>
 7    1  0.3020651E-013  0.7246157E+02  0.7816164E-02  0.1226708E+00
        -11   -1    0    0    0    0  0.00000000000E+00  0.00000000000E+00  0.45593999997E+02  0.45594000000E+02  0.51100000000E-03 0. -1.
         11   -1    0    0    0    0 -0.00000000000E+00 -0.00000000000E+00 -0.45593999997E+02  0.45594000000E+02  0.51100000000E-03 0.  1.
    9900012    2    1    2    0    0  0.16060179534E+02  0.70942360170E+01  0.65131912068E+01  0.72461569187E+02  0.69999998557E+02 0.  0.
         12    1    1    2    0    0 -0.16060179534E+02 -0.70942360170E+01 -0.65131912068E+01  0.18726430813E+02  0.00000000000E+00 0. -1.
         11    1    3    3    0    0  0.12190804702E+02  0.28876426250E+02  0.14675956137E+02  0.34609932115E+02  0.51100000000E-03 0. -1.
        -11    1    3    3    0    0 -0.62272134739E+01 -0.16719637397E+01 -0.13290792530E+02  0.14772231271E+02  0.51100000000E-03 0.  1.
        -12    1    3    3    0    0  0.10096588305E+02 -0.20110226493E+02  0.51280276000E+01  0.23079405800E+02  0.00000000000E+00 0.  1.
</event>
<event>
 7    1  0.3020651E-013  0.7246149E+02  0.7816164E-02  0.1226708E+00
        -11   -1    0    0    0    0  0.00000000000E+00  0.00000000000E+00  0.45593999997E+02  0.45594000000E+02  0.51100000000E-03 0. -1.
         11   -1    0    0    0    0 -0.00000000000E+00 -0.00000000000E+00 -0.45593999997E+02  0.45594000000E+02  0.51100000000E-03 0.  1.
    9900012    2    1    2    0    0 -0.78501676863E+01  0.57666304047E+01 -0.15993839444E+02  0.72461493143E+02  0.69999899496E+02 0.  0.
         12    1    1    2    0    0  0.78501676863E+01 -0.57666304047E+01  0.15993839444E+02  0.18726506857E+02  0.00000000000E+00 0. -1.
         11    1    3    3    0    0 -0.66140814368E+01 -0.27507188770E+01 -0.72202303939E+01  0.10170754878E+02  0.51100000000E-03 0. -1.
        -11    1    3    3    0    0 -0.25384638994E+02  0.19558862558E+02 -0.14425296019E+02  0.35142825256E+02  0.51100000000E-03 0.  1.
         12    1    3    3    0    0  0.24148552745E+02 -0.11041513277E+02  0.56516869697E+01  0.27147913008E+02  0.00000000000E+00 0. -1.
</event>
<event>
 7    1  0.3020651E-013  0.7246166E+02  0.7816164E-02  0.1226708E+00
        -11   -1    0    0    0    0  0.00000000000E+00  0.00000000000E+00  0.45593999997E+02  0.45594000000E+02  0.51100000000E-03 0.  1.
         11   -1    0    0    0    0 -0.00000000000E+00 -0.00000000000E+00 -0.45593999997E+02  0.45594000000E+02  0.51100000000E-03 0. -1.
    9900012    2    1    2    0    0 -0.36461625275E+00  0.18718813862E+02 -0.38606657402E+00  0.72461655327E+02  0.70000110771E+02 0.  0.
         12    1    1    2    0    0  0.36461625275E+00 -0.18718813862E+02  0.38606657402E+00  0.18726344673E+02  0.00000000000E+00 0. -1.
         11    1    3    3    0    0  0.56469244187E+01  0.18254044041E+02  0.90756526110E+01  0.21153376795E+02  0.51100000000E-03 0. -1.
        -11    1    3    3    0    0  0.16620869768E+01  0.91422806836E+01  0.18686710548E+02  0.20869522768E+02  0.51100000000E-03 0.  1.
         12    1    3    3    0    0 -0.76736276483E+01 -0.86775108627E+01 -0.28148429733E+02  0.30438755764E+02  0.00000000000E+00 0. -1.
</event>
<event>
 7    1  0.3020651E-013  0.7246156E+02  0.7816164E-02  0.1226708E+00
        -11   -1    0    0    0    0  0.00000000000E+00  0.00000000000E+00  0.45593999997E+02  0.45594000000E+02  0.51100000000E-03 0. -1.
         11   -1    0    0    0    0 -0.00000000000E+00 -0.00000000000E+00 -0.45593999997E+02  0.45594000000E+02  0.51100000000E-03 0.  1.
    9900012    2    1    2    0    0  0.11408444589E+02  0.14532174416E+02 -0.30566166063E+01  0.72461558633E+02  0.69999984809E+02 0.  0.
         12    1    1    2    0    0 -0.11408444589E+02 -0.14532174416E+02  0.30566166063E+01  0.18726441367E+02  0.00000000000E+00 0. -1.
         11    1    3    3    0    0  0.11981702350E+02  0.12656667208E+02 -0.58610616526E+01  0.18387617028E+02  0.51100000000E-03 0. -1.
        -11    1    3    3    0    0  0.10210678232E+02  0.19216674259E+02 -0.15446543537E+02  0.26685843195E+02  0.51100000000E-03 0.  1.
         12    1    3    3    0    0 -0.10783935993E+02 -0.17341167051E+02  0.18250988584E+02  0.27388098409E+02  0.00000000000E+00 0. -1.
</event>
<event>
 7    1  0.3020651E-013  0.7246162E+02  0.7816164E-02  0.1226708E+00
        -11   -1    0    0    0    0  0.00000000000E+00  0.00000000000E+00  0.45593999997E+02  0.45594000000E+02  0.51100000000E-03 0.  1.
         11   -1    0    0    0    0 -0.00000000000E+00 -0.00000000000E+00 -0.45593999997E+02  0.45594000000E+02  0.51100000000E-03 0. -1.
    9900012    2    1    2    0    0  0.18669476676E+02 -0.10252201611E+01 -0.10377658787E+01  0.72461617708E+02  0.70000061765E+02 0.  0.
         12    1    1    2    0    0 -0.18669476676E+02  0.10252201611E+01  0.10377658787E+01  0.18726382292E+02  0.00000000000E+00 0. -1.
         11    1    3    3    0    0  0.21151511566E+02 -0.16505534198E+01 -0.23968503058E+02  0.32009372178E+02  0.51100000000E-03 0. -1.
        -11    1    3    3    0    0  0.16492424618E+01 -0.12200669907E+01 -0.84762646787E+01  0.87209877494E+01  0.51100000000E-03 0.  1.
        -12    1    3    3    0    0 -0.41312773516E+01  0.18454002494E+01  0.31407001858E+02  0.31731257781E+02  0.00000000000E+00 0.  1.
</event>
<event>
 7    1  0.3020651E-013  0.7246158E+02  0.7816164E-02  0.1226708E+00
        -11   -1    0    0    0    0  0.00000000000E+00  0.00000000000E+00  0.45593999997E+02  0.45594000000E+02  0.51100000000E-03 0.  1.
         11   -1    0    0    0    0 -0.00000000000E+00 -0.00000000000E+00 -0.45593999997E+02  0.45594000000E+02  0.51100000000E-03 0. -1.
    9900012    2    1    2    0    0  0.71358122932E+00 -0.18383816227E+02  0.34935669134E+01  0.72461577303E+02  0.70000009131E+02 0.  0.
         12    1    1    2    0    0 -0.71358122932E+00  0.18383816227E+02 -0.34935669134E+01  0.18726422697E+02  0.00000000000E+00 0. -1.
         11    1    3    3    0    0 -0.15588474042E+02 -0.19723399232E+02 -0.21453622210E+02  0.33049522030E+02  0.51100000000E-03 0. -1.
        -11    1    3    3    0    0 -0.18819178934E+01 -0.92009120912E+01  0.92246354120E+01  0.13164053214E+02  0.51100000000E-03 0.  1.
        -12    1    3    3    0    0  0.18183973165E+02  0.10540495097E+02  0.15722553711E+02  0.26248002060E+02  0.00000000000E+00 0.  1.
</event>
<event>
 7    1  0.3389261E-013  0.7246154E+02  0.7816164E-02  0.1226708E+00
        -11   -1    0    0    0    0  0.00000000000E+00  0.00000000000E+00  0.45593999997E+02  0.45594000000E+02  0.51100000000E-03 0. -1.
         11   -1    0    0    0    0 -0.00000000000E+00 -0.00000000000E+00 -0.45593999997E+02  0.45594000000E+02  0.51100000000E-03 0.  1.
    9900012    2    1    2    0    0  0.17727660241E+02  0.29126660176E+01 -0.52845592997E+01  0.72461544704E+02  0.69999966664E+02 0.  0.
         12    1    1    2    0    0 -0.17727660241E+02 -0.29126660176E+01  0.52845592997E+01  0.18726455296E+02  0.00000000000E+00 0. -1.
         11    1    3    3    0    0  0.22447232023E+02 -0.21709004390E+02  0.10581595201E+02  0.32971643185E+02  0.51100000000E-03 0. -1.
        -11    1    3    3    0    0  0.16024723434E+01 -0.37642565015E+01 -0.85862949435E+01  0.95111516516E+01  0.51100000000E-03 0.  1.
        -12    1    3    3    0    0 -0.63220441248E+01  0.28385926909E+02 -0.72798595570E+01  0.29978749867E+02  0.00000000000E+00 0.  1.
</event>
<event>
 7    1  0.3020651E-013  0.7246195E+02  0.7816164E-02  0.1226707E+00
        -11   -1    0    0    0    0  0.00000000000E+00  0.00000000000E+00  0.45593999997E+02  0.45594000000E+02  0.51100000000E-03 0. -1.
         11   -1    0    0    0    0 -0.00000000000E+00 -0.00000000000E+00 -0.45593999997E+02  0.45594000000E+02  0.51100000000E-03 0.  1.
    9900012    2    1    2    0    0  0.50637942332E+01 -0.13779057583E+02 -0.11625854903E+02  0.72461950172E+02  0.70000494860E+02 0.  0.
         12    1    1    2    0    0 -0.50637942332E+01  0.13779057583E+02  0.11625854903E+02  0.18726049828E+02  0.00000000000E+00 0. -1.
         11    1    3    3    0    0 -0.21426287840E+02 -0.59491055836E+01  0.12664034235E+02  0.25590143243E+02  0.51100000000E-03 0. -1.
        -11    1    3    3    0    0 -0.29751349541E+01  0.13992515040E+01  0.38730366552E+01  0.50803293161E+01  0.51100000000E-03 0.  1.
        -12    1    3    3    0    0  0.29465217027E+02 -0.92292035036E+01 -0.28162925794E+02  0.41791477613E+02  0.00000000000E+00 0.  1.
</event>
<event>
 7    1  0.3020651E-013  0.7246159E+02  0.7816164E-02  0.1226708E+00
        -11   -1    0    0    0    0  0.00000000000E+00  0.00000000000E+00  0.45593999997E+02  0.45594000000E+02  0.51100000000E-03 0.  1.
         11   -1    0    0    0    0 -0.00000000000E+00 -0.00000000000E+00 -0.45593999997E+02  0.45594000000E+02  0.51100000000E-03 0. -1.
    9900012    2    1    2    0    0 -0.49063771795E+01 -0.17930547554E+02  0.22585867118E+01  0.72461593870E+02  0.70000030711E+02 0.  0.
         12    1    1    2    0    0  0.49063771795E+01  0.17930547554E+02 -0.22585867118E+01  0.18726406130E+02  0.00000000000E+00 0. -1.
         11    1    3    3    0    0  0.22620681111E+02 -0.47317894881E+01 -0.21492430798E+01  0.23210004131E+02  0.51100000000E-03 0. -1.
        -11    1    3    3    0    0 -0.18453938395E+02 -0.17226212281E+02  0.19005077269E+02  0.31598784693E+02  0.51100000000E-03 0.  1.
         12    1    3    3    0    0 -0.90731198952E+01  0.40274542152E+01 -0.14597247477E+02  0.17652805046E+02  0.00000000000E+00 0. -1.
</event>
<event>
 7    1  0.3020651E-013  0.7246157E+02  0.7816164E-02  0.1226708E+00
        -11   -1    0    0    0    0  0.00000000000E+00  0.00000000000E+00  0.45593999997E+02  0.45594000000E+02  0.51100000000E-03 0.  1.
         11   -1    0    0    0    0 -0.00000000000E+00 -0.00000000000E+00 -0.45593999997E+02  0.45594000000E+02  0.51100000000E-03 0. -1.
    9900012    2    1    2    0    0 -0.28541666365E+01  0.12535772697E+02  0.13615697079E+02  0.72461572919E+02  0.70000003419E+02 0.  0.
         12    1    1    2    0    0  0.28541666365E+01 -0.12535772697E+02 -0.13615697079E+02  0.18726427081E+02  0.00000000000E+00 0. -1.
         11    1    3    3    0    0  0.58707600908E+01  0.16295237238E+01 -0.96295126087E+01  0.11395116715E+02  0.51100000000E-03 0. -1.
        -11    1    3    3    0    0 -0.14511250141E+02  0.89498082122E+01 -0.14773918898E+02  0.22559790060E+02  0.51100000000E-03 0.  1.
        -12    1    3    3    0    0  0.57863234132E+01  0.19564407608E+01  0.38019128586E+02  0.38506666144E+02  0.00000000000E+00 0.  1.
</event>
<event>
 7    1  0.3020651E-013  0.7246157E+02  0.7816164E-02  0.1226708E+00
        -11   -1    0    0    0    0  0.00000000000E+00  0.00000000000E+00  0.45593999997E+02  0.45594000000E+02  0.51100000000E-03 0. -1.
         11   -1    0    0    0    0 -0.00000000000E+00 -0.00000000000E+00 -0.45593999997E+02  0.45594000000E+02  0.51100000000E-03 0.  1.
    9900012    2    1    2    0    0 -0.13592067870E+01 -0.53851566442E+01 -0.17883846112E+02  0.72461566625E+02  0.69999995220E+02 0.  0.
         12    1    1    2    0    0  0.13592067870E+01  0.53851566442E+01  0.17883846112E+02  0.18726433375E+02  0.00000000000E+00 0. -1.
         11    1    3    3    0    0  0.83981651649E+01 -0.50873019077E+01  0.12580580503E+02  0.15958722533E+02  0.51100000000E-03 0. -1.
        -11    1    3    3    0    0  0.29725402461E+01  0.18666154585E+02 -0.60719459553E+00  0.18911108060E+02  0.51100000000E-03 0.  1.
        -12    1    3    3    0    0 -0.12729912198E+02 -0.18964009321E+02 -0.29857232019E+02  0.37591736033E+02  0.00000000000E+00 0.  1.
</event>
<event>
 7    1  0.3020651E-013  0.7246155E+02  0.7816164E-02  0.1226708E+00
        -11   -1    0    0    0    0  0.00000000000E+00  0.00000000000E+00  0.45593999997E+02  0.45594000000E+02  0.51100000000E-03 0. -1.
         11   -1    0    0    0    0 -0.00000000000E+00 -0.00000000000E+00 -0.45593999997E+02  0.45594000000E+02  0.51100000000E-03 0.  1.
    9900012    2    1    2    0    0 -0.12724350368E+02  0.92535228518E+01 -0.10155946696E+02  0.72461547300E+02  0.69999970045E+02 0.  0.
         12    1    1    2    0    0  0.12724350368E+02 -0.92535228518E+01  0.10155946696E+02  0.18726452700E+02  0.00000000000E+00 0. -1.
         11    1    3    3    0    0 -0.35783924874E+02 -0.69414168362E+01  0.40275707911E+01  0.36672794737E+02  0.51100000000E-03 0. -1.
        -11    1    3    3    0    0  0.52054517216E+01 -0.26096072569E+00  0.30266840176E+01  0.60270759519E+01  0.51100000000E-03 0.  1.
        -12    1    3    3    0    0  0.17854122785E+02  0.16455900414E+02 -0.17210201505E+02  0.29761676611E+02  0.00000000000E+00 0.  1.
</event>
<event>
 7    1  0.3020651E-013  0.7246172E+02  0.7816164E-02  0.1226708E+00
        -11   -1    0    0    0    0  0.00000000000E+00  0.00000000000E+00  0.45593999997E+02  0.45594000000E+02  0.51100000000E-03 0. -1.
         11   -1    0    0    0    0 -0.00000000000E+00 -0.00000000000E+00 -0.45593999997E+02  0.45594000000E+02  0.51100000000E-03 0.  1.
    9900012    2    1    2    0    0 -0.14089555107E+02  0.12309493524E+02  0.79650663852E+00  0.72461718555E+02  0.70000193137E+02 0.  0.
         12    1    1    2    0    0  0.14089555107E+02 -0.12309493524E+02 -0.79650663852E+00  0.18726281445E+02  0.00000000000E+00 0. -1.
         11    1    3    3    0    0 -0.22979724133E+02 -0.16707296170E+02  0.88242936653E+01  0.29750119756E+02  0.51100000000E-03 0.  1.
        -11    1    3    3    0    0  0.58247546320E+01  0.21597915144E+02  0.88228636706E+01  0.24046634456E+02  0.51100000000E-03 0. -1.
        -12    1    3    3    0    0  0.30654143946E+01  0.74188745497E+01 -0.16850650697E+02  0.18664964343E+02  0.00000000000E+00 0.  1.
</event>
<event>
 7    1  0.3020651E-013  0.7246159E+02  0.7816164E-02  0.1226708E+00
        -11   -1    0    0    0    0  0.00000000000E+00  0.00000000000E+00  0.45593999997E+02  0.45594000000E+02  0.51100000000E-03 0. -1.
         11   -1    0    0    0    0 -0.00000000000E+00 -0.00000000000E+00 -0.45593999997E+02  0.45594000000E+02  0.51100000000E-03 0.  1.
    9900012    2    1    2    0    0  0.76896580920E+01  0.64840531027E+01 -0.15795711220E+02  0.72461594067E+02  0.70000030968E+02 0.  0.
         12    1    1    2    0    0 -0.76896580920E+01 -0.64840531027E+01  0.15795711220E+02  0.18726405933E+02  0.00000000000E+00 0. -1.
         11    1    3    3    0    0  0.63792299160E+01 -0.11833477595E+02 -0.66405250186E+01  0.14994076800E+02  0.51100000000E-03 0. -1.
        -11    1    3    3    0    0 -0.95837266224E+01  0.64709668193E+01 -0.29407267919E+02  0.31599187241E+02  0.51100000000E-03 0.  1.
         12    1    3    3    0    0  0.10894154798E+02  0.11846563878E+02  0.20252081717E+02  0.25868330026E+02  0.00000000000E+00 0. -1.
</event>
<event>
 7    1  0.3020651E-013  0.7246102E+02  0.7816164E-02  0.1226709E+00
        -11   -1    0    0    0    0  0.00000000000E+00  0.00000000000E+00  0.45593999997E+02  0.45594000000E+02  0.51100000000E-03 0.  1.
         11   -1    0    0    0    0 -0.00000000000E+00 -0.00000000000E+00 -0.45593999997E+02  0.45594000000E+02  0.51100000000E-03 0. -1.
    9900012    2    1    2    0    0  0.26324229602E+01 -0.15867935652E+02  0.95905552622E+01  0.72461019925E+02  0.69999283038E+02 0.  0.
         12    1    1    2    0    0 -0.26324229602E+01  0.15867935652E+02 -0.95905552622E+01  0.18726980075E+02  0.00000000000E+00 0. -1.
         11    1    3    3    0    0  0.40866802885E+01 -0.31273034356E+02  0.11724745426E+01  0.31560708649E+02  0.51100000000E-03 0. -1.
        -11    1    3    3    0    0 -0.10574840265E+00 -0.95286187701E+01  0.12374785648E+02  0.15618613206E+02  0.51100000000E-03 0.  1.
         12    1    3    3    0    0 -0.13485089256E+01  0.24933717474E+02 -0.39567049286E+01  0.25281698070E+02  0.00000000000E+00 0. -1.
</event>
<event>
 7    1  0.3020651E-013  0.7246160E+02  0.7816164E-02  0.1226708E+00
        -11   -1    0    0    0    0  0.00000000000E+00  0.00000000000E+00  0.45593999997E+02  0.45594000000E+02  0.51100000000E-03 0.  1.
         11   -1    0    0    0    0 -0.00000000000E+00 -0.00000000000E+00 -0.45593999997E+02  0.45594000000E+02  0.51100000000E-03 0. -1.
    9900012    2    1    2    0    0  0.18582835602E+02 -0.22198271469E+01  0.65478699644E+00  0.72461597313E+02  0.70000035197E+02 0.  0.
         12    1    1    2    0    0 -0.18582835602E+02  0.22198271469E+01 -0.65478699644E+00  0.18726402687E+02  0.00000000000E+00 0. -1.
         11    1    3    3    0    0  0.61377154454E+01  0.19174805560E+01 -0.21326797518E+01  0.67747033704E+01  0.51100000000E-03 0. -1.
        -11    1    3    3    0    0  0.37433279470E+02  0.45023196128E+01 -0.52168156592E+01  0.38062270816E+02  0.51100000000E-03 0.  1.
         12    1    3    3    0    0 -0.24988159314E+02 -0.86396273157E+01  0.80042824074E+01  0.27624623127E+02  0.00000000000E+00 0. -1.
</event>
<event>
 7    1  0.3020651E-013  0.7246158E+02  0.7816164E-02  0.1226708E+00
        -11   -1    0    0    0    0  0.00000000000E+00  0.00000000000E+00  0.45593999997E+02  0.45594000000E+02  0.51100000000E-03 0.  1.
         11   -1    0    0    0    0 -0.00000000000E+00 -0.00000000000E+00 -0.45593999997E+02  0.45594000000E+02  0.51100000000E-03 0. -1.
    9900012    2    1    2    0    0 -0.11252313819E+02  0.52659728695E+01  0.14011910092E+02  0.72461583873E+02  0.70000017688E+02 0.  0.
         12    1    1    2    0    0  0.11252313819E+02 -0.52659728695E+01 -0.14011910092E+02  0.18726416127E+02  0.00000000000E+00 0. -1.
         11    1    3    3    0    0  0.39491037451E+00 -0.13408421708E+02 -0.11027063653E+02  0.17364845522E+02  0.51100000000E-03 0. -1.
        -11    1    3    3    0    0 -0.80490637624E+01 -0.13094099685E+02  0.15269894714E+02  0.21665930833E+02  0.51100000000E-03 0.  1.
         12    1    3    3    0    0 -0.35981604314E+01  0.31768494263E+02  0.97690790314E+01  0.33430807518E+02  0.00000000000E+00 0. -1.
</event>
<event>
 7    1  0.3020651E-013  0.7246162E+02  0.7816164E-02  0.1226708E+00
        -11   -1    0    0    0    0  0.00000000000E+00  0.00000000000E+00  0.45593999997E+02  0.45594000000E+02  0.51100000000E-03 0.  1.
         11   -1    0    0    0    0 -0.00000000000E+00 -0.00000000000E+00 -0.45593999997E+02  0.45594000000E+02  0.51100000000E-03 0. -1.
    9900012    2    1    2    0    0 -0.11833353286E+02 -0.12180101251E+01  0.14462555234E+02  0.72461620143E+02  0.70000064937E+02 0.  0.
         12    1    1    2    0    0  0.11833353286E+02  0.12180101251E+01 -0.14462555234E+02  0.18726379857E+02  0.00000000000E+00 0. -1.
         11    1    3    3    0    0 -0.41483361844E+01 -0.19213543241E+02 -0.75026633583E+01  0.21039460419E+02  0.51100000000E-03 0. -1.
        -11    1    3    3    0    0  0.83685644612E+01  0.79031232111E+01 -0.93390022660E+01  0.14822590570E+02  0.51100000000E-03 0.  1.
        -12    1    3    3    0    0 -0.16053581563E+02  0.10092409905E+02  0.31304220858E+02  0.36599569154E+02  0.00000000000E+00 0.  1.
</event>
<event>
 7    1  0.3020651E-013  0.7246198E+02  0.7816164E-02  0.1226707E+00
        -11   -1    0    0    0    0  0.00000000000E+00  0.00000000000E+00  0.45593999997E+02  0.45594000000E+02  0.51100000000E-03 0. -1.
         11   -1    0    0    0    0 -0.00000000000E+00 -0.00000000000E+00 -0.45593999997E+02  0.45594000000E+02  0.51100000000E-03 0.  1.
    9900012    2    1    2    0    0  0.27726529084E+01  0.14974842880E+02 -0.10896351660E+02  0.72461975250E+02  0.70000527528E+02 0.  0.
         12    1    1    2    0    0 -0.27726529084E+01 -0.14974842880E+02  0.10896351660E+02  0.18726024750E+02  0.00000000000E+00 0. -1.
         11    1    3    3    0    0  0.31431867549E+02  0.11141343247E+02  0.20701501771E+01  0.33412233523E+02  0.51100000000E-03 0. -1.
        -11    1    3    3    0    0 -0.13226186471E+01 -0.56432902951E+01 -0.77063261495E+01  0.96427956747E+01  0.51100000000E-03 0.  1.
        -12    1    3    3    0    0 -0.27336595994E+02  0.94767899290E+01 -0.52601756872E+01  0.29406946053E+02  0.00000000000E+00 0.  1.
</event>
<event>
 7    1  0.3020651E-013  0.7246157E+02  0.7816164E-02  0.1226708E+00
        -11   -1    0    0    0    0  0.00000000000E+00  0.00000000000E+00  0.45593999997E+02  0.45594000000E+02  0.51100000000E-03 0. -1.
         11   -1    0    0    0    0 -0.00000000000E+00 -0.00000000000E+00 -0.45593999997E+02  0.45594000000E+02  0.51100000000E-03 0.  1.
    9900012    2    1    2    0    0 -0.18417237570E+02 -0.20309995611E+01  0.27128520009E+01  0.72461570418E+02  0.70000000161E+02 0.  0.
         12    1    1    2    0    0  0.18417237570E+02  0.20309995611E+01 -0.27128520009E+01  0.18726429582E+02  0.00000000000E+00 0. -1.
         11    1    3    3    0    0 -0.26309512432E+02  0.76850064453E+01  0.21900066074E+02  0.35083652358E+02  0.51100000000E-03 0. -1.
        -11    1    3    3    0    0  0.21520781777E+01 -0.85059490411E+01  0.65699491942E+01  0.10961151502E+02  0.51100000000E-03 0.  1.
        -12    1    3    3    0    0  0.57401966839E+01 -0.12100569653E+01 -0.25757163267E+02  0.26416766558E+02  0.00000000000E+00 0.  1.
</event>
<event>
 7    1  0.3020651E-013  0.7246161E+02  0.7816164E-02  0.1226708E+00
        -11   -1    0    0    0    0  0.00000000000E+00  0.00000000000E+00  0.45593999997E+02  0.45594000000E+02  0.51100000000E-03 0. -1.
         11   -1    0    0    0    0 -0.00000000000E+00 -0.00000000000E+00 -0.45593999997E+02  0.45594000000E+02  0.51100000000E-03 0.  1.
    9900012    2    1    2    0    0 -0.17916558544E+02  0.51632852282E+01  0.17363679848E+01  0.72461613317E+02  0.70000056045E+02 0.  0.
         12    1    1    2    0    0  0.17916558544E+02 -0.51632852282E+01 -0.17363679848E+01  0.18726386683E+02  0.00000000000E+00 0. -1.
         11    1    3    3    0    0 -0.20764412381E+01  0.21965951187E+02 -0.39862424935E+01  0.22421078236E+02  0.51100000000E-03 0. -1.
        -11    1    3    3    0    0  0.65437760625E+01  0.44430071390E+01 -0.12060154961E+02  0.14422505175E+02  0.51100000000E-03 0.  1.
        -12    1    3    3    0    0 -0.22383893368E+02 -0.21245673098E+02  0.17782765439E+02  0.35618029906E+02  0.00000000000E+00 0.  1.
</event>
<event>
 7    1  0.3020651E-013  0.7246163E+02  0.7816164E-02  0.1226708E+00
        -11   -1    0    0    0    0  0.00000000000E+00  0.00000000000E+00  0.45593999997E+02  0.45594000000E+02  0.51100000000E-03 0.  1.
         11   -1    0    0    0    0 -0.00000000000E+00 -0.00000000000E+00 -0.45593999997E+02  0.45594000000E+02  0.51100000000E-03 0. -1.
    9900012    2    1    2    0    0  0.49771026487E+01  0.12204644728E+02  0.13302333269E+02  0.72461628912E+02  0.70000076361E+02 0.  0.
         12    1    1    2    0    0 -0.49771026487E+01 -0.12204644728E+02 -0.13302333269E+02  0.18726371088E+02  0.00000000000E+00 0. -1.
         11    1    3    3    0    0 -0.89654847859E+00  0.34620154738E+01  0.16437386003E+02  0.16821920497E+02  0.51100000000E-03 0. -1.
        -11    1    3    3    0    0  0.57668056836E+01 -0.62616073660E+00  0.25167129796E+02  0.25826973254E+02  0.51100000000E-03 0.  1.
         12    1    3    3    0    0  0.10684544373E+00  0.93687899910E+01 -0.28302182530E+02  0.29812735161E+02  0.00000000000E+00 0. -1.
</event>
<event>
 7    1  0.3020651E-013  0.7246089E+02  0.7816164E-02  0.1226710E+00
        -11   -1    0    0    0    0  0.00000000000E+00  0.00000000000E+00  0.45593999997E+02  0.45594000000E+02  0.51100000000E-03 0.  1.
         11   -1    0    0    0    0 -0.00000000000E+00 -0.00000000000E+00 -0.45593999997E+02  0.45594000000E+02  0.51100000000E-03 0. -1.
    9900012    2    1    2    0    0 -0.27549425209E+01  0.12903528226E+01  0.18478359788E+02  0.72460894000E+02  0.69999118995E+02 0.  0.
         12    1    1    2    0    0  0.27549425209E+01 -0.12903528226E+01 -0.18478359788E+02  0.18727106000E+02  0.00000000000E+00 0. -1.
         11    1    3    3    0    0  0.17693021551E+02 -0.56122324663E+01 -0.18527474670E+02  0.26226084015E+02  0.51100000000E-03 0. -1.
        -11    1    3    3    0    0 -0.10154682988E+01  0.63433708680E+01  0.17729987262E+02  0.18857942051E+02  0.51100000000E-03 0.  1.
        -12    1    3    3    0    0 -0.19432495773E+02  0.55921442090E+00  0.19275847196E+02  0.27376867933E+02  0.00000000000E+00 0.  1.
</event>
<event>
 7    1  0.3020651E-013  0.7246157E+02  0.7816164E-02  0.1226708E+00
        -11   -1    0    0    0    0  0.00000000000E+00  0.00000000000E+00  0.45593999997E+02  0.45594000000E+02  0.51100000000E-03 0. -1.
         11   -1    0    0    0    0 -0.00000000000E+00 -0.00000000000E+00 -0.45593999997E+02  0.45594000000E+02  0.51100000000E-03 0.  1.
    9900012    2    1    2    0    0 -0.87471894429E+01  0.14329668158E+02 -0.82961733840E+01  0.72461569334E+02  0.69999998749E+02 0.  0.
         12    1    1    2    0    0  0.87471894429E+01 -0.14329668158E+02  0.82961733840E+01  0.18726430666E+02  0.00000000000E+00 0. -1.
         11    1    3    3    0    0  0.13601162994E+02 -0.87478000722E+01 -0.10328605793E+02  0.19188427210E+02  0.51100000000E-03 0. -1.
        -11    1    3    3    0    0 -0.83480584643E+01  0.26004063856E+02 -0.14897602162E+02  0.31110126448E+02  0.51100000000E-03 0.  1.
        -12    1    3    3    0    0 -0.14000293973E+02 -0.29265956254E+01  0.16930034571E+02  0.22163015676E+02  0.00000000000E+00 0.  1.
</event>
<event>
 7    1  0.3020651E-013  0.7246167E+02  0.7816164E-02  0.1226708E+00
        -11   -1    0    0    0    0  0.00000000000E+00  0.00000000000E+00  0.45593999997E+02  0.45594000000E+02  0.51100000000E-03 0. -1.
         11   -1    0    0    0    0 -0.00000000000E+00 -0.00000000000E+00 -0.45593999997E+02  0.45594000000E+02  0.51100000000E-03 0.  1.
    9900012    2    1    2    0    0  0.21371230719E+01 -0.18428860886E+02 -0.25466305979E+01  0.72461667311E+02  0.70000126382E+02 0.  0.
         12    1    1    2    0    0 -0.21371230719E+01  0.18428860886E+02  0.25466305979E+01  0.18726332689E+02  0.00000000000E+00 0. -1.
         11    1    3    3    0    0 -0.26328379514E+01 -0.40622981491E+01 -0.72064184105E+01  0.86813920830E+01  0.51100000000E-03 0. -1.
        -11    1    3    3    0    0 -0.16326953687E+02 -0.30450598059E+02 -0.62204628229E+01  0.35107014924E+02  0.51100000000E-03 0.  1.
         12    1    3    3    0    0  0.21096914711E+02  0.16084035323E+02  0.10880250635E+02  0.28673260304E+02  0.00000000000E+00 0. -1.
</event>
<event>
 7    1  0.3020651E-013  0.7246155E+02  0.7816164E-02  0.1226708E+00
        -11   -1    0    0    0    0  0.00000000000E+00  0.00000000000E+00  0.45593999997E+02  0.45594000000E+02  0.51100000000E-03 0.  1.
         11   -1    0    0    0    0 -0.00000000000E+00 -0.00000000000E+00 -0.45593999997E+02  0.45594000000E+02  0.51100000000E-03 0. -1.
    9900012    2    1    2    0    0  0.47517359912E+01  0.18112409294E+02 -0.20407376553E+00  0.72461547814E+02  0.69999970716E+02 0.  0.
         12    1    1    2    0    0 -0.47517359912E+01 -0.18112409294E+02  0.20407376553E+00  0.18726452186E+02  0.00000000000E+00 0. -1.
         11    1    3    3    0    0  0.22831904153E+02  0.16362176011E+02  0.78510471468E+00  0.28100409975E+02  0.51100000000E-03 0. -1.
        -11    1    3    3    0    0 -0.10908767865E+02  0.19928831558E+02 -0.72381827025E+01  0.23844303989E+02  0.51100000000E-03 0.  1.
        -12    1    3    3    0    0 -0.71714002969E+01 -0.18178598276E+02  0.62490042223E+01  0.20516833851E+02  0.00000000000E+00 0.  1.
</event>
<event>
 7    1  0.3020651E-013  0.7246155E+02  0.7816164E-02  0.1226708E+00
        -11   -1    0    0    0    0  0.00000000000E+00  0.00000000000E+00  0.45593999997E+02  0.45594000000E+02  0.51100000000E-03 0.  1.
         11   -1    0    0    0    0 -0.00000000000E+00 -0.00000000000E+00 -0.45593999997E+02  0.45594000000E+02  0.51100000000E-03 0. -1.
    9900012    2    1    2    0    0  0.14168410478E+02  0.11809876705E+02  0.32346258660E+01  0.72461552186E+02  0.69999976410E+02 0.  0.
         12    1    1    2    0    0 -0.14168410478E+02 -0.11809876705E+02 -0.32346258660E+01  0.18726447814E+02  0.00000000000E+00 0. -1.
         11    1    3    3    0    0  0.15139846633E+02 -0.98882638939E+01  0.67719795361E+01  0.19309386992E+02  0.51100000000E-03 0. -1.
        -11    1    3    3    0    0  0.16882951912E+02 -0.77284711757E+01 -0.23077915238E+01  0.18710671659E+02  0.51100000000E-03 0.  1.
        -12    1    3    3    0    0 -0.17854388067E+02  0.29426611775E+02 -0.12295621463E+01  0.34441493534E+02  0.00000000000E+00 0.  1.
</event>
<event>
 7    1  0.3020651E-013  0.7246158E+02  0.7816164E-02  0.1226708E+00
        -11   -1    0    0    0    0  0.00000000000E+00  0.00000000000E+00  0.45593999997E+02  0.45594000000E+02  0.51100000000E-03 0. -1.
         11   -1    0    0    0    0 -0.00000000000E+00 -0.00000000000E+00 -0.45593999997E+02  0.45594000000E+02  0.51100000000E-03 0.  1.
    9900012    2    1    2    0    0 -0.10389820448E+02  0.33651226937E+00 -0.15576175394E+02  0.72461578843E+02  0.70000011136E+02 0.  0.
         12    1    1    2    0    0  0.10389820448E+02 -0.33651226937E+00  0.15576175394E+02  0.18726421157E+02  0.00000000000E+00 0. -1.
         11    1    3    3    0    0  0.14449131106E+01  0.74736684363E+01 -0.28487446529E+01  0.81276589588E+01  0.51100000000E-03 0. -1.
        -11    1    3    3    0    0 -0.46473100110E+01 -0.19287864315E+02 -0.33668168002E+02  0.39078955168E+02  0.51100000000E-03 0.  1.
         12    1    3    3    0    0 -0.71874235480E+01  0.12150708148E+02  0.20940737261E+02  0.25254964716E+02  0.00000000000E+00 0. -1.
</event>
<event>
 7    1  0.3020651E-013  0.7246157E+02  0.7816164E-02  0.1226708E+00
        -11   -1    0    0    0    0  0.00000000000E+00  0.00000000000E+00  0.45593999997E+02  0.45594000000E+02  0.51100000000E-03 0.  1.
         11   -1    0    0    0    0 -0.00000000000E+00 -0.00000000000E+00 -0.45593999997E+02  0.45594000000E+02  0.51100000000E-03 0. -1.
    9900012    2    1    2    0    0 -0.10005493341E+02  0.15233944717E+02 -0.43007224236E+01  0.72461569961E+02  0.69999999566E+02 0.  0.
         12    1    1    2    0    0  0.10005493341E+02 -0.15233944717E+02  0.43007224236E+01  0.18726430039E+02  0.00000000000E+00 0. -1.
         11    1    3    3    0    0  0.38038849088E+01  0.31914178340E+02  0.47092467227E+01  0.32483246828E+02  0.51100000000E-03 0. -1.
        -11    1    3    3    0    0 -0.12613724324E+02  0.28080099606E+01 -0.14766565475E+02  0.19622497737E+02  0.51100000000E-03 0.  1.
        -12    1    3    3    0    0 -0.11956539264E+01 -0.19488243584E+02  0.57565963283E+01  0.20355825397E+02  0.00000000000E+00 0.  1.
</event>
<event>
 7    1  0.3020651E-013  0.7246162E+02  0.7816164E-02  0.1226708E+00
        -11   -1    0    0    0    0  0.00000000000E+00  0.00000000000E+00  0.45593999997E+02  0.45594000000E+02  0.51100000000E-03 0.  1.
         11   -1    0    0    0    0 -0.00000000000E+00 -0.00000000000E+00 -0.45593999997E+02  0.45594000000E+02  0.51100000000E-03 0. -1.
    9900012    2    1    2    0    0  0.42091749376E+01 -0.12721859571E+02  0.13081075601E+02  0.72461617448E+02  0.70000061426E+02 0.  0.
         12    1    1    2    0    0 -0.42091749376E+01  0.12721859571E+02 -0.13081075601E+02  0.18726382552E+02  0.00000000000E+00 0. -1.
         11    1    3    3    0    0  0.12113849467E+02 -0.44606061293E+01  0.46917683060E+01  0.13735175501E+02  0.51100000000E-03 0. -1.
        -11    1    3    3    0    0  0.11423459227E+02  0.20459917648E+02  0.19539797738E+01  0.23514286893E+02  0.51100000000E-03 0.  1.
        -12    1    3    3    0    0 -0.19328133756E+02 -0.28721171090E+02  0.64353275215E+01  0.35212155054E+02  0.00000000000E+00 0.  1.
</event>
<event>
 7    1  0.3020651E-013  0.7246154E+02  0.7816164E-02  0.1226708E+00
        -11   -1    0    0    0    0  0.00000000000E+00  0.00000000000E+00  0.45593999997E+02  0.45594000000E+02  0.51100000000E-03 0.  1.
         11   -1    0    0    0    0 -0.00000000000E+00 -0.00000000000E+00 -0.45593999997E+02  0.45594000000E+02  0.51100000000E-03 0. -1.
    9900012    2    1    2    0    0 -0.50124412390E+01  0.73686333160E+01  0.16469941318E+02  0.72461540347E+02  0.69999960988E+02 0.  0.
         12    1    1    2    0    0  0.50124412390E+01 -0.73686333160E+01 -0.16469941318E+02  0.18726459653E+02  0.00000000000E+00 0. -1.
         11    1    3    3    0    0  0.14916481421E+02  0.86763656748E+01 -0.25491213012E+01  0.17443587905E+02  0.51100000000E-03 0. -1.
        -11    1    3    3    0    0  0.14725437960E+02  0.29737453140E+01 -0.46885558953E+00  0.15030020297E+02  0.51100000000E-03 0.  1.
        -12    1    3    3    0    0 -0.34654360621E+02 -0.42814776728E+01  0.19487918209E+02  0.39987932145E+02  0.00000000000E+00 0.  1.
</event>
<event>
 7    1  0.3020651E-013  0.7246155E+02  0.7816164E-02  0.1226708E+00
        -11   -1    0    0    0    0  0.00000000000E+00  0.00000000000E+00  0.45593999997E+02  0.45594000000E+02  0.51100000000E-03 0.  1.
         11   -1    0    0    0    0 -0.00000000000E+00 -0.00000000000E+00 -0.45593999997E+02  0.45594000000E+02  0.51100000000E-03 0. -1.
    9900012    2    1    2    0    0  0.48826742092E+01 -0.12183512700E+02  0.13356701793E+02  0.72461548870E+02  0.69999972091E+02 0.  0.
         12    1    1    2    0    0 -0.48826742092E+01  0.12183512700E+02 -0.13356701793E+02  0.18726451130E+02  0.00000000000E+00 0. -1.
         11    1    3    3    0    0  0.17807053818E+02 -0.67375868388E+01  0.21247755686E+02  0.28529867929E+02  0.51100000000E-03 0. -1.
        -11    1    3    3    0    0  0.86085249128E+01  0.10933044929E+02  0.38519976955E+01  0.14438700048E+02  0.51100000000E-03 0.  1.
         12    1    3    3    0    0 -0.21532904522E+02 -0.16378970790E+02 -0.11743051589E+02  0.29492980892E+02  0.00000000000E+00 0. -1.
</event>
<event>
 7    1  0.3020651E-013  0.7246162E+02  0.7816164E-02  0.1226708E+00
        -11   -1    0    0    0    0  0.00000000000E+00  0.00000000000E+00  0.45593999997E+02  0.45594000000E+02  0.51100000000E-03 0. -1.
         11   -1    0    0    0    0 -0.00000000000E+00 -0.00000000000E+00 -0.45593999997E+02  0.45594000000E+02  0.51100000000E-03 0.  1.
    9900012    2    1    2    0    0 -0.13561327394E+02  0.37427816959E+01  0.12359575790E+02  0.72461624770E+02  0.70000070965E+02 0.  0.
         12    1    1    2    0    0  0.13561327394E+02 -0.37427816959E+01 -0.12359575790E+02  0.18726375230E+02  0.00000000000E+00 0. -1.
         11    1    3    3    0    0 -0.87345876462E+01  0.15409063328E+02  0.97295025366E+01  0.20208796943E+02  0.51100000000E-03 0. -1.
        -11    1    3    3    0    0 -0.16514253377E+02  0.39410326990E+01  0.19933420312E+02  0.26183841371E+02  0.51100000000E-03 0.  1.
         12    1    3    3    0    0  0.11687513629E+02 -0.15607314331E+02 -0.17303347058E+02  0.26068986457E+02  0.00000000000E+00 0. -1.
</event>
<event>
 7    1  0.3020651E-013  0.7246155E+02  0.7816164E-02  0.1226708E+00
        -11   -1    0    0    0    0  0.00000000000E+00  0.00000000000E+00  0.45593999997E+02  0.45594000000E+02  0.51100000000E-03 0. -1.
         11   -1    0    0    0    0 -0.00000000000E+00 -0.00000000000E+00 -0.45593999997E+02  0.45594000000E+02  0.51100000000E-03 0.  1.
    9900012    2    1    2    0    0  0.17068739854E+02  0.47518514951E+01 -0.60628293541E+01  0.72461551521E+02  0.69999975545E+02 0.  0.
         12    1    1    2    0    0 -0.17068739854E+02 -0.47518514951E+01  0.60628293541E+01  0.18726448479E+02  0.00000000000E+00 0. -1.
         11    1    3    3    0    0 -0.19144923321E+01  0.10721064949E+02  0.82878425832E+01  0.13685570850E+02  0.51100000000E-03 0. -1.
        -11    1    3    3    0    0 -0.74292403236E+01 -0.20104832139E+02  0.63592949976E+01  0.22357068687E+02  0.51100000000E-03 0.  1.
        -12    1    3    3    0    0  0.26412472510E+02  0.14135618685E+02 -0.20709966935E+02  0.36418911985E+02  0.00000000000E+00 0.  1.
</event>
<event>
 7    1  0.3020651E-013  0.7246156E+02  0.7816164E-02  0.1226708E+00
        -11   -1    0    0    0    0  0.00000000000E+00  0.00000000000E+00  0.45593999997E+02  0.45594000000E+02  0.51100000000E-03 0. -1.
         11   -1    0    0    0    0 -0.00000000000E+00 -0.00000000000E+00 -0.45593999997E+02  0.45594000000E+02  0.51100000000E-03 0.  1.
    9900012    2    1    2    0    0  0.90599979058E+01 -0.13782243408E+02 -0.88682423825E+01  0.72461560980E+02  0.69999987866E+02 0.  0.
         12    1    1    2    0    0 -0.90599979058E+01  0.13782243408E+02  0.88682423825E+01  0.18726439020E+02  0.00000000000E+00 0. -1.
         11    1    3    3    0    0  0.12888160435E+01  0.33408804656E+01 -0.37915541380E+01  0.52152096910E+01  0.51100000000E-03 0. -1.
        -11    1    3    3    0    0  0.17389795424E+02  0.15527599465E+02 -0.19388373144E+02  0.30321944915E+02  0.51100000000E-03 0.  1.
         12    1    3    3    0    0 -0.96186135612E+01 -0.32650723338E+02  0.14311684900E+02  0.36924406373E+02  0.00000000000E+00 0. -1.
</event>
<event>
 7    1  0.3020651E-013  0.7246155E+02  0.7816164E-02  0.1226708E+00
        -11   -1    0    0    0    0  0.00000000000E+00  0.00000000000E+00  0.45593999997E+02  0.45594000000E+02  0.51100000000E-03 0.  1.
         11   -1    0    0    0    0 -0.00000000000E+00 -0.00000000000E+00 -0.45593999997E+02  0.45594000000E+02  0.51100000000E-03 0. -1.
    9900012    2    1    2    0    0  0.83385566442E+01 -0.84364636407E+01  0.14490501869E+02  0.72461545715E+02  0.69999967981E+02 0.  0.
         12    1    1    2    0    0 -0.83385566442E+01  0.84364636407E+01 -0.14490501869E+02  0.18726454285E+02  0.00000000000E+00 0. -1.
         11    1    3    3    0    0  0.17068664152E+02 -0.63732467356E+01 -0.11397552269E+02  0.21490969449E+02  0.51100000000E-03 0. -1.
        -11    1    3    3    0    0 -0.26181638911E+02 -0.31559280279E+01  0.14370434853E+02  0.30032440725E+02  0.51100000000E-03 0.  1.
         12    1    3    3    0    0  0.17451531404E+02  0.10927111228E+01  0.11517619285E+02  0.20938135541E+02  0.00000000000E+00 0. -1.
</event>
<event>
 7    1  0.3020651E-013  0.7246155E+02  0.7816164E-02  0.1226708E+00
        -11   -1    0    0    0    0  0.00000000000E+00  0.00000000000E+00  0.45593999997E+02  0.45594000000E+02  0.51100000000E-03 0. -1.
         11   -1    0    0    0    0 -0.00000000000E+00 -0.00000000000E+00 -0.45593999997E+02  0.45594000000E+02  0.51100000000E-03 0.  1.
    9900012    2    1    2    0    0  0.45103869607E+01 -0.67339734859E+01 -0.16881641949E+02  0.72461552810E+02  0.69999977224E+02 0.  0.
         12    1    1    2    0    0 -0.45103869607E+01  0.67339734859E+01  0.16881641949E+02  0.18726447190E+02  0.00000000000E+00 0. -1.
         11    1    3    3    0    0  0.23944917201E+01 -0.12318641946E+02  0.93838503842E+01  0.15669689795E+02  0.51100000000E-03 0. -1.
        -11    1    3    3    0    0  0.58714891768E+01 -0.21638336680E+02 -0.80498742858E+01  0.23822100573E+02  0.51100000000E-03 0.  1.
        -12    1    3    3    0    0 -0.37555939363E+01  0.27223005140E+02 -0.18215618048E+02  0.32969762442E+02  0.00000000000E+00 0.  1.
</event>
<event>
 7    1  0.3020651E-013  0.7246157E+02  0.7816164E-02  0.1226708E+00
        -11   -1    0    0    0    0  0.00000000000E+00  0.00000000000E+00  0.45593999997E+02  0.45594000000E+02  0.51100000000E-03 0.  1.
         11   -1    0    0    0    0 -0.00000000000E+00 -0.00000000000E+00 -0.45593999997E+02  0.45594000000E+02  0.51100000000E-03 0. -1.
    9900012    2    1    2    0    0 -0.21208385435E+01  0.60537637708E+01  0.17593554375E+02  0.72461570349E+02  0.70000000072E+02 0.  0.
         12    1    1    2    0    0  0.21208385435E+01 -0.60537637708E+01 -0.17593554375E+02  0.18726429651E+02  0.00000000000E+00 0. -1.
         11    1    3    3    0    0 -0.82961312849E+01  0.13415199756E+02 -0.77340925224E+01  0.17567286819E+02  0.51100000000E-03 0. -1.
        -11    1    3    3    0    0 -0.19435390172E+02 -0.83206682055E+01  0.39221976102E+01  0.21502361379E+02  0.51100000000E-03 0.  1.
         12    1    3    3    0    0  0.25610682914E+02  0.95923222075E+00  0.21405449287E+02  0.33391922151E+02  0.00000000000E+00 0. -1.
</event>
<event>
 7    1  0.3020651E-013  0.7246154E+02  0.7816164E-02  0.1226708E+00
        -11   -1    0    0    0    0  0.00000000000E+00  0.00000000000E+00  0.45593999997E+02  0.45594000000E+02  0.51100000000E-03 0.  1.
         11   -1    0    0    0    0 -0.00000000000E+00 -0.00000000000E+00 -0.45593999997E+02  0.45594000000E+02  0.51100000000E-03 0. -1.
    9900012    2    1    2    0    0  0.43860051360E+01  0.26818203443E+01  0.18006977566E+02  0.72461536306E+02  0.69999955724E+02 0.  0.
         12    1    1    2    0    0 -0.43860051360E+01 -0.26818203443E+01 -0.18006977566E+02  0.18726463694E+02  0.00000000000E+00 0. -1.
         11    1    3    3    0    0  0.32085393594E+01  0.21213758515E+02 -0.11955503088E+02  0.24561195604E+02  0.51100000000E-03 0. -1.
        -11    1    3    3    0    0 -0.11802086980E+01  0.61540552206E+01  0.20368932523E+02  0.21310999522E+02  0.51100000000E-03 0.  1.
        -12    1    3    3    0    0  0.23576744745E+01 -0.24685993392E+02  0.95935481310E+01  0.26589341180E+02  0.00000000000E+00 0.  1.
</event>
<event>
 7    1  0.3020651E-013  0.7246157E+02  0.7816164E-02  0.1226708E+00
        -11   -1    0    0    0    0  0.00000000000E+00  0.00000000000E+00  0.45593999997E+02  0.45594000000E+02  0.51100000000E-03 0. -1.
         11   -1    0    0    0    0 -0.00000000000E+00 -0.00000000000E+00 -0.45593999997E+02  0.45594000000E+02  0.51100000000E-03 0.  1.
    9900012    2    1    2    0    0 -0.12871843974E+02 -0.10624794194E+02  0.84916786813E+01  0.72461568792E+02  0.69999998043E+02 0.  0.
         12    1    1    2    0    0  0.12871843974E+02  0.10624794194E+02 -0.84916786813E+01  0.18726431208E+02  0.00000000000E+00 0. -1.
         11    1    3    3    0    0  0.53413822847E+01 -0.11174204094E+02  0.14258046953E+02  0.18886108784E+02  0.51100000000E-03 0. -1.
        -11    1    3    3    0    0  0.16717666323E+02 -0.58848524444E+01 -0.26539913123E+01  0.17920812641E+02  0.51100000000E-03 0.  1.
        -12    1    3    3    0    0 -0.34930892582E+02  0.64342623441E+01 -0.31123769591E+01  0.35654647366E+02  0.00000000000E+00 0.  1.
</event>
<event>
 7    1  0.3020651E-013  0.7246146E+02  0.7816164E-02  0.1226708E+00
        -11   -1    0    0    0    0  0.00000000000E+00  0.00000000000E+00  0.45593999997E+02  0.45594000000E+02  0.51100000000E-03 0. -1.
         11   -1    0    0    0    0 -0.00000000000E+00 -0.00000000000E+00 -0.45593999997E+02  0.45594000000E+02  0.51100000000E-03 0.  1.
    9900012    2    1    2    0    0 -0.15989914081E+02 -0.72052992608E+01 -0.65642546706E+01  0.72461464572E+02  0.69999862277E+02 0.  0.
         12    1    1    2    0    0  0.15989914081E+02  0.72052992608E+01  0.65642546706E+01  0.18726535428E+02  0.00000000000E+00 0. -1.
         11    1    3    3    0    0  0.66039273174E+01 -0.72058924321E+00  0.97982785469E+01  0.11837962984E+02  0.51100000000E-03 0. -1.
        -11    1    3    3    0    0  0.13957929084E+02  0.94530202284E+01 -0.11603424227E+02  0.20465161368E+02  0.51100000000E-03 0.  1.
         12    1    3    3    0    0 -0.36551770483E+02 -0.15937730246E+02 -0.47591089907E+01  0.40158340220E+02  0.00000000000E+00 0. -1.
</event>
<event>
 7    1  0.3020651E-013  0.7246156E+02  0.7816164E-02  0.1226708E+00
        -11   -1    0    0    0    0  0.00000000000E+00  0.00000000000E+00  0.45593999997E+02  0.45594000000E+02  0.51100000000E-03 0. -1.
         11   -1    0    0    0    0 -0.00000000000E+00 -0.00000000000E+00 -0.45593999997E+02  0.45594000000E+02  0.51100000000E-03 0.  1.
    9900012    2    1    2    0    0  0.60580768545E+01  0.11875366888E+02 -0.13151233762E+02  0.72461559245E+02  0.69999985606E+02 0.  0.
         12    1    1    2    0    0 -0.60580768545E+01 -0.11875366888E+02  0.13151233762E+02  0.18726440755E+02  0.00000000000E+00 0. -1.
         11    1    3    3    0    0  0.61622561469E+00  0.11188193528E+02 -0.13630655796E+02  0.17645117912E+02  0.51100000000E-03 0.  1.
        -11    1    3    3    0    0 -0.17009326444E+02 -0.11985218986E+01  0.19088008427E+02  0.25595032854E+02  0.51100000000E-03 0. -1.
         12    1    3    3    0    0  0.22451177684E+02  0.18856952582E+01 -0.18608586392E+02  0.29221408480E+02  0.00000000000E+00 0. -1.
</event>
<event>
 7    1  0.3020651E-013  0.7246160E+02  0.7816164E-02  0.1226708E+00
        -11   -1    0    0    0    0  0.00000000000E+00  0.00000000000E+00  0.45593999997E+02  0.45594000000E+02  0.51100000000E-03 0.  1.
         11   -1    0    0    0    0 -0.00000000000E+00 -0.00000000000E+00 -0.45593999997E+02  0.45594000000E+02  0.51100000000E-03 0. -1.
    9900012    2    1    2    0    0 -0.10906029862E+02  0.40650091623E+01  0.14670112458E+02  0.72461601885E+02  0.70000041152E+02 0.  0.
         12    1    1    2    0    0  0.10906029862E+02 -0.40650091623E+01 -0.14670112458E+02  0.18726398115E+02  0.00000000000E+00 0. -1.
         11    1    3    3    0    0 -0.52210402109E+01 -0.33340706360E+01  0.23930644922E+02  0.24719446889E+02  0.51100000000E-03 0. -1.
        -11    1    3    3    0    0  0.99301870227E+01  0.22057362791E+02  0.52498799847E+00  0.24195278057E+02  0.51100000000E-03 0.  1.
         12    1    3    3    0    0 -0.15615176674E+02 -0.14658282992E+02 -0.97855204620E+01  0.23546876938E+02  0.00000000000E+00 0. -1.
</event>
<event>
 7    1  0.3020651E-013  0.7246154E+02  0.7816164E-02  0.1226708E+00
        -11   -1    0    0    0    0  0.00000000000E+00  0.00000000000E+00  0.45593999997E+02  0.45594000000E+02  0.51100000000E-03 0. -1.
         11   -1    0    0    0    0 -0.00000000000E+00 -0.00000000000E+00 -0.45593999997E+02  0.45594000000E+02  0.51100000000E-03 0.  1.
    9900012    2    1    2    0    0 -0.14823765722E+02 -0.56685464699E+00 -0.11428687766E+02  0.72461541220E+02  0.69999962125E+02 0.  0.
         12    1    1    2    0    0  0.14823765722E+02  0.56685464699E+00  0.11428687766E+02  0.18726458780E+02  0.00000000000E+00 0. -1.
         11    1    3    3    0    0 -0.29734478975E-01  0.20571154791E+01 -0.80355929147E+01  0.82947792005E+01  0.51100000000E-03 0. -1.
        -11    1    3    3    0    0 -0.17667315327E+02 -0.29408451129E+02  0.74863649825E+01  0.35114622162E+02  0.51100000000E-03 0.  1.
         12    1    3    3    0    0  0.28732840835E+01  0.26784481003E+02 -0.10879459834E+02  0.29052139858E+02  0.00000000000E+00 0. -1.
</event>
<event>
 7    1  0.3020651E-013  0.7246161E+02  0.7816164E-02  0.1226708E+00
        -11   -1    0    0    0    0  0.00000000000E+00  0.00000000000E+00  0.45593999997E+02  0.45594000000E+02  0.51100000000E-03 0. -1.
         11   -1    0    0    0    0 -0.00000000000E+00 -0.00000000000E+00 -0.45593999997E+02  0.45594000000E+02  0.51100000000E-03 0.  1.
    9900012    2    1    2    0    0  0.13663203610E+02 -0.12743931742E+02 -0.12596324366E+01  0.72461612120E+02  0.70000054486E+02 0.  0.
         12    1    1    2    0    0 -0.13663203610E+02  0.12743931742E+02  0.12596324366E+01  0.18726387880E+02  0.00000000000E+00 0. -1.
         11    1    3    3    0    0 -0.12646228785E+02 -0.12725192923E+02  0.50653722697E+00  0.17947540712E+02  0.51100000000E-03 0. -1.
        -11    1    3    3    0    0  0.25071880998E+02 -0.19642568770E+02  0.75851191825E+01  0.32740857624E+02  0.51100000000E-03 0.  1.
         12    1    3    3    0    0  0.12375513968E+01  0.19623829951E+02 -0.93512888461E+01  0.21773213784E+02  0.00000000000E+00 0. -1.
</event>
<event>
 7    1  0.3020651E-013  0.7246154E+02  0.7816164E-02  0.1226708E+00
        -11   -1    0    0    0    0  0.00000000000E+00  0.00000000000E+00  0.45593999997E+02  0.45594000000E+02  0.51100000000E-03 0.  1.
         11   -1    0    0    0    0 -0.00000000000E+00 -0.00000000000E+00 -0.45593999997E+02  0.45594000000E+02  0.51100000000E-03 0. -1.
    9900012    2    1    2    0    0  0.41124647388E+01  0.85096964890E+01  0.16166410920E+02  0.72461544313E+02  0.69999966154E+02 0.  0.
         12    1    1    2    0    0 -0.41124647388E+01 -0.85096964890E+01 -0.16166410920E+02  0.18726455687E+02  0.00000000000E+00 0. -1.
         11    1    3    3    0    0 -0.12541904089E+01  0.13453495959E+02 -0.13739579356E+02  0.19270329219E+02  0.51100000000E-03 0. -1.
        -11    1    3    3    0    0 -0.17748884587E+02 -0.42367814036E+01  0.22368913132E+02  0.28867654835E+02  0.51100000000E-03 0.  1.
         12    1    3    3    0    0  0.23115539734E+02 -0.70701806597E+00  0.75370771439E+01  0.24323560258E+02  0.00000000000E+00 0. -1.
</event>
<event>
 7    1  0.3020651E-013  0.7246159E+02  0.7816164E-02  0.1226708E+00
        -11   -1    0    0    0    0  0.00000000000E+00  0.00000000000E+00  0.45593999997E+02  0.45594000000E+02  0.51100000000E-03 0. -1.
         11   -1    0    0    0    0 -0.00000000000E+00 -0.00000000000E+00 -0.45593999997E+02  0.45594000000E+02  0.51100000000E-03 0.  1.
    9900012    2    1    2    0    0  0.19785811526E+01  0.18517384629E+02 -0.19672257448E+01  0.72461593671E+02  0.70000030452E+02 0.  0.
         12    1    1    2    0    0 -0.19785811526E+01 -0.18517384629E+02  0.19672257448E+01  0.18726406329E+02  0.00000000000E+00 0. -1.
         11    1    3    3    0    0  0.23517503282E+02 -0.16323620243E+01  0.12925477817E+01  0.23609494837E+02  0.51100000000E-03 0. -1.
        -11    1    3    3    0    0  0.11133499134E+02  0.51234528516E+01  0.22790641805E+01  0.12465901728E+02  0.51100000000E-03 0.  1.
        -12    1    3    3    0    0 -0.32672421264E+02  0.15026293802E+02 -0.55388377070E+01  0.36386197106E+02  0.00000000000E+00 0.  1.
</event>
<event>
 7    1  0.3020651E-013  0.7246157E+02  0.7816164E-02  0.1226708E+00
        -11   -1    0    0    0    0  0.00000000000E+00  0.00000000000E+00  0.45593999997E+02  0.45594000000E+02  0.51100000000E-03 0.  1.
         11   -1    0    0    0    0 -0.00000000000E+00 -0.00000000000E+00 -0.45593999997E+02  0.45594000000E+02  0.51100000000E-03 0. -1.
    9900012    2    1    2    0    0  0.46796419098E+01 -0.21014662449E+01  0.18010108957E+02  0.72461568588E+02  0.69999997777E+02 0.  0.
         12    1    1    2    0    0 -0.46796419098E+01  0.21014662449E+01 -0.18010108957E+02  0.18726431412E+02  0.00000000000E+00 0. -1.
         11    1    3    3    0    0 -0.14475436951E+02 -0.57995338886E-01  0.92543799193E+01  0.17180954174E+02  0.51100000000E-03 0. -1.
        -11    1    3    3    0    0  0.29162940302E+02  0.12728455808E+02  0.16484089519E+02  0.35835957945E+02  0.51100000000E-03 0.  1.
         12    1    3    3    0    0 -0.10007861441E+02 -0.14771926714E+02 -0.77283604806E+01  0.19444656469E+02  0.00000000000E+00 0. -1.
</event>
<event>
 7    1  0.3020651E-013  0.7246157E+02  0.7816164E-02  0.1226708E+00
        -11   -1    0    0    0    0  0.00000000000E+00  0.00000000000E+00  0.45593999997E+02  0.45594000000E+02  0.51100000000E-03 0. -1.
         11   -1    0    0    0    0 -0.00000000000E+00 -0.00000000000E+00 -0.45593999997E+02  0.45594000000E+02  0.51100000000E-03 0.  1.
    9900012    2    1    2    0    0  0.18635321209E+01 -0.18156335291E+02 -0.41897380691E+01  0.72461570329E+02  0.70000000045E+02 0.  0.
         12    1    1    2    0    0 -0.18635321209E+01  0.18156335291E+02  0.41897380691E+01  0.18726429671E+02  0.00000000000E+00 0. -1.
         11    1    3    3    0    0 -0.31570847518E+01  0.10412741733E+02  0.77445620026E+01  0.13355546241E+02  0.51100000000E-03 0. -1.
        -11    1    3    3    0    0  0.26957985879E+02 -0.88052964467E+01 -0.56101250737E+01  0.28909163803E+02  0.51100000000E-03 0.  1.
         12    1    3    3    0    0 -0.21937369006E+02 -0.19763780577E+02 -0.63241749980E+01  0.30196860284E+02  0.00000000000E+00 0. -1.
</event>
<event>
 7    1  0.3020651E-013  0.7246156E+02  0.7816164E-02  0.1226708E+00
        -11   -1    0    0    0    0  0.00000000000E+00  0.00000000000E+00  0.45593999997E+02  0.45594000000E+02  0.51100000000E-03 0.  1.
         11   -1    0    0    0    0 -0.00000000000E+00 -0.00000000000E+00 -0.45593999997E+02  0.45594000000E+02  0.51100000000E-03 0. -1.
    9900012    2    1    2    0    0 -0.15652039841E+02  0.54652354975E+01 -0.87077151095E+01  0.72461562735E+02  0.69999990152E+02 0.  0.
         12    1    1    2    0    0  0.15652039841E+02 -0.54652354975E+01  0.87077151095E+01  0.18726437265E+02  0.00000000000E+00 0. -1.
         11    1    3    3    0    0 -0.25058058541E+02  0.25298551122E+02 -0.10823346633E+02  0.37216499289E+02  0.51100000000E-03 0. -1.
        -11    1    3    3    0    0  0.86546318676E+00  0.29754089376E+01 -0.82221079879E+01  0.87866458276E+01  0.51100000000E-03 0.  1.
        -12    1    3    3    0    0  0.85405555138E+01 -0.22808724562E+02  0.10337739511E+02  0.26458417618E+02  0.00000000000E+00 0.  1.
</event>
<event>
 7    1  0.3020651E-013  0.7246160E+02  0.7816164E-02  0.1226708E+00
        -11   -1    0    0    0    0  0.00000000000E+00  0.00000000000E+00  0.45593999997E+02  0.45594000000E+02  0.51100000000E-03 0. -1.
         11   -1    0    0    0    0 -0.00000000000E+00 -0.00000000000E+00 -0.45593999997E+02  0.45594000000E+02  0.51100000000E-03 0.  1.
    9900012    2    1    2    0    0  0.19422415794E+01  0.17362126669E+02  0.67425790024E+01  0.72461598412E+02  0.70000036629E+02 0.  0.
         12    1    1    2    0    0 -0.19422415794E+01 -0.17362126669E+02 -0.67425790024E+01  0.18726401588E+02  0.00000000000E+00 0. -1.
         11    1    3    3    0    0  0.15877520616E+01 -0.34208103141E+01  0.18916335432E+02  0.19288614420E+02  0.51100000000E-03 0. -1.
        -11    1    3    3    0    0 -0.67914660454E+01 -0.14297467429E+02 -0.19980733472E+01  0.15954118067E+02  0.51100000000E-03 0.  1.
        -12    1    3    3    0    0  0.71459555633E+01  0.35080404412E+02 -0.10175683082E+02  0.37218865926E+02  0.00000000000E+00 0.  1.
</event>
<event>
 7    1  0.3020651E-013  0.7246164E+02  0.7816164E-02  0.1226708E+00
        -11   -1    0    0    0    0  0.00000000000E+00  0.00000000000E+00  0.45593999997E+02  0.45594000000E+02  0.51100000000E-03 0.  1.
         11   -1    0    0    0    0 -0.00000000000E+00 -0.00000000000E+00 -0.45593999997E+02  0.45594000000E+02  0.51100000000E-03 0. -1.
    9900012    2    1    2    0    0  0.42913992770E+01  0.17605303652E+02 -0.47237582064E+01  0.72461635803E+02  0.70000085337E+02 0.  0.
         12    1    1    2    0    0 -0.42913992770E+01 -0.17605303652E+02  0.47237582064E+01  0.18726364197E+02  0.00000000000E+00 0. -1.
         11    1    3    3    0    0  0.51936373453E+01  0.26382472899E+02 -0.16660263008E+02  0.31631836951E+02  0.51100000000E-03 0. -1.
        -11    1    3    3    0    0  0.17706293678E+02  0.11942620180E+01  0.34642799383E+01  0.18081491457E+02  0.51100000000E-03 0.  1.
         12    1    3    3    0    0 -0.18608531746E+02 -0.99714312643E+01  0.84722248635E+01  0.22748307395E+02  0.00000000000E+00 0. -1.
</event>
<event>
 7    1  0.3020651E-013  0.7246160E+02  0.7816164E-02  0.1226708E+00
        -11   -1    0    0    0    0  0.00000000000E+00  0.00000000000E+00  0.45593999997E+02  0.45594000000E+02  0.51100000000E-03 0.  1.
         11   -1    0    0    0    0 -0.00000000000E+00 -0.00000000000E+00 -0.45593999997E+02  0.45594000000E+02  0.51100000000E-03 0. -1.
    9900012    2    1    2    0    0 -0.95496871831E+01  0.13187276925E+02  0.92508029371E+01  0.72461597436E+02  0.70000035357E+02 0.  0.
         12    1    1    2    0    0  0.95496871831E+01 -0.13187276925E+02 -0.92508029371E+01  0.18726402564E+02  0.00000000000E+00 0. -1.
         11    1    3    3    0    0  0.50587789430E+01 -0.14493001671E+02  0.22422442083E+02  0.27173594739E+02  0.51100000000E-03 0. -1.
        -11    1    3    3    0    0  0.55731818279E+01 -0.29922832921E+01 -0.13942537288E+00  0.63272074948E+01  0.51100000000E-03 0.  1.
        -12    1    3    3    0    0 -0.20181647954E+02  0.30672561888E+02 -0.13032213773E+02  0.38960795202E+02  0.00000000000E+00 0.  1.
</event>
<event>
 7    1  0.3020651E-013  0.7246160E+02  0.7816164E-02  0.1226708E+00
        -11   -1    0    0    0    0  0.00000000000E+00  0.00000000000E+00  0.45593999997E+02  0.45594000000E+02  0.51100000000E-03 0. -1.
         11   -1    0    0    0    0 -0.00000000000E+00 -0.00000000000E+00 -0.45593999997E+02  0.45594000000E+02  0.51100000000E-03 0.  1.
    9900012    2    1    2    0    0 -0.10956272763E+01  0.17887836365E+02  0.54316684196E+01  0.72461598563E+02  0.70000036826E+02 0.  0.
         12    1    1    2    0    0  0.10956272763E+01 -0.17887836365E+02 -0.54316684196E+01  0.18726401437E+02  0.00000000000E+00 0. -1.
         11    1    3    3    0    0  0.11276941285E+02  0.14282728122E+02  0.24718303350E+02  0.30694628978E+02  0.51100000000E-03 0. -1.
        -11    1    3    3    0    0  0.24059657920E+01 -0.80459652868E+01  0.59456568035E+01  0.10289658103E+02  0.51100000000E-03 0.  1.
        -12    1    3    3    0    0 -0.14778534353E+02  0.11651073530E+02 -0.25232291734E+02  0.31477311482E+02  0.00000000000E+00 0.  1.
</event>
<event>
 7    1  0.3020651E-013  0.7246157E+02  0.7816164E-02  0.1226708E+00
        -11   -1    0    0    0    0  0.00000000000E+00  0.00000000000E+00  0.45593999997E+02  0.45594000000E+02  0.51100000000E-03 0.  1.
         11   -1    0    0    0    0 -0.00000000000E+00 -0.00000000000E+00 -0.45593999997E+02  0.45594000000E+02  0.51100000000E-03 0. -1.
    9900012    2    1    2    0    0  0.10870433747E+02  0.30378013511E+01  0.14942715296E+02  0.72461566616E+02  0.69999995208E+02 0.  0.
         12    1    1    2    0    0 -0.10870433747E+02 -0.30378013511E+01 -0.14942715296E+02  0.18726433384E+02  0.00000000000E+00 0. -1.
         11    1    3    3    0    0 -0.68567994104E+01 -0.13973522253E+02 -0.17238186206E+02  0.23225634249E+02  0.51100000000E-03 0. -1.
        -11    1    3    3    0    0  0.79976857722E+01 -0.29436967566E+01 -0.17379309190E+01  0.86976279782E+01  0.51100000000E-03 0.  1.
        -12    1    3    3    0    0  0.97295473850E+01  0.19955020361E+02  0.33918832421E+02  0.40538304389E+02  0.00000000000E+00 0.  1.
</event>
<event>
 7    1  0.3020651E-013  0.7246155E+02  0.7816164E-02  0.1226708E+00
        -11   -1    0    0    0    0  0.00000000000E+00  0.00000000000E+00  0.45593999997E+02  0.45594000000E+02  0.51100000000E-03 0. -1.
         11   -1    0    0    0    0 -0.00000000000E+00 -0.00000000000E+00 -0.45593999997E+02  0.45594000000E+02  0.51100000000E-03 0.  1.
    9900012    2    1    2    0    0  0.77193238604E+01  0.15790602988E+02 -0.64613253971E+01  0.72461552674E+02  0.69999977046E+02 0.  0.
         12    1    1    2    0    0 -0.77193238604E+01 -0.15790602988E+02  0.64613253971E+01  0.18726447326E+02  0.00000000000E+00 0. -1.
         11    1    3    3    0    0 -0.67967457087E+01 -0.72873474694E+01 -0.29108243686E+01  0.10381429773E+02  0.51100000000E-03 0. -1.
        -11    1    3    3    0    0  0.77461635418E+00 -0.30020749252E+01 -0.25272920840E+02  0.25462384264E+02  0.51100000000E-03 0.  1.
         12    1    3    3    0    0  0.13741453215E+02  0.26080025382E+02  0.21722419812E+02  0.36617738637E+02  0.00000000000E+00 0. -1.
</event>
<event>
 7    1  0.3020651E-013  0.7246184E+02  0.7816164E-02  0.1226707E+00
        -11   -1    0    0    0    0  0.00000000000E+00  0.00000000000E+00  0.45593999997E+02  0.45594000000E+02  0.51100000000E-03 0.  1.
         11   -1    0    0    0    0 -0.00000000000E+00 -0.00000000000E+00 -0.45593999997E+02  0.45594000000E+02  0.51100000000E-03 0. -1.
    9900012    2    1    2    0    0  0.42103930869E+01 -0.81233429573E+01  0.16338693152E+02  0.72461841700E+02  0.70000353555E+02 0.  0.
         12    1    1    2    0    0 -0.42103930869E+01  0.81233429573E+01 -0.16338693152E+02  0.18726158300E+02  0.00000000000E+00 0. -1.
         11    1    3    3    0    0  0.18083039235E+02  0.21499025510E+02  0.88156214553E+01  0.29443498225E+02  0.51100000000E-03 0. -1.
        -11    1    3    3    0    0 -0.40668063892E+01 -0.18026828816E+02  0.17006718272E+02  0.25114416936E+02  0.51100000000E-03 0.  1.
        -12    1    3    3    0    0 -0.98058397585E+01 -0.11595539651E+02 -0.94836465748E+01  0.17903926539E+02  0.00000000000E+00 0.  1.
</event>
<event>
 7    1  0.3020651E-013  0.7246168E+02  0.7816164E-02  0.1226708E+00
        -11   -1    0    0    0    0  0.00000000000E+00  0.00000000000E+00  0.45593999997E+02  0.45594000000E+02  0.51100000000E-03 0.  1.
         11   -1    0    0    0    0 -0.00000000000E+00 -0.00000000000E+00 -0.45593999997E+02  0.45594000000E+02  0.51100000000E-03 0. -1.
    9900012    2    1    2    0    0 -0.52140420797E+01  0.68752628247E+01  0.16619858306E+02  0.72461677248E+02  0.70000139327E+02 0.  0.
         12    1    1    2    0    0  0.52140420797E+01 -0.68752628247E+01 -0.16619858306E+02  0.18726322752E+02  0.00000000000E+00 0. -1.
         11    1    3    3    0    0 -0.22325662776E+02  0.34799409263E+01  0.50481751502E+00  0.22600886005E+02  0.51100000000E-03 0. -1.
        -11    1    3    3    0    0 -0.89589952373E+01  0.19912717003E+01  0.21344382983E+02  0.23233842640E+02  0.51100000000E-03 0.  1.
         12    1    3    3    0    0  0.26070615934E+02  0.14040501981E+01 -0.52293421923E+01  0.26626948603E+02  0.00000000000E+00 0. -1.
</event>
<event>
 7    1  0.3020651E-013  0.7246151E+02  0.7816164E-02  0.1226708E+00
        -11   -1    0    0    0    0  0.00000000000E+00  0.00000000000E+00  0.45593999997E+02  0.45594000000E+02  0.51100000000E-03 0.  1.
         11   -1    0    0    0    0 -0.00000000000E+00 -0.00000000000E+00 -0.45593999997E+02  0.45594000000E+02  0.51100000000E-03 0. -1.
    9900012    2    1    2    0    0  0.93888566438E+01  0.73920137613E+01  0.14418353003E+02  0.72461510744E+02  0.69999922425E+02 0.  0.
         12    1    1    2    0    0 -0.93888566438E+01 -0.73920137613E+01 -0.14418353003E+02  0.18726489256E+02  0.00000000000E+00 0. -1.
         11    1    3    3    0    0 -0.74689869956E+01  0.89268372941E+01  0.10613296814E+02  0.15751706585E+02  0.51100000000E-03 0. -1.
        -11    1    3    3    0    0 -0.11804284021E+02 -0.29518584641E+01  0.20257537910E+02  0.23630963418E+02  0.51100000000E-03 0.  1.
         12    1    3    3    0    0  0.28662127660E+02  0.14170349313E+01 -0.16452481721E+02  0.33078840741E+02  0.00000000000E+00 0. -1.
</event>
<event>
 7    1  0.3020651E-013  0.7246150E+02  0.7816164E-02  0.1226708E+00
        -11   -1    0    0    0    0  0.00000000000E+00  0.00000000000E+00  0.45593999997E+02  0.45594000000E+02  0.51100000000E-03 0.  1.
         11   -1    0    0    0    0 -0.00000000000E+00 -0.00000000000E+00 -0.45593999997E+02  0.45594000000E+02  0.51100000000E-03 0. -1.
    9900012    2    1    2    0    0 -0.78340329644E+01  0.14572485831E+02  0.87722460984E+01  0.72461502266E+02  0.69999911380E+02 0.  0.
         12    1    1    2    0    0  0.78340329644E+01 -0.14572485831E+02 -0.87722460984E+01  0.18726497734E+02  0.00000000000E+00 0. -1.
         11    1    3    3    0    0 -0.22620758332E+02 -0.62240681466E+01  0.14143174090E+02  0.27394654687E+02  0.51100000000E-03 0. -1.
        -11    1    3    3    0    0 -0.42197364415E+01  0.70612858243E+01  0.12927185862E+02  0.15322534637E+02  0.51100000000E-03 0.  1.
         12    1    3    3    0    0  0.19006461809E+02  0.13735268153E+02 -0.18298113854E+02  0.29744312942E+02  0.00000000000E+00 0. -1.
</event>
<event>
 7    1  0.3020651E-013  0.7246158E+02  0.7816164E-02  0.1226708E+00
        -11   -1    0    0    0    0  0.00000000000E+00  0.00000000000E+00  0.45593999997E+02  0.45594000000E+02  0.51100000000E-03 0.  1.
         11   -1    0    0    0    0 -0.00000000000E+00 -0.00000000000E+00 -0.45593999997E+02  0.45594000000E+02  0.51100000000E-03 0. -1.
    9900012    2    1    2    0    0 -0.82225075435E+01 -0.89602950665E+01  0.14240171024E+02  0.72461575120E+02  0.70000006286E+02 0.  0.
         12    1    1    2    0    0  0.82225075435E+01  0.89602950665E+01 -0.14240171024E+02  0.18726424880E+02  0.00000000000E+00 0. -1.
         11    1    3    3    0    0 -0.30200424928E+02 -0.17771059431E+02  0.11113793167E+02  0.36761292387E+02  0.51100000000E-03 0. -1.
        -11    1    3    3    0    0  0.46586814449E+00 -0.81280830594E+01  0.14407951699E+01  0.82679295069E+01  0.51100000000E-03 0.  1.
        -12    1    3    3    0    0  0.21512049240E+02  0.16938847424E+02  0.16855826879E+01  0.27432353227E+02  0.00000000000E+00 0.  1.
</event>
<event>
 7    1  0.3020651E-013  0.7246148E+02  0.7816164E-02  0.1226708E+00
        -11   -1    0    0    0    0  0.00000000000E+00  0.00000000000E+00  0.45593999997E+02  0.45594000000E+02  0.51100000000E-03 0.  1.
         11   -1    0    0    0    0 -0.00000000000E+00 -0.00000000000E+00 -0.45593999997E+02  0.45594000000E+02  0.51100000000E-03 0. -1.
    9900012    2    1    2    0    0 -0.10547466231E+02 -0.21472617697E+01  0.15323934005E+02  0.72461475218E+02  0.69999876146E+02 0.  0.
         12    1    1    2    0    0  0.10547466231E+02  0.21472617697E+01 -0.15323934005E+02  0.18726524782E+02  0.00000000000E+00 0. -1.
         11    1    3    3    0    0 -0.42031627443E+01 -0.33322927566E+01 -0.96976976789E+01  0.11082242219E+02  0.51100000000E-03 0. -1.
        -11    1    3    3    0    0 -0.69738731799E+01 -0.19533866336E+02  0.33158196821E+02  0.39111032431E+02  0.51100000000E-03 0.  1.
         12    1    3    3    0    0  0.62956969276E+00  0.20718897323E+02 -0.81365651372E+01  0.22268200568E+02  0.00000000000E+00 0. -1.
</event>
<event>
 7    1  0.3020651E-013  0.7246158E+02  0.7816164E-02  0.1226708E+00
        -11   -1    0    0    0    0  0.00000000000E+00  0.00000000000E+00  0.45593999997E+02  0.45594000000E+02  0.51100000000E-03 0. -1.
         11   -1    0    0    0    0 -0.00000000000E+00 -0.00000000000E+00 -0.45593999997E+02  0.45594000000E+02  0.51100000000E-03 0.  1.
    9900012    2    1    2    0    0 -0.11177341182E+02 -0.11702422978E+02 -0.94233223885E+01  0.72461583785E+02  0.70000017574E+02 0.  0.
         12    1    1    2    0    0  0.11177341182E+02  0.11702422978E+02  0.94233223885E+01  0.18726416215E+02  0.00000000000E+00 0. -1.
         11    1    3    3    0    0  0.68844817131E+00  0.25154240423E+01 -0.11340491837E+02  0.11636497513E+02  0.51100000000E-03 0. -1.
        -11    1    3    3    0    0 -0.12117875407E+02  0.21641332373E+02  0.27525329435E+01  0.24955292207E+02  0.51100000000E-03 0.  1.
         12    1    3    3    0    0  0.25208605459E+00 -0.35859179393E+02 -0.83536349491E+00  0.35869794065E+02  0.00000000000E+00 0. -1.
</event>
<event>
 7    1  0.3020651E-013  0.7246155E+02  0.7816164E-02  0.1226708E+00
        -11   -1    0    0    0    0  0.00000000000E+00  0.00000000000E+00  0.45593999997E+02  0.45594000000E+02  0.51100000000E-03 0.  1.
         11   -1    0    0    0    0 -0.00000000000E+00 -0.00000000000E+00 -0.45593999997E+02  0.45594000000E+02  0.51100000000E-03 0. -1.
    9900012    2    1    2    0    0 -0.12833373977E+02 -0.28421325828E+01  0.13338171690E+02  0.72461547339E+02  0.69999970096E+02 0.  0.
         12    1    1    2    0    0  0.12833373977E+02  0.28421325828E+01 -0.13338171690E+02  0.18726452661E+02  0.00000000000E+00 0. -1.
         11    1    3    3    0    0 -0.21713020312E+02  0.17345481988E+02 -0.10490071546E+02  0.29704588833E+02  0.51100000000E-03 0. -1.
        -11    1    3    3    0    0  0.24243802539E+01  0.63680314322E+01  0.51195471532E+00  0.68331209434E+01  0.51100000000E-03 0.  1.
        -12    1    3    3    0    0  0.64552660814E+01 -0.26555646003E+02  0.23316288521E+02  0.35923837562E+02  0.00000000000E+00 0.  1.
</event>
<event>
 7    1  0.3020651E-013  0.7246159E+02  0.7816164E-02  0.1226708E+00
        -11   -1    0    0    0    0  0.00000000000E+00  0.00000000000E+00  0.45593999997E+02  0.45594000000E+02  0.51100000000E-03 0. -1.
         11   -1    0    0    0    0 -0.00000000000E+00 -0.00000000000E+00 -0.45593999997E+02  0.45594000000E+02  0.51100000000E-03 0.  1.
    9900012    2    1    2    0    0  0.15317581922E+01  0.23689334260E+01 -0.18512705820E+02  0.72461590693E+02  0.70000026573E+02 0.  0.
         12    1    1    2    0    0 -0.15317581922E+01 -0.23689334260E+01  0.18512705820E+02  0.18726409307E+02  0.00000000000E+00 0. -1.
         11    1    3    3    0    0  0.54518126353E+01  0.35905383713E+01 -0.15953039714E+01  0.67200611476E+01  0.51100000000E-03 0. -1.
        -11    1    3    3    0    0  0.91174875159E+01 -0.28370178557E+02  0.25061284398E+01  0.29904452679E+02  0.51100000000E-03 0.  1.
         12    1    3    3    0    0 -0.13037541959E+02  0.27148573612E+02 -0.19423530289E+02  0.35837076867E+02  0.00000000000E+00 0. -1.
</event>
<event>
 7    1  0.3020651E-013  0.7246154E+02  0.7816164E-02  0.1226708E+00
        -11   -1    0    0    0    0  0.00000000000E+00  0.00000000000E+00  0.45593999997E+02  0.45594000000E+02  0.51100000000E-03 0. -1.
         11   -1    0    0    0    0 -0.00000000000E+00 -0.00000000000E+00 -0.45593999997E+02  0.45594000000E+02  0.51100000000E-03 0.  1.
    9900012    2    1    2    0    0  0.42709238482E+00  0.48216677748E+01 -0.18090031908E+02  0.72461544317E+02  0.69999966159E+02 0.  0.
         12    1    1    2    0    0 -0.42709238482E+00 -0.48216677748E+01  0.18090031908E+02  0.18726455683E+02  0.00000000000E+00 0. -1.
         11    1    3    3    0    0 -0.22982749160E+02  0.22779754436E+02 -0.10953564696E+01  0.32377828481E+02  0.51100000000E-03 0.  1.
        -11    1    3    3    0    0  0.62951336159E+01 -0.14044117645E+02  0.36368937370E+00  0.15394746438E+02  0.51100000000E-03 0. -1.
        -12    1    3    3    0    0  0.17114707929E+02 -0.39139690153E+01 -0.17358364812E+02  0.24688969397E+02  0.00000000000E+00 0.  1.
</event>
<event>
 7    1  0.3020651E-013  0.7246161E+02  0.7816164E-02  0.1226708E+00
        -11   -1    0    0    0    0  0.00000000000E+00  0.00000000000E+00  0.45593999997E+02  0.45594000000E+02  0.51100000000E-03 0. -1.
         11   -1    0    0    0    0 -0.00000000000E+00 -0.00000000000E+00 -0.45593999997E+02  0.45594000000E+02  0.51100000000E-03 0.  1.
    9900012    2    1    2    0    0 -0.10541135313E+02  0.13907209147E+02  0.67934943449E+01  0.72461613126E+02  0.70000055796E+02 0.  0.
         12    1    1    2    0    0  0.10541135313E+02 -0.13907209147E+02 -0.67934943449E+01  0.18726386874E+02  0.00000000000E+00 0. -1.
         11    1    3    3    0    0  0.27429518658E+01 -0.16203932143E+02  0.10055745872E+02  0.19266790785E+02  0.51100000000E-03 0. -1.
        -11    1    3    3    0    0  0.19274565224E+01  0.19611062377E+02  0.16815164740E+02  0.25904799201E+02  0.51100000000E-03 0.  1.
         12    1    3    3    0    0 -0.15211543701E+02  0.10500078914E+02 -0.20077416267E+02  0.27290023139E+02  0.00000000000E+00 0. -1.
</event>
<event>
 7    1  0.3020651E-013  0.7246164E+02  0.7816164E-02  0.1226708E+00
        -11   -1    0    0    0    0  0.00000000000E+00  0.00000000000E+00  0.45593999997E+02  0.45594000000E+02  0.51100000000E-03 0. -1.
         11   -1    0    0    0    0 -0.00000000000E+00 -0.00000000000E+00 -0.45593999997E+02  0.45594000000E+02  0.51100000000E-03 0.  1.
    9900012    2    1    2    0    0 -0.15279525707E+02 -0.25974215996E+01 -0.10510281631E+02  0.72461640911E+02  0.70000091991E+02 0.  0.
         12    1    1    2    0    0  0.15279525707E+02  0.25974215996E+01  0.10510281631E+02  0.18726359089E+02  0.00000000000E+00 0. -1.
         11    1    3    3    0    0 -0.83291644862E+00 -0.23528857383E+02  0.53622686672E+01  0.24146527806E+02  0.51100000000E-03 0. -1.
        -11    1    3    3    0    0 -0.22023526181E+02  0.28424560465E+01 -0.18004173060E+02  0.28587855982E+02  0.51100000000E-03 0.  1.
        -12    1    3    3    0    0  0.75769169225E+01  0.18088979737E+02  0.21316227622E+01  0.19727257123E+02  0.00000000000E+00 0.  1.
</event>
<event>
 7    1  0.3020651E-013  0.7246158E+02  0.7816164E-02  0.1226708E+00
        -11   -1    0    0    0    0  0.00000000000E+00  0.00000000000E+00  0.45593999997E+02  0.45594000000E+02  0.51100000000E-03 0.  1.
         11   -1    0    0    0    0 -0.00000000000E+00 -0.00000000000E+00 -0.45593999997E+02  0.45594000000E+02  0.51100000000E-03 0. -1.
    9900012    2    1    2    0    0 -0.32871877298E+01 -0.18407776292E+02  0.10134491620E+01  0.72461577213E+02  0.70000009013E+02 0.  0.
         12    1    1    2    0    0  0.32871877298E+01  0.18407776292E+02 -0.10134491620E+01  0.18726422787E+02  0.00000000000E+00 0. -1.
         11    1    3    3    0    0  0.13288395302E+02 -0.24007942935E+02 -0.89114783121E+01  0.28850948332E+02  0.51100000000E-03 0. -1.
        -11    1    3    3    0    0  0.12275143734E+02 -0.24252520214E+01  0.25476419821E+01  0.12769161327E+02  0.51100000000E-03 0.  1.
         12    1    3    3    0    0 -0.28850726766E+02  0.80254186642E+01  0.73772854920E+01  0.30841467554E+02  0.00000000000E+00 0. -1.
</event>
<event>
 7    1  0.3020651E-013  0.7246158E+02  0.7816164E-02  0.1226708E+00
        -11   -1    0    0    0    0  0.00000000000E+00  0.00000000000E+00  0.45593999997E+02  0.45594000000E+02  0.51100000000E-03 0.  1.
         11   -1    0    0    0    0 -0.00000000000E+00 -0.00000000000E+00 -0.45593999997E+02  0.45594000000E+02  0.51100000000E-03 0. -1.
    9900012    2    1    2    0    0  0.17027594321E+02 -0.39620262492E+01 -0.67113462414E+01  0.72461580462E+02  0.70000013245E+02 0.  0.
         12    1    1    2    0    0 -0.17027594321E+02  0.39620262492E+01  0.67113462414E+01  0.18726419538E+02  0.00000000000E+00 0. -1.
         11    1    3    3    0    0  0.58955923346E+00  0.72215926990E+01 -0.18740656792E+02  0.20092565751E+02  0.51100000000E-03 0. -1.
        -11    1    3    3    0    0 -0.18856913870E+01 -0.26121038550E+02  0.11806259758E+02  0.28727204122E+02  0.51100000000E-03 0.  1.
         12    1    3    3    0    0  0.18323726474E+02  0.14937419602E+02  0.22305079318E+00  0.23641810589E+02  0.00000000000E+00 0. -1.
</event>
<event>
 7    1  0.3020651E-013  0.7246155E+02  0.7816164E-02  0.1226708E+00
        -11   -1    0    0    0    0  0.00000000000E+00  0.00000000000E+00  0.45593999997E+02  0.45594000000E+02  0.51100000000E-03 0.  1.
         11   -1    0    0    0    0 -0.00000000000E+00 -0.00000000000E+00 -0.45593999997E+02  0.45594000000E+02  0.51100000000E-03 0. -1.
    9900012    2    1    2    0    0 -0.12254950602E+02 -0.48053097698E+01  0.13319344267E+02  0.72461554851E+02  0.69999979882E+02 0.  0.
         12    1    1    2    0    0  0.12254950602E+02  0.48053097698E+01 -0.13319344267E+02  0.18726445149E+02  0.00000000000E+00 0. -1.
         11    1    3    3    0    0 -0.12305070430E+02  0.21234207118E+02 -0.16023712857E+02  0.29309822316E+02  0.51100000000E-03 0. -1.
        -11    1    3    3    0    0 -0.39621952998E+00  0.27717594597E+01  0.31039592148E+01  0.41802157225E+01  0.51100000000E-03 0.  1.
        -12    1    3    3    0    0  0.44633935874E+00 -0.28811276348E+02  0.26239097908E+02  0.38971516812E+02  0.00000000000E+00 0.  1.
</event>
<event>
 7    1  0.3020651E-013  0.7246157E+02  0.7816164E-02  0.1226708E+00
        -11   -1    0    0    0    0  0.00000000000E+00  0.00000000000E+00  0.45593999997E+02  0.45594000000E+02  0.51100000000E-03 0.  1.
         11   -1    0    0    0    0 -0.00000000000E+00 -0.00000000000E+00 -0.45593999997E+02  0.45594000000E+02  0.51100000000E-03 0. -1.
    9900012    2    1    2    0    0 -0.27868699744E+01 -0.13115647974E+02  0.13072573635E+02  0.72461573553E+02  0.70000004245E+02 0.  0.
         12    1    1    2    0    0  0.27868699744E+01  0.13115647974E+02 -0.13072573635E+02  0.18726426447E+02  0.00000000000E+00 0. -1.
         11    1    3    3    0    0 -0.73266772184E+01 -0.27086760297E+01 -0.83677787985E+01  0.11447132706E+02  0.51100000000E-03 0. -1.
        -11    1    3    3    0    0 -0.12639941605E+02 -0.29010228628E+02  0.96597933571E+01  0.33085844357E+02  0.51100000000E-03 0.  1.
         12    1    3    3    0    0  0.17179748849E+02  0.18603256684E+02  0.11780559077E+02  0.27928596490E+02  0.00000000000E+00 0. -1.
</event>
<event>
 7    1  0.3020651E-013  0.7246155E+02  0.7816164E-02  0.1226708E+00
        -11   -1    0    0    0    0  0.00000000000E+00  0.00000000000E+00  0.45593999997E+02  0.45594000000E+02  0.51100000000E-03 0. -1.
         11   -1    0    0    0    0 -0.00000000000E+00 -0.00000000000E+00 -0.45593999997E+02  0.45594000000E+02  0.51100000000E-03 0.  1.
    9900012    2    1    2    0    0  0.77945897445E+01 -0.16855316880E+02 -0.24130339579E+01  0.72461546270E+02  0.69999968704E+02 0.  0.
         12    1    1    2    0    0 -0.77945897445E+01  0.16855316880E+02  0.24130339579E+01  0.18726453730E+02  0.00000000000E+00 0. -1.
         11    1    3    3    0    0 -0.30955042042E+01  0.10337204088E+02 -0.65273898611E+01  0.12611373965E+02  0.51100000000E-03 0. -1.
        -11    1    3    3    0    0 -0.99126007302E+01  0.11813519083E+02 -0.29513570838E+00  0.15424201493E+02  0.51100000000E-03 0.  1.
         12    1    3    3    0    0  0.20802694679E+02 -0.39006040050E+02  0.44094916116E+01  0.44425970812E+02  0.00000000000E+00 0. -1.
</event>
<event>
 7    1  0.3020651E-013  0.7246157E+02  0.7816164E-02  0.1226708E+00
        -11   -1    0    0    0    0  0.00000000000E+00  0.00000000000E+00  0.45593999997E+02  0.45594000000E+02  0.51100000000E-03 0.  1.
         11   -1    0    0    0    0 -0.00000000000E+00 -0.00000000000E+00 -0.45593999997E+02  0.45594000000E+02  0.51100000000E-03 0. -1.
    9900012    2    1    2    0    0 -0.16183525353E+02  0.83920968078E+01  0.42831560652E+01  0.72461569278E+02  0.69999998676E+02 0.  0.
         12    1    1    2    0    0  0.16183525353E+02 -0.83920968078E+01 -0.42831560652E+01  0.18726430722E+02  0.00000000000E+00 0. -1.
         11    1    3    3    0    0  0.17763957496E+02 -0.85594083062E+01 -0.27795681212E+01  0.19913504354E+02  0.51100000000E-03 0. -1.
        -11    1    3    3    0    0 -0.84164870169E+00 -0.69564307810E+01 -0.64606387532E+01  0.95310101830E+01  0.51100000000E-03 0.  1.
        -12    1    3    3    0    0 -0.33105834148E+02  0.23907935895E+02  0.13523362940E+02  0.43017054741E+02  0.00000000000E+00 0.  1.
</event>
<event>
 7    1  0.3020651E-013  0.7246160E+02  0.7816164E-02  0.1226708E+00
        -11   -1    0    0    0    0  0.00000000000E+00  0.00000000000E+00  0.45593999997E+02  0.45594000000E+02  0.51100000000E-03 0.  1.
         11   -1    0    0    0    0 -0.00000000000E+00 -0.00000000000E+00 -0.45593999997E+02  0.45594000000E+02  0.51100000000E-03 0. -1.
    9900012    2    1    2    0    0 -0.56401835911E+01 -0.10402356813E+02  0.14514038878E+02  0.72461600913E+02  0.70000039886E+02 0.  0.
         12    1    1    2    0    0  0.56401835911E+01  0.10402356813E+02 -0.14514038878E+02  0.18726399087E+02  0.00000000000E+00 0. -1.
         11    1    3    3    0    0 -0.14491848327E+02  0.12601821071E+02 -0.42582288987E+01  0.19671097475E+02  0.51100000000E-03 0. -1.
        -11    1    3    3    0    0 -0.83596377182E+01  0.54039747998E+01  0.16786486076E+02  0.19515957610E+02  0.51100000000E-03 0.  1.
         12    1    3    3    0    0  0.17211302454E+02 -0.28408152684E+02  0.19857817016E+01  0.33274545828E+02  0.00000000000E+00 0. -1.
</event>
<event>
 7    1  0.3020651E-013  0.7246153E+02  0.7816164E-02  0.1226708E+00
        -11   -1    0    0    0    0  0.00000000000E+00  0.00000000000E+00  0.45593999997E+02  0.45594000000E+02  0.51100000000E-03 0. -1.
         11   -1    0    0    0    0 -0.00000000000E+00 -0.00000000000E+00 -0.45593999997E+02  0.45594000000E+02  0.51100000000E-03 0.  1.
    9900012    2    1    2    0    0 -0.12462813983E+02  0.52910604291E+01 -0.12936906781E+02  0.72461531836E+02  0.69999949901E+02 0.  0.
         12    1    1    2    0    0  0.12462813983E+02 -0.52910604291E+01  0.12936906781E+02  0.18726468164E+02  0.00000000000E+00 0. -1.
         11    1    3    3    0    0 -0.50591834413E+01  0.16961714018E+02 -0.30108518583E+01  0.17954395247E+02  0.51100000000E-03 0. -1.
        -11    1    3    3    0    0 -0.20748045845E+02  0.13632441567E+02 -0.24919236236E+01  0.24950642337E+02  0.51100000000E-03 0.  1.
         12    1    3    3    0    0  0.13344415303E+02 -0.25303095156E+02 -0.74341312989E+01  0.29556494251E+02  0.00000000000E+00 0. -1.
</event>
<event>
 7    1  0.3020651E-013  0.7246156E+02  0.7816164E-02  0.1226708E+00
        -11   -1    0    0    0    0  0.00000000000E+00  0.00000000000E+00  0.45593999997E+02  0.45594000000E+02  0.51100000000E-03 0.  1.
         11   -1    0    0    0    0 -0.00000000000E+00 -0.00000000000E+00 -0.45593999997E+02  0.45594000000E+02  0.51100000000E-03 0. -1.
    9900012    2    1    2    0    0 -0.17136101000E+01  0.13727134796E+02  0.12621766890E+02  0.72461556432E+02  0.69999981942E+02 0.  0.
         12    1    1    2    0    0  0.17136101000E+01 -0.13727134796E+02 -0.12621766890E+02  0.18726443568E+02  0.00000000000E+00 0. -1.
         11    1    3    3    0    0 -0.23386783933E+01 -0.28536096635E+01 -0.45439480659E+01  0.58532016048E+01  0.51100000000E-03 0. -1.
        -11    1    3    3    0    0  0.17439214088E+02 -0.10767266985E+02  0.26194219012E+02  0.33259545039E+02  0.51100000000E-03 0.  1.
         12    1    3    3    0    0 -0.16814145794E+02  0.27348011445E+02 -0.90285040555E+01  0.33348809788E+02  0.00000000000E+00 0. -1.
</event>
<event>
 7    1  0.3020651E-013  0.7246154E+02  0.7816164E-02  0.1226708E+00
        -11   -1    0    0    0    0  0.00000000000E+00  0.00000000000E+00  0.45593999997E+02  0.45594000000E+02  0.51100000000E-03 0. -1.
         11   -1    0    0    0    0 -0.00000000000E+00 -0.00000000000E+00 -0.45593999997E+02  0.45594000000E+02  0.51100000000E-03 0.  1.
    9900012    2    1    2    0    0  0.18020685487E+02 -0.35149769402E+01 -0.36851204101E+01  0.72461540625E+02  0.69999961350E+02 0.  0.
         12    1    1    2    0    0 -0.18020685487E+02  0.35149769402E+01  0.36851204101E+01  0.18726459375E+02  0.00000000000E+00 0. -1.
         11    1    3    3    0    0  0.82740672329E+01 -0.13565269026E+02 -0.15819462359E+02  0.22421688204E+02  0.51100000000E-03 0. -1.
        -11    1    3    3    0    0 -0.12219590470E+02  0.56427139395E+01 -0.11332888179E+02  0.17595254093E+02  0.51100000000E-03 0.  1.
         12    1    3    3    0    0  0.21966208724E+02  0.44075781461E+01  0.23467230128E+02  0.32444598328E+02  0.00000000000E+00 0. -1.
</event>
<event>
 7    1  0.3020651E-013  0.7246156E+02  0.7816164E-02  0.1226708E+00
        -11   -1    0    0    0    0  0.00000000000E+00  0.00000000000E+00  0.45593999997E+02  0.45594000000E+02  0.51100000000E-03 0. -1.
         11   -1    0    0    0    0 -0.00000000000E+00 -0.00000000000E+00 -0.45593999997E+02  0.45594000000E+02  0.51100000000E-03 0.  1.
    9900012    2    1    2    0    0  0.16197109933E+02  0.72336458961E+01 -0.60006355706E+01  0.72461557990E+02  0.69999983971E+02 0.  0.
         12    1    1    2    0    0 -0.16197109933E+02 -0.72336458961E+01  0.60006355706E+01  0.18726442010E+02  0.00000000000E+00 0. -1.
         11    1    3    3    0    0  0.24496795531E+02 -0.15059217741E+02 -0.51732923608E+01  0.29217049549E+02  0.51100000000E-03 0. -1.
        -11    1    3    3    0    0  0.81043684506E+01  0.16667521865E+02  0.11640705270E+02  0.21885910823E+02  0.51100000000E-03 0.  1.
        -12    1    3    3    0    0 -0.16404054049E+02  0.56253417717E+01 -0.12468048480E+02  0.21358597617E+02  0.00000000000E+00 0.  1.
</event>
<event>
 7    1  0.3020651E-013  0.7246157E+02  0.7816164E-02  0.1226708E+00
        -11   -1    0    0    0    0  0.00000000000E+00  0.00000000000E+00  0.45593999997E+02  0.45594000000E+02  0.51100000000E-03 0.  1.
         11   -1    0    0    0    0 -0.00000000000E+00 -0.00000000000E+00 -0.45593999997E+02  0.45594000000E+02  0.51100000000E-03 0. -1.
    9900012    2    1    2    0    0 -0.81429870831E+01  0.84323333868E+01 -0.14603658326E+02  0.72461566237E+02  0.69999994714E+02 0.  0.
         12    1    1    2    0    0  0.81429870831E+01 -0.84323333868E+01  0.14603658326E+02  0.18726433763E+02  0.00000000000E+00 0. -1.
         11    1    3    3    0    0  0.59219101960E+01 -0.18678327979E+02 -0.10975835330E+02  0.22459250164E+02  0.51100000000E-03 0. -1.
        -11    1    3    3    0    0 -0.14218672179E+02 -0.30727393650E+01  0.91932706490E+01  0.17208387235E+02  0.51100000000E-03 0.  1.
        -12    1    3    3    0    0  0.15377489943E+00  0.30183400731E+02 -0.12821093646E+02  0.32793928839E+02  0.00000000000E+00 0.  1.
</event>
<event>
 7    1  0.3020651E-013  0.7246155E+02  0.7816164E-02  0.1226708E+00
        -11   -1    0    0    0    0  0.00000000000E+00  0.00000000000E+00  0.45593999997E+02  0.45594000000E+02  0.51100000000E-03 0.  1.
         11   -1    0    0    0    0 -0.00000000000E+00 -0.00000000000E+00 -0.45593999997E+02  0.45594000000E+02  0.51100000000E-03 0. -1.
    9900012    2    1    2    0    0 -0.12792428453E+02  0.45813905826E+01  0.12885829908E+02  0.72461548713E+02  0.69999971887E+02 0.  0.
         12    1    1    2    0    0  0.12792428453E+02 -0.45813905826E+01 -0.12885829908E+02  0.18726451287E+02  0.00000000000E+00 0. -1.
         11    1    3    3    0    0  0.10320217926E+02  0.17276722660E+02 -0.28540663911E+00  0.20126437865E+02  0.51100000000E-03 0. -1.
        -11    1    3    3    0    0  0.10445116683E+02 -0.71455408737E+01  0.13248247819E+02  0.18321443377E+02  0.51100000000E-03 0.  1.
         12    1    3    3    0    0 -0.33557763062E+02 -0.55497912040E+01 -0.77011271878E-01  0.34013667471E+02  0.00000000000E+00 0. -1.
</event>
<event>
 7    1  0.3020651E-013  0.7246161E+02  0.7816164E-02  0.1226708E+00
        -11   -1    0    0    0    0  0.00000000000E+00  0.00000000000E+00  0.45593999997E+02  0.45594000000E+02  0.51100000000E-03 0. -1.
         11   -1    0    0    0    0 -0.00000000000E+00 -0.00000000000E+00 -0.45593999997E+02  0.45594000000E+02  0.51100000000E-03 0.  1.
    9900012    2    1    2    0    0 -0.16139646187E+02  0.82982926618E+01 -0.46181944863E+01  0.72461613257E+02  0.70000055966E+02 0.  0.
         12    1    1    2    0    0  0.16139646187E+02 -0.82982926618E+01  0.46181944863E+01  0.18726386743E+02  0.00000000000E+00 0. -1.
         11    1    3    3    0    0  0.18370399416E+01 -0.43443912313E+01 -0.66385076319E+01  0.81436008472E+01  0.51100000000E-03 0. -1.
        -11    1    3    3    0    0  0.15565115491E+02 -0.13169176281E+02  0.73216488056E+01  0.21663484615E+02  0.51100000000E-03 0.  1.
        -12    1    3    3    0    0 -0.33541801620E+02  0.25811860174E+02 -0.53013356600E+01  0.42654527794E+02  0.00000000000E+00 0.  1.
</event>
<event>
 7    1  0.3020651E-013  0.7246148E+02  0.7816164E-02  0.1226708E+00
        -11   -1    0    0    0    0  0.00000000000E+00  0.00000000000E+00  0.45593999997E+02  0.45594000000E+02  0.51100000000E-03 0.  1.
         11   -1    0    0    0    0 -0.00000000000E+00 -0.00000000000E+00 -0.45593999997E+02  0.45594000000E+02  0.51100000000E-03 0. -1.
    9900012    2    1    2    0    0 -0.17328457580E+02  0.68157860425E+00 -0.70670159471E+01  0.72461475873E+02  0.69999876998E+02 0.  0.
         12    1    1    2    0    0  0.17328457580E+02 -0.68157860425E+00  0.70670159471E+01  0.18726524127E+02  0.00000000000E+00 0. -1.
         11    1    3    3    0    0 -0.57972657266E+01  0.32055339533E+01 -0.10758711634E+02  0.12634619666E+02  0.51100000000E-03 0. -1.
        -11    1    3    3    0    0  0.41510824737E+01 -0.50381542653E+01 -0.25647129841E+02  0.26464877734E+02  0.51100000000E-03 0.  1.
        -12    1    3    3    0    0 -0.15682274327E+02  0.25141989162E+01  0.29338825528E+02  0.33361978473E+02  0.00000000000E+00 0.  1.
</event>
<event>
 7    1  0.3020651E-013  0.7246154E+02  0.7816164E-02  0.1226708E+00
        -11   -1    0    0    0    0  0.00000000000E+00  0.00000000000E+00  0.45593999997E+02  0.45594000000E+02  0.51100000000E-03 0.  1.
         11   -1    0    0    0    0 -0.00000000000E+00 -0.00000000000E+00 -0.45593999997E+02  0.45594000000E+02  0.51100000000E-03 0. -1.
    9900012    2    1    2    0    0  0.74540616738E+01 -0.17078712332E+02 -0.18533648434E+01  0.72461537131E+02  0.69999956799E+02 0.  0.
         12    1    1    2    0    0 -0.74540616738E+01  0.17078712332E+02  0.18533648434E+01  0.18726462869E+02  0.00000000000E+00 0. -1.
         11    1    3    3    0    0  0.30911822063E+02  0.60313565770E+01  0.72902603467E+01  0.32327479048E+02  0.51100000000E-03 0. -1.
        -11    1    3    3    0    0 -0.16430951123E+01 -0.83917630905E+01  0.53543231123E+01  0.10089114211E+02  0.51100000000E-03 0.  1.
        -12    1    3    3    0    0 -0.21814665277E+02 -0.14718305818E+02 -0.14497948302E+02  0.30044943872E+02  0.00000000000E+00 0.  1.
</event>
<event>
 7    1  0.3020651E-013  0.7246155E+02  0.7816164E-02  0.1226708E+00
        -11   -1    0    0    0    0  0.00000000000E+00  0.00000000000E+00  0.45593999997E+02  0.45594000000E+02  0.51100000000E-03 0.  1.
         11   -1    0    0    0    0 -0.00000000000E+00 -0.00000000000E+00 -0.45593999997E+02  0.45594000000E+02  0.51100000000E-03 0. -1.
    9900012    2    1    2    0    0  0.97972814921E+01  0.15856086564E+02  0.18104111410E+01  0.72461553613E+02  0.69999978270E+02 0.  0.
         12    1    1    2    0    0 -0.97972814921E+01 -0.15856086564E+02 -0.18104111410E+01  0.18726446387E+02  0.00000000000E+00 0. -1.
         11    1    3    3    0    0  0.19413001073E+02  0.31432377936E+02  0.11721130584E+01  0.36962587066E+02  0.51100000000E-03 0. -1.
        -11    1    3    3    0    0 -0.56986200946E+01  0.39137692834E+01 -0.10605534385E+02  0.12659748056E+02  0.51100000000E-03 0.  1.
        -12    1    3    3    0    0 -0.39170994863E+01 -0.19490060655E+02  0.11243832468E+02  0.22839218491E+02  0.00000000000E+00 0.  1.
</event>
<event>
 7    1  0.3020651E-013  0.7246155E+02  0.7816164E-02  0.1226708E+00
        -11   -1    0    0    0    0  0.00000000000E+00  0.00000000000E+00  0.45593999997E+02  0.45594000000E+02  0.51100000000E-03 0.  1.
         11   -1    0    0    0    0 -0.00000000000E+00 -0.00000000000E+00 -0.45593999997E+02  0.45594000000E+02  0.51100000000E-03 0. -1.
    9900012    2    1    2    0    0  0.29201990256E+01 -0.18487771402E+02  0.59539218754E+00  0.72461554913E+02  0.69999979963E+02 0.  0.
         12    1    1    2    0    0 -0.29201990256E+01  0.18487771402E+02 -0.59539218754E+00  0.18726445087E+02  0.00000000000E+00 0. -1.
         11    1    3    3    0    0  0.12053387858E+01  0.63007804268E+01  0.26445924889E+01  0.69387711642E+01  0.51100000000E-03 0. -1.
        -11    1    3    3    0    0  0.25844656886E+02 -0.24501763632E+01  0.13374055644E+02  0.29202996737E+02  0.51100000000E-03 0.  1.
         12    1    3    3    0    0 -0.24129796646E+02 -0.22338375465E+02 -0.15423255945E+02  0.36319787012E+02  0.00000000000E+00 0. -1.
</event>
<event>
 7    1  0.3020651E-013  0.7246160E+02  0.7816164E-02  0.1226708E+00
        -11   -1    0    0    0    0  0.00000000000E+00  0.00000000000E+00  0.45593999997E+02  0.45594000000E+02  0.51100000000E-03 0.  1.
         11   -1    0    0    0    0 -0.00000000000E+00 -0.00000000000E+00 -0.45593999997E+02  0.45594000000E+02  0.51100000000E-03 0. -1.
    9900012    2    1    2    0    0 -0.46694811593E+01 -0.14836953629E+02  0.10427783159E+02  0.72461603953E+02  0.70000043847E+02 0.  0.
         12    1    1    2    0    0  0.46694811593E+01  0.14836953629E+02 -0.10427783159E+02  0.18726396047E+02  0.00000000000E+00 0. -1.
         11    1    3    3    0    0  0.13643988789E+00 -0.91169012142E+00  0.10198810724E+01  0.13747553904E+01  0.51100000000E-03 0. -1.
        -11    1    3    3    0    0 -0.63917265506E+01 -0.29406006945E+00  0.38443098027E+02  0.38971944086E+02  0.51100000000E-03 0.  1.
         12    1    3    3    0    0  0.15858055035E+01 -0.13631203438E+02 -0.29035195940E+02  0.32114904477E+02  0.00000000000E+00 0. -1.
</event>
<event>
 7    1  0.3020651E-013  0.7246160E+02  0.7816164E-02  0.1226708E+00
        -11   -1    0    0    0    0  0.00000000000E+00  0.00000000000E+00  0.45593999997E+02  0.45594000000E+02  0.51100000000E-03 0.  1.
         11   -1    0    0    0    0 -0.00000000000E+00 -0.00000000000E+00 -0.45593999997E+02  0.45594000000E+02  0.51100000000E-03 0. -1.
    9900012    2    1    2    0    0  0.16085226014E+02 -0.86947916682E+01  0.40427820825E+01  0.72461601920E+02  0.70000041199E+02 0.  0.
         12    1    1    2    0    0 -0.16085226014E+02  0.86947916682E+01 -0.40427820825E+01  0.18726398080E+02  0.00000000000E+00 0. -1.
         11    1    3    3    0    0 -0.57014757305E+01  0.24385663626E+02  0.10860232666E+02  0.27296741011E+02  0.51100000000E-03 0. -1.
        -11    1    3    3    0    0  0.71956293283E+01 -0.95188268706E+01  0.73757971861E+01  0.14028097904E+02  0.51100000000E-03 0.  1.
        -12    1    3    3    0    0  0.14591072416E+02 -0.23561628423E+02 -0.14193247770E+02  0.31136763006E+02  0.00000000000E+00 0.  1.
</event>
<event>
 7    1  0.3020651E-013  0.7246156E+02  0.7816164E-02  0.1226708E+00
        -11   -1    0    0    0    0  0.00000000000E+00  0.00000000000E+00  0.45593999997E+02  0.45594000000E+02  0.51100000000E-03 0.  1.
         11   -1    0    0    0    0 -0.00000000000E+00 -0.00000000000E+00 -0.45593999997E+02  0.45594000000E+02  0.51100000000E-03 0. -1.
    9900012    2    1    2    0    0  0.86216202749E+01  0.16623083998E+02  0.14284246973E+00  0.72461557152E+02  0.69999982880E+02 0.  0.
         12    1    1    2    0    0 -0.86216202749E+01 -0.16623083998E+02 -0.14284246973E+00  0.18726442848E+02  0.00000000000E+00 0. -1.
         11    1    3    3    0    0 -0.15361523680E+01 -0.42883155473E+01  0.21953516243E+01  0.50565782251E+01  0.51100000000E-03 0. -1.
        -11    1    3    3    0    0  0.21646217798E+02 -0.17134041856E+02  0.57497554551E-01  0.27606836862E+02  0.51100000000E-03 0.  1.
         12    1    3    3    0    0 -0.11488445155E+02  0.38045441401E+02 -0.21100067091E+01  0.39798142065E+02  0.00000000000E+00 0. -1.
</event>
<event>
 7    1  0.3020651E-013  0.7246158E+02  0.7816164E-02  0.1226708E+00
        -11   -1    0    0    0    0  0.00000000000E+00  0.00000000000E+00  0.45593999997E+02  0.45594000000E+02  0.51100000000E-03 0. -1.
         11   -1    0    0    0    0 -0.00000000000E+00 -0.00000000000E+00 -0.45593999997E+02  0.45594000000E+02  0.51100000000E-03 0.  1.
    9900012    2    1    2    0    0 -0.17759739385E+02  0.33186199366E+01  0.49251715691E+01  0.72461577590E+02  0.70000009503E+02 0.  0.
         12    1    1    2    0    0  0.17759739385E+02 -0.33186199366E+01 -0.49251715691E+01  0.18726422410E+02  0.00000000000E+00 0. -1.
         11    1    3    3    0    0 -0.33796192459E+01 -0.11671959417E+02 -0.24813258256E+01  0.12402154691E+02  0.51100000000E-03 0. -1.
        -11    1    3    3    0    0 -0.73396114927E+01 -0.20895194367E+02 -0.21802618928E+01  0.22253821844E+02  0.51100000000E-03 0.  1.
         12    1    3    3    0    0 -0.70405086464E+01  0.35885773720E+02  0.95867592874E+01  0.37805601055E+02  0.00000000000E+00 0. -1.
</event>
<event>
 7    1  0.3020651E-013  0.7246162E+02  0.7816164E-02  0.1226708E+00
        -11   -1    0    0    0    0  0.00000000000E+00  0.00000000000E+00  0.45593999997E+02  0.45594000000E+02  0.51100000000E-03 0.  1.
         11   -1    0    0    0    0 -0.00000000000E+00 -0.00000000000E+00 -0.45593999997E+02  0.45594000000E+02  0.51100000000E-03 0. -1.
    9900012    2    1    2    0    0 -0.45608367270E+01 -0.15022873027E+02  0.10207311681E+02  0.72461624019E+02  0.70000069986E+02 0.  0.
         12    1    1    2    0    0  0.45608367270E+01  0.15022873027E+02 -0.10207311681E+02  0.18726375981E+02  0.00000000000E+00 0. -1.
         11    1    3    3    0    0  0.14253221775E+02 -0.20202798027E+02  0.38660061665E+01  0.25025055106E+02  0.51100000000E-03 0. -1.
        -11    1    3    3    0    0 -0.11616607177E+02 -0.17453890185E+02  0.10297709871E+02  0.23358653081E+02  0.51100000000E-03 0.  1.
         12    1    3    3    0    0 -0.71974513252E+01  0.22633815185E+02 -0.39564043572E+01  0.24077915832E+02  0.00000000000E+00 0. -1.
</event>
<event>
 7    1  0.3020651E-013  0.7246137E+02  0.7816164E-02  0.1226709E+00
        -11   -1    0    0    0    0  0.00000000000E+00  0.00000000000E+00  0.45593999997E+02  0.45594000000E+02  0.51100000000E-03 0.  1.
         11   -1    0    0    0    0 -0.00000000000E+00 -0.00000000000E+00 -0.45593999997E+02  0.45594000000E+02  0.51100000000E-03 0. -1.
    9900012    2    1    2    0    0  0.92376901592E+01  0.99554879671E+01 -0.12893402488E+02  0.72461374894E+02  0.69999745455E+02 0.  0.
         12    1    1    2    0    0 -0.92376901592E+01 -0.99554879671E+01  0.12893402488E+02  0.18726625106E+02  0.00000000000E+00 0. -1.
         11    1    3    3    0    0  0.34844653448E+01  0.99144265406E+01 -0.10461300695E+02  0.14828221905E+02  0.51100000000E-03 0. -1.
        -11    1    3    3    0    0  0.11972338721E+02 -0.18577880243E+02 -0.21090976965E+02  0.30550021905E+02  0.51100000000E-03 0.  1.
        -12    1    3    3    0    0 -0.62191139065E+01  0.18618941670E+02  0.18658875172E+02  0.27083131085E+02  0.00000000000E+00 0.  1.
</event>
<event>
 7    1  0.3020651E-013  0.7246157E+02  0.7816164E-02  0.1226708E+00
        -11   -1    0    0    0    0  0.00000000000E+00  0.00000000000E+00  0.45593999997E+02  0.45594000000E+02  0.51100000000E-03 0.  1.
         11   -1    0    0    0    0 -0.00000000000E+00 -0.00000000000E+00 -0.45593999997E+02  0.45594000000E+02  0.51100000000E-03 0. -1.
    9900012    2    1    2    0    0  0.12697419960E+02 -0.35797871957E+00  0.13759594327E+02  0.72461573260E+02  0.70000003864E+02 0.  0.
         12    1    1    2    0    0 -0.12697419960E+02  0.35797871957E+00 -0.13759594327E+02  0.18726426740E+02  0.00000000000E+00 0. -1.
         11    1    3    3    0    0  0.98635036353E+01  0.15648984622E+02 -0.55337997810E+01  0.19308090634E+02  0.51100000000E-03 0. -1.
        -11    1    3    3    0    0  0.94377192042E+01 -0.35752330648E+00 -0.13351344594E+02  0.16354105583E+02  0.51100000000E-03 0.  1.
        -12    1    3    3    0    0 -0.66038028792E+01 -0.15649440035E+02  0.32644738701E+02  0.36799377043E+02  0.00000000000E+00 0.  1.
</event>
<event>
 7    1  0.3020651E-013  0.7246225E+02  0.7816164E-02  0.1226706E+00
        -11   -1    0    0    0    0  0.00000000000E+00  0.00000000000E+00  0.45593999997E+02  0.45594000000E+02  0.51100000000E-03 0.  1.
         11   -1    0    0    0    0 -0.00000000000E+00 -0.00000000000E+00 -0.45593999997E+02  0.45594000000E+02  0.51100000000E-03 0. -1.
    9900012    2    1    2    0    0  0.13944177880E+02  0.12244525959E+02  0.25070393519E+01  0.72462248773E+02  0.70000883839E+02 0.  0.
         12    1    1    2    0    0 -0.13944177880E+02 -0.12244525959E+02 -0.25070393519E+01  0.18725751227E+02  0.00000000000E+00 0. -1.
         11    1    3    3    0    0  0.48178217586E+01  0.37981026664E+01 -0.43722873743E+01  0.75335176051E+01  0.51100000000E-03 0. -1.
        -11    1    3    3    0    0  0.97730730507E+01  0.23768660232E+02  0.28529121705E+02  0.38397564397E+02  0.51100000000E-03 0.  1.
         12    1    3    3    0    0 -0.64671692951E+00 -0.15322236939E+02 -0.21649794979E+02  0.26531166771E+02  0.00000000000E+00 0. -1.
</event>
<event>
 7    1  0.3128485E-013  0.7246158E+02  0.7816164E-02  0.1226708E+00
        -11   -1    0    0    0    0  0.00000000000E+00  0.00000000000E+00  0.45593999997E+02  0.45594000000E+02  0.51100000000E-03 0. -1.
         11   -1    0    0    0    0 -0.00000000000E+00 -0.00000000000E+00 -0.45593999997E+02  0.45594000000E+02  0.51100000000E-03 0.  1.
    9900012    2    1    2    0    0 -0.90675382772E+01 -0.22978561034E+01 -0.16222778401E+02  0.72461576633E+02  0.70000008257E+02 0.  0.
         12    1    1    2    0    0  0.90675382772E+01  0.22978561034E+01  0.16222778401E+02  0.18726423367E+02  0.00000000000E+00 0. -1.
         11    1    3    3    0    0  0.71684196918E+01 -0.12160255329E+02  0.19261490708E+02  0.23880181638E+02  0.51100000000E-03 0. -1.
        -11    1    3    3    0    0 -0.46789241780E+01 -0.80346940739E+01 -0.20575232515E+02  0.22578503795E+02  0.51100000000E-03 0.  1.
        -12    1    3    3    0    0 -0.11557033791E+02  0.17897093299E+02 -0.14909036594E+02  0.26002891200E+02  0.00000000000E+00 0.  1.
</event>
<event>
 7    1  0.3020651E-013  0.7246166E+02  0.7816164E-02  0.1226708E+00
        -11   -1    0    0    0    0  0.00000000000E+00  0.00000000000E+00  0.45593999997E+02  0.45594000000E+02  0.51100000000E-03 0. -1.
         11   -1    0    0    0    0 -0.00000000000E+00 -0.00000000000E+00 -0.45593999997E+02  0.45594000000E+02  0.51100000000E-03 0.  1.
    9900012    2    1    2    0    0  0.15418253770E+01 -0.74173879355E+01 -0.17125450463E+02  0.72461656981E+02  0.70000112926E+02 0.  0.
         12    1    1    2    0    0 -0.15418253770E+01  0.74173879355E+01  0.17125450463E+02  0.18726343019E+02  0.00000000000E+00 0. -1.
         11    1    3    3    0    0 -0.16723946516E+02 -0.34912315863E+01 -0.17495421006E+02  0.24453401430E+02  0.51100000000E-03 0. -1.
        -11    1    3    3    0    0  0.10465290539E+02 -0.12412508260E+02 -0.19293265254E+02  0.25215526007E+02  0.51100000000E-03 0.  1.
         12    1    3    3    0    0  0.78004813542E+01  0.84863519112E+01  0.19663235796E+02  0.22792729545E+02  0.00000000000E+00 0. -1.
</event>
<event>
 7    1  0.3020651E-013  0.7246155E+02  0.7816164E-02  0.1226708E+00
        -11   -1    0    0    0    0  0.00000000000E+00  0.00000000000E+00  0.45593999997E+02  0.45594000000E+02  0.51100000000E-03 0.  1.
         11   -1    0    0    0    0 -0.00000000000E+00 -0.00000000000E+00 -0.45593999997E+02  0.45594000000E+02  0.51100000000E-03 0. -1.
    9900012    2    1    2    0    0 -0.14813371273E+02 -0.16310226306E+01  0.11339473244E+02  0.72461551945E+02  0.69999976097E+02 0.  0.
         12    1    1    2    0    0  0.14813371273E+02  0.16310226306E+01 -0.11339473244E+02  0.18726448055E+02  0.00000000000E+00 0. -1.
         11    1    3    3    0    0 -0.10965491561E+01  0.19331286727E+02  0.26191133007E+00  0.19364133452E+02  0.51100000000E-03 0. -1.
        -11    1    3    3    0    0  0.13843873204E+02  0.31433136161E+01 -0.17424117660E+01  0.14302770529E+02  0.51100000000E-03 0.  1.
        -12    1    3    3    0    0 -0.27560695321E+02 -0.24105622973E+02  0.12819973680E+02  0.38794647964E+02  0.00000000000E+00 0.  1.
</event>
<event>
 7    1  0.3020651E-013  0.7246153E+02  0.7816164E-02  0.1226708E+00
        -11   -1    0    0    0    0  0.00000000000E+00  0.00000000000E+00  0.45593999997E+02  0.45594000000E+02  0.51100000000E-03 0. -1.
         11   -1    0    0    0    0 -0.00000000000E+00 -0.00000000000E+00 -0.45593999997E+02  0.45594000000E+02  0.51100000000E-03 0.  1.
    9900012    2    1    2    0    0  0.13820687141E+01 -0.36449115758E+01 -0.18316256284E+02  0.72461528400E+02  0.69999945424E+02 0.  0.
         12    1    1    2    0    0 -0.13820687141E+01  0.36449115758E+01  0.18316256284E+02  0.18726471600E+02  0.00000000000E+00 0. -1.
         11    1    3    3    0    0  0.12410615324E+01  0.29735694419E+02 -0.12327263533E+02  0.32213555885E+02  0.51100000000E-03 0. -1.
        -11    1    3    3    0    0  0.51504074843E+01  0.66688621032E+00 -0.21486201938E+01  0.56203205843E+01  0.51100000000E-03 0.  1.
        -12    1    3    3    0    0 -0.50094003026E+01 -0.34047492205E+02 -0.38403725579E+01  0.34627651930E+02  0.00000000000E+00 0.  1.
</event>
<event>
 7    1  0.3020651E-013  0.7246156E+02  0.7816164E-02  0.1226708E+00
        -11   -1    0    0    0    0  0.00000000000E+00  0.00000000000E+00  0.45593999997E+02  0.45594000000E+02  0.51100000000E-03 0. -1.
         11   -1    0    0    0    0 -0.00000000000E+00 -0.00000000000E+00 -0.45593999997E+02  0.45594000000E+02  0.51100000000E-03 0.  1.
    9900012    2    1    2    0    0  0.44630674471E+01  0.17188568926E+02 -0.59425241097E+01  0.72461562391E+02  0.69999989704E+02 0.  0.
         12    1    1    2    0    0 -0.44630674471E+01 -0.17188568926E+02  0.59425241097E+01  0.18726437609E+02  0.00000000000E+00 0. -1.
         11    1    3    3    0    0  0.45876050776E+01  0.16019753149E+02  0.16479257570E+02  0.23435966838E+02  0.51100000000E-03 0. -1.
        -11    1    3    3    0    0  0.21174224130E+02 -0.35782616441E+01 -0.14002632645E+02  0.25636408585E+02  0.51100000000E-03 0.  1.
         12    1    3    3    0    0 -0.21298761760E+02  0.47470774203E+01 -0.84191490342E+01  0.23389186968E+02  0.00000000000E+00 0. -1.
</event>
<event>
 7    1  0.3020651E-013  0.7246159E+02  0.7816164E-02  0.1226708E+00
        -11   -1    0    0    0    0  0.00000000000E+00  0.00000000000E+00  0.45593999997E+02  0.45594000000E+02  0.51100000000E-03 0.  1.
         11   -1    0    0    0    0 -0.00000000000E+00 -0.00000000000E+00 -0.45593999997E+02  0.45594000000E+02  0.51100000000E-03 0. -1.
    9900012    2    1    2    0    0  0.12754282862E+02  0.13276883732E+02  0.34250902902E+01  0.72461585061E+02  0.70000019236E+02 0.  0.
         12    1    1    2    0    0 -0.12754282862E+02 -0.13276883732E+02 -0.34250902902E+01  0.18726414939E+02  0.00000000000E+00 0. -1.
         11    1    3    3    0    0 -0.89439053826E+01 -0.83554927178E+01  0.87304268985E+01  0.15034229483E+02  0.51100000000E-03 0. -1.
        -11    1    3    3    0    0  0.68370562390E+01  0.99553056226E+01  0.21481780848E+02  0.24643870571E+02  0.51100000000E-03 0.  1.
         12    1    3    3    0    0  0.14861132006E+02  0.11677070827E+02 -0.26787117456E+02  0.32783485007E+02  0.00000000000E+00 0. -1.
</event>
<event>
 7    1  0.3020651E-013  0.7246108E+02  0.7816164E-02  0.1226709E+00
        -11   -1    0    0    0    0  0.00000000000E+00  0.00000000000E+00  0.45593999997E+02  0.45594000000E+02  0.51100000000E-03 0. -1.
         11   -1    0    0    0    0 -0.00000000000E+00 -0.00000000000E+00 -0.45593999997E+02  0.45594000000E+02  0.51100000000E-03 0.  1.
    9900012    2    1    2    0    0 -0.10117684004E+02  0.36809662886E+01 -0.15322551712E+02  0.72461077311E+02  0.69999357795E+02 0.  0.
         12    1    1    2    0    0  0.10117684004E+02 -0.36809662886E+01  0.15322551712E+02  0.18726922689E+02  0.00000000000E+00 0. -1.
         11    1    3    3    0    0  0.27238358505E+01 -0.70047447764E+01 -0.18139276318E+02  0.19634639715E+02  0.51100000000E-03 0. -1.
        -11    1    3    3    0    0 -0.56110358916E+00  0.29832377021E+02  0.36789174221E+01  0.30063599080E+02  0.51100000000E-03 0.  1.
         12    1    3    3    0    0 -0.12280416266E+02 -0.19146665956E+02 -0.86219281556E+00  0.22762838517E+02  0.00000000000E+00 0. -1.
</event>
<event>
 7    1  0.3020651E-013  0.7246179E+02  0.7816164E-02  0.1226707E+00
        -11   -1    0    0    0    0  0.00000000000E+00  0.00000000000E+00  0.45593999997E+02  0.45594000000E+02  0.51100000000E-03 0.  1.
         11   -1    0    0    0    0 -0.00000000000E+00 -0.00000000000E+00 -0.45593999997E+02  0.45594000000E+02  0.51100000000E-03 0. -1.
    9900012    2    1    2    0    0 -0.69865826423E+00 -0.16905145334E+02  0.80248841288E+01  0.72461793032E+02  0.70000290156E+02 0.  0.
         12    1    1    2    0    0  0.69865826423E+00  0.16905145334E+02 -0.80248841288E+01  0.18726206968E+02  0.00000000000E+00 0. -1.
         11    1    3    3    0    0  0.76897826471E+01  0.93808544633E+01 -0.17118780587E+02  0.20980606203E+02  0.51100000000E-03 0. -1.
        -11    1    3    3    0    0 -0.18261686854E+02 -0.42229479785E+01  0.35661652824E+01  0.19079833109E+02  0.51100000000E-03 0.  1.
        -12    1    3    3    0    0  0.98732459429E+01 -0.22063051819E+02  0.21577499433E+02  0.32401353719E+02  0.00000000000E+00 0.  1.
</event>
<event>
 7    1  0.3020651E-013  0.7246167E+02  0.7816164E-02  0.1226708E+00
        -11   -1    0    0    0    0  0.00000000000E+00  0.00000000000E+00  0.45593999997E+02  0.45594000000E+02  0.51100000000E-03 0.  1.
         11   -1    0    0    0    0 -0.00000000000E+00 -0.00000000000E+00 -0.45593999997E+02  0.45594000000E+02  0.51100000000E-03 0. -1.
    9900012    2    1    2    0    0 -0.92562127866E+01 -0.31358842528E+01  0.15973856407E+02  0.72461672711E+02  0.70000133417E+02 0.  0.
         12    1    1    2    0    0  0.92562127866E+01  0.31358842528E+01 -0.15973856407E+02  0.18726327289E+02  0.00000000000E+00 0. -1.
         11    1    3    3    0    0  0.17502798751E+02  0.79477491670E+01  0.14920998038E+01  0.19280587207E+02  0.51100000000E-03 0. -1.
        -11    1    3    3    0    0 -0.12294620022E+02 -0.19975120599E+01 -0.14761516737E+02  0.19314505237E+02  0.51100000000E-03 0.  1.
         12    1    3    3    0    0 -0.14464391516E+02 -0.90861213599E+01  0.29243273341E+02  0.33866580267E+02  0.00000000000E+00 0. -1.
</event>
<event>
 7    1  0.3020651E-013  0.7246155E+02  0.7816164E-02  0.1226708E+00
        -11   -1    0    0    0    0  0.00000000000E+00  0.00000000000E+00  0.45593999997E+02  0.45594000000E+02  0.51100000000E-03 0. -1.
         11   -1    0    0    0    0 -0.00000000000E+00 -0.00000000000E+00 -0.45593999997E+02  0.45594000000E+02  0.51100000000E-03 0.  1.
    9900012    2    1    2    0    0  0.21246550965E+01  0.12613170252E+02 -0.13677492498E+02  0.72461547476E+02  0.69999970275E+02 0.  0.
         12    1    1    2    0    0 -0.21246550965E+01 -0.12613170252E+02  0.13677492498E+02  0.18726452524E+02  0.00000000000E+00 0. -1.
         11    1    3    3    0    0 -0.37948486343E+01 -0.97620112808E+00  0.26422054132E+02  0.26711023747E+02  0.51100000000E-03 0. -1.
        -11    1    3    3    0    0  0.98984385907E+00  0.83475652261E+01 -0.47075742017E+01  0.96344637212E+01  0.51100000000E-03 0.  1.
        -12    1    3    3    0    0  0.49296598717E+01  0.52418061541E+01 -0.35391972428E+02  0.36116060009E+02  0.00000000000E+00 0.  1.
</event>
<event>
 7    1  0.3020651E-013  0.7246157E+02  0.7816164E-02  0.1226708E+00
        -11   -1    0    0    0    0  0.00000000000E+00  0.00000000000E+00  0.45593999997E+02  0.45594000000E+02  0.51100000000E-03 0. -1.
         11   -1    0    0    0    0 -0.00000000000E+00 -0.00000000000E+00 -0.45593999997E+02  0.45594000000E+02  0.51100000000E-03 0.  1.
    9900012    2    1    2    0    0  0.18671648762E+02  0.51604558398E+00  0.13351209006E+01  0.72461566320E+02  0.69999994823E+02 0.  0.
         12    1    1    2    0    0 -0.18671648762E+02 -0.51604558398E+00 -0.13351209006E+01  0.18726433680E+02  0.00000000000E+00 0. -1.
         11    1    3    3    0    0 -0.87469101294E+01 -0.13654975801E+02  0.15017634994E+02  0.22101949281E+02  0.51100000000E-03 0. -1.
        -11    1    3    3    0    0 -0.59898756483E+00  0.55494715815E+01  0.10806193699E+02  0.12162616637E+02  0.51100000000E-03 0.  1.
        -12    1    3    3    0    0  0.28017546456E+02  0.86215498038E+01 -0.24488707792E+02  0.38197000403E+02  0.00000000000E+00 0.  1.
</event>
<event>
 7    1  0.3020651E-013  0.7246163E+02  0.7816164E-02  0.1226708E+00
        -11   -1    0    0    0    0  0.00000000000E+00  0.00000000000E+00  0.45593999997E+02  0.45594000000E+02  0.51100000000E-03 0.  1.
         11   -1    0    0    0    0 -0.00000000000E+00 -0.00000000000E+00 -0.45593999997E+02  0.45594000000E+02  0.51100000000E-03 0. -1.
    9900012    2    1    2    0    0 -0.16403816741E+02 -0.77538892116E+01  0.46334738933E+01  0.72461626034E+02  0.70000072612E+02 0.  0.
         12    1    1    2    0    0  0.16403816741E+02  0.77538892116E+01 -0.46334738933E+01  0.18726373966E+02  0.00000000000E+00 0. -1.
         11    1    3    3    0    0 -0.23374556285E+02 -0.98157076906E+01 -0.16095883003E+02  0.30029909239E+02  0.51100000000E-03 0. -1.
        -11    1    3    3    0    0 -0.11486070297E+02  0.20363161162E+01  0.20944187204E+02  0.23973639108E+02  0.51100000000E-03 0.  1.
        -12    1    3    3    0    0  0.18456809841E+02  0.25502362761E-01 -0.21483030711E+00  0.18458077688E+02  0.00000000000E+00 0.  1.
</event>
<event>
 7    1  0.3020651E-013  0.7246157E+02  0.7816164E-02  0.1226708E+00
        -11   -1    0    0    0    0  0.00000000000E+00  0.00000000000E+00  0.45593999997E+02  0.45594000000E+02  0.51100000000E-03 0.  1.
         11   -1    0    0    0    0 -0.00000000000E+00 -0.00000000000E+00 -0.45593999997E+02  0.45594000000E+02  0.51100000000E-03 0. -1.
    9900012    2    1    2    0    0  0.73494841351E+01 -0.78934941924E+01  0.15308724710E+02  0.72461568950E+02  0.69999998249E+02 0.  0.
         12    1    1    2    0    0 -0.73494841351E+01  0.78934941924E+01 -0.15308724710E+02  0.18726431050E+02  0.00000000000E+00 0. -1.
         11    1    3    3    0    0  0.25915944283E+02 -0.82892802048E+01  0.19961312508E+01  0.27282464599E+02  0.51100000000E-03 0. -1.
        -11    1    3    3    0    0  0.22111666835E+01  0.14299123946E+02  0.14049682661E+02  0.20167989163E+02  0.51100000000E-03 0.  1.
        -12    1    3    3    0    0 -0.20777626831E+02 -0.13903337934E+02 -0.73708920137E+00  0.25011115188E+02  0.00000000000E+00 0.  1.
</event>
<event>
 7    1  0.3020651E-013  0.7246164E+02  0.7816164E-02  0.1226708E+00
        -11   -1    0    0    0    0  0.00000000000E+00  0.00000000000E+00  0.45593999997E+02  0.45594000000E+02  0.51100000000E-03 0.  1.
         11   -1    0    0    0    0 -0.00000000000E+00 -0.00000000000E+00 -0.45593999997E+02  0.45594000000E+02  0.51100000000E-03 0. -1.
    9900012    2    1    2    0    0  0.63575898752E+00 -0.41869953257E+01  0.18241198335E+02  0.72461643279E+02  0.70000095075E+02 0.  0.
         12    1    1    2    0    0 -0.63575898752E+00  0.41869953257E+01 -0.18241198335E+02  0.18726356721E+02  0.00000000000E+00 0. -1.
         11    1    3    3    0    0 -0.11432664206E+02  0.59025998157E+01  0.34507407646E+01  0.13321190169E+02  0.51100000000E-03 0. -1.
        -11    1    3    3    0    0 -0.21875968348E+02 -0.54893268596E+01  0.95268972898E+01  0.24483718524E+02  0.51100000000E-03 0.  1.
         12    1    3    3    0    0  0.33944391541E+02 -0.46002682817E+01  0.52635602810E+01  0.34656734586E+02  0.00000000000E+00 0. -1.
</event>
<event>
 7    1  0.3020651E-013  0.7246145E+02  0.7816164E-02  0.1226708E+00
        -11   -1    0    0    0    0  0.00000000000E+00  0.00000000000E+00  0.45593999997E+02  0.45594000000E+02  0.51100000000E-03 0. -1.
         11   -1    0    0    0    0 -0.00000000000E+00 -0.00000000000E+00 -0.45593999997E+02  0.45594000000E+02  0.51100000000E-03 0.  1.
    9900012    2    1    2    0    0  0.10091838117E+02 -0.12309506541E+02 -0.98648134036E+01  0.72461449560E+02  0.69999842721E+02 0.  0.
         12    1    1    2    0    0 -0.10091838117E+02  0.12309506541E+02  0.98648134036E+01  0.18726550440E+02  0.00000000000E+00 0. -1.
         11    1    3    3    0    0  0.18858497963E+02  0.36159816916E+01  0.11236365182E+02  0.22248015008E+02  0.51100000000E-03 0. -1.
        -11    1    3    3    0    0  0.59399339620E+00  0.14075240164E+02 -0.76235376662E+01  0.16018225265E+02  0.51100000000E-03 0.  1.
        -12    1    3    3    0    0 -0.93606532423E+01 -0.30000728397E+02 -0.13477640920E+02  0.34195209288E+02  0.00000000000E+00 0.  1.
</event>
<event>
 7    1  0.3020651E-013  0.7246156E+02  0.7816164E-02  0.1226708E+00
        -11   -1    0    0    0    0  0.00000000000E+00  0.00000000000E+00  0.45593999997E+02  0.45594000000E+02  0.51100000000E-03 0.  1.
         11   -1    0    0    0    0 -0.00000000000E+00 -0.00000000000E+00 -0.45593999997E+02  0.45594000000E+02  0.51100000000E-03 0. -1.
    9900012    2    1    2    0    0 -0.12547402857E+02 -0.32384311052E+00  0.13897385806E+02  0.72461560801E+02  0.69999987634E+02 0.  0.
         12    1    1    2    0    0  0.12547402857E+02  0.32384311052E+00 -0.13897385806E+02  0.18726439199E+02  0.00000000000E+00 0. -1.
         11    1    3    3    0    0  0.24747394858E+01 -0.24273238579E+02 -0.30174319505E+01  0.24584941376E+02  0.51100000000E-03 0. -1.
        -11    1    3    3    0    0  0.10687391018E+02  0.52364472122E+01  0.94923152024E+01  0.15223165056E+02  0.51100000000E-03 0.  1.
        -12    1    3    3    0    0 -0.25709533361E+02  0.18712948256E+02  0.74225025542E+01  0.32653454369E+02  0.00000000000E+00 0.  1.
</event>
<event>
 7    1  0.3020651E-013  0.7246153E+02  0.7816164E-02  0.1226708E+00
        -11   -1    0    0    0    0  0.00000000000E+00  0.00000000000E+00  0.45593999997E+02  0.45594000000E+02  0.51100000000E-03 0. -1.
         11   -1    0    0    0    0 -0.00000000000E+00 -0.00000000000E+00 -0.45593999997E+02  0.45594000000E+02  0.51100000000E-03 0.  1.
    9900012    2    1    2    0    0  0.14646805701E+02 -0.48588399761E+01 -0.10608651640E+02  0.72461528555E+02  0.69999945627E+02 0.  0.
         12    1    1    2    0    0 -0.14646805701E+02  0.48588399761E+01  0.10608651640E+02  0.18726471445E+02  0.00000000000E+00 0. -1.
         11    1    3    3    0    0 -0.10358902500E+02 -0.12460089061E+02 -0.22018559392E+02  0.27338208398E+02  0.51100000000E-03 0. -1.
        -11    1    3    3    0    0 -0.12305446345E+01  0.13081486055E+02 -0.45787337847E+01  0.13914176973E+02  0.51100000000E-03 0.  1.
         12    1    3    3    0    0  0.26236252836E+02 -0.54802369699E+01  0.15988641537E+02  0.31209143184E+02  0.00000000000E+00 0. -1.
</event>
<event>
 7    1  0.3020651E-013  0.7246158E+02  0.7816164E-02  0.1226708E+00
        -11   -1    0    0    0    0  0.00000000000E+00  0.00000000000E+00  0.45593999997E+02  0.45594000000E+02  0.51100000000E-03 0. -1.
         11   -1    0    0    0    0 -0.00000000000E+00 -0.00000000000E+00 -0.45593999997E+02  0.45594000000E+02  0.51100000000E-03 0.  1.
    9900012    2    1    2    0    0  0.13883304054E+02 -0.34722650335E+01 -0.12077911293E+02  0.72461582908E+02  0.70000016431E+02 0.  0.
         12    1    1    2    0    0 -0.13883304054E+02  0.34722650335E+01  0.12077911293E+02  0.18726417092E+02  0.00000000000E+00 0. -1.
         11    1    3    3    0    0  0.25468922972E+02 -0.11551493686E+02  0.65623489725E+01  0.28725728329E+02  0.51100000000E-03 0. -1.
        -11    1    3    3    0    0 -0.78230749871E+01  0.35047474540E+01  0.10752998694E+02  0.13751754003E+02  0.51100000000E-03 0.  1.
        -12    1    3    3    0    0 -0.37625439316E+01  0.45744811980E+01 -0.29393258960E+02  0.29984100576E+02  0.00000000000E+00 0.  1.
</event>
<event>
 7    1  0.3020651E-013  0.7246158E+02  0.7816164E-02  0.1226708E+00
        -11   -1    0    0    0    0  0.00000000000E+00  0.00000000000E+00  0.45593999997E+02  0.45594000000E+02  0.51100000000E-03 0. -1.
         11   -1    0    0    0    0 -0.00000000000E+00 -0.00000000000E+00 -0.45593999997E+02  0.45594000000E+02  0.51100000000E-03 0.  1.
    9900012    2    1    2    0    0  0.18641117319E+02 -0.15876093281E+01  0.81684132088E+00  0.72461575141E+02  0.70000006313E+02 0.  0.
         12    1    1    2    0    0 -0.18641117319E+02  0.15876093281E+01 -0.81684132088E+00  0.18726424859E+02  0.00000000000E+00 0. -1.
         11    1    3    3    0    0 -0.21769972759E+01 -0.92966168047E+01  0.13686296511E+01  0.96457010391E+01  0.51100000000E-03 0. -1.
        -11    1    3    3    0    0  0.23819997583E+02  0.12554828164E+02 -0.25584268550E+02  0.37142573855E+02  0.51100000000E-03 0.  1.
         12    1    3    3    0    0 -0.30018829881E+01 -0.48458206878E+01  0.25032480220E+02  0.25673300247E+02  0.00000000000E+00 0. -1.
</event>
<event>
 7    1  0.3020651E-013  0.7246160E+02  0.7816164E-02  0.1226708E+00
        -11   -1    0    0    0    0  0.00000000000E+00  0.00000000000E+00  0.45593999997E+02  0.45594000000E+02  0.51100000000E-03 0.  1.
         11   -1    0    0    0    0 -0.00000000000E+00 -0.00000000000E+00 -0.45593999997E+02  0.45594000000E+02  0.51100000000E-03 0. -1.
    9900012    2    1    2    0    0  0.48918853832E+01 -0.44458287783E+01  0.17520903143E+02  0.72461601973E+02  0.70000041267E+02 0.  0.
         12    1    1    2    0    0 -0.48918853832E+01  0.44458287783E+01 -0.17520903143E+02  0.18726398027E+02  0.00000000000E+00 0. -1.
         11    1    3    3    0    0  0.15571019553E+02  0.22464156941E+02 -0.19610389380E+01  0.27403296718E+02  0.51100000000E-03 0. -1.
        -11    1    3    3    0    0  0.24166093890E+01 -0.18108099705E+01 -0.61608856945E+01  0.68611621822E+01  0.51100000000E-03 0.  1.
        -12    1    3    3    0    0 -0.13095743559E+02 -0.25099175749E+02  0.25642827775E+02  0.38197143073E+02  0.00000000000E+00 0.  1.
</event>
<event>
 7    1  0.3020651E-013  0.7246161E+02  0.7816164E-02  0.1226708E+00
        -11   -1    0    0    0    0  0.00000000000E+00  0.00000000000E+00  0.45593999997E+02  0.45594000000E+02  0.51100000000E-03 0. -1.
         11   -1    0    0    0    0 -0.00000000000E+00 -0.00000000000E+00 -0.45593999997E+02  0.45594000000E+02  0.51100000000E-03 0.  1.
    9900012    2    1    2    0    0  0.93660252883E+01 -0.23069603531E+01 -0.16050958436E+02  0.72461607863E+02  0.70000048940E+02 0.  0.
         12    1    1    2    0    0 -0.93660252883E+01  0.23069603531E+01  0.16050958436E+02  0.18726392137E+02  0.00000000000E+00 0. -1.
         11    1    3    3    0    0  0.17315074117E+02 -0.13359430832E+02 -0.30521792920E+01  0.22081711495E+02  0.51100000000E-03 0. -1.
        -11    1    3    3    0    0  0.57447165835E+01 -0.10253623155E+02  0.10552046252E+02  0.15795070015E+02  0.51100000000E-03 0.  1.
        -12    1    3    3    0    0 -0.13693765412E+02  0.21306093633E+02 -0.23550825395E+02  0.34584826353E+02  0.00000000000E+00 0.  1.
</event>
<event>
 7    1  0.3020651E-013  0.7246158E+02  0.7816164E-02  0.1226708E+00
        -11   -1    0    0    0    0  0.00000000000E+00  0.00000000000E+00  0.45593999997E+02  0.45594000000E+02  0.51100000000E-03 0.  1.
         11   -1    0    0    0    0 -0.00000000000E+00 -0.00000000000E+00 -0.45593999997E+02  0.45594000000E+02  0.51100000000E-03 0. -1.
    9900012    2    1    2    0    0  0.38378253116E+01 -0.17881776860E+02 -0.40239010000E+01  0.72461584805E+02  0.70000018903E+02 0.  0.
         12    1    1    2    0    0 -0.38378253116E+01  0.17881776860E+02  0.40239010000E+01  0.18726415195E+02  0.00000000000E+00 0. -1.
         11    1    3    3    0    0 -0.16135939300E+02 -0.22860213818E+02  0.18773087183E+02  0.33695499930E+02  0.51100000000E-03 0. -1.
        -11    1    3    3    0    0  0.65322542333E+01 -0.17924151706E+01  0.41191593847E+01  0.79278352537E+01  0.51100000000E-03 0.  1.
        -12    1    3    3    0    0  0.13441510378E+02  0.67708521282E+01 -0.26916147568E+02  0.30838249621E+02  0.00000000000E+00 0.  1.
</event>
<event>
 7    1  0.3020651E-013  0.7246158E+02  0.7816164E-02  0.1226708E+00
        -11   -1    0    0    0    0  0.00000000000E+00  0.00000000000E+00  0.45593999997E+02  0.45594000000E+02  0.51100000000E-03 0. -1.
         11   -1    0    0    0    0 -0.00000000000E+00 -0.00000000000E+00 -0.45593999997E+02  0.45594000000E+02  0.51100000000E-03 0.  1.
    9900012    2    1    2    0    0 -0.75926242719E+01 -0.73877437923E+01 -0.15441895491E+02  0.72461579145E+02  0.70000011530E+02 0.  0.
         12    1    1    2    0    0  0.75926242719E+01  0.73877437923E+01  0.15441895491E+02  0.18726420855E+02  0.00000000000E+00 0. -1.
         11    1    3    3    0    0 -0.94820458849E+01  0.10612126514E+02  0.45826140775E+01  0.14950811863E+02  0.51100000000E-03 0. -1.
        -11    1    3    3    0    0 -0.21554905421E+02 -0.61986010170E+01  0.29593678383E+01  0.22622874718E+02  0.51100000000E-03 0.  1.
        -12    1    3    3    0    0  0.23444327034E+02 -0.11801269290E+02 -0.22983877407E+02  0.34887892564E+02  0.00000000000E+00 0.  1.
</event>
<event>
 7    1  0.3020651E-013  0.7246156E+02  0.7816164E-02  0.1226708E+00
        -11   -1    0    0    0    0  0.00000000000E+00  0.00000000000E+00  0.45593999997E+02  0.45594000000E+02  0.51100000000E-03 0. -1.
         11   -1    0    0    0    0 -0.00000000000E+00 -0.00000000000E+00 -0.45593999997E+02  0.45594000000E+02  0.51100000000E-03 0.  1.
    9900012    2    1    2    0    0 -0.83389801623E+01 -0.15340688961E+02  0.67678691927E+01  0.72461564638E+02  0.69999992632E+02 0.  0.
         12    1    1    2    0    0  0.83389801623E+01  0.15340688961E+02 -0.67678691927E+01  0.18726435362E+02  0.00000000000E+00 0. -1.
         11    1    3    3    0    0 -0.21752110765E+01  0.26252601827E+01 -0.36645227053E+01  0.50052233890E+01  0.51100000000E-03 0. -1.
        -11    1    3    3    0    0 -0.13429413679E+02 -0.39663162702E+02 -0.98071465640E+00  0.41886482650E+02  0.51100000000E-03 0.  1.
         12    1    3    3    0    0  0.72656445932E+01  0.21697213559E+02  0.11413106554E+02  0.25569858599E+02  0.00000000000E+00 0. -1.
</event>
<event>
 7    1  0.3020651E-013  0.7246157E+02  0.7816164E-02  0.1226708E+00
        -11   -1    0    0    0    0  0.00000000000E+00  0.00000000000E+00  0.45593999997E+02  0.45594000000E+02  0.51100000000E-03 0. -1.
         11   -1    0    0    0    0 -0.00000000000E+00 -0.00000000000E+00 -0.45593999997E+02  0.45594000000E+02  0.51100000000E-03 0.  1.
    9900012    2    1    2    0    0 -0.76634257956E+01  0.32514964180E+01 -0.16774347408E+02  0.72461573356E+02  0.70000003988E+02 0.  0.
         12    1    1    2    0    0  0.76634257956E+01 -0.32514964180E+01  0.16774347408E+02  0.18726426644E+02  0.00000000000E+00 0. -1.
         11    1    3    3    0    0  0.17402663116E+02 -0.53164035323E+01  0.51905567104E+01  0.18922439305E+02  0.51100000000E-03 0. -1.
        -11    1    3    3    0    0  0.81611847675E+01 -0.69732408038E+01  0.94475213278E-01  0.10734987189E+02  0.51100000000E-03 0.  1.
         12    1    3    3    0    0 -0.33227273679E+02  0.15541140754E+02 -0.22059379332E+02  0.42804146862E+02  0.00000000000E+00 0. -1.
</event>
<event>
 7    1  0.3020651E-013  0.7246154E+02  0.7816164E-02  0.1226708E+00
        -11   -1    0    0    0    0  0.00000000000E+00  0.00000000000E+00  0.45593999997E+02  0.45594000000E+02  0.51100000000E-03 0.  1.
         11   -1    0    0    0    0 -0.00000000000E+00 -0.00000000000E+00 -0.45593999997E+02  0.45594000000E+02  0.51100000000E-03 0. -1.
    9900012    2    1    2    0    0  0.16698744858E+02 -0.35043338310E+01  0.77169752849E+01  0.72461544303E+02  0.69999966141E+02 0.  0.
         12    1    1    2    0    0 -0.16698744858E+02  0.35043338310E+01 -0.77169752849E+01  0.18726455697E+02  0.00000000000E+00 0. -1.
         11    1    3    3    0    0 -0.12364162540E+02  0.23579294105E+01 -0.34320034395E+00  0.12591669197E+02  0.51100000000E-03 0.  1.
        -11    1    3    3    0    0  0.20088596807E+02 -0.83165019959E+01 -0.20469412789E+02  0.29861560363E+02  0.51100000000E-03 0. -1.
         12    1    3    3    0    0  0.89743105907E+01  0.24542387545E+01  0.28529588418E+02  0.30008314743E+02  0.00000000000E+00 0. -1.
</event>
<event>
 7    1  0.3020651E-013  0.7246151E+02  0.7816164E-02  0.1226708E+00
        -11   -1    0    0    0    0  0.00000000000E+00  0.00000000000E+00  0.45593999997E+02  0.45594000000E+02  0.51100000000E-03 0. -1.
         11   -1    0    0    0    0 -0.00000000000E+00 -0.00000000000E+00 -0.45593999997E+02  0.45594000000E+02  0.51100000000E-03 0.  1.
    9900012    2    1    2    0    0  0.18699613523E+02  0.73560113389E+00  0.68182753720E+00  0.72461506903E+02  0.69999917421E+02 0.  0.
         12    1    1    2    0    0 -0.18699613523E+02 -0.73560113389E+00 -0.68182753720E+00  0.18726493097E+02  0.00000000000E+00 0. -1.
         11    1    3    3    0    0  0.42344529577E+01 -0.62960917794E+01 -0.30942537626E+01  0.81942522633E+01  0.51100000000E-03 0. -1.
        -11    1    3    3    0    0  0.28131663964E+01 -0.27060369174E+02 -0.37437001224E+01  0.27462570453E+02  0.51100000000E-03 0.  1.
         12    1    3    3    0    0  0.11651994169E+02  0.34092062087E+02  0.75197814221E+01  0.36804684187E+02  0.00000000000E+00 0. -1.
</event>
<event>
 7    1  0.3020651E-013  0.7246154E+02  0.7816164E-02  0.1226708E+00
        -11   -1    0    0    0    0  0.00000000000E+00  0.00000000000E+00  0.45593999997E+02  0.45594000000E+02  0.51100000000E-03 0. -1.
         11   -1    0    0    0    0 -0.00000000000E+00 -0.00000000000E+00 -0.45593999997E+02  0.45594000000E+02  0.51100000000E-03 0.  1.
    9900012    2    1    2    0    0 -0.13702815388E+02 -0.58502081347E+01 -0.11344080087E+02  0.72461541771E+02  0.69999962843E+02 0.  0.
         12    1    1    2    0    0  0.13702815388E+02  0.58502081347E+01  0.11344080087E+02  0.18726458229E+02  0.00000000000E+00 0. -1.
         11    1    3    3    0    0  0.75144267834E+01  0.39865361599E+01 -0.34274188945E+01  0.91709476597E+01  0.51100000000E-03 0. -1.
        -11    1    3    3    0    0  0.23809362356E+01 -0.14627217021E+02 -0.28167136333E+02  0.31827847942E+02  0.51100000000E-03 0.  1.
         12    1    3    3    0    0 -0.23598178407E+02  0.47904727266E+01  0.20250475141E+02  0.31462746169E+02  0.00000000000E+00 0. -1.
</event>
<event>
 7    1  0.3020651E-013  0.7246158E+02  0.7816164E-02  0.1226708E+00
        -11   -1    0    0    0    0  0.00000000000E+00  0.00000000000E+00  0.45593999997E+02  0.45594000000E+02  0.51100000000E-03 0. -1.
         11   -1    0    0    0    0 -0.00000000000E+00 -0.00000000000E+00 -0.45593999997E+02  0.45594000000E+02  0.51100000000E-03 0.  1.
    9900012    2    1    2    0    0 -0.58055068826E+01  0.59084403861E+01 -0.16794802009E+02  0.72461576089E+02  0.70000007549E+02 0.  0.
         12    1    1    2    0    0  0.58055068826E+01 -0.59084403861E+01  0.16794802009E+02  0.18726423911E+02  0.00000000000E+00 0. -1.
         11    1    3    3    0    0  0.19502806025E+02  0.70461279592E+00 -0.23060226992E+02  0.30209766487E+02  0.51100000000E-03 0.  1.
        -11    1    3    3    0    0  0.91738403206E+00  0.10395559304E+02  0.10931376190E+02  0.15113048415E+02  0.51100000000E-03 0. -1.
        -12    1    3    3    0    0 -0.26225696939E+02 -0.51917317143E+01 -0.46659512074E+01  0.27138761188E+02  0.00000000000E+00 0.  1.
</event>
<event>
 7    1  0.3020651E-013  0.7246169E+02  0.7816164E-02  0.1226708E+00
        -11   -1    0    0    0    0  0.00000000000E+00  0.00000000000E+00  0.45593999997E+02  0.45594000000E+02  0.51100000000E-03 0.  1.
         11   -1    0    0    0    0 -0.00000000000E+00 -0.00000000000E+00 -0.45593999997E+02  0.45594000000E+02  0.51100000000E-03 0. -1.
    9900012    2    1    2    0    0  0.10488756502E+02  0.68650926434E+01  0.13911548408E+02  0.72461689924E+02  0.70000155839E+02 0.  0.
         12    1    1    2    0    0 -0.10488756502E+02 -0.68650926434E+01 -0.13911548408E+02  0.18726310076E+02  0.00000000000E+00 0. -1.
         11    1    3    3    0    0 -0.21154773457E+02 -0.11221942092E+02  0.17600724299E+02  0.29719386273E+02  0.51100000000E-03 0. -1.
        -11    1    3    3    0    0  0.16217933994E+02 -0.33287737938E+00  0.53371778867E+01  0.17076816402E+02  0.51100000000E-03 0.  1.
        -12    1    3    3    0    0  0.15425595965E+02  0.18419912115E+02 -0.90263537775E+01  0.25665487249E+02  0.00000000000E+00 0.  1.
</event>
<event>
 7    1  0.3020651E-013  0.7246155E+02  0.7816164E-02  0.1226708E+00
        -11   -1    0    0    0    0  0.00000000000E+00  0.00000000000E+00  0.45593999997E+02  0.45594000000E+02  0.51100000000E-03 0. -1.
         11   -1    0    0    0    0 -0.00000000000E+00 -0.00000000000E+00 -0.45593999997E+02  0.45594000000E+02  0.51100000000E-03 0.  1.
    9900012    2    1    2    0    0  0.84329347510E+01  0.12153683019E+02 -0.11482745731E+02  0.72461552153E+02  0.69999976367E+02 0.  0.
         12    1    1    2    0    0 -0.84329347510E+01 -0.12153683019E+02  0.11482745731E+02  0.18726447847E+02  0.00000000000E+00 0. -1.
         11    1    3    3    0    0  0.12823010436E+01 -0.21256376750E+01 -0.99953918275E+01  0.10299052847E+02  0.51100000000E-03 0. -1.
        -11    1    3    3    0    0 -0.19843668646E+02  0.11983763748E+02 -0.18940709130E+02  0.29935467952E+02  0.51100000000E-03 0.  1.
         12    1    3    3    0    0  0.26994302353E+02  0.22955569459E+01  0.17453355226E+02  0.32227031354E+02  0.00000000000E+00 0. -1.
</event>
<event>
 7    1  0.3020651E-013  0.7246163E+02  0.7816164E-02  0.1226708E+00
        -11   -1    0    0    0    0  0.00000000000E+00  0.00000000000E+00  0.45593999997E+02  0.45594000000E+02  0.51100000000E-03 0. -1.
         11   -1    0    0    0    0 -0.00000000000E+00 -0.00000000000E+00 -0.45593999997E+02  0.45594000000E+02  0.51100000000E-03 0.  1.
    9900012    2    1    2    0    0  0.18305547380E+02 -0.33885177653E+00  0.39330923945E+01  0.72461625519E+02  0.70000071941E+02 0.  0.
         12    1    1    2    0    0 -0.18305547380E+02  0.33885177653E+00 -0.39330923945E+01  0.18726374481E+02  0.00000000000E+00 0. -1.
         11    1    3    3    0    0  0.63660291998E+01  0.18296457563E+02  0.59755917561E+01  0.20272996429E+02  0.51100000000E-03 0. -1.
        -11    1    3    3    0    0  0.12305033236E+02  0.84889881510E+00 -0.21413189381E+02  0.24711518607E+02  0.51100000000E-03 0.  1.
         12    1    3    3    0    0 -0.36551505632E+00 -0.19484208154E+02  0.19370690020E+02  0.27477110483E+02  0.00000000000E+00 0. -1.
</event>
<event>
 7    1  0.3020651E-013  0.7246147E+02  0.7816164E-02  0.1226708E+00
        -11   -1    0    0    0    0  0.00000000000E+00  0.00000000000E+00  0.45593999997E+02  0.45594000000E+02  0.51100000000E-03 0. -1.
         11   -1    0    0    0    0 -0.00000000000E+00 -0.00000000000E+00 -0.45593999997E+02  0.45594000000E+02  0.51100000000E-03 0.  1.
    9900012    2    1    2    0    0 -0.16512478124E+02 -0.87909660736E+01 -0.86023799432E+00  0.72461467280E+02  0.69999865804E+02 0.  0.
         12    1    1    2    0    0  0.16512478124E+02  0.87909660736E+01  0.86023799432E+00  0.18726532720E+02  0.00000000000E+00 0. -1.
         11    1    3    3    0    0 -0.58483735287E+01 -0.26028321829E+02  0.17758273496E+02  0.32047360079E+02  0.51100000000E-03 0. -1.
        -11    1    3    3    0    0 -0.19672311366E+02  0.44065091949E+01 -0.96142489473E+01  0.22334971253E+02  0.51100000000E-03 0.  1.
         12    1    3    3    0    0  0.90082067709E+01  0.12830846561E+02 -0.90042625431E+01  0.18079135948E+02  0.00000000000E+00 0. -1.
</event>
<event>
 7    1  0.3020651E-013  0.7246156E+02  0.7816164E-02  0.1226708E+00
        -11   -1    0    0    0    0  0.00000000000E+00  0.00000000000E+00  0.45593999997E+02  0.45594000000E+02  0.51100000000E-03 0.  1.
         11   -1    0    0    0    0 -0.00000000000E+00 -0.00000000000E+00 -0.45593999997E+02  0.45594000000E+02  0.51100000000E-03 0. -1.
    9900012    2    1    2    0    0 -0.10166935179E-01  0.18536740764E+02  0.26586897707E+01  0.72461561663E+02  0.69999988756E+02 0.  0.
         12    1    1    2    0    0  0.10166935179E-01 -0.18536740764E+02 -0.26586897707E+01  0.18726438337E+02  0.00000000000E+00 0. -1.
         11    1    3    3    0    0 -0.15483198806E+02  0.13468449163E+02 -0.47732849395E+01  0.21069238654E+02  0.51100000000E-03 0. -1.
        -11    1    3    3    0    0  0.34637634415E+01  0.25477937032E+02 -0.22461954161E+01  0.25810236858E+02  0.51100000000E-03 0.  1.
        -12    1    3    3    0    0  0.12009268429E+02 -0.20409645431E+02  0.96781701264E+01  0.25582086150E+02  0.00000000000E+00 0.  1.
</event>
<event>
 7    1  0.3020651E-013  0.7246156E+02  0.7816164E-02  0.1226708E+00
        -11   -1    0    0    0    0  0.00000000000E+00  0.00000000000E+00  0.45593999997E+02  0.45594000000E+02  0.51100000000E-03 0.  1.
         11   -1    0    0    0    0 -0.00000000000E+00 -0.00000000000E+00 -0.45593999997E+02  0.45594000000E+02  0.51100000000E-03 0. -1.
    9900012    2    1    2    0    0  0.13629774419E+02 -0.11180055566E+02 -0.63178556651E+01  0.72461556307E+02  0.69999981779E+02 0.  0.
         12    1    1    2    0    0 -0.13629774419E+02  0.11180055566E+02  0.63178556651E+01  0.18726443693E+02  0.00000000000E+00 0. -1.
         11    1    3    3    0    0  0.10035939441E+02  0.14679384839E+02 -0.11139318402E+02  0.20983060655E+02  0.51100000000E-03 0. -1.
        -11    1    3    3    0    0  0.69523242053E+01 -0.10254427023E+02 -0.19072561870E+02  0.22743146264E+02  0.51100000000E-03 0.  1.
        -12    1    3    3    0    0 -0.33584892274E+01 -0.15605013382E+02  0.23894024607E+02  0.28735349388E+02  0.00000000000E+00 0.  1.
</event>
<event>
 7    1  0.3020651E-013  0.7246157E+02  0.7816164E-02  0.1226708E+00
        -11   -1    0    0    0    0  0.00000000000E+00  0.00000000000E+00  0.45593999997E+02  0.45594000000E+02  0.51100000000E-03 0. -1.
         11   -1    0    0    0    0 -0.00000000000E+00 -0.00000000000E+00 -0.45593999997E+02  0.45594000000E+02  0.51100000000E-03 0.  1.
    9900012    2    1    2    0    0 -0.11819801406E+02  0.27800104157E+01 -0.14256333617E+02  0.72461569177E+02  0.69999998544E+02 0.  0.
         12    1    1    2    0    0  0.11819801406E+02 -0.27800104157E+01  0.14256333617E+02  0.18726430823E+02  0.00000000000E+00 0. -1.
         11    1    3    3    0    0 -0.21853166074E+02  0.81001633561E+01  0.10258628760E+02  0.25463954488E+02  0.51100000000E-03 0. -1.
        -11    1    3    3    0    0 -0.96776782009E+01 -0.19855504326E+01  0.52151648647E+01  0.11171294048E+02  0.51100000000E-03 0.  1.
        -12    1    3    3    0    0  0.19711042869E+02 -0.33346025078E+01 -0.29730127241E+02  0.35826320641E+02  0.00000000000E+00 0.  1.
</event>
<event>
 7    1  0.3020651E-013  0.7246161E+02  0.7816164E-02  0.1226708E+00
        -11   -1    0    0    0    0  0.00000000000E+00  0.00000000000E+00  0.45593999997E+02  0.45594000000E+02  0.51100000000E-03 0.  1.
         11   -1    0    0    0    0 -0.00000000000E+00 -0.00000000000E+00 -0.45593999997E+02  0.45594000000E+02  0.51100000000E-03 0. -1.
    9900012    2    1    2    0    0 -0.11608608282E+02  0.13264881892E+01  0.14634152929E+02  0.72461607152E+02  0.70000048014E+02 0.  0.
         12    1    1    2    0    0  0.11608608282E+02 -0.13264881892E+01 -0.14634152929E+02  0.18726392848E+02  0.00000000000E+00 0. -1.
         11    1    3    3    0    0  0.27480290385E+01  0.19196812748E+02 -0.17438527256E+02  0.26080098090E+02  0.51100000000E-03 0. -1.
        -11    1    3    3    0    0  0.27352088728E+00 -0.82582792903E+00 -0.38867730070E+01  0.39829398832E+01  0.51100000000E-03 0.  1.
        -12    1    3    3    0    0 -0.14630158207E+02 -0.17044496630E+02  0.35959453192E+02  0.42398569179E+02  0.00000000000E+00 0.  1.
</event>
<event>
 7    1  0.3020651E-013  0.7246145E+02  0.7816164E-02  0.1226708E+00
        -11   -1    0    0    0    0  0.00000000000E+00  0.00000000000E+00  0.45593999997E+02  0.45594000000E+02  0.51100000000E-03 0.  1.
         11   -1    0    0    0    0 -0.00000000000E+00 -0.00000000000E+00 -0.45593999997E+02  0.45594000000E+02  0.51100000000E-03 0. -1.
    9900012    2    1    2    0    0 -0.18364598773E+02 -0.25174547366E+01 -0.26622472395E+01  0.72461451284E+02  0.69999844967E+02 0.  0.
         12    1    1    2    0    0  0.18364598773E+02  0.25174547366E+01  0.26622472395E+01  0.18726548716E+02  0.00000000000E+00 0. -1.
         11    1    3    3    0    0  0.48777028992E+01 -0.12872612029E+02 -0.67952583076E+01  0.15351601276E+02  0.51100000000E-03 0. -1.
        -11    1    3    3    0    0 -0.14140314656E+02 -0.17433129579E+02  0.13755441917E+02  0.26326311707E+02  0.51100000000E-03 0.  1.
        -12    1    3    3    0    0 -0.91019870163E+01  0.27788286871E+02 -0.96224308488E+01  0.30783538301E+02  0.00000000000E+00 0.  1.
</event>
<event>
 7    1  0.3020651E-013  0.7246159E+02  0.7816164E-02  0.1226708E+00
        -11   -1    0    0    0    0  0.00000000000E+00  0.00000000000E+00  0.45593999997E+02  0.45594000000E+02  0.51100000000E-03 0. -1.
         11   -1    0    0    0    0 -0.00000000000E+00 -0.00000000000E+00 -0.45593999997E+02  0.45594000000E+02  0.51100000000E-03 0.  1.
    9900012    2    1    2    0    0 -0.13181843990E+02 -0.13205129360E+02  0.15944083215E+01  0.72461585760E+02  0.70000020147E+02 0.  0.
         12    1    1    2    0    0  0.13181843990E+02  0.13205129360E+02 -0.15944083215E+01  0.18726414240E+02  0.00000000000E+00 0. -1.
         11    1    3    3    0    0 -0.11023107437E+02  0.38350607130E+01  0.23472718007E+02  0.26214215211E+02  0.51100000000E-03 0. -1.
        -11    1    3    3    0    0  0.68158700133E+00 -0.12311783875E-01  0.99849099451E+01  0.10008153641E+02  0.51100000000E-03 0.  1.
        -12    1    3    3    0    0 -0.28403235540E+01 -0.17027878289E+02 -0.31863219630E+02  0.36239216909E+02  0.00000000000E+00 0.  1.
</event>
<event>
 7    1  0.3020651E-013  0.7246164E+02  0.7816164E-02  0.1226708E+00
        -11   -1    0    0    0    0  0.00000000000E+00  0.00000000000E+00  0.45593999997E+02  0.45594000000E+02  0.51100000000E-03 0.  1.
         11   -1    0    0    0    0 -0.00000000000E+00 -0.00000000000E+00 -0.45593999997E+02  0.45594000000E+02  0.51100000000E-03 0. -1.
    9900012    2    1    2    0    0  0.63932917236E+00 -0.16994840955E+02  0.78385820156E+01  0.72461635460E+02  0.70000084890E+02 0.  0.
         12    1    1    2    0    0 -0.63932917236E+00  0.16994840955E+02 -0.78385820156E+01  0.18726364540E+02  0.00000000000E+00 0. -1.
         11    1    3    3    0    0  0.87407792759E-01  0.34444747889E+01 -0.33654223451E+01  0.48164421014E+01  0.51100000000E-03 0. -1.
        -11    1    3    3    0    0 -0.11874470775E+02  0.14165274308E+02  0.22558233643E+02  0.29163881047E+02  0.51100000000E-03 0.  1.
         12    1    3    3    0    0  0.12426392154E+02 -0.34604590051E+02 -0.11354229282E+02  0.38481312311E+02  0.00000000000E+00 0. -1.
</event>
<event>
 7    1  0.3020651E-013  0.7246157E+02  0.7816164E-02  0.1226708E+00
        -11   -1    0    0    0    0  0.00000000000E+00  0.00000000000E+00  0.45593999997E+02  0.45594000000E+02  0.51100000000E-03 0.  1.
         11   -1    0    0    0    0 -0.00000000000E+00 -0.00000000000E+00 -0.45593999997E+02  0.45594000000E+02  0.51100000000E-03 0. -1.
    9900012    2    1    2    0    0 -0.57908585113E+01 -0.17154376152E+01  0.17725756458E+02  0.72461569200E+02  0.69999998574E+02 0.  0.
         12    1    1    2    0    0  0.57908585113E+01  0.17154376152E+01 -0.17725756458E+02  0.18726430800E+02  0.00000000000E+00 0. -1.
         11    1    3    3    0    0  0.14807746516E+02 -0.12079175168E+02 -0.98660121448E+01  0.21506139252E+02  0.51100000000E-03 0. -1.
        -11    1    3    3    0    0  0.41504320889E+01  0.64919466411E+01  0.24538682262E+02  0.25719999711E+02  0.51100000000E-03 0.  1.
         12    1    3    3    0    0 -0.24749037116E+02  0.38717909113E+01  0.30530863409E+01  0.25235430237E+02  0.00000000000E+00 0. -1.
</event>
<event>
 7    1  0.3020651E-013  0.7246159E+02  0.7816164E-02  0.1226708E+00
        -11   -1    0    0    0    0  0.00000000000E+00  0.00000000000E+00  0.45593999997E+02  0.45594000000E+02  0.51100000000E-03 0. -1.
         11   -1    0    0    0    0 -0.00000000000E+00 -0.00000000000E+00 -0.45593999997E+02  0.45594000000E+02  0.51100000000E-03 0.  1.
    9900012    2    1    2    0    0 -0.74856766236E+01 -0.40738325713E+01 -0.16674737591E+02  0.72461592441E+02  0.70000028850E+02 0.  0.
         12    1    1    2    0    0  0.74856766236E+01  0.40738325713E+01  0.16674737591E+02  0.18726407559E+02  0.00000000000E+00 0. -1.
         11    1    3    3    0    0  0.77221532073E+01 -0.42379456699E+01  0.10225294768E+02  0.13496239736E+02  0.51100000000E-03 0. -1.
        -11    1    3    3    0    0 -0.16486934884E+02 -0.19325091529E+02 -0.29868675846E+02  0.39209896474E+02  0.51100000000E-03 0.  1.
         12    1    3    3    0    0  0.12791050533E+01  0.19489204627E+02  0.29686434869E+01  0.19755456231E+02  0.00000000000E+00 0. -1.
</event>
<event>
 7    1  0.3020651E-013  0.7246131E+02  0.7816164E-02  0.1226709E+00
        -11   -1    0    0    0    0  0.00000000000E+00  0.00000000000E+00  0.45593999997E+02  0.45594000000E+02  0.51100000000E-03 0.  1.
         11   -1    0    0    0    0 -0.00000000000E+00 -0.00000000000E+00 -0.45593999997E+02  0.45594000000E+02  0.51100000000E-03 0. -1.
    9900012    2    1    2    0    0  0.89224047484E+01 -0.66259818905E+01  0.15072353402E+02  0.72461313705E+02  0.69999665744E+02 0.  0.
         12    1    1    2    0    0 -0.89224047484E+01  0.66259818905E+01 -0.15072353402E+02  0.18726686295E+02  0.00000000000E+00 0. -1.
         11    1    3    3    0    0  0.18468952649E+02  0.15327838677E+01  0.74278742518E+01  0.19965594269E+02  0.51100000000E-03 0. -1.
        -11    1    3    3    0    0 -0.64960653435E+01  0.19137735671E+02  0.13640185730E+02  0.24382503123E+02  0.51100000000E-03 0.  1.
         12    1    3    3    0    0 -0.30504825570E+01 -0.27296501429E+02 -0.59957065794E+01  0.28113216313E+02  0.00000000000E+00 0. -1.
</event>
<event>
 7    1  0.3020651E-013  0.7246168E+02  0.7816164E-02  0.1226708E+00
        -11   -1    0    0    0    0  0.00000000000E+00  0.00000000000E+00  0.45593999997E+02  0.45594000000E+02  0.51100000000E-03 0.  1.
         11   -1    0    0    0    0 -0.00000000000E+00 -0.00000000000E+00 -0.45593999997E+02  0.45594000000E+02  0.51100000000E-03 0. -1.
    9900012    2    1    2    0    0 -0.54131395246E+01 -0.15617518481E+02 -0.88014745560E+01  0.72461683828E+02  0.70000147898E+02 0.  0.
         12    1    1    2    0    0  0.54131395246E+01  0.15617518481E+02  0.88014745560E+01  0.18726316172E+02  0.00000000000E+00 0. -1.
         11    1    3    3    0    0  0.14243001312E+02  0.72821955185E+01 -0.14339846840E+02  0.21483125136E+02  0.51100000000E-03 0. -1.
        -11    1    3    3    0    0 -0.13437582591E+01  0.10983685018E+02  0.57335459050E+01  0.12462767419E+02  0.51100000000E-03 0.  1.
        -12    1    3    3    0    0 -0.18312382578E+02 -0.33883399017E+02 -0.19517362110E+00  0.38515791273E+02  0.00000000000E+00 0.  1.
</event>
<event>
 7    1  0.3020651E-013  0.7246156E+02  0.7816164E-02  0.1226708E+00
        -11   -1    0    0    0    0  0.00000000000E+00  0.00000000000E+00  0.45593999997E+02  0.45594000000E+02  0.51100000000E-03 0.  1.
         11   -1    0    0    0    0 -0.00000000000E+00 -0.00000000000E+00 -0.45593999997E+02  0.45594000000E+02  0.51100000000E-03 0. -1.
    9900012    2    1    2    0    0 -0.39299552232E+01  0.22593952874E+01  0.18169481068E+02  0.72461562608E+02  0.69999989987E+02 0.  0.
         12    1    1    2    0    0  0.39299552232E+01 -0.22593952874E+01 -0.18169481068E+02  0.18726437392E+02  0.00000000000E+00 0. -1.
         11    1    3    3    0    0  0.13157434125E+02  0.95890019872E-01 -0.10908546972E+02  0.17091625580E+02  0.51100000000E-03 0. -1.
        -11    1    3    3    0    0  0.79249505838E+01 -0.95730390038E+01  0.24351663622E+02  0.27339558134E+02  0.51100000000E-03 0.  1.
         12    1    3    3    0    0 -0.25012339932E+02  0.11736544271E+02  0.47263644184E+01  0.28030378894E+02  0.00000000000E+00 0. -1.
</event>
<event>
 7    1  0.3020651E-013  0.7246156E+02  0.7816164E-02  0.1226708E+00
        -11   -1    0    0    0    0  0.00000000000E+00  0.00000000000E+00  0.45593999997E+02  0.45594000000E+02  0.51100000000E-03 0.  1.
         11   -1    0    0    0    0 -0.00000000000E+00 -0.00000000000E+00 -0.45593999997E+02  0.45594000000E+02  0.51100000000E-03 0. -1.
    9900012    2    1    2    0    0 -0.11026431230E+01 -0.29264099094E+01  0.18463475903E+02  0.72461557753E+02  0.69999983662E+02 0.  0.
         12    1    1    2    0    0  0.11026431230E+01  0.29264099094E+01 -0.18463475903E+02  0.18726442247E+02  0.00000000000E+00 0. -1.
         11    1    3    3    0    0  0.75464767870E+01 -0.80539043716E+01  0.17734713480E+02  0.20888627289E+02  0.51100000000E-03 0. -1.
        -11    1    3    3    0    0  0.12438389932E+01 -0.10807129246E+02  0.21188017309E+02  0.23817498940E+02  0.51100000000E-03 0.  1.
         12    1    3    3    0    0 -0.98929589032E+01  0.15934623709E+02 -0.20459254886E+02  0.27755431524E+02  0.00000000000E+00 0. -1.
</event>
<event>
 7    1  0.3020651E-013  0.7246149E+02  0.7816164E-02  0.1226708E+00
        -11   -1    0    0    0    0  0.00000000000E+00  0.00000000000E+00  0.45593999997E+02  0.45594000000E+02  0.51100000000E-03 0.  1.
         11   -1    0    0    0    0 -0.00000000000E+00 -0.00000000000E+00 -0.45593999997E+02  0.45594000000E+02  0.51100000000E-03 0. -1.
    9900012    2    1    2    0    0  0.16052114742E+02  0.33290246366E+01  0.90514830401E+01  0.72461491037E+02  0.69999896753E+02 0.  0.
         12    1    1    2    0    0 -0.16052114742E+02 -0.33290246366E+01 -0.90514830401E+01  0.18726508963E+02  0.00000000000E+00 0. -1.
         11    1    3    3    0    0 -0.12806325174E+01 -0.38888403413E+00 -0.88242041179E+00  0.16030959051E+01  0.51100000000E-03 0. -1.
        -11    1    3    3    0    0  0.99174530073E+01 -0.25295387959E+02 -0.15751630277E+02  0.31405833579E+02  0.51100000000E-03 0.  1.
         12    1    3    3    0    0  0.74152942517E+01  0.29013296630E+02  0.25685533729E+02  0.39452561553E+02  0.00000000000E+00 0. -1.
</event>
<event>
 7    1  0.3020651E-013  0.7246154E+02  0.7816164E-02  0.1226708E+00
        -11   -1    0    0    0    0  0.00000000000E+00  0.00000000000E+00  0.45593999997E+02  0.45594000000E+02  0.51100000000E-03 0. -1.
         11   -1    0    0    0    0 -0.00000000000E+00 -0.00000000000E+00 -0.45593999997E+02  0.45594000000E+02  0.51100000000E-03 0.  1.
    9900012    2    1    2    0    0  0.11127044442E+02  0.33349784981E+01 -0.14688326975E+02  0.72461544144E+02  0.69999965935E+02 0.  0.
         12    1    1    2    0    0 -0.11127044442E+02 -0.33349784981E+01  0.14688326975E+02  0.18726455856E+02  0.00000000000E+00 0. -1.
         11    1    3    3    0    0  0.24345498823E+02  0.79952149006E+01 -0.26214830157E+02  0.36658479165E+02  0.51100000000E-03 0. -1.
        -11    1    3    3    0    0  0.95579373998E+01  0.17347536562E+00  0.75519310064E+01  0.12182607407E+02  0.51100000000E-03 0.  1.
        -12    1    3    3    0    0 -0.22776391780E+02 -0.48337117681E+01  0.39745721763E+01  0.23620457573E+02  0.00000000000E+00 0.  1.
</event>
<event>
 7    1  0.3020651E-013  0.7246159E+02  0.7816164E-02  0.1226708E+00
        -11   -1    0    0    0    0  0.00000000000E+00  0.00000000000E+00  0.45593999997E+02  0.45594000000E+02  0.51100000000E-03 0. -1.
         11   -1    0    0    0    0 -0.00000000000E+00 -0.00000000000E+00 -0.45593999997E+02  0.45594000000E+02  0.51100000000E-03 0.  1.
    9900012    2    1    2    0    0 -0.14210675509E+02  0.86700664733E+01 -0.85770074912E+01  0.72461590612E+02  0.70000026467E+02 0.  0.
         12    1    1    2    0    0  0.14210675509E+02 -0.86700664733E+01  0.85770074912E+01  0.18726409388E+02  0.00000000000E+00 0. -1.
         11    1    3    3    0    0 -0.24719205732E+02 -0.14145281889E+02 -0.85776131808E+01  0.29743967117E+02  0.51100000000E-03 0. -1.
        -11    1    3    3    0    0  0.33972111339E+01  0.10930735073E+02  0.17184201328E+02  0.20647488667E+02  0.51100000000E-03 0.  1.
         12    1    3    3    0    0  0.71113190893E+01  0.11884613289E+02 -0.17183595638E+02  0.22070134827E+02  0.00000000000E+00 0. -1.
</event>
<event>
 7    1  0.3020651E-013  0.7246161E+02  0.7816164E-02  0.1226708E+00
        -11   -1    0    0    0    0  0.00000000000E+00  0.00000000000E+00  0.45593999997E+02  0.45594000000E+02  0.51100000000E-03 0. -1.
         11   -1    0    0    0    0 -0.00000000000E+00 -0.00000000000E+00 -0.45593999997E+02  0.45594000000E+02  0.51100000000E-03 0.  1.
    9900012    2    1    2    0    0  0.98978808556E+01  0.15112301441E+02 -0.49323556286E+01  0.72461605998E+02  0.70000046510E+02 0.  0.
         12    1    1    2    0    0 -0.98978808556E+01 -0.15112301441E+02  0.49323556286E+01  0.18726394002E+02  0.00000000000E+00 0. -1.
         11    1    3    3    0    0  0.46426414946E+01 -0.33340353706E+01 -0.30256695789E+02  0.30791842300E+02  0.51100000000E-03 0. -1.
        -11    1    3    3    0    0 -0.32358438851E+00  0.51789198499E+01 -0.55546432364E+01  0.76013143214E+01  0.51100000000E-03 0.  1.
         12    1    3    3    0    0  0.55788237494E+01  0.13267416962E+02  0.30878983397E+02  0.34068449376E+02  0.00000000000E+00 0. -1.
</event>
<event>
 7    1  0.3020651E-013  0.7246150E+02  0.7816164E-02  0.1226708E+00
        -11   -1    0    0    0    0  0.00000000000E+00  0.00000000000E+00  0.45593999997E+02  0.45594000000E+02  0.51100000000E-03 0. -1.
         11   -1    0    0    0    0 -0.00000000000E+00 -0.00000000000E+00 -0.45593999997E+02  0.45594000000E+02  0.51100000000E-03 0.  1.
    9900012    2    1    2    0    0 -0.16147612520E+02 -0.64462667650E+01 -0.69557312673E+01  0.72461496248E+02  0.69999903541E+02 0.  0.
         12    1    1    2    0    0  0.16147612520E+02  0.64462667650E+01  0.69557312673E+01  0.18726503752E+02  0.00000000000E+00 0. -1.
         11    1    3    3    0    0  0.15863522805E+02 -0.25076297123E+00 -0.10008024749E+01  0.15897038835E+02  0.51100000000E-03 0. -1.
        -11    1    3    3    0    0  0.68724327195E+01 -0.14048249155E+02  0.29343396703E+01  0.15912070430E+02  0.51100000000E-03 0.  1.
        -12    1    3    3    0    0 -0.38883568045E+02  0.78527453616E+01 -0.88892684627E+01  0.40652386983E+02  0.00000000000E+00 0.  1.
</event>
<event>
 7    1  0.3020651E-013  0.7246157E+02  0.7816164E-02  0.1226708E+00
        -11   -1    0    0    0    0  0.00000000000E+00  0.00000000000E+00  0.45593999997E+02  0.45594000000E+02  0.51100000000E-03 0. -1.
         11   -1    0    0    0    0 -0.00000000000E+00 -0.00000000000E+00 -0.45593999997E+02  0.45594000000E+02  0.51100000000E-03 0.  1.
    9900012    2    1    2    0    0 -0.99646059310E+01  0.52686357463E+01 -0.14954174440E+02  0.72461568755E+02  0.69999997995E+02 0.  0.
         12    1    1    2    0    0  0.99646059310E+01 -0.52686357463E+01  0.14954174440E+02  0.18726431245E+02  0.00000000000E+00 0. -1.
         11    1    3    3    0    0  0.10359197188E+02  0.10737739790E+02 -0.18817734282E+02  0.24014977533E+02  0.51100000000E-03 0. -1.
        -11    1    3    3    0    0  0.51904079646E+01  0.12998809209E+02  0.88467001080E+01  0.16558184645E+02  0.51100000000E-03 0.  1.
         12    1    3    3    0    0 -0.25514211083E+02 -0.18467913252E+02 -0.49831402661E+01  0.31888406577E+02  0.00000000000E+00 0. -1.
</event>
<event>
 7    1  0.3020651E-013  0.7246152E+02  0.7816164E-02  0.1226708E+00
        -11   -1    0    0    0    0  0.00000000000E+00  0.00000000000E+00  0.45593999997E+02  0.45594000000E+02  0.51100000000E-03 0. -1.
         11   -1    0    0    0    0 -0.00000000000E+00 -0.00000000000E+00 -0.45593999997E+02  0.45594000000E+02  0.51100000000E-03 0.  1.
    9900012    2    1    2    0    0  0.63601599468E+01 -0.10741386526E+02 -0.13958936734E+02  0.72461523188E+02  0.69999938635E+02 0.  0.
         12    1    1    2    0    0 -0.63601599468E+01  0.10741386526E+02  0.13958936734E+02  0.18726476812E+02  0.00000000000E+00 0. -1.
         11    1    3    3    0    0  0.22799647660E+02  0.62965359533E+01  0.48938785232E+01  0.24154095836E+02  0.51100000000E-03 0. -1.
        -11    1    3    3    0    0 -0.28247180495E+00  0.75648494613E+01  0.60984625087E+01  0.97210072998E+01  0.51100000000E-03 0.  1.
        -12    1    3    3    0    0 -0.16157015908E+02 -0.24602771941E+02 -0.24951277766E+02  0.38586420051E+02  0.00000000000E+00 0.  1.
</event>
<event>
 7    1  0.3020651E-013  0.7246157E+02  0.7816164E-02  0.1226708E+00
        -11   -1    0    0    0    0  0.00000000000E+00  0.00000000000E+00  0.45593999997E+02  0.45594000000E+02  0.51100000000E-03 0. -1.
         11   -1    0    0    0    0 -0.00000000000E+00 -0.00000000000E+00 -0.45593999997E+02  0.45594000000E+02  0.51100000000E-03 0.  1.
    9900012    2    1    2    0    0  0.17460898175E+02 -0.54148776862E+01 -0.40589672107E+01  0.72461572678E+02  0.70000003105E+02 0.  0.
         12    1    1    2    0    0 -0.17460898175E+02  0.54148776862E+01  0.40589672107E+01  0.18726427322E+02  0.00000000000E+00 0. -1.
         11    1    3    3    0    0  0.10314309949E+02  0.27101376077E+01 -0.53657011986E+01  0.11938198574E+02  0.51100000000E-03 0. -1.
        -11    1    3    3    0    0  0.21953250036E+02 -0.11620500785E+02  0.23116508181E+02  0.33931610283E+02  0.51100000000E-03 0.  1.
         12    1    3    3    0    0 -0.14806661810E+02  0.34954854915E+01 -0.21809774193E+02  0.26591763821E+02  0.00000000000E+00 0. -1.
</event>
<event>
 7    1  0.3020651E-013  0.7246159E+02  0.7816164E-02  0.1226708E+00
        -11   -1    0    0    0    0  0.00000000000E+00  0.00000000000E+00  0.45593999997E+02  0.45594000000E+02  0.51100000000E-03 0. -1.
         11   -1    0    0    0    0 -0.00000000000E+00 -0.00000000000E+00 -0.45593999997E+02  0.45594000000E+02  0.51100000000E-03 0.  1.
    9900012    2    1    2    0    0  0.27250244423E+01  0.18509549044E+02  0.80587588615E+00  0.72461585501E+02  0.70000019810E+02 0.  0.
         12    1    1    2    0    0 -0.27250244423E+01 -0.18509549044E+02 -0.80587588615E+00  0.18726414499E+02  0.00000000000E+00 0. -1.
         11    1    3    3    0    0 -0.69494437114E+01 -0.96807336158E+01 -0.44848418825E+01  0.12732838576E+02  0.51100000000E-03 0. -1.
        -11    1    3    3    0    0  0.23469949710E+01 -0.13298361781E+02  0.10730672365E+02  0.17248250379E+02  0.51100000000E-03 0.  1.
         12    1    3    3    0    0  0.73274731827E+01  0.41488644441E+02 -0.54399545965E+01  0.42480496546E+02  0.00000000000E+00 0. -1.
</event>
<event>
 7    1  0.3020651E-013  0.7246160E+02  0.7816164E-02  0.1226708E+00
        -11   -1    0    0    0    0  0.00000000000E+00  0.00000000000E+00  0.45593999997E+02  0.45594000000E+02  0.51100000000E-03 0.  1.
         11   -1    0    0    0    0 -0.00000000000E+00 -0.00000000000E+00 -0.45593999997E+02  0.45594000000E+02  0.51100000000E-03 0. -1.
    9900012    2    1    2    0    0 -0.14485023425E+02 -0.66906421123E+01  0.98029271562E+01  0.72461602153E+02  0.70000041501E+02 0.  0.
         12    1    1    2    0    0  0.14485023425E+02  0.66906421123E+01 -0.98029271562E+01  0.18726397847E+02  0.00000000000E+00 0. -1.
         11    1    3    3    0    0 -0.75189447512E+01  0.65499287948E+01  0.14482543596E+02  0.17583519746E+02  0.51100000000E-03 0. -1.
        -11    1    3    3    0    0  0.84355702019E+01 -0.19305613173E+02  0.17370936495E+02  0.27305951358E+02  0.51100000000E-03 0.  1.
         12    1    3    3    0    0 -0.15401648876E+02  0.60650422660E+01 -0.22050552935E+02  0.27572131048E+02  0.00000000000E+00 0. -1.
</event>
<event>
 7    1  0.3020651E-013  0.7246155E+02  0.7816164E-02  0.1226708E+00
        -11   -1    0    0    0    0  0.00000000000E+00  0.00000000000E+00  0.45593999997E+02  0.45594000000E+02  0.51100000000E-03 0.  1.
         11   -1    0    0    0    0 -0.00000000000E+00 -0.00000000000E+00 -0.45593999997E+02  0.45594000000E+02  0.51100000000E-03 0. -1.
    9900012    2    1    2    0    0 -0.41932738612E+01  0.16676981665E+02  0.74144967208E+01  0.72461547459E+02  0.69999970253E+02 0.  0.
         12    1    1    2    0    0  0.41932738612E+01 -0.16676981665E+02 -0.74144967208E+01  0.18726452541E+02  0.00000000000E+00 0. -1.
         11    1    3    3    0    0 -0.58437187908E+01 -0.51099710323E+01 -0.80287711209E+01  0.11167901290E+02  0.51100000000E-03 0. -1.
        -11    1    3    3    0    0  0.21635491536E+02 -0.83001367916E+01  0.68793441565E+01  0.24172549328E+02  0.51100000000E-03 0.  1.
        -12    1    3    3    0    0 -0.19985046606E+02  0.30087089489E+02  0.85639236852E+01  0.37121096841E+02  0.00000000000E+00 0.  1.
</event>
<event>
 7    1  0.3025804E-013  0.7246164E+02  0.7816164E-02  0.1226708E+00
        -11   -1    0    0    0    0  0.00000000000E+00  0.00000000000E+00  0.45593999997E+02  0.45594000000E+02  0.51100000000E-03 0. -1.
         11   -1    0    0    0    0 -0.00000000000E+00 -0.00000000000E+00 -0.45593999997E+02  0.45594000000E+02  0.51100000000E-03 0.  1.
    9900012    2    1    2    0    0 -0.13692589012E+01 -0.20759600369E+01 -0.18560495107E+02  0.72461642676E+02  0.70000094290E+02 0.  0.
         12    1    1    2    0    0  0.13692589012E+01  0.20759600369E+01  0.18560495107E+02  0.18726357324E+02  0.00000000000E+00 0. -1.
         11    1    3    3    0    0 -0.79908191513E+01  0.22897862296E+02  0.91057141026E+01  0.25905198667E+02  0.51100000000E-03 0. -1.
        -11    1    3    3    0    0 -0.33842805009E+01  0.27997726756E+01 -0.12741276301E+02  0.13477099227E+02  0.51100000000E-03 0.  1.
        -12    1    3    3    0    0  0.10005840751E+02 -0.27773595008E+02 -0.14924932909E+02  0.33079344781E+02  0.00000000000E+00 0.  1.
</event>
<event>
 7    1  0.3020651E-013  0.7246199E+02  0.7816164E-02  0.1226707E+00
        -11   -1    0    0    0    0  0.00000000000E+00  0.00000000000E+00  0.45593999997E+02  0.45594000000E+02  0.51100000000E-03 0. -1.
         11   -1    0    0    0    0 -0.00000000000E+00 -0.00000000000E+00 -0.45593999997E+02  0.45594000000E+02  0.51100000000E-03 0.  1.
    9900012    2    1    2    0    0  0.11354450166E+02 -0.11443486288E+02 -0.95282016411E+01  0.72461987517E+02  0.70000543507E+02 0.  0.
         12    1    1    2    0    0 -0.11354450166E+02  0.11443486288E+02  0.95282016411E+01  0.18726012483E+02  0.00000000000E+00 0. -1.
         11    1    3    3    0    0 -0.18209033816E+01  0.50486948202E+01  0.17372107343E+02  0.18182274948E+02  0.51100000000E-03 0. -1.
        -11    1    3    3    0    0  0.20840824870E+02  0.30455713584E+01 -0.11969091262E+01  0.21096162634E+02  0.51100000000E-03 0.  1.
        -12    1    3    3    0    0 -0.76654713217E+01 -0.19537752467E+02 -0.25703399857E+02  0.33183549935E+02  0.00000000000E+00 0.  1.
</event>
<event>
 7    1  0.3020651E-013  0.7246156E+02  0.7816164E-02  0.1226708E+00
        -11   -1    0    0    0    0  0.00000000000E+00  0.00000000000E+00  0.45593999997E+02  0.45594000000E+02  0.51100000000E-03 0. -1.
         11   -1    0    0    0    0 -0.00000000000E+00 -0.00000000000E+00 -0.45593999997E+02  0.45594000000E+02  0.51100000000E-03 0.  1.
    9900012    2    1    2    0    0 -0.16395132336E+02  0.33248443076E+01 -0.84157330701E+01  0.72461561014E+02  0.69999987911E+02 0.  0.
         12    1    1    2    0    0  0.16395132336E+02 -0.33248443076E+01  0.84157330701E+01  0.18726438986E+02  0.00000000000E+00 0. -1.
         11    1    3    3    0    0 -0.11137138569E+02  0.97344696085E+01  0.20518354560E+01  0.14933378153E+02  0.51100000000E-03 0. -1.
        -11    1    3    3    0    0 -0.10007437018E+02  0.21236918773E+02  0.69810989283E+01  0.24492677623E+02  0.51100000000E-03 0.  1.
         12    1    3    3    0    0  0.47494432510E+01 -0.27646544074E+02 -0.17448667454E+02  0.33035505238E+02  0.00000000000E+00 0. -1.
</event>
<event>
 7    1  0.3020651E-013  0.7246156E+02  0.7816164E-02  0.1226708E+00
        -11   -1    0    0    0    0  0.00000000000E+00  0.00000000000E+00  0.45593999997E+02  0.45594000000E+02  0.51100000000E-03 0.  1.
         11   -1    0    0    0    0 -0.00000000000E+00 -0.00000000000E+00 -0.45593999997E+02  0.45594000000E+02  0.51100000000E-03 0. -1.
    9900012    2    1    2    0    0  0.12653866866E+02  0.91073856807E+01  0.10373759984E+02  0.72461555682E+02  0.69999980965E+02 0.  0.
         12    1    1    2    0    0 -0.12653866866E+02 -0.91073856807E+01 -0.10373759984E+02  0.18726444318E+02  0.00000000000E+00 0. -1.
         11    1    3    3    0    0 -0.32859092234E+01  0.14037704663E+02 -0.37331974109E+01  0.14892653047E+02  0.51100000000E-03 0. -1.
        -11    1    3    3    0    0  0.29632650702E+02  0.42644407798E+01 -0.70359388777E+01  0.30753599447E+02  0.51100000000E-03 0.  1.
        -12    1    3    3    0    0 -0.13692874613E+02 -0.91947597617E+01  0.21142896272E+02  0.26815303187E+02  0.00000000000E+00 0.  1.
</event>
<event>
 7    1  0.3020651E-013  0.7246146E+02  0.7816164E-02  0.1226708E+00
        -11   -1    0    0    0    0  0.00000000000E+00  0.00000000000E+00  0.45593999997E+02  0.45594000000E+02  0.51100000000E-03 0.  1.
         11   -1    0    0    0    0 -0.00000000000E+00 -0.00000000000E+00 -0.45593999997E+02  0.45594000000E+02  0.51100000000E-03 0. -1.
    9900012    2    1    2    0    0 -0.10144277950E+02 -0.10217110062E+02  0.11974457016E+02  0.72461459103E+02  0.69999855152E+02 0.  0.
         12    1    1    2    0    0  0.10144277950E+02  0.10217110062E+02 -0.11974457016E+02  0.18726540897E+02  0.00000000000E+00 0. -1.
         11    1    3    3    0    0 -0.10916770157E+02 -0.22461205285E+01  0.68458152448E+00  0.11166448863E+02  0.51100000000E-03 0. -1.
        -11    1    3    3    0    0 -0.11339139888E+02 -0.29190091481E+02  0.17786215703E+02  0.36013705771E+02  0.51100000000E-03 0.  1.
         12    1    3    3    0    0  0.12111632095E+02  0.21219101948E+02 -0.64963402119E+01  0.25281304468E+02  0.00000000000E+00 0. -1.
</event>
<event>
 7    1  0.3020651E-013  0.7246148E+02  0.7816164E-02  0.1226708E+00
        -11   -1    0    0    0    0  0.00000000000E+00  0.00000000000E+00  0.45593999997E+02  0.45594000000E+02  0.51100000000E-03 0.  1.
         11   -1    0    0    0    0 -0.00000000000E+00 -0.00000000000E+00 -0.45593999997E+02  0.45594000000E+02  0.51100000000E-03 0. -1.
    9900012    2    1    2    0    0 -0.14769664666E+02  0.26689709991E+01  0.11198933459E+02  0.72461481072E+02  0.69999883771E+02 0.  0.
         12    1    1    2    0    0  0.14769664666E+02 -0.26689709991E+01 -0.11198933459E+02  0.18726518928E+02  0.00000000000E+00 0. -1.
         11    1    3    3    0    0 -0.15339370499E+02  0.10172955964E+02  0.14663983894E+02  0.23533332621E+02  0.51100000000E-03 0.  1.
        -11    1    3    3    0    0  0.93026193736E+01  0.11845261720E+02 -0.17796693487E+02  0.23314614553E+02  0.51100000000E-03 0. -1.
        -12    1    3    3    0    0 -0.87329135405E+01 -0.19349246684E+02  0.14331643052E+02  0.25613533898E+02  0.00000000000E+00 0.  1.
</event>
<event>
 7    1  0.3020651E-013  0.7246162E+02  0.7816164E-02  0.1226708E+00
        -11   -1    0    0    0    0  0.00000000000E+00  0.00000000000E+00  0.45593999997E+02  0.45594000000E+02  0.51100000000E-03 0.  1.
         11   -1    0    0    0    0 -0.00000000000E+00 -0.00000000000E+00 -0.45593999997E+02  0.45594000000E+02  0.51100000000E-03 0. -1.
    9900012    2    1    2    0    0  0.70248575174E+01 -0.17327607687E+02 -0.10404518280E+01  0.72461624181E+02  0.70000070198E+02 0.  0.
         12    1    1    2    0    0 -0.70248575174E+01  0.17327607687E+02  0.10404518280E+01  0.18726375819E+02  0.00000000000E+00 0. -1.
         11    1    3    3    0    0 -0.10740221314E+02  0.89325678413E+01  0.61163232984E+01  0.15249673212E+02  0.51100000000E-03 0. -1.
        -11    1    3    3    0    0 -0.12556648398E+02  0.27803331843E+01  0.45221255313E+01  0.13632655324E+02  0.51100000000E-03 0.  1.
        -12    1    3    3    0    0  0.30321727229E+02 -0.29040508713E+02 -0.11678900658E+02  0.43579295646E+02  0.00000000000E+00 0.  1.
</event>
<event>
 7    1  0.3020651E-013  0.7246176E+02  0.7816164E-02  0.1226708E+00
        -11   -1    0    0    0    0  0.00000000000E+00  0.00000000000E+00  0.45593999997E+02  0.45594000000E+02  0.51100000000E-03 0.  1.
         11   -1    0    0    0    0 -0.00000000000E+00 -0.00000000000E+00 -0.45593999997E+02  0.45594000000E+02  0.51100000000E-03 0. -1.
    9900012    2    1    2    0    0 -0.98713776600E+01 -0.15899945148E+02 -0.64798313621E+00  0.72461755455E+02  0.70000241206E+02 0.  0.
         12    1    1    2    0    0  0.98713776600E+01  0.15899945148E+02  0.64798313621E+00  0.18726244545E+02  0.00000000000E+00 0. -1.
         11    1    3    3    0    0 -0.12973753742E+01  0.17289057801E+01  0.48192545177E+01  0.52818095787E+01  0.51100000000E-03 0. -1.
        -11    1    3    3    0    0  0.18434841888E+02 -0.31566483263E+02 -0.24414876146E+01  0.36636690941E+02  0.51100000000E-03 0.  1.
         12    1    3    3    0    0 -0.27008844174E+02  0.13937632335E+02 -0.30257500393E+01  0.30543254935E+02  0.00000000000E+00 0. -1.
</event>
<event>
 7    1  0.3020651E-013  0.7246156E+02  0.7816164E-02  0.1226708E+00
        -11   -1    0    0    0    0  0.00000000000E+00  0.00000000000E+00  0.45593999997E+02  0.45594000000E+02  0.51100000000E-03 0.  1.
         11   -1    0    0    0    0 -0.00000000000E+00 -0.00000000000E+00 -0.45593999997E+02  0.45594000000E+02  0.51100000000E-03 0. -1.
    9900012    2    1    2    0    0 -0.94946290508E+01 -0.13665858698E+02  0.85892822671E+01  0.72461562949E+02  0.69999990432E+02 0.  0.
         12    1    1    2    0    0  0.94946290508E+01  0.13665858698E+02 -0.85892822671E+01  0.18726437051E+02  0.00000000000E+00 0. -1.
         11    1    3    3    0    0 -0.21259241314E+01  0.13145873733E+02  0.72313042119E+01  0.15153392705E+02  0.51100000000E-03 0. -1.
        -11    1    3    3    0    0  0.11868067083E+01  0.11835109093E+02 -0.10627761363E+02  0.15950787731E+02  0.51100000000E-03 0.  1.
        -12    1    3    3    0    0 -0.85555116277E+01 -0.38646841523E+02  0.11985739418E+02  0.41357382513E+02  0.00000000000E+00 0.  1.
</event>
<event>
 7    1  0.3020651E-013  0.7246154E+02  0.7816164E-02  0.1226708E+00
        -11   -1    0    0    0    0  0.00000000000E+00  0.00000000000E+00  0.45593999997E+02  0.45594000000E+02  0.51100000000E-03 0.  1.
         11   -1    0    0    0    0 -0.00000000000E+00 -0.00000000000E+00 -0.45593999997E+02  0.45594000000E+02  0.51100000000E-03 0. -1.
    9900012    2    1    2    0    0  0.17891971998E+02 -0.51830852753E+01  0.19218094436E+01  0.72461537801E+02  0.69999957671E+02 0.  0.
         12    1    1    2    0    0 -0.17891971998E+02  0.51830852753E+01 -0.19218094436E+01  0.18726462199E+02  0.00000000000E+00 0. -1.
         11    1    3    3    0    0  0.60053484909E+00  0.10873696009E+02 -0.34828218381E+01  0.11433632634E+02  0.51100000000E-03 0. -1.
        -11    1    3    3    0    0  0.33003954215E+01  0.11833079691E+02  0.22362817955E+02  0.25514897845E+02  0.51100000000E-03 0.  1.
         12    1    3    3    0    0  0.13991041728E+02 -0.27889860975E+02 -0.16958186673E+02  0.35513007322E+02  0.00000000000E+00 0. -1.
</event>
<event>
 7    1  0.3020651E-013  0.7246167E+02  0.7816164E-02  0.1226708E+00
        -11   -1    0    0    0    0  0.00000000000E+00  0.00000000000E+00  0.45593999997E+02  0.45594000000E+02  0.51100000000E-03 0. -1.
         11   -1    0    0    0    0 -0.00000000000E+00 -0.00000000000E+00 -0.45593999997E+02  0.45594000000E+02  0.51100000000E-03 0.  1.
    9900012    2    1    2    0    0  0.47947184552E+01 -0.17632486957E+02 -0.40965225960E+01  0.72461670442E+02  0.70000130460E+02 0.  0.
         12    1    1    2    0    0 -0.47947184552E+01  0.17632486957E+02  0.40965225960E+01  0.18726329558E+02  0.00000000000E+00 0. -1.
         11    1    3    3    0    0 -0.20587083174E+00  0.16459135282E+01 -0.27294317469E+01  0.31939336348E+01  0.51100000000E-03 0. -1.
        -11    1    3    3    0    0 -0.16876114242E+01 -0.22886258814E+02 -0.31059878711E+02  0.38617935478E+02  0.51100000000E-03 0.  1.
         12    1    3    3    0    0  0.66882007111E+01  0.36078583289E+01  0.29692787862E+02  0.30649801328E+02  0.00000000000E+00 0. -1.
</event>
<event>
 7    1  0.3020651E-013  0.7246143E+02  0.7816164E-02  0.1226708E+00
        -11   -1    0    0    0    0  0.00000000000E+00  0.00000000000E+00  0.45593999997E+02  0.45594000000E+02  0.51100000000E-03 0. -1.
         11   -1    0    0    0    0 -0.00000000000E+00 -0.00000000000E+00 -0.45593999997E+02  0.45594000000E+02  0.51100000000E-03 0.  1.
    9900012    2    1    2    0    0  0.14589672879E+02 -0.82748789352E+01  0.83277892918E+01  0.72461434629E+02  0.69999823270E+02 0.  0.
         12    1    1    2    0    0 -0.14589672879E+02  0.82748789352E+01 -0.83277892918E+01  0.18726565371E+02  0.00000000000E+00 0. -1.
         11    1    3    3    0    0  0.99802419478E+01  0.10298768148E+02  0.31327538429E+02  0.34454092921E+02  0.51100000000E-03 0. -1.
        -11    1    3    3    0    0 -0.24637873109E+01  0.45380739763E+01 -0.81250568930E+01  0.96270926610E+01  0.51100000000E-03 0.  1.
        -12    1    3    3    0    0  0.70732182423E+01 -0.23111721059E+02 -0.14874692244E+02  0.28380249047E+02  0.00000000000E+00 0.  1.
</event>
<event>
 7    1  0.3020651E-013  0.7246155E+02  0.7816164E-02  0.1226708E+00
        -11   -1    0    0    0    0  0.00000000000E+00  0.00000000000E+00  0.45593999997E+02  0.45594000000E+02  0.51100000000E-03 0. -1.
         11   -1    0    0    0    0 -0.00000000000E+00 -0.00000000000E+00 -0.45593999997E+02  0.45594000000E+02  0.51100000000E-03 0.  1.
    9900012    2    1    2    0    0 -0.23597096775E+01  0.18558716744E+02 -0.82813665928E+00  0.72461547926E+02  0.69999970861E+02 0.  0.
         12    1    1    2    0    0  0.23597096775E+01 -0.18558716744E+02  0.82813665928E+00  0.18726452074E+02  0.00000000000E+00 0. -1.
         11    1    3    3    0    0  0.27541235671E+02  0.41620711674E+01  0.83623976053E+00  0.27866499527E+02  0.51100000000E-03 0. -1.
        -11    1    3    3    0    0 -0.16256382323E+02  0.19143526608E+02  0.89569851537E+01  0.26664061216E+02  0.51100000000E-03 0.  1.
         12    1    3    3    0    0 -0.13644563026E+02 -0.47468810308E+01 -0.10621361573E+02  0.17930987183E+02  0.00000000000E+00 0. -1.
</event>
<event>
 7    1  0.3020651E-013  0.7246157E+02  0.7816164E-02  0.1226708E+00
        -11   -1    0    0    0    0  0.00000000000E+00  0.00000000000E+00  0.45593999997E+02  0.45594000000E+02  0.51100000000E-03 0. -1.
         11   -1    0    0    0    0 -0.00000000000E+00 -0.00000000000E+00 -0.45593999997E+02  0.45594000000E+02  0.51100000000E-03 0.  1.
    9900012    2    1    2    0    0 -0.16799089254E+02  0.65329611045E+01  0.50783934384E+01  0.72461573206E+02  0.70000003793E+02 0.  0.
         12    1    1    2    0    0  0.16799089254E+02 -0.65329611045E+01 -0.50783934384E+01  0.18726426794E+02  0.00000000000E+00 0. -1.
         11    1    3    3    0    0 -0.20309646184E+02 -0.13355482499E+02  0.29479690257E+02  0.38208674130E+02  0.51100000000E-03 0.  1.
        -11    1    3    3    0    0  0.45168595310E+01  0.27439200439E+01 -0.11869003266E+02  0.12992473053E+02  0.51100000000E-03 0. -1.
        -12    1    3    3    0    0 -0.10063026007E+01  0.17144523559E+02 -0.12532293553E+02  0.21260426023E+02  0.00000000000E+00 0.  1.
</event>
<event>
 7    1  0.3020651E-013  0.7246154E+02  0.7816164E-02  0.1226708E+00
        -11   -1    0    0    0    0  0.00000000000E+00  0.00000000000E+00  0.45593999997E+02  0.45594000000E+02  0.51100000000E-03 0. -1.
         11   -1    0    0    0    0 -0.00000000000E+00 -0.00000000000E+00 -0.45593999997E+02  0.45594000000E+02  0.51100000000E-03 0.  1.
    9900012    2    1    2    0    0 -0.13244440312E+02  0.12369581937E+02 -0.47178954426E+01  0.72461540273E+02  0.69999960892E+02 0.  0.
         12    1    1    2    0    0  0.13244440312E+02 -0.12369581937E+02  0.47178954426E+01  0.18726459727E+02  0.00000000000E+00 0. -1.
         11    1    3    3    0    0 -0.66971983099E+01  0.14245400631E+02 -0.90045237624E+01  0.18134645097E+02  0.51100000000E-03 0. -1.
        -11    1    3    3    0    0 -0.15615141353E+02  0.21586553491E+02 -0.57310788407E+01  0.27251737487E+02  0.51100000000E-03 0.  1.
         12    1    3    3    0    0  0.90678993506E+01 -0.23462372185E+02  0.10017707160E+02  0.27075157690E+02  0.00000000000E+00 0. -1.
</event>
<event>
 7    1  0.3020651E-013  0.7246161E+02  0.7816164E-02  0.1226708E+00
        -11   -1    0    0    0    0  0.00000000000E+00  0.00000000000E+00  0.45593999997E+02  0.45594000000E+02  0.51100000000E-03 0.  1.
         11   -1    0    0    0    0 -0.00000000000E+00 -0.00000000000E+00 -0.45593999997E+02  0.45594000000E+02  0.51100000000E-03 0. -1.
    9900012    2    1    2    0    0  0.12518624861E+02 -0.29978435146E+01  0.13600545189E+02  0.72461605163E+02  0.70000045423E+02 0.  0.
         12    1    1    2    0    0 -0.12518624861E+02  0.29978435146E+01 -0.13600545189E+02  0.18726394837E+02  0.00000000000E+00 0. -1.
         11    1    3    3    0    0  0.39122567083E+00  0.88098031760E+01  0.81252288650E+01  0.11991039734E+02  0.51100000000E-03 0. -1.
        -11    1    3    3    0    0  0.33250290830E+02  0.44127414789E+01  0.18515207892E+01  0.33592889978E+02  0.51100000000E-03 0.  1.
         12    1    3    3    0    0 -0.21122891639E+02 -0.16220388169E+02  0.36237955348E+01  0.26877675451E+02  0.00000000000E+00 0. -1.
</event>
<event>
 7    1  0.3020651E-013  0.7246153E+02  0.7816164E-02  0.1226708E+00
        -11   -1    0    0    0    0  0.00000000000E+00  0.00000000000E+00  0.45593999997E+02  0.45594000000E+02  0.51100000000E-03 0.  1.
         11   -1    0    0    0    0 -0.00000000000E+00 -0.00000000000E+00 -0.45593999997E+02  0.45594000000E+02  0.51100000000E-03 0. -1.
    9900012    2    1    2    0    0  0.17404674666E+02 -0.14835813208E+01  0.67495861716E+01  0.72461531373E+02  0.69999949298E+02 0.  0.
         12    1    1    2    0    0 -0.17404674666E+02  0.14835813208E+01 -0.67495861716E+01  0.18726468627E+02  0.00000000000E+00 0. -1.
         11    1    3    3    0    0  0.75400825879E+01 -0.93097223633E+01 -0.37752304293E+01  0.12560897300E+02  0.51100000000E-03 0. -1.
        -11    1    3    3    0    0  0.16174333875E+02  0.30695564050E+02  0.10237357222E+02  0.36174994289E+02  0.51100000000E-03 0.  1.
         12    1    3    3    0    0 -0.63097417977E+01 -0.22869423008E+02  0.28745937872E+00  0.23725639784E+02  0.00000000000E+00 0. -1.
</event>
<event>
 7    1  0.3020651E-013  0.7246159E+02  0.7816164E-02  0.1226708E+00
        -11   -1    0    0    0    0  0.00000000000E+00  0.00000000000E+00  0.45593999997E+02  0.45594000000E+02  0.51100000000E-03 0. -1.
         11   -1    0    0    0    0 -0.00000000000E+00 -0.00000000000E+00 -0.45593999997E+02  0.45594000000E+02  0.51100000000E-03 0.  1.
    9900012    2    1    2    0    0  0.88431387101E+01 -0.12074687562E+02 -0.11255194338E+02  0.72461585993E+02  0.70000020451E+02 0.  0.
         12    1    1    2    0    0 -0.88431387101E+01  0.12074687562E+02  0.11255194338E+02  0.18726414007E+02  0.00000000000E+00 0. -1.
         11    1    3    3    0    0  0.16533817128E+02 -0.81013433791E+01 -0.57217028900E+01  0.19280476073E+02  0.51100000000E-03 0. -1.
        -11    1    3    3    0    0  0.17416501172E+02 -0.16846560286E+02  0.87741830650E+00  0.24246875462E+02  0.51100000000E-03 0.  1.
        -12    1    3    3    0    0 -0.25107179590E+02  0.12873216103E+02 -0.64109097543E+01  0.28934234458E+02  0.00000000000E+00 0.  1.
</event>
<event>
 7    1  0.3020651E-013  0.7246148E+02  0.7816164E-02  0.1226708E+00
        -11   -1    0    0    0    0  0.00000000000E+00  0.00000000000E+00  0.45593999997E+02  0.45594000000E+02  0.51100000000E-03 0.  1.
         11   -1    0    0    0    0 -0.00000000000E+00 -0.00000000000E+00 -0.45593999997E+02  0.45594000000E+02  0.51100000000E-03 0. -1.
    9900012    2    1    2    0    0 -0.99393310519E+01 -0.10460360701E+02  0.11936203841E+02  0.72461483776E+02  0.69999887294E+02 0.  0.
         12    1    1    2    0    0  0.99393310519E+01  0.10460360701E+02 -0.11936203841E+02  0.18726516224E+02  0.00000000000E+00 0. -1.
         11    1    3    3    0    0 -0.22960184174E+01  0.91379267491E+00  0.11575451191E+01  0.27288511483E+01  0.51100000000E-03 0. -1.
        -11    1    3    3    0    0  0.28440434409E+02  0.55715795095E+01  0.58343508886E+01  0.29562483964E+02  0.51100000000E-03 0.  1.
         12    1    3    3    0    0 -0.36083747043E+02 -0.16945732885E+02  0.49443078333E+01  0.40170148663E+02  0.00000000000E+00 0. -1.
</event>
<event>
 7    1  0.3020651E-013  0.7246134E+02  0.7816164E-02  0.1226709E+00
        -11   -1    0    0    0    0  0.00000000000E+00  0.00000000000E+00  0.45593999997E+02  0.45594000000E+02  0.51100000000E-03 0. -1.
         11   -1    0    0    0    0 -0.00000000000E+00 -0.00000000000E+00 -0.45593999997E+02  0.45594000000E+02  0.51100000000E-03 0.  1.
    9900012    2    1    2    0    0 -0.42089137029E+01 -0.31658956825E+01 -0.17970805100E+02  0.72461342905E+02  0.69999703782E+02 0.  0.
         12    1    1    2    0    0  0.42089137029E+01  0.31658956825E+01  0.17970805100E+02  0.18726657095E+02  0.00000000000E+00 0. -1.
         11    1    3    3    0    0 -0.23809089106E+01  0.11459248479E+02  0.12455073159E+02  0.17091282883E+02  0.51100000000E-03 0.  1.
        -11    1    3    3    0    0  0.40626843146E+01 -0.64555657829E+01  0.10637492335E+02  0.13089536923E+02  0.51100000000E-03 0. -1.
        -12    1    3    3    0    0 -0.58906891069E+01 -0.81695783782E+01 -0.41063370593E+02  0.42280523099E+02  0.00000000000E+00 0.  1.
</event>
<event>
 7    1  0.3020651E-013  0.7246153E+02  0.7816164E-02  0.1226708E+00
        -11   -1    0    0    0    0  0.00000000000E+00  0.00000000000E+00  0.45593999997E+02  0.45594000000E+02  0.51100000000E-03 0.  1.
         11   -1    0    0    0    0 -0.00000000000E+00 -0.00000000000E+00 -0.45593999997E+02  0.45594000000E+02  0.51100000000E-03 0. -1.
    9900012    2    1    2    0    0 -0.60602832978E+01 -0.10395350709E+02  0.14348876508E+02  0.72461531911E+02  0.69999949999E+02 0.  0.
         12    1    1    2    0    0  0.60602832978E+01  0.10395350709E+02 -0.14348876508E+02  0.18726468089E+02  0.00000000000E+00 0. -1.
         11    1    3    3    0    0 -0.78859370958E+01  0.15568999457E+02  0.63703407005E+01  0.18578562616E+02  0.51100000000E-03 0. -1.
        -11    1    3    3    0    0  0.16423429681E+02  0.25488871096E+01  0.13457134388E+02  0.21385049314E+02  0.51100000000E-03 0.  1.
         12    1    3    3    0    0 -0.14597775883E+02 -0.28513237276E+02 -0.54785985804E+01  0.32497919981E+02  0.00000000000E+00 0. -1.
</event>
<event>
 7    1  0.3020651E-013  0.7246155E+02  0.7816164E-02  0.1226708E+00
        -11   -1    0    0    0    0  0.00000000000E+00  0.00000000000E+00  0.45593999997E+02  0.45594000000E+02  0.51100000000E-03 0.  1.
         11   -1    0    0    0    0 -0.00000000000E+00 -0.00000000000E+00 -0.45593999997E+02  0.45594000000E+02  0.51100000000E-03 0. -1.
    9900012    2    1    2    0    0 -0.13765428175E+02 -0.10414478520E+02 -0.72616426293E+01  0.72461552677E+02  0.69999977050E+02 0.  0.
         12    1    1    2    0    0  0.13765428175E+02  0.10414478520E+02  0.72616426293E+01  0.18726447323E+02  0.00000000000E+00 0. -1.
         11    1    3    3    0    0 -0.30129840941E+02 -0.17873329671E+01 -0.25488633799E+02  0.39505345556E+02  0.51100000000E-03 0. -1.
        -11    1    3    3    0    0  0.91748704185E+00  0.27230116398E+01 -0.31364992137E+01  0.42537280639E+01  0.51100000000E-03 0.  1.
        -12    1    3    3    0    0  0.15446925725E+02 -0.11350157192E+02  0.21363490384E+02  0.28702479057E+02  0.00000000000E+00 0.  1.
</event>
<event>
 7    1  0.3020651E-013  0.7246093E+02  0.7816164E-02  0.1226710E+00
        -11   -1    0    0    0    0  0.00000000000E+00  0.00000000000E+00  0.45593999997E+02  0.45594000000E+02  0.51100000000E-03 0.  1.
         11   -1    0    0    0    0 -0.00000000000E+00 -0.00000000000E+00 -0.45593999997E+02  0.45594000000E+02  0.51100000000E-03 0. -1.
    9900012    2    1    2    0    0 -0.72652199781E+01  0.12468113707E+01  0.17215263398E+02  0.72460927250E+02  0.69999162310E+02 0.  0.
         12    1    1    2    0    0  0.72652199781E+01 -0.12468113707E+01 -0.17215263398E+02  0.18727072750E+02  0.00000000000E+00 0. -1.
         11    1    3    3    0    0 -0.87418734096E+01  0.12115107836E+01  0.28272201646E+01  0.92672155046E+01  0.51100000000E-03 0. -1.
        -11    1    3    3    0    0  0.25648163512E+01  0.21209868867E+02 -0.15609690592E+02  0.26459388899E+02  0.51100000000E-03 0.  1.
        -12    1    3    3    0    0 -0.10881629196E+01 -0.21174568280E+02  0.29997733825E+02  0.36734322847E+02  0.00000000000E+00 0.  1.
</event>
<event>
 7    1  0.3020651E-013  0.7246154E+02  0.7816164E-02  0.1226708E+00
        -11   -1    0    0    0    0  0.00000000000E+00  0.00000000000E+00  0.45593999997E+02  0.45594000000E+02  0.51100000000E-03 0.  1.
         11   -1    0    0    0    0 -0.00000000000E+00 -0.00000000000E+00 -0.45593999997E+02  0.45594000000E+02  0.51100000000E-03 0. -1.
    9900012    2    1    2    0    0  0.26161848974E+01 -0.18497583214E+02 -0.12942708165E+01  0.72461544246E+02  0.69999966067E+02 0.  0.
         12    1    1    2    0    0 -0.26161848974E+01  0.18497583214E+02  0.12942708165E+01  0.18726455754E+02  0.00000000000E+00 0. -1.
         11    1    3    3    0    0  0.95919361320E+01 -0.44582741280E+01  0.11078149400E+02  0.15316880928E+02  0.51100000000E-03 0. -1.
        -11    1    3    3    0    0  0.12537533789E+02 -0.27064831121E+02  0.15418506916E+01  0.29867576750E+02  0.51100000000E-03 0.  1.
         12    1    3    3    0    0 -0.19513285024E+02  0.13025522035E+02 -0.13914270908E+02  0.27277086568E+02  0.00000000000E+00 0. -1.
</event>
<event>
 7    1  0.3020651E-013  0.7246172E+02  0.7816164E-02  0.1226708E+00
        -11   -1    0    0    0    0  0.00000000000E+00  0.00000000000E+00  0.45593999997E+02  0.45594000000E+02  0.51100000000E-03 0. -1.
         11   -1    0    0    0    0 -0.00000000000E+00 -0.00000000000E+00 -0.45593999997E+02  0.45594000000E+02  0.51100000000E-03 0.  1.
    9900012    2    1    2    0    0 -0.53541385438E+01 -0.94095895642E+01 -0.15279611066E+02  0.72461716609E+02  0.70000190602E+02 0.  0.
         12    1    1    2    0    0  0.53541385438E+01  0.94095895642E+01  0.15279611066E+02  0.18726283391E+02  0.00000000000E+00 0. -1.
         11    1    3    3    0    0  0.14886159566E+02 -0.21048197020E+02  0.53208286581E+01  0.26323669240E+02  0.51100000000E-03 0. -1.
        -11    1    3    3    0    0 -0.11653631347E+02 -0.11640343712E+02 -0.82956291798E+01  0.18442401933E+02  0.51100000000E-03 0.  1.
        -12    1    3    3    0    0 -0.85866667622E+01  0.23278951168E+02 -0.12304810544E+02  0.27695645435E+02  0.00000000000E+00 0.  1.
</event>
<event>
 7    1  0.3020651E-013  0.7246155E+02  0.7816164E-02  0.1226708E+00
        -11   -1    0    0    0    0  0.00000000000E+00  0.00000000000E+00  0.45593999997E+02  0.45594000000E+02  0.51100000000E-03 0.  1.
         11   -1    0    0    0    0 -0.00000000000E+00 -0.00000000000E+00 -0.45593999997E+02  0.45594000000E+02  0.51100000000E-03 0. -1.
    9900012    2    1    2    0    0  0.13620198223E+00  0.16220871412E+02 -0.93565313340E+01  0.72461550819E+02  0.69999974629E+02 0.  0.
         12    1    1    2    0    0 -0.13620198223E+00 -0.16220871412E+02  0.93565313340E+01  0.18726449181E+02  0.00000000000E+00 0. -1.
         11    1    3    3    0    0 -0.23531094729E+02  0.15560381652E+01 -0.33051033646E+01  0.23812966687E+02  0.51100000000E-03 0. -1.
        -11    1    3    3    0    0 -0.73594792172E+01  0.14470455593E+02 -0.68270861101E+01  0.17611505457E+02  0.51100000000E-03 0.  1.
        -12    1    3    3    0    0  0.31026775928E+02  0.19437765299E+00  0.77565814069E+00  0.31037078676E+02  0.00000000000E+00 0.  1.
</event>
<event>
 7    1  0.3020651E-013  0.7246183E+02  0.7816164E-02  0.1226707E+00
        -11   -1    0    0    0    0  0.00000000000E+00  0.00000000000E+00  0.45593999997E+02  0.45594000000E+02  0.51100000000E-03 0.  1.
         11   -1    0    0    0    0 -0.00000000000E+00 -0.00000000000E+00 -0.45593999997E+02  0.45594000000E+02  0.51100000000E-03 0. -1.
    9900012    2    1    2    0    0 -0.31852917697E+01 -0.15745398357E+02  0.96231970093E+01  0.72461826505E+02  0.70000333762E+02 0.  0.
         12    1    1    2    0    0  0.31852917697E+01  0.15745398357E+02 -0.96231970093E+01  0.18726173495E+02  0.00000000000E+00 0. -1.
         11    1    3    3    0    0  0.88787404925E+01 -0.27410965387E+02  0.78688249976E+01  0.29868235021E+02  0.51100000000E-03 0. -1.
        -11    1    3    3    0    0  0.10287907716E+02 -0.48813909791E+01  0.82169079560E+01  0.14042314613E+02  0.51100000000E-03 0.  1.
         12    1    3    3    0    0 -0.22351939978E+02  0.16546958009E+02 -0.64625359443E+01  0.28551276871E+02  0.00000000000E+00 0. -1.
</event>
<event>
 7    1  0.3020651E-013  0.7246160E+02  0.7816164E-02  0.1226708E+00
        -11   -1    0    0    0    0  0.00000000000E+00  0.00000000000E+00  0.45593999997E+02  0.45594000000E+02  0.51100000000E-03 0.  1.
         11   -1    0    0    0    0 -0.00000000000E+00 -0.00000000000E+00 -0.45593999997E+02  0.45594000000E+02  0.51100000000E-03 0. -1.
    9900012    2    1    2    0    0 -0.13185566579E+02  0.13487261338E+01  0.13228743590E+02  0.72461604587E+02  0.70000044673E+02 0.  0.
         12    1    1    2    0    0  0.13185566579E+02 -0.13487261338E+01 -0.13228743590E+02  0.18726395413E+02  0.00000000000E+00 0. -1.
         11    1    3    3    0    0 -0.86998375513E+01 -0.44056535568E+01 -0.22647475360E+02  0.24657759370E+02  0.51100000000E-03 0. -1.
        -11    1    3    3    0    0  0.11118224347E+02 -0.53898777296E+01  0.15536112994E+02  0.19850352687E+02  0.51100000000E-03 0.  1.
        -12    1    3    3    0    0 -0.15603953374E+02  0.11144257420E+02  0.20340105956E+02  0.27953492531E+02  0.00000000000E+00 0.  1.
</event>
<event>
 7    1  0.3020651E-013  0.7246154E+02  0.7816164E-02  0.1226708E+00
        -11   -1    0    0    0    0  0.00000000000E+00  0.00000000000E+00  0.45593999997E+02  0.45594000000E+02  0.51100000000E-03 0. -1.
         11   -1    0    0    0    0 -0.00000000000E+00 -0.00000000000E+00 -0.45593999997E+02  0.45594000000E+02  0.51100000000E-03 0.  1.
    9900012    2    1    2    0    0 -0.14941892447E+01 -0.11702669992E+02 -0.14542873684E+02  0.72461541140E+02  0.69999962021E+02 0.  0.
         12    1    1    2    0    0  0.14941892447E+01  0.11702669992E+02  0.14542873684E+02  0.18726458860E+02  0.00000000000E+00 0. -1.
         11    1    3    3    0    0 -0.51335196945E+01  0.18053315170E+02 -0.40494210165E+01  0.19200859979E+02  0.51100000000E-03 0. -1.
        -11    1    3    3    0    0 -0.11679879620E+02  0.41203147951E+01 -0.10256605472E+02  0.16080874915E+02  0.51100000000E-03 0.  1.
        -12    1    3    3    0    0  0.15319210070E+02 -0.33876299957E+02 -0.23684719566E+00  0.37179806247E+02  0.00000000000E+00 0.  1.
</event>
<event>
 7    1  0.3020651E-013  0.7246156E+02  0.7816164E-02  0.1226708E+00
        -11   -1    0    0    0    0  0.00000000000E+00  0.00000000000E+00  0.45593999997E+02  0.45594000000E+02  0.51100000000E-03 0. -1.
         11   -1    0    0    0    0 -0.00000000000E+00 -0.00000000000E+00 -0.45593999997E+02  0.45594000000E+02  0.51100000000E-03 0.  1.
    9900012    2    1    2    0    0  0.11352824577E+02  0.41684339930E+01  0.14297455700E+02  0.72461555935E+02  0.69999981294E+02 0.  0.
         12    1    1    2    0    0 -0.11352824577E+02 -0.41684339930E+01 -0.14297455700E+02  0.18726444065E+02  0.00000000000E+00 0. -1.
         11    1    3    3    0    0 -0.40311765136E+01  0.43938382559E+01  0.79025511101E+01  0.98998238879E+01  0.51100000000E-03 0. -1.
        -11    1    3    3    0    0  0.27355595325E+02 -0.21782173965E+02  0.12541178922E+02  0.37149331990E+02  0.51100000000E-03 0.  1.
        -12    1    3    3    0    0 -0.11971594235E+02  0.21556769702E+02 -0.61462743324E+01  0.25412400057E+02  0.00000000000E+00 0.  1.
</event>
<event>
 7    1  0.3020651E-013  0.7246153E+02  0.7816164E-02  0.1226708E+00
        -11   -1    0    0    0    0  0.00000000000E+00  0.00000000000E+00  0.45593999997E+02  0.45594000000E+02  0.51100000000E-03 0.  1.
         11   -1    0    0    0    0 -0.00000000000E+00 -0.00000000000E+00 -0.45593999997E+02  0.45594000000E+02  0.51100000000E-03 0. -1.
    9900012    2    1    2    0    0  0.52425571232E+01 -0.17846206309E+02  0.21700640278E+01  0.72461530426E+02  0.69999948064E+02 0.  0.
         12    1    1    2    0    0 -0.52425571232E+01  0.17846206309E+02 -0.21700640278E+01  0.18726469574E+02  0.00000000000E+00 0. -1.
         11    1    3    3    0    0  0.13460499384E+02  0.26465759556E+01 -0.58220259008E+01  0.14902529778E+02  0.51100000000E-03 0. -1.
        -11    1    3    3    0    0  0.18245690419E+02  0.47956367673E+01  0.90851179375E+01  0.20939023833E+02  0.51100000000E-03 0.  1.
         12    1    3    3    0    0 -0.26463632679E+02 -0.25288419032E+02 -0.10930280089E+01  0.36619976815E+02  0.00000000000E+00 0. -1.
</event>
<event>
 7    1  0.3020651E-013  0.7246148E+02  0.7816164E-02  0.1226708E+00
        -11   -1    0    0    0    0  0.00000000000E+00  0.00000000000E+00  0.45593999997E+02  0.45594000000E+02  0.51100000000E-03 0.  1.
         11   -1    0    0    0    0 -0.00000000000E+00 -0.00000000000E+00 -0.45593999997E+02  0.45594000000E+02  0.51100000000E-03 0. -1.
    9900012    2    1    2    0    0  0.43781350368E+01  0.63720515562E+01  0.17056123448E+02  0.72461482584E+02  0.69999885741E+02 0.  0.
         12    1    1    2    0    0 -0.43781350368E+01 -0.63720515562E+01 -0.17056123448E+02  0.18726517416E+02  0.00000000000E+00 0. -1.
         11    1    3    3    0    0  0.15022462965E+01  0.78904787894E+00  0.18276578857E+00  0.17066763271E+01  0.51100000000E-03 0. -1.
        -11    1    3    3    0    0  0.11864238434E+02  0.10648662007E+02  0.41282964978E+02  0.44254235434E+02  0.51100000000E-03 0.  1.
         12    1    3    3    0    0 -0.89883496940E+01 -0.50656583296E+01 -0.24409607318E+02  0.26500570823E+02  0.00000000000E+00 0. -1.
</event>
<event>
 7    1  0.3020651E-013  0.7246154E+02  0.7816164E-02  0.1226708E+00
        -11   -1    0    0    0    0  0.00000000000E+00  0.00000000000E+00  0.45593999997E+02  0.45594000000E+02  0.51100000000E-03 0. -1.
         11   -1    0    0    0    0 -0.00000000000E+00 -0.00000000000E+00 -0.45593999997E+02  0.45594000000E+02  0.51100000000E-03 0.  1.
    9900012    2    1    2    0    0  0.22049890039E+01  0.65156028431E+01  0.17417378614E+02  0.72461544524E+02  0.69999966430E+02 0.  0.
         12    1    1    2    0    0 -0.22049890039E+01 -0.65156028431E+01 -0.17417378614E+02  0.18726455476E+02  0.00000000000E+00 0. -1.
         11    1    3    3    0    0  0.10321155666E+02 -0.12729546987E+02  0.12177018439E+02  0.20416841066E+02  0.51100000000E-03 0.  1.
        -11    1    3    3    0    0 -0.51468842520E+01 -0.13083616838E+02  0.12460614537E+02  0.18786653825E+02  0.51100000000E-03 0. -1.
        -12    1    3    3    0    0 -0.29692824097E+01  0.32328766668E+02 -0.72202543627E+01  0.33258049633E+02  0.00000000000E+00 0.  1.
</event>
<event>
 7    1  0.3020651E-013  0.7246150E+02  0.7816164E-02  0.1226708E+00
        -11   -1    0    0    0    0  0.00000000000E+00  0.00000000000E+00  0.45593999997E+02  0.45594000000E+02  0.51100000000E-03 0.  1.
         11   -1    0    0    0    0 -0.00000000000E+00 -0.00000000000E+00 -0.45593999997E+02  0.45594000000E+02  0.51100000000E-03 0. -1.
    9900012    2    1    2    0    0  0.10951858063E+02  0.45787858565E+01  0.14483551145E+02  0.72461501963E+02  0.69999910985E+02 0.  0.
         12    1    1    2    0    0 -0.10951858063E+02 -0.45787858565E+01 -0.14483551145E+02  0.18726498037E+02  0.00000000000E+00 0. -1.
         11    1    3    3    0    0 -0.12058803885E+02  0.94557666685E+01 -0.18361847835E+02  0.23916181355E+02  0.51100000000E-03 0. -1.
        -11    1    3    3    0    0  0.20430976486E+01 -0.64230885059E+01 -0.26891952720E+01  0.72568647107E+01  0.51100000000E-03 0.  1.
        -12    1    3    3    0    0  0.20967564300E+02  0.15461076940E+01  0.35534594252E+02  0.41288455897E+02  0.00000000000E+00 0.  1.
</event>
<event>
 7    1  0.3020651E-013  0.7246151E+02  0.7816164E-02  0.1226708E+00
        -11   -1    0    0    0    0  0.00000000000E+00  0.00000000000E+00  0.45593999997E+02  0.45594000000E+02  0.51100000000E-03 0.  1.
         11   -1    0    0    0    0 -0.00000000000E+00 -0.00000000000E+00 -0.45593999997E+02  0.45594000000E+02  0.51100000000E-03 0. -1.
    9900012    2    1    2    0    0 -0.68139328980E+01  0.70497643059E+01  0.15954706497E+02  0.72461507597E+02  0.69999918325E+02 0.  0.
         12    1    1    2    0    0  0.68139328980E+01 -0.70497643059E+01 -0.15954706497E+02  0.18726492403E+02  0.00000000000E+00 0. -1.
         11    1    3    3    0    0 -0.11425198224E+02  0.11969960947E+02 -0.18935522974E+02  0.25146951109E+02  0.51100000000E-03 0. -1.
        -11    1    3    3    0    0  0.48718498111E+01  0.77881434632E+01 -0.99927471394E+00  0.92405978920E+01  0.51100000000E-03 0.  1.
        -12    1    3    3    0    0 -0.26058448513E+00 -0.12708340105E+02  0.35889504185E+02  0.38073958596E+02  0.00000000000E+00 0.  1.
</event>
<event>
 7    1  0.3020651E-013  0.7246150E+02  0.7816164E-02  0.1226708E+00
        -11   -1    0    0    0    0  0.00000000000E+00  0.00000000000E+00  0.45593999997E+02  0.45594000000E+02  0.51100000000E-03 0.  1.
         11   -1    0    0    0    0 -0.00000000000E+00 -0.00000000000E+00 -0.45593999997E+02  0.45594000000E+02  0.51100000000E-03 0. -1.
    9900012    2    1    2    0    0  0.10382786016E+02  0.40843238178E+01  0.15039873527E+02  0.72461501603E+02  0.69999910516E+02 0.  0.
         12    1    1    2    0    0 -0.10382786016E+02 -0.40843238178E+01 -0.15039873527E+02  0.18726498397E+02  0.00000000000E+00 0. -1.
         11    1    3    3    0    0 -0.31170072656E+01 -0.87223500975E+01  0.19970872648E+02  0.22014333515E+02  0.51100000000E-03 0. -1.
        -11    1    3    3    0    0  0.52311075594E+01  0.27346500591E+02  0.83738825943E+01  0.29074344203E+02  0.51100000000E-03 0.  1.
         12    1    3    3    0    0  0.82686857227E+01 -0.14539826676E+02 -0.13304881715E+02  0.21372823885E+02  0.00000000000E+00 0. -1.
</event>
<event>
 7    1  0.3020651E-013  0.7246157E+02  0.7816164E-02  0.1226708E+00
        -11   -1    0    0    0    0  0.00000000000E+00  0.00000000000E+00  0.45593999997E+02  0.45594000000E+02  0.51100000000E-03 0.  1.
         11   -1    0    0    0    0 -0.00000000000E+00 -0.00000000000E+00 -0.45593999997E+02  0.45594000000E+02  0.51100000000E-03 0. -1.
    9900012    2    1    2    0    0  0.52822419140E+01  0.17344087065E+02  0.46861312229E+01  0.72461567836E+02  0.69999996798E+02 0.  0.
         12    1    1    2    0    0 -0.52822419140E+01 -0.17344087065E+02 -0.46861312229E+01  0.18726432164E+02  0.00000000000E+00 0. -1.
         11    1    3    3    0    0  0.17939089545E+01 -0.11423302146E+02  0.37251683222E+01  0.12148531621E+02  0.51100000000E-03 0. -1.
        -11    1    3    3    0    0 -0.22643654295E+02  0.20021068191E+01  0.25371662229E+01  0.22873144171E+02  0.51100000000E-03 0.  1.
         12    1    3    3    0    0  0.26131987255E+02  0.26765282392E+02 -0.15762033222E+01  0.37439892044E+02  0.00000000000E+00 0. -1.
</event>
<event>
 7    1  0.3020651E-013  0.7246155E+02  0.7816164E-02  0.1226708E+00
        -11   -1    0    0    0    0  0.00000000000E+00  0.00000000000E+00  0.45593999997E+02  0.45594000000E+02  0.51100000000E-03 0.  1.
         11   -1    0    0    0    0 -0.00000000000E+00 -0.00000000000E+00 -0.45593999997E+02  0.45594000000E+02  0.51100000000E-03 0. -1.
    9900012    2    1    2    0    0  0.11081056499E+02 -0.13829539875E+02  0.60525844477E+01  0.72461554401E+02  0.69999979296E+02 0.  0.
         12    1    1    2    0    0 -0.11081056499E+02  0.13829539875E+02 -0.60525844477E+01  0.18726445599E+02  0.00000000000E+00 0. -1.
         11    1    3    3    0    0  0.11043802868E+01 -0.23824063584E+02  0.15615601564E+02  0.28507063580E+02  0.51100000000E-03 0. -1.
        -11    1    3    3    0    0 -0.12813660565E+02 -0.21590441335E+01  0.54374533277E+01  0.14086066435E+02  0.51100000000E-03 0.  1.
        -12    1    3    3    0    0  0.22790336777E+02  0.12153567843E+02 -0.15000470444E+02  0.29868424386E+02  0.00000000000E+00 0.  1.
</event>
<event>
 7    1  0.3020651E-013  0.7246158E+02  0.7816164E-02  0.1226708E+00
        -11   -1    0    0    0    0  0.00000000000E+00  0.00000000000E+00  0.45593999997E+02  0.45594000000E+02  0.51100000000E-03 0.  1.
         11   -1    0    0    0    0 -0.00000000000E+00 -0.00000000000E+00 -0.45593999997E+02  0.45594000000E+02  0.51100000000E-03 0. -1.
    9900012    2    1    2    0    0  0.15387396334E+02 -0.10300804595E+02 -0.27929014772E+01  0.72461579095E+02  0.70000011464E+02 0.  0.
         12    1    1    2    0    0 -0.15387396334E+02  0.10300804595E+02  0.27929014772E+01  0.18726420905E+02  0.00000000000E+00 0. -1.
         11    1    3    3    0    0 -0.64743821764E-01  0.61077208893E+01 -0.14372055386E+02  0.15616159019E+02  0.51100000000E-03 0. -1.
        -11    1    3    3    0    0  0.32454013529E+02 -0.44958889593E+01  0.14594822379E+02  0.35867601707E+02  0.51100000000E-03 0.  1.
         12    1    3    3    0    0 -0.17001873373E+02 -0.11912636525E+02 -0.30156684700E+01  0.20977818368E+02  0.00000000000E+00 0. -1.
</event>
<event>
 7    1  0.3020651E-013  0.7246157E+02  0.7816164E-02  0.1226708E+00
        -11   -1    0    0    0    0  0.00000000000E+00  0.00000000000E+00  0.45593999997E+02  0.45594000000E+02  0.51100000000E-03 0. -1.
         11   -1    0    0    0    0 -0.00000000000E+00 -0.00000000000E+00 -0.45593999997E+02  0.45594000000E+02  0.51100000000E-03 0.  1.
    9900012    2    1    2    0    0 -0.17569764754E+02 -0.61936118770E+01 -0.19030581063E+01  0.72461572371E+02  0.70000002705E+02 0.  0.
         12    1    1    2    0    0  0.17569764754E+02  0.61936118770E+01  0.19030581063E+01  0.18726427629E+02  0.00000000000E+00 0. -1.
         11    1    3    3    0    0 -0.56569751762E+01  0.12402913248E+02  0.37031807867E+01  0.14126116712E+02  0.51100000000E-03 0. -1.
        -11    1    3    3    0    0 -0.49408119203E+01  0.19076265957E+02 -0.79158011063E+00  0.19721616177E+02  0.51100000000E-03 0.  1.
        -12    1    3    3    0    0 -0.69719776574E+01 -0.37672791082E+02 -0.48146587824E+01  0.38613839482E+02  0.00000000000E+00 0.  1.
</event>
<event>
 7    1  0.3020651E-013  0.7246157E+02  0.7816164E-02  0.1226708E+00
        -11   -1    0    0    0    0  0.00000000000E+00  0.00000000000E+00  0.45593999997E+02  0.45594000000E+02  0.51100000000E-03 0. -1.
         11   -1    0    0    0    0 -0.00000000000E+00 -0.00000000000E+00 -0.45593999997E+02  0.45594000000E+02  0.51100000000E-03 0.  1.
    9900012    2    1    2    0    0 -0.11834197988E+02 -0.70615517608E+01 -0.12679326483E+02  0.72461572809E+02  0.70000003276E+02 0.  0.
         12    1    1    2    0    0  0.11834197988E+02  0.70615517608E+01  0.12679326483E+02  0.18726427191E+02  0.00000000000E+00 0. -1.
         11    1    3    3    0    0  0.69626663896E+01 -0.91527226922E+01  0.10110538450E+02  0.15312545312E+02  0.51100000000E-03 0. -1.
        -11    1    3    3    0    0  0.13963778179E+02  0.10301510975E+02 -0.19464922758E+01  0.17461301837E+02  0.51100000000E-03 0.  1.
         12    1    3    3    0    0 -0.32760642556E+02 -0.82103400434E+01 -0.20843372657E+02  0.39687725660E+02  0.00000000000E+00 0. -1.
</event>
<event>
 7    1  0.3020651E-013  0.7246156E+02  0.7816164E-02  0.1226708E+00
        -11   -1    0    0    0    0  0.00000000000E+00  0.00000000000E+00  0.45593999997E+02  0.45594000000E+02  0.51100000000E-03 0.  1.
         11   -1    0    0    0    0 -0.00000000000E+00 -0.00000000000E+00 -0.45593999997E+02  0.45594000000E+02  0.51100000000E-03 0. -1.
    9900012    2    1    2    0    0  0.87059657658E+01  0.11260962187E+02  0.12168662921E+02  0.72461562363E+02  0.69999989667E+02 0.  0.
         12    1    1    2    0    0 -0.87059657658E+01 -0.11260962187E+02 -0.12168662921E+02  0.18726437637E+02  0.00000000000E+00 0. -1.
         11    1    3    3    0    0 -0.99478571826E+01  0.10139181737E+01 -0.80668078986E+00  0.10031880519E+02  0.51100000000E-03 0. -1.
        -11    1    3    3    0    0 -0.14052125615E+02 -0.79183198185E+01  0.18575277464E+02  0.24600873078E+02  0.51100000000E-03 0.  1.
         12    1    3    3    0    0  0.32705948564E+02  0.18165363832E+02 -0.55999337532E+01  0.37828808766E+02  0.00000000000E+00 0. -1.
</event>
<event>
 7    1  0.3020651E-013  0.7246157E+02  0.7816164E-02  0.1226708E+00
        -11   -1    0    0    0    0  0.00000000000E+00  0.00000000000E+00  0.45593999997E+02  0.45594000000E+02  0.51100000000E-03 0.  1.
         11   -1    0    0    0    0 -0.00000000000E+00 -0.00000000000E+00 -0.45593999997E+02  0.45594000000E+02  0.51100000000E-03 0. -1.
    9900012    2    1    2    0    0 -0.22392565459E+01 -0.16049617324E+02 -0.93848206885E+01  0.72461565596E+02  0.69999993880E+02 0.  0.
         12    1    1    2    0    0  0.22392565459E+01  0.16049617324E+02  0.93848206885E+01  0.18726434404E+02  0.00000000000E+00 0. -1.
         11    1    3    3    0    0 -0.12377169959E+02 -0.10109517452E+02 -0.35050735977E+02  0.38522081616E+02  0.51100000000E-03 0. -1.
        -11    1    3    3    0    0  0.96102881147E+00  0.65726686817E+01  0.87287704531E+01  0.10968818709E+02  0.51100000000E-03 0.  1.
        -12    1    3    3    0    0  0.91768846012E+01 -0.12512768553E+02  0.16937144835E+02  0.22970665271E+02  0.00000000000E+00 0.  1.
</event>
<event>
 7    1  0.3020651E-013  0.7246160E+02  0.7816164E-02  0.1226708E+00
        -11   -1    0    0    0    0  0.00000000000E+00  0.00000000000E+00  0.45593999997E+02  0.45594000000E+02  0.51100000000E-03 0.  1.
         11   -1    0    0    0    0 -0.00000000000E+00 -0.00000000000E+00 -0.45593999997E+02  0.45594000000E+02  0.51100000000E-03 0. -1.
    9900012    2    1    2    0    0 -0.12681903539E+02 -0.66540228605E+01  0.12065299715E+02  0.72461597387E+02  0.70000035293E+02 0.  0.
         12    1    1    2    0    0  0.12681903539E+02  0.66540228605E+01 -0.12065299715E+02  0.18726402613E+02  0.00000000000E+00 0. -1.
         11    1    3    3    0    0  0.13412291351E+02 -0.29244067807E+01 -0.78762572438E+01  0.15826469687E+02  0.51100000000E-03 0. -1.
        -11    1    3    3    0    0 -0.22717274440E+01  0.35147904765E+00  0.30265750735E+02  0.30352923268E+02  0.51100000000E-03 0.  1.
         12    1    3    3    0    0 -0.23822467446E+02 -0.40810951275E+01 -0.10324193776E+02  0.26282204432E+02  0.00000000000E+00 0. -1.
</event>
<event>
 7    1  0.3020651E-013  0.7246157E+02  0.7816164E-02  0.1226708E+00
        -11   -1    0    0    0    0  0.00000000000E+00  0.00000000000E+00  0.45593999997E+02  0.45594000000E+02  0.51100000000E-03 0. -1.
         11   -1    0    0    0    0 -0.00000000000E+00 -0.00000000000E+00 -0.45593999997E+02  0.45594000000E+02  0.51100000000E-03 0.  1.
    9900012    2    1    2    0    0 -0.13650331909E+02 -0.17269252011E+01  0.12702959936E+02  0.72461574206E+02  0.70000005096E+02 0.  0.
         12    1    1    2    0    0  0.13650331909E+02  0.17269252011E+01 -0.12702959936E+02  0.18726425794E+02  0.00000000000E+00 0. -1.
         11    1    3    3    0    0  0.18647381714E+02  0.44755199242E+01  0.93022383908E+01  0.21314003911E+02  0.51100000000E-03 0. -1.
        -11    1    3    3    0    0  0.89907053541E+01  0.11300940376E+01  0.13653318628E+01  0.91637343182E+01  0.51100000000E-03 0.  1.
         12    1    3    3    0    0 -0.41288418977E+02 -0.73325391630E+01  0.20353896830E+01  0.41983835977E+02  0.00000000000E+00 0. -1.
</event>
<event>
 7    1  0.3020651E-013  0.7246146E+02  0.7816164E-02  0.1226708E+00
        -11   -1    0    0    0    0  0.00000000000E+00  0.00000000000E+00  0.45593999997E+02  0.45594000000E+02  0.51100000000E-03 0. -1.
         11   -1    0    0    0    0 -0.00000000000E+00 -0.00000000000E+00 -0.45593999997E+02  0.45594000000E+02  0.51100000000E-03 0.  1.
    9900012    2    1    2    0    0 -0.14462142419E+02 -0.62433567560E+00 -0.11880231773E+02  0.72461460935E+02  0.69999857539E+02 0.  0.
         12    1    1    2    0    0  0.14462142419E+02  0.62433567560E+00  0.11880231773E+02  0.18726539065E+02  0.00000000000E+00 0. -1.
         11    1    3    3    0    0 -0.64037756967E+01 -0.20864236807E+02  0.29745358643E+01  0.22026633528E+02  0.51100000000E-03 0. -1.
        -11    1    3    3    0    0 -0.92653753781E+01 -0.48340626191E+01 -0.21981915980E+02  0.24339678977E+02  0.51100000000E-03 0.  1.
         12    1    3    3    0    0  0.12070086557E+01  0.25073963750E+02  0.71271483431E+01  0.26095148429E+02  0.00000000000E+00 0. -1.
</event>
<event>
 7    1  0.3020651E-013  0.7246160E+02  0.7816164E-02  0.1226708E+00
        -11   -1    0    0    0    0  0.00000000000E+00  0.00000000000E+00  0.45593999997E+02  0.45594000000E+02  0.51100000000E-03 0. -1.
         11   -1    0    0    0    0 -0.00000000000E+00 -0.00000000000E+00 -0.45593999997E+02  0.45594000000E+02  0.51100000000E-03 0.  1.
    9900012    2    1    2    0    0  0.12589332596E+02  0.12541898951E+02 -0.59065745224E+01  0.72461597593E+02  0.70000035561E+02 0.  0.
         12    1    1    2    0    0 -0.12589332596E+02 -0.12541898951E+02  0.59065745224E+01  0.18726402407E+02  0.00000000000E+00 0. -1.
         11    1    3    3    0    0 -0.13373871065E+02  0.13878562251E+02  0.66249391227E+01  0.20380498916E+02  0.51100000000E-03 0. -1.
        -11    1    3    3    0    0 -0.97019262957E+01 -0.69928124721E+01 -0.10497476074E+02  0.15913007393E+02  0.51100000000E-03 0.  1.
        -12    1    3    3    0    0  0.35665129957E+02  0.56561491723E+01 -0.20340375713E+01  0.36168091284E+02  0.00000000000E+00 0.  1.
</event>
<event>
 7    1  0.3020651E-013  0.7246165E+02  0.7816164E-02  0.1226708E+00
        -11   -1    0    0    0    0  0.00000000000E+00  0.00000000000E+00  0.45593999997E+02  0.45594000000E+02  0.51100000000E-03 0. -1.
         11   -1    0    0    0    0 -0.00000000000E+00 -0.00000000000E+00 -0.45593999997E+02  0.45594000000E+02  0.51100000000E-03 0.  1.
    9900012    2    1    2    0    0  0.44527252268E+01  0.87939571419E+01 -0.15922180146E+02  0.72461647853E+02  0.70000101034E+02 0.  0.
         12    1    1    2    0    0 -0.44527252268E+01 -0.87939571419E+01  0.15922180146E+02  0.18726352147E+02  0.00000000000E+00 0. -1.
         11    1    3    3    0    0 -0.81377680177E+01  0.94898321772E+01  0.98599298019E+01  0.15921633051E+02  0.51100000000E-03 0. -1.
        -11    1    3    3    0    0  0.26376510171E+02  0.38087828491E+01  0.35069840963E+00  0.26652393986E+02  0.51100000000E-03 0.  1.
        -12    1    3    3    0    0 -0.13786016926E+02 -0.45046578845E+01 -0.26132808357E+02  0.29887620815E+02  0.00000000000E+00 0.  1.
</event>
<event>
 7    1  0.3020651E-013  0.7246159E+02  0.7816164E-02  0.1226708E+00
        -11   -1    0    0    0    0  0.00000000000E+00  0.00000000000E+00  0.45593999997E+02  0.45594000000E+02  0.51100000000E-03 0. -1.
         11   -1    0    0    0    0 -0.00000000000E+00 -0.00000000000E+00 -0.45593999997E+02  0.45594000000E+02  0.51100000000E-03 0.  1.
    9900012    2    1    2    0    0  0.13287615225E+02 -0.10706402480E+02 -0.77130300010E+01  0.72461585388E+02  0.70000019662E+02 0.  0.
         12    1    1    2    0    0 -0.13287615225E+02  0.10706402480E+02  0.77130300010E+01  0.18726414612E+02  0.00000000000E+00 0. -1.
         11    1    3    3    0    0 -0.54168192561E+00 -0.32171457100E+02  0.96190738754E+01  0.33583070940E+02  0.51100000000E-03 0. -1.
        -11    1    3    3    0    0 -0.15837418932E+01 -0.35841483025E+01 -0.63938932132E+01  0.74990818185E+01  0.51100000000E-03 0.  1.
        -12    1    3    3    0    0  0.15413039044E+02  0.25049202923E+02 -0.10938210663E+02  0.31379432630E+02  0.00000000000E+00 0.  1.
</event>
<event>
 7    1  0.3020651E-013  0.7246121E+02  0.7816164E-02  0.1226709E+00
        -11   -1    0    0    0    0  0.00000000000E+00  0.00000000000E+00  0.45593999997E+02  0.45594000000E+02  0.51100000000E-03 0.  1.
         11   -1    0    0    0    0 -0.00000000000E+00 -0.00000000000E+00 -0.45593999997E+02  0.45594000000E+02  0.51100000000E-03 0. -1.
    9900012    2    1    2    0    0  0.17594258079E+02  0.31468386604E+01  0.55885615508E+01  0.72461213540E+02  0.69999535260E+02 0.  0.
         12    1    1    2    0    0 -0.17594258079E+02 -0.31468386604E+01 -0.55885615508E+01  0.18726786460E+02  0.00000000000E+00 0. -1.
         11    1    3    3    0    0 -0.45712374973E+01  0.17411178684E+02 -0.30631569784E+01  0.18260018794E+02  0.51100000000E-03 0. -1.
        -11    1    3    3    0    0  0.43835209403E+01 -0.23798153275E+02 -0.10503806534E+02  0.26379865563E+02  0.51100000000E-03 0.  1.
        -12    1    3    3    0    0  0.17781974636E+02  0.95338132510E+01  0.19155525063E+02  0.27821329183E+02  0.00000000000E+00 0.  1.
</event>
<event>
 7    1  0.3020651E-013  0.7246156E+02  0.7816164E-02  0.1226708E+00
        -11   -1    0    0    0    0  0.00000000000E+00  0.00000000000E+00  0.45593999997E+02  0.45594000000E+02  0.51100000000E-03 0.  1.
         11   -1    0    0    0    0 -0.00000000000E+00 -0.00000000000E+00 -0.45593999997E+02  0.45594000000E+02  0.51100000000E-03 0. -1.
    9900012    2    1    2    0    0  0.81251470426E+01  0.35089019187E+01  0.16503002141E+02  0.72461561822E+02  0.69999988964E+02 0.  0.
         12    1    1    2    0    0 -0.81251470426E+01 -0.35089019187E+01 -0.16503002141E+02  0.18726438178E+02  0.00000000000E+00 0. -1.
         11    1    3    3    0    0  0.20098796262E+02  0.18951814091E+01  0.15036149283E+02  0.25172189203E+02  0.51100000000E-03 0. -1.
        -11    1    3    3    0    0  0.15455756067E+02 -0.12878218950E+01  0.99562686826E+01  0.18430034378E+02  0.51100000000E-03 0.  1.
         12    1    3    3    0    0 -0.27429405287E+02  0.29015424047E+01 -0.84894158238E+01  0.28859338241E+02  0.00000000000E+00 0. -1.
</event>
<event>
 7    1  0.3020651E-013  0.7246157E+02  0.7816164E-02  0.1226708E+00
        -11   -1    0    0    0    0  0.00000000000E+00  0.00000000000E+00  0.45593999997E+02  0.45594000000E+02  0.51100000000E-03 0.  1.
         11   -1    0    0    0    0 -0.00000000000E+00 -0.00000000000E+00 -0.45593999997E+02  0.45594000000E+02  0.51100000000E-03 0. -1.
    9900012    2    1    2    0    0  0.90743074586E+01 -0.33061825520E+01  0.16043858105E+02  0.72461567296E+02  0.69999996095E+02 0.  0.
         12    1    1    2    0    0 -0.90743074586E+01  0.33061825520E+01 -0.16043858105E+02  0.18726432704E+02  0.00000000000E+00 0. -1.
         11    1    3    3    0    0  0.13067608264E+02 -0.60913247691E+01 -0.50175869777E+01  0.15265739501E+02  0.51100000000E-03 0. -1.
        -11    1    3    3    0    0  0.16291778628E+02 -0.15389452961E+02  0.19841839965E+02  0.29932522893E+02  0.51100000000E-03 0.  1.
        -12    1    3    3    0    0 -0.20285079433E+02  0.18174595179E+02  0.12196051178E+01  0.27263304902E+02  0.00000000000E+00 0.  1.
</event>
<event>
 7    1  0.3020651E-013  0.7246159E+02  0.7816164E-02  0.1226708E+00
        -11   -1    0    0    0    0  0.00000000000E+00  0.00000000000E+00  0.45593999997E+02  0.45594000000E+02  0.51100000000E-03 0.  1.
         11   -1    0    0    0    0 -0.00000000000E+00 -0.00000000000E+00 -0.45593999997E+02  0.45594000000E+02  0.51100000000E-03 0. -1.
    9900012    2    1    2    0    0  0.76040537970E+01  0.78147857016E+01 -0.15224515331E+02  0.72461591461E+02  0.70000027574E+02 0.  0.
         12    1    1    2    0    0 -0.76040537970E+01 -0.78147857016E+01  0.15224515331E+02  0.18726408539E+02  0.00000000000E+00 0. -1.
         11    1    3    3    0    0  0.13550057289E+02 -0.27221126392E+02 -0.12761039787E+02  0.32976323496E+02  0.51100000000E-03 0. -1.
        -11    1    3    3    0    0  0.13766935016E+01 -0.15117179199E+01 -0.72974381893E+00  0.21709680719E+01  0.51100000000E-03 0.  1.
        -12    1    3    3    0    0 -0.73226969940E+01  0.36547630013E+02 -0.17337317243E+01  0.37314299893E+02  0.00000000000E+00 0.  1.
</event>
<event>
 7    1  0.3020651E-013  0.7246157E+02  0.7816164E-02  0.1226708E+00
        -11   -1    0    0    0    0  0.00000000000E+00  0.00000000000E+00  0.45593999997E+02  0.45594000000E+02  0.51100000000E-03 0. -1.
         11   -1    0    0    0    0 -0.00000000000E+00 -0.00000000000E+00 -0.45593999997E+02  0.45594000000E+02  0.51100000000E-03 0.  1.
    9900012    2    1    2    0    0 -0.75765497996E+01 -0.14530328208E+02 -0.90633577091E+01  0.72461574883E+02  0.70000005978E+02 0.  0.
         12    1    1    2    0    0  0.75765497996E+01  0.14530328208E+02  0.90633577091E+01  0.18726425117E+02  0.00000000000E+00 0. -1.
         11    1    3    3    0    0  0.62500248158E+01  0.39849319254E+00  0.42818572330E+01  0.75865610554E+01  0.51100000000E-03 0. -1.
        -11    1    3    3    0    0  0.52635785460E+01  0.65166718963E+01 -0.30364212165E+02  0.31498534131E+02  0.51100000000E-03 0.  1.
         12    1    3    3    0    0 -0.19090153161E+02 -0.21445493297E+02  0.17018997223E+02  0.33376479697E+02  0.00000000000E+00 0. -1.
</event>
<event>
 7    1  0.3020651E-013  0.7246155E+02  0.7816164E-02  0.1226708E+00
        -11   -1    0    0    0    0  0.00000000000E+00  0.00000000000E+00  0.45593999997E+02  0.45594000000E+02  0.51100000000E-03 0.  1.
         11   -1    0    0    0    0 -0.00000000000E+00 -0.00000000000E+00 -0.45593999997E+02  0.45594000000E+02  0.51100000000E-03 0. -1.
    9900012    2    1    2    0    0 -0.77516900851E+01  0.17004863596E+02  0.11940519701E+01  0.72461552253E+02  0.69999976498E+02 0.  0.
         12    1    1    2    0    0  0.77516900851E+01 -0.17004863596E+02 -0.11940519701E+01  0.18726447747E+02  0.00000000000E+00 0. -1.
         11    1    3    3    0    0  0.80864912443E+01  0.20813719452E+02 -0.27020661185E+02  0.35053079597E+02  0.51100000000E-03 0. -1.
        -11    1    3    3    0    0 -0.10926337848E+00  0.34028051143E+01 -0.91654779404E+00  0.35257738514E+01  0.51100000000E-03 0.  1.
        -12    1    3    3    0    0 -0.15728917951E+02 -0.72116609700E+01  0.29131260949E+02  0.33882698805E+02  0.00000000000E+00 0.  1.
</event>
<event>
 7    1  0.3020651E-013  0.7246158E+02  0.7816164E-02  0.1226708E+00
        -11   -1    0    0    0    0  0.00000000000E+00  0.00000000000E+00  0.45593999997E+02  0.45594000000E+02  0.51100000000E-03 0. -1.
         11   -1    0    0    0    0 -0.00000000000E+00 -0.00000000000E+00 -0.45593999997E+02  0.45594000000E+02  0.51100000000E-03 0.  1.
    9900012    2    1    2    0    0  0.10817920915E+02  0.71377850395E+01 -0.13516783144E+02  0.72461579766E+02  0.70000012339E+02 0.  0.
         12    1    1    2    0    0 -0.10817920915E+02 -0.71377850395E+01  0.13516783144E+02  0.18726420234E+02  0.00000000000E+00 0. -1.
         11    1    3    3    0    0  0.50224272367E+01 -0.89425141405E+01 -0.90104652060E+01  0.13652172647E+02  0.51100000000E-03 0. -1.
        -11    1    3    3    0    0 -0.52189481274E+00 -0.19220909055E+02 -0.11310050353E+02  0.22307688324E+02  0.51100000000E-03 0.  1.
         12    1    3    3    0    0  0.63173884914E+01  0.35301208235E+02  0.68037324145E+01  0.36501718795E+02  0.00000000000E+00 0. -1.
</event>
<event>
 7    1  0.3020651E-013  0.7246155E+02  0.7816164E-02  0.1226708E+00
        -11   -1    0    0    0    0  0.00000000000E+00  0.00000000000E+00  0.45593999997E+02  0.45594000000E+02  0.51100000000E-03 0.  1.
         11   -1    0    0    0    0 -0.00000000000E+00 -0.00000000000E+00 -0.45593999997E+02  0.45594000000E+02  0.51100000000E-03 0. -1.
    9900012    2    1    2    0    0  0.60095365012E+01  0.56624352848E+01  0.16807807448E+02  0.72461545623E+02  0.69999967861E+02 0.  0.
         12    1    1    2    0    0 -0.60095365012E+01 -0.56624352848E+01 -0.16807807448E+02  0.18726454377E+02  0.00000000000E+00 0. -1.
         11    1    3    3    0    0  0.60550172044E+01  0.21939035366E+02  0.17160295581E+02  0.28503688372E+02  0.51100000000E-03 0.  1.
        -11    1    3    3    0    0  0.55661654645E+01  0.12547169423E+02 -0.41699628595E+01  0.14345809459E+02  0.51100000000E-03 0. -1.
        -12    1    3    3    0    0 -0.56116461677E+01 -0.28823769504E+02  0.38174747273E+01  0.29612047792E+02  0.00000000000E+00 0.  1.
</event>
<event>
 7    1  0.3020651E-013  0.7246161E+02  0.7816164E-02  0.1226708E+00
        -11   -1    0    0    0    0  0.00000000000E+00  0.00000000000E+00  0.45593999997E+02  0.45594000000E+02  0.51100000000E-03 0.  1.
         11   -1    0    0    0    0 -0.00000000000E+00 -0.00000000000E+00 -0.45593999997E+02  0.45594000000E+02  0.51100000000E-03 0. -1.
    9900012    2    1    2    0    0 -0.12873666829E+02  0.10568655443E+02  0.85586216931E+01  0.72461607374E+02  0.70000048302E+02 0.  0.
         12    1    1    2    0    0  0.12873666829E+02 -0.10568655443E+02 -0.85586216931E+01  0.18726392626E+02  0.00000000000E+00 0. -1.
         11    1    3    3    0    0  0.36336910661E+01 -0.36104194344E+01 -0.12845066354E+02  0.13828758771E+02  0.51100000000E-03 0. -1.
        -11    1    3    3    0    0 -0.13648889830E+02 -0.17361917675E+02  0.13870140035E+02  0.26078902658E+02  0.51100000000E-03 0.  1.
        -12    1    3    3    0    0 -0.28584680654E+01  0.31540992553E+02  0.75335480117E+01  0.32553945944E+02  0.00000000000E+00 0.  1.
</event>
<event>
 7    1  0.3020651E-013  0.7246161E+02  0.7816164E-02  0.1226708E+00
        -11   -1    0    0    0    0  0.00000000000E+00  0.00000000000E+00  0.45593999997E+02  0.45594000000E+02  0.51100000000E-03 0.  1.
         11   -1    0    0    0    0 -0.00000000000E+00 -0.00000000000E+00 -0.45593999997E+02  0.45594000000E+02  0.51100000000E-03 0. -1.
    9900012    2    1    2    0    0  0.14370253378E+01 -0.17048766313E+02  0.76126459824E+01  0.72461605433E+02  0.70000045775E+02 0.  0.
         12    1    1    2    0    0 -0.14370253378E+01  0.17048766313E+02 -0.76126459824E+01  0.18726394567E+02  0.00000000000E+00 0. -1.
         11    1    3    3    0    0 -0.11635706605E+01 -0.86289073049E+01  0.72941451318E+01  0.11358542663E+02  0.51100000000E-03 0. -1.
        -11    1    3    3    0    0  0.20173754324E+02 -0.11485193099E+02  0.22709611949E+02  0.32474859494E+02  0.51100000000E-03 0.  1.
         12    1    3    3    0    0 -0.17573158325E+02  0.30653340912E+01 -0.22391111098E+02  0.28628203276E+02  0.00000000000E+00 0. -1.
</event>
<event>
 7    1  0.3020651E-013  0.7246159E+02  0.7816164E-02  0.1226708E+00
        -11   -1    0    0    0    0  0.00000000000E+00  0.00000000000E+00  0.45593999997E+02  0.45594000000E+02  0.51100000000E-03 0.  1.
         11   -1    0    0    0    0 -0.00000000000E+00 -0.00000000000E+00 -0.45593999997E+02  0.45594000000E+02  0.51100000000E-03 0. -1.
    9900012    2    1    2    0    0 -0.57027634275E+01  0.68805014900E+01  0.16456475418E+02  0.72461590983E+02  0.70000026951E+02 0.  0.
         12    1    1    2    0    0  0.57027634275E+01 -0.68805014900E+01 -0.16456475418E+02  0.18726409017E+02  0.00000000000E+00 0. -1.
         11    1    3    3    0    0  0.10982604775E+02  0.22692442181E+01 -0.93501158752E+01  0.14601087086E+02  0.51100000000E-03 0. -1.
        -11    1    3    3    0    0 -0.25636133101E+02 -0.88782521533E+01 -0.31185376903E+00  0.27131751412E+02  0.51100000000E-03 0.  1.
         12    1    3    3    0    0  0.89507648986E+01  0.13489509425E+02  0.26118445062E+02  0.30728752485E+02  0.00000000000E+00 0. -1.
</event>
<event>
 7    1  0.3020651E-013  0.7246162E+02  0.7816164E-02  0.1226708E+00
        -11   -1    0    0    0    0  0.00000000000E+00  0.00000000000E+00  0.45593999997E+02  0.45594000000E+02  0.51100000000E-03 0.  1.
         11   -1    0    0    0    0 -0.00000000000E+00 -0.00000000000E+00 -0.45593999997E+02  0.45594000000E+02  0.51100000000E-03 0. -1.
    9900012    2    1    2    0    0  0.14258574031E+02  0.57840642759E+01  0.10673092631E+02  0.72461621833E+02  0.70000067139E+02 0.  0.
         12    1    1    2    0    0 -0.14258574031E+02 -0.57840642759E+01 -0.10673092631E+02  0.18726378167E+02  0.00000000000E+00 0. -1.
         11    1    3    3    0    0 -0.82238192705E+01 -0.25200365901E+01 -0.83086658154E+01  0.11958917832E+02  0.51100000000E-03 0. -1.
        -11    1    3    3    0    0 -0.11538193080E+02  0.13555872243E+02  0.19058483224E+02  0.26079059700E+02  0.51100000000E-03 0.  1.
         12    1    3    3    0    0  0.34020586381E+02 -0.52517713768E+01 -0.76724777613E-01  0.34423644301E+02  0.00000000000E+00 0. -1.
</event>
<event>
 7    1  0.3020651E-013  0.7246183E+02  0.7816164E-02  0.1226707E+00
        -11   -1    0    0    0    0  0.00000000000E+00  0.00000000000E+00  0.45593999997E+02  0.45594000000E+02  0.51100000000E-03 0.  1.
         11   -1    0    0    0    0 -0.00000000000E+00 -0.00000000000E+00 -0.45593999997E+02  0.45594000000E+02  0.51100000000E-03 0. -1.
    9900012    2    1    2    0    0 -0.76585772955E+01 -0.38766571007E+01  0.16642933953E+02  0.72461827753E+02  0.70000335387E+02 0.  0.
         12    1    1    2    0    0  0.76585772955E+01  0.38766571007E+01 -0.16642933953E+02  0.18726172247E+02  0.00000000000E+00 0. -1.
         11    1    3    3    0    0  0.10122061969E+02  0.68473583134E+01 -0.11662450152E+02  0.16892459803E+02  0.51100000000E-03 0. -1.
        -11    1    3    3    0    0 -0.39901670555E+01 -0.18311656867E+02 -0.44199536186E+01  0.19255497931E+02  0.51100000000E-03 0.  1.
        -12    1    3    3    0    0 -0.13790472209E+02  0.75876414524E+01  0.32725337724E+02  0.36313870018E+02  0.00000000000E+00 0.  1.
</event>
<event>
 7    1  0.3020651E-013  0.7246156E+02  0.7816164E-02  0.1226708E+00
        -11   -1    0    0    0    0  0.00000000000E+00  0.00000000000E+00  0.45593999997E+02  0.45594000000E+02  0.51100000000E-03 0. -1.
         11   -1    0    0    0    0 -0.00000000000E+00 -0.00000000000E+00 -0.45593999997E+02  0.45594000000E+02  0.51100000000E-03 0.  1.
    9900012    2    1    2    0    0  0.15856471014E+01  0.18561052652E+02  0.19111960130E+01  0.72461558201E+02  0.69999984246E+02 0.  0.
         12    1    1    2    0    0 -0.15856471014E+01 -0.18561052652E+02 -0.19111960130E+01  0.18726441799E+02  0.00000000000E+00 0. -1.
         11    1    3    3    0    0  0.32012479033E+01 -0.23502590708E+01 -0.21904066968E+00  0.39773967510E+01  0.51100000000E-03 0. -1.
        -11    1    3    3    0    0  0.16796951870E+02 -0.11231338871E+02  0.19040829857E+02  0.27763893222E+02  0.51100000000E-03 0.  1.
         12    1    3    3    0    0 -0.18412552672E+02  0.32142650593E+02 -0.16910593174E+02  0.40720268228E+02  0.00000000000E+00 0. -1.
</event>
<event>
 7    1  0.3020651E-013  0.7246158E+02  0.7816164E-02  0.1226708E+00
        -11   -1    0    0    0    0  0.00000000000E+00  0.00000000000E+00  0.45593999997E+02  0.45594000000E+02  0.51100000000E-03 0. -1.
         11   -1    0    0    0    0 -0.00000000000E+00 -0.00000000000E+00 -0.45593999997E+02  0.45594000000E+02  0.51100000000E-03 0.  1.
    9900012    2    1    2    0    0  0.15441444504E+02  0.64918466186E+01 -0.83723557049E+01  0.72461584942E+02  0.70000019081E+02 0.  0.
         12    1    1    2    0    0 -0.15441444504E+02 -0.64918466186E+01  0.83723557049E+01  0.18726415058E+02  0.00000000000E+00 0. -1.
         11    1    3    3    0    0  0.11648740864E+02 -0.21890683716E+02 -0.10474725137E+02  0.26918675009E+02  0.51100000000E-03 0. -1.
        -11    1    3    3    0    0  0.12235653081E+02 -0.28422168408E+01  0.38829224940E+01  0.13147870179E+02  0.51100000000E-03 0.  1.
        -12    1    3    3    0    0 -0.84429494414E+01  0.31224747175E+02 -0.17805530614E+01  0.32395039754E+02  0.00000000000E+00 0.  1.
</event>
<event>
 7    1  0.3020651E-013  0.7246156E+02  0.7816164E-02  0.1226708E+00
        -11   -1    0    0    0    0  0.00000000000E+00  0.00000000000E+00  0.45593999997E+02  0.45594000000E+02  0.51100000000E-03 0. -1.
         11   -1    0    0    0    0 -0.00000000000E+00 -0.00000000000E+00 -0.45593999997E+02  0.45594000000E+02  0.51100000000E-03 0.  1.
    9900012    2    1    2    0    0  0.16727072906E+02  0.27192941902E+01  0.79680723615E+01  0.72461555969E+02  0.69999981338E+02 0.  0.
         12    1    1    2    0    0 -0.16727072906E+02 -0.27192941902E+01 -0.79680723615E+01  0.18726444031E+02  0.00000000000E+00 0. -1.
         11    1    3    3    0    0 -0.73354353825E+01  0.25711224995E+02 -0.11180590997E+02  0.28980705967E+02  0.51100000000E-03 0. -1.
        -11    1    3    3    0    0  0.27620450292E+01 -0.12094612159E+00 -0.38052926870E+01  0.47035915429E+01  0.51100000000E-03 0.  1.
        -12    1    3    3    0    0  0.21300463259E+02 -0.22870984684E+02  0.22953956046E+02  0.38777258459E+02  0.00000000000E+00 0.  1.
</event>
<event>
 7    1  0.3020651E-013  0.7246163E+02  0.7816164E-02  0.1226708E+00
        -11   -1    0    0    0    0  0.00000000000E+00  0.00000000000E+00  0.45593999997E+02  0.45594000000E+02  0.51100000000E-03 0. -1.
         11   -1    0    0    0    0 -0.00000000000E+00 -0.00000000000E+00 -0.45593999997E+02  0.45594000000E+02  0.51100000000E-03 0.  1.
    9900012    2    1    2    0    0 -0.20640352126E+01 -0.14617726358E+02 -0.11521232876E+02  0.72461628963E+02  0.70000076426E+02 0.  0.
         12    1    1    2    0    0  0.20640352126E+01  0.14617726358E+02  0.11521232876E+02  0.18726371037E+02  0.00000000000E+00 0. -1.
         11    1    3    3    0    0  0.18375979204E+02 -0.11252061404E+02 -0.48664971955E+01  0.22090004363E+02  0.51100000000E-03 0. -1.
        -11    1    3    3    0    0 -0.95466477242E+01  0.18637869496E+02  0.72440774563E+01  0.22158188567E+02  0.51100000000E-03 0.  1.
         12    1    3    3    0    0 -0.10893366692E+02 -0.22003534450E+02 -0.13898813137E+02  0.28213436033E+02  0.00000000000E+00 0. -1.
</event>
<event>
 7    1  0.3020651E-013  0.7246155E+02  0.7816164E-02  0.1226708E+00
        -11   -1    0    0    0    0  0.00000000000E+00  0.00000000000E+00  0.45593999997E+02  0.45594000000E+02  0.51100000000E-03 0. -1.
         11   -1    0    0    0    0 -0.00000000000E+00 -0.00000000000E+00 -0.45593999997E+02  0.45594000000E+02  0.51100000000E-03 0.  1.
    9900012    2    1    2    0    0 -0.90406861577E+01 -0.16183114188E+02  0.26556763872E+01  0.72461553244E+02  0.69999977789E+02 0.  0.
         12    1    1    2    0    0  0.90406861577E+01  0.16183114188E+02 -0.26556763872E+01  0.18726446756E+02  0.00000000000E+00 0. -1.
         11    1    3    3    0    0 -0.14378197837E+02 -0.61405145215E+01  0.69144402738E+00  0.15649811077E+02  0.51100000000E-03 0. -1.
        -11    1    3    3    0    0 -0.12983832348E+02 -0.11426394966E+02 -0.21126264691E+02  0.27303140193E+02  0.51100000000E-03 0.  1.
         12    1    3    3    0    0  0.18321344027E+02  0.13837952996E+01  0.23090497051E+02  0.29508601974E+02  0.00000000000E+00 0. -1.
</event>
<event>
 7    1  0.3020651E-013  0.7246077E+02  0.7816164E-02  0.1226710E+00
        -11   -1    0    0    0    0  0.00000000000E+00  0.00000000000E+00  0.45593999997E+02  0.45594000000E+02  0.51100000000E-03 0. -1.
         11   -1    0    0    0    0 -0.00000000000E+00 -0.00000000000E+00 -0.45593999997E+02  0.45594000000E+02  0.51100000000E-03 0.  1.
    9900012    2    1    2    0    0  0.10940391740E+02 -0.32861288441E+00 -0.15195686951E+02  0.72460772235E+02  0.69998960372E+02 0.  0.
         12    1    1    2    0    0 -0.10940391740E+02  0.32861288441E+00  0.15195686951E+02  0.18727227765E+02  0.00000000000E+00 0. -1.
         11    1    3    3    0    0  0.11189213522E+02  0.18843733836E+02 -0.31949524556E+01  0.22147065845E+02  0.51100000000E-03 0. -1.
        -11    1    3    3    0    0  0.16595983397E+02 -0.44453958060E+01 -0.20168754547E+02  0.26494657368E+02  0.51100000000E-03 0.  1.
         12    1    3    3    0    0 -0.16844805179E+02 -0.14726950914E+02  0.81680200517E+01  0.23819049022E+02  0.00000000000E+00 0. -1.
</event>
<event>
 7    1  0.3020651E-013  0.7246127E+02  0.7816164E-02  0.1226709E+00
        -11   -1    0    0    0    0  0.00000000000E+00  0.00000000000E+00  0.45593999997E+02  0.45594000000E+02  0.51100000000E-03 0. -1.
         11   -1    0    0    0    0 -0.00000000000E+00 -0.00000000000E+00 -0.45593999997E+02  0.45594000000E+02  0.51100000000E-03 0.  1.
    9900012    2    1    2    0    0 -0.10288260205E+02  0.67246976420E+01 -0.14128716305E+02  0.72461268282E+02  0.69999606571E+02 0.  0.
         12    1    1    2    0    0  0.10288260205E+02 -0.67246976420E+01  0.14128716305E+02  0.18726731718E+02  0.00000000000E+00 0. -1.
         11    1    3    3    0    0  0.10402354035E+02 -0.92849629787E+01 -0.80886966250E+01  0.16119755592E+02  0.51100000000E-03 0. -1.
        -11    1    3    3    0    0 -0.23336732487E+02 -0.96358225021E+01  0.86255591860E+01  0.26680562775E+02  0.51100000000E-03 0.  1.
         12    1    3    3    0    0  0.26461182461E+01  0.25645483123E+02 -0.14665578866E+02  0.29660949915E+02  0.00000000000E+00 0. -1.
</event>
<event>
 7    1  0.3020651E-013  0.7246184E+02  0.7816164E-02  0.1226707E+00
        -11   -1    0    0    0    0  0.00000000000E+00  0.00000000000E+00  0.45593999997E+02  0.45594000000E+02  0.51100000000E-03 0.  1.
         11   -1    0    0    0    0 -0.00000000000E+00 -0.00000000000E+00 -0.45593999997E+02  0.45594000000E+02  0.51100000000E-03 0. -1.
    9900012    2    1    2    0    0 -0.78794936157E+01 -0.82471321900E+01  0.14851510881E+02  0.72461842240E+02  0.70000354259E+02 0.  0.
         12    1    1    2    0    0  0.78794936157E+01  0.82471321900E+01 -0.14851510881E+02  0.18726157760E+02  0.00000000000E+00 0. -1.
         11    1    3    3    0    0  0.13530418217E+02  0.65936603141E+01 -0.97749636236E+01  0.17947102484E+02  0.51100000000E-03 0. -1.
        -11    1    3    3    0    0 -0.84474356899E+01  0.14351462396E+02  0.95147039101E+01  0.19179500342E+02  0.51100000000E-03 0.  1.
        -12    1    3    3    0    0 -0.12962476143E+02 -0.29192254900E+02  0.15111770595E+02  0.35335239413E+02  0.00000000000E+00 0.  1.
</event>
<event>
 7    1  0.3020651E-013  0.7246173E+02  0.7816164E-02  0.1226708E+00
        -11   -1    0    0    0    0  0.00000000000E+00  0.00000000000E+00  0.45593999997E+02  0.45594000000E+02  0.51100000000E-03 0.  1.
         11   -1    0    0    0    0 -0.00000000000E+00 -0.00000000000E+00 -0.45593999997E+02  0.45594000000E+02  0.51100000000E-03 0. -1.
    9900012    2    1    2    0    0 -0.93493518843E+01  0.21094105116E+00  0.16224007021E+02  0.72461727530E+02  0.70000204829E+02 0.  0.
         12    1    1    2    0    0  0.93493518843E+01 -0.21094105116E+00 -0.16224007021E+02  0.18726272470E+02  0.00000000000E+00 0. -1.
         11    1    3    3    0    0  0.16259035803E+01 -0.68750196230E+01  0.13151831296E+01  0.71860395347E+01  0.51100000000E-03 0. -1.
        -11    1    3    3    0    0  0.17127666130E+02  0.24736361637E+02  0.10133045345E+02  0.31747805315E+02  0.51100000000E-03 0.  1.
         12    1    3    3    0    0 -0.28102921595E+02 -0.17650400963E+02  0.47757785465E+01  0.33527882681E+02  0.00000000000E+00 0. -1.
</event>
<event>
 7    1  0.3020651E-013  0.7246150E+02  0.7816164E-02  0.1226708E+00
        -11   -1    0    0    0    0  0.00000000000E+00  0.00000000000E+00  0.45593999997E+02  0.45594000000E+02  0.51100000000E-03 0.  1.
         11   -1    0    0    0    0 -0.00000000000E+00 -0.00000000000E+00 -0.45593999997E+02  0.45594000000E+02  0.51100000000E-03 0. -1.
    9900012    2    1    2    0    0  0.15920453557E+02 -0.34244285216E+01 -0.92463168251E+01  0.72461496669E+02  0.69999904089E+02 0.  0.
         12    1    1    2    0    0 -0.15920453557E+02  0.34244285216E+01  0.92463168251E+01  0.18726503331E+02  0.00000000000E+00 0. -1.
         11    1    3    3    0    0  0.16546007545E+01 -0.11983732738E+01  0.68403726922E+00  0.21544626724E+01  0.51100000000E-03 0. -1.
        -11    1    3    3    0    0  0.26868804728E+02 -0.29042541859E+02 -0.19140086908E+01  0.39611429344E+02  0.51100000000E-03 0.  1.
         12    1    3    3    0    0 -0.12602951925E+02  0.26816486611E+02 -0.80163454034E+01  0.30695604653E+02  0.00000000000E+00 0. -1.
</event>
<event>
 7    1  0.3020651E-013  0.7246155E+02  0.7816164E-02  0.1226708E+00
        -11   -1    0    0    0    0  0.00000000000E+00  0.00000000000E+00  0.45593999997E+02  0.45594000000E+02  0.51100000000E-03 0.  1.
         11   -1    0    0    0    0 -0.00000000000E+00 -0.00000000000E+00 -0.45593999997E+02  0.45594000000E+02  0.51100000000E-03 0. -1.
    9900012    2    1    2    0    0 -0.49558019104E+01  0.17007346558E+02  0.60720759051E+01  0.72461550381E+02  0.69999974059E+02 0.  0.
         12    1    1    2    0    0  0.49558019104E+01 -0.17007346558E+02 -0.60720759051E+01  0.18726449619E+02  0.00000000000E+00 0. -1.
         11    1    3    3    0    0 -0.10451299319E+02  0.92372774844E+01 -0.12791463601E+02  0.18925604193E+02  0.51100000000E-03 0. -1.
        -11    1    3    3    0    0 -0.38104968915E+01  0.22215890039E+02 -0.59878824012E+01  0.23322100950E+02  0.51100000000E-03 0.  1.
        -12    1    3    3    0    0  0.93059942996E+01 -0.14445820965E+02  0.24851421907E+02  0.30213845238E+02  0.00000000000E+00 0.  1.
</event>
<event>
 7    1  0.3020651E-013  0.7246130E+02  0.7816164E-02  0.1226709E+00
        -11   -1    0    0    0    0  0.00000000000E+00  0.00000000000E+00  0.45593999997E+02  0.45594000000E+02  0.51100000000E-03 0. -1.
         11   -1    0    0    0    0 -0.00000000000E+00 -0.00000000000E+00 -0.45593999997E+02  0.45594000000E+02  0.51100000000E-03 0.  1.
    9900012    2    1    2    0    0 -0.50661022755E+01  0.17523453142E+02  0.42370437811E+01  0.72461298681E+02  0.69999646172E+02 0.  0.
         12    1    1    2    0    0  0.50661022755E+01 -0.17523453142E+02 -0.42370437811E+01  0.18726701319E+02  0.00000000000E+00 0. -1.
         11    1    3    3    0    0 -0.82469649323E+01  0.52578905304E+01 -0.39131557872E+01  0.10534259912E+02  0.51100000000E-03 0. -1.
        -11    1    3    3    0    0 -0.14255762089E+02  0.32012702903E+02  0.48573598879E+01  0.35378437575E+02  0.51100000000E-03 0.  1.
         12    1    3    3    0    0  0.17436624745E+02 -0.19747140291E+02  0.32928396804E+01  0.26548601194E+02  0.00000000000E+00 0. -1.
</event>
<event>
 7    1  0.3020651E-013  0.7246161E+02  0.7816164E-02  0.1226708E+00
        -11   -1    0    0    0    0  0.00000000000E+00  0.00000000000E+00  0.45593999997E+02  0.45594000000E+02  0.51100000000E-03 0.  1.
         11   -1    0    0    0    0 -0.00000000000E+00 -0.00000000000E+00 -0.45593999997E+02  0.45594000000E+02  0.51100000000E-03 0. -1.
    9900012    2    1    2    0    0  0.13489580200E+02 -0.71312158296E+00  0.12969204988E+02  0.72461612351E+02  0.70000054787E+02 0.  0.
         12    1    1    2    0    0 -0.13489580200E+02  0.71312158296E+00 -0.12969204988E+02  0.18726387649E+02  0.00000000000E+00 0. -1.
         11    1    3    3    0    0  0.73181241161E+01  0.11269291423E+01  0.17688879568E+02  0.19176062434E+02  0.51100000000E-03 0. -1.
        -11    1    3    3    0    0  0.11784432169E+02 -0.25675633325E+02 -0.55192299183E+01  0.28784942024E+02  0.51100000000E-03 0.  1.
         12    1    3    3    0    0 -0.56129760847E+01  0.23835582599E+02  0.79955533850E+00  0.24500607893E+02  0.00000000000E+00 0. -1.
</event>
<event>
 7    1  0.3020651E-013  0.7246160E+02  0.7816164E-02  0.1226708E+00
        -11   -1    0    0    0    0  0.00000000000E+00  0.00000000000E+00  0.45593999997E+02  0.45594000000E+02  0.51100000000E-03 0. -1.
         11   -1    0    0    0    0 -0.00000000000E+00 -0.00000000000E+00 -0.45593999997E+02  0.45594000000E+02  0.51100000000E-03 0.  1.
    9900012    2    1    2    0    0  0.81469771171E+01  0.15280960456E+02  0.71271988432E+01  0.72461602804E+02  0.70000042350E+02 0.  0.
         12    1    1    2    0    0 -0.81469771171E+01 -0.15280960456E+02 -0.71271988432E+01  0.18726397196E+02  0.00000000000E+00 0. -1.
         11    1    3    3    0    0 -0.21644792646E+02  0.10960464086E+01  0.34760363039E+01  0.21949514689E+02  0.51100000000E-03 0. -1.
        -11    1    3    3    0    0 -0.20318543652E+01  0.18024011292E+02  0.34150199181E+01  0.18456862586E+02  0.51100000000E-03 0.  1.
        -12    1    3    3    0    0  0.31823624129E+02 -0.38390972452E+01  0.23614262119E+00  0.32055225528E+02  0.00000000000E+00 0.  1.
</event>
<event>
 7    1  0.3020651E-013  0.7246159E+02  0.7816164E-02  0.1226708E+00
        -11   -1    0    0    0    0  0.00000000000E+00  0.00000000000E+00  0.45593999997E+02  0.45594000000E+02  0.51100000000E-03 0.  1.
         11   -1    0    0    0    0 -0.00000000000E+00 -0.00000000000E+00 -0.45593999997E+02  0.45594000000E+02  0.51100000000E-03 0. -1.
    9900012    2    1    2    0    0  0.13170693506E+02 -0.82619294029E+01  0.10437998758E+02  0.72461589160E+02  0.70000024576E+02 0.  0.
         12    1    1    2    0    0 -0.13170693506E+02  0.82619294029E+01 -0.10437998758E+02  0.18726410840E+02  0.00000000000E+00 0. -1.
         11    1    3    3    0    0  0.15131611812E+02 -0.18636435928E+01  0.93865830901E+01  0.17903820426E+02  0.51100000000E-03 0. -1.
        -11    1    3    3    0    0  0.18058373077E+02  0.63315220289E+01  0.17304892396E+02  0.25800238575E+02  0.51100000000E-03 0.  1.
        -12    1    3    3    0    0 -0.20019291383E+02 -0.12729807839E+02 -0.16253476729E+02  0.28757530159E+02  0.00000000000E+00 0.  1.
</event>
<event>
 7    1  0.3020651E-013  0.7246160E+02  0.7816164E-02  0.1226708E+00
        -11   -1    0    0    0    0  0.00000000000E+00  0.00000000000E+00  0.45593999997E+02  0.45594000000E+02  0.51100000000E-03 0.  1.
         11   -1    0    0    0    0 -0.00000000000E+00 -0.00000000000E+00 -0.45593999997E+02  0.45594000000E+02  0.51100000000E-03 0. -1.
    9900012    2    1    2    0    0  0.17716196918E+02  0.53683353928E+01  0.28276343638E+01  0.72461596869E+02  0.70000034619E+02 0.  0.
         12    1    1    2    0    0 -0.17716196918E+02 -0.53683353928E+01 -0.28276343638E+01  0.18726403131E+02  0.00000000000E+00 0. -1.
         11    1    3    3    0    0 -0.29767415136E+01 -0.37496521280E+01 -0.17224744059E+02  0.17877714879E+02  0.51100000000E-03 0. -1.
        -11    1    3    3    0    0  0.20767359708E+00  0.17117131561E+02 -0.80357997132E+01  0.18910668906E+02  0.51100000000E-03 0.  1.
        -12    1    3    3    0    0  0.20485264834E+02 -0.79991440399E+01  0.28088178136E+02  0.35673213084E+02  0.00000000000E+00 0.  1.
</event>
<event>
 7    1  0.3020651E-013  0.7246163E+02  0.7816164E-02  0.1226708E+00
        -11   -1    0    0    0    0  0.00000000000E+00  0.00000000000E+00  0.45593999997E+02  0.45594000000E+02  0.51100000000E-03 0.  1.
         11   -1    0    0    0    0 -0.00000000000E+00 -0.00000000000E+00 -0.45593999997E+02  0.45594000000E+02  0.51100000000E-03 0. -1.
    9900012    2    1    2    0    0 -0.15489645917E+02 -0.73885915217E+01  0.74937644323E+01  0.72461630339E+02  0.70000078219E+02 0.  0.
         12    1    1    2    0    0  0.15489645917E+02  0.73885915217E+01 -0.74937644323E+01  0.18726369661E+02  0.00000000000E+00 0. -1.
         11    1    3    3    0    0 -0.30431660493E+02 -0.14907516097E+02  0.63826211669E+01  0.34482718132E+02  0.51100000000E-03 0. -1.
        -11    1    3    3    0    0 -0.24022858895E+01  0.17039169559E+02 -0.37357790395E+01  0.17608529809E+02  0.51100000000E-03 0.  1.
         12    1    3    3    0    0  0.17344300466E+02 -0.95202449834E+01  0.48469223048E+01  0.20370382397E+02  0.00000000000E+00 0. -1.
</event>
<event>
 7    1  0.3020651E-013  0.7246165E+02  0.7816164E-02  0.1226708E+00
        -11   -1    0    0    0    0  0.00000000000E+00  0.00000000000E+00  0.45593999997E+02  0.45594000000E+02  0.51100000000E-03 0.  1.
         11   -1    0    0    0    0 -0.00000000000E+00 -0.00000000000E+00 -0.45593999997E+02  0.45594000000E+02  0.51100000000E-03 0. -1.
    9900012    2    1    2    0    0  0.16191366042E+01 -0.11590360647E+02  0.14619100966E+02  0.72461650214E+02  0.70000104110E+02 0.  0.
         12    1    1    2    0    0 -0.16191366042E+01  0.11590360647E+02 -0.14619100966E+02  0.18726349786E+02  0.00000000000E+00 0. -1.
         11    1    3    3    0    0  0.22311875812E+02  0.14939818825E+02  0.52701239280E+01  0.27364067593E+02  0.51100000000E-03 0. -1.
        -11    1    3    3    0    0 -0.85508103183E+00  0.59005051111E+01  0.25172333618E+01  0.64717531007E+01  0.51100000000E-03 0.  1.
         12    1    3    3    0    0 -0.19837658176E+02 -0.32430684583E+02  0.68317436758E+01  0.38625829520E+02  0.00000000000E+00 0. -1.
</event>
<event>
 7    1  0.3020651E-013  0.7246159E+02  0.7816164E-02  0.1226708E+00
        -11   -1    0    0    0    0  0.00000000000E+00  0.00000000000E+00  0.45593999997E+02  0.45594000000E+02  0.51100000000E-03 0.  1.
         11   -1    0    0    0    0 -0.00000000000E+00 -0.00000000000E+00 -0.45593999997E+02  0.45594000000E+02  0.51100000000E-03 0. -1.
    9900012    2    1    2    0    0 -0.17401236885E+02 -0.68556770009E+01  0.93549440718E+00  0.72461588116E+02  0.70000023216E+02 0.  0.
         12    1    1    2    0    0  0.17401236885E+02  0.68556770009E+01 -0.93549440718E+00  0.18726411884E+02  0.00000000000E+00 0. -1.
         11    1    3    3    0    0 -0.36307897030E+01 -0.23971921157E+02  0.17269417044E+02  0.29766901134E+02  0.51100000000E-03 0.  1.
        -11    1    3    3    0    0  0.67393683775E+01  0.13122234331E+02 -0.16047582993E+02  0.21797638408E+02  0.51100000000E-03 0. -1.
        -12    1    3    3    0    0 -0.20509815559E+02  0.39940098248E+01 -0.28633964354E+00  0.20897048575E+02  0.00000000000E+00 0.  1.
</event>
<event>
 7    1  0.3020651E-013  0.7246159E+02  0.7816164E-02  0.1226708E+00
        -11   -1    0    0    0    0  0.00000000000E+00  0.00000000000E+00  0.45593999997E+02  0.45594000000E+02  0.51100000000E-03 0.  1.
         11   -1    0    0    0    0 -0.00000000000E+00 -0.00000000000E+00 -0.45593999997E+02  0.45594000000E+02  0.51100000000E-03 0. -1.
    9900012    2    1    2    0    0 -0.79803421592E+01 -0.16939716785E+02  0.19624325750E+00  0.72461591451E+02  0.70000027560E+02 0.  0.
         12    1    1    2    0    0  0.79803421592E+01  0.16939716785E+02 -0.19624325750E+00  0.18726408549E+02  0.00000000000E+00 0. -1.
         11    1    3    3    0    0  0.68839295123E+00 -0.84146649095E+01 -0.16460920135E+02  0.18499793576E+02  0.51100000000E-03 0. -1.
        -11    1    3    3    0    0 -0.15269816976E+01  0.15874136197E+02 -0.86058307508E+01  0.18121263650E+02  0.51100000000E-03 0.  1.
        -12    1    3    3    0    0 -0.71417534129E+01 -0.24399188073E+02  0.25262994144E+02  0.35840534225E+02  0.00000000000E+00 0.  1.
</event>
<event>
 7    1  0.3020651E-013  0.7246167E+02  0.7816164E-02  0.1226708E+00
        -11   -1    0    0    0    0  0.00000000000E+00  0.00000000000E+00  0.45593999997E+02  0.45594000000E+02  0.51100000000E-03 0. -1.
         11   -1    0    0    0    0 -0.00000000000E+00 -0.00000000000E+00 -0.45593999997E+02  0.45594000000E+02  0.51100000000E-03 0.  1.
    9900012    2    1    2    0    0 -0.10249262855E+02 -0.74392054210E+00 -0.15654854219E+02  0.72461674480E+02  0.70000135721E+02 0.  0.
         12    1    1    2    0    0  0.10249262855E+02  0.74392054210E+00  0.15654854219E+02  0.18726325520E+02  0.00000000000E+00 0. -1.
         11    1    3    3    0    0 -0.28241570784E+01 -0.23157862305E+01 -0.58248591069E+01  0.68751518489E+01  0.51100000000E-03 0. -1.
        -11    1    3    3    0    0 -0.19634438372E+02 -0.17813982328E+02 -0.26320988961E+02  0.37358313622E+02  0.51100000000E-03 0.  1.
         12    1    3    3    0    0  0.12209332595E+02  0.19385848016E+02  0.16490993848E+02  0.28228209009E+02  0.00000000000E+00 0. -1.
</event>
<event>
 7    1  0.3020651E-013  0.7246157E+02  0.7816164E-02  0.1226708E+00
        -11   -1    0    0    0    0  0.00000000000E+00  0.00000000000E+00  0.45593999997E+02  0.45594000000E+02  0.51100000000E-03 0. -1.
         11   -1    0    0    0    0 -0.00000000000E+00 -0.00000000000E+00 -0.45593999997E+02  0.45594000000E+02  0.51100000000E-03 0.  1.
    9900012    2    1    2    0    0  0.15347925383E+02  0.43609063629E+01 -0.98032146030E+01  0.72461565891E+02  0.69999994264E+02 0.  0.
         12    1    1    2    0    0 -0.15347925383E+02 -0.43609063629E+01  0.98032146030E+01  0.18726434109E+02  0.00000000000E+00 0. -1.
         11    1    3    3    0    0  0.98891247835E+01  0.22227514123E+01  0.15049014331E+01  0.10246957666E+02  0.51100000000E-03 0. -1.
        -11    1    3    3    0    0  0.97616187652E+01 -0.25587943250E+02 -0.18745371474E+02  0.33187663259E+02  0.51100000000E-03 0.  1.
         12    1    3    3    0    0 -0.43028181653E+01  0.27726098201E+02  0.74372554376E+01  0.29026944966E+02  0.00000000000E+00 0. -1.
</event>
<event>
 7    1  0.3020651E-013  0.7246120E+02  0.7816164E-02  0.1226709E+00
        -11   -1    0    0    0    0  0.00000000000E+00  0.00000000000E+00  0.45593999997E+02  0.45594000000E+02  0.51100000000E-03 0.  1.
         11   -1    0    0    0    0 -0.00000000000E+00 -0.00000000000E+00 -0.45593999997E+02  0.45594000000E+02  0.51100000000E-03 0. -1.
    9900012    2    1    2    0    0  0.42890978298E+01 -0.15928615852E+02  0.88643103763E+01  0.72461196707E+02  0.69999513331E+02 0.  0.
         12    1    1    2    0    0 -0.42890978298E+01  0.15928615852E+02 -0.88643103763E+01  0.18726803293E+02  0.00000000000E+00 0. -1.
         11    1    3    3    0    0 -0.13312922190E+02 -0.63845173914E+01 -0.98734227022E+00  0.14797662133E+02  0.51100000000E-03 0. -1.
        -11    1    3    3    0    0 -0.11712674680E+02  0.13649685953E+02  0.93687599161E+01  0.20279899837E+02  0.51100000000E-03 0.  1.
         12    1    3    3    0    0  0.29314694700E+02 -0.23193784413E+02  0.48289273036E+00  0.37383634737E+02  0.00000000000E+00 0. -1.
</event>
<event>
 7    1  0.3020651E-013  0.7246160E+02  0.7816164E-02  0.1226708E+00
        -11   -1    0    0    0    0  0.00000000000E+00  0.00000000000E+00  0.45593999997E+02  0.45594000000E+02  0.51100000000E-03 0. -1.
         11   -1    0    0    0    0 -0.00000000000E+00 -0.00000000000E+00 -0.45593999997E+02  0.45594000000E+02  0.51100000000E-03 0.  1.
    9900012    2    1    2    0    0  0.12537661105E+02  0.80921149012E+01 -0.11313827221E+02  0.72461602697E+02  0.70000042210E+02 0.  0.
         12    1    1    2    0    0 -0.12537661105E+02 -0.80921149012E+01  0.11313827221E+02  0.18726397303E+02  0.00000000000E+00 0. -1.
         11    1    3    3    0    0 -0.73249650036E+01  0.16287612581E+02  0.28250504168E+01  0.18080994055E+02  0.51100000000E-03 0. -1.
        -11    1    3    3    0    0 -0.86450694605E+01 -0.51927647810E+01  0.11938870601E+02  0.15628136918E+02  0.51100000000E-03 0.  1.
        -12    1    3    3    0    0  0.28507695569E+02 -0.30027328987E+01 -0.26077748239E+02  0.38752471724E+02  0.00000000000E+00 0.  1.
</event>
<event>
 7    1  0.3020651E-013  0.7246151E+02  0.7816164E-02  0.1226708E+00
        -11   -1    0    0    0    0  0.00000000000E+00  0.00000000000E+00  0.45593999997E+02  0.45594000000E+02  0.51100000000E-03 0. -1.
         11   -1    0    0    0    0 -0.00000000000E+00 -0.00000000000E+00 -0.45593999997E+02  0.45594000000E+02  0.51100000000E-03 0.  1.
    9900012    2    1    2    0    0 -0.33389241017E+01  0.53982777842E+01 -0.17617931474E+02  0.72461512700E+02  0.69999924972E+02 0.  0.
         12    1    1    2    0    0  0.33389241017E+01 -0.53982777842E+01  0.17617931474E+02  0.18726487300E+02  0.00000000000E+00 0. -1.
         11    1    3    3    0    0 -0.14971217458E+02  0.10892618973E+02 -0.68003638951E+00  0.18526978977E+02  0.51100000000E-03 0. -1.
        -11    1    3    3    0    0 -0.11139515251E+02  0.14870166899E+02 -0.13960812774E+02  0.23240373431E+02  0.51100000000E-03 0.  1.
         12    1    3    3    0    0  0.22771808607E+02 -0.20364508088E+02 -0.29770823098E+01  0.30694160291E+02  0.00000000000E+00 0. -1.
</event>
<event>
 7    1  0.3020651E-013  0.7246153E+02  0.7816164E-02  0.1226708E+00
        -11   -1    0    0    0    0  0.00000000000E+00  0.00000000000E+00  0.45593999997E+02  0.45594000000E+02  0.51100000000E-03 0. -1.
         11   -1    0    0    0    0 -0.00000000000E+00 -0.00000000000E+00 -0.45593999997E+02  0.45594000000E+02  0.51100000000E-03 0.  1.
    9900012    2    1    2    0    0 -0.85864331933E+00 -0.18687391405E+02 -0.85127457729E+00  0.72461533855E+02  0.69999952531E+02 0.  0.
         12    1    1    2    0    0  0.85864331933E+00  0.18687391405E+02  0.85127457729E+00  0.18726466145E+02  0.00000000000E+00 0. -1.
         11    1    3    3    0    0  0.24519051819E+02 -0.95814243138E+01  0.39770967552E+01  0.26623389958E+02  0.51100000000E-03 0. -1.
        -11    1    3    3    0    0 -0.12218309753E+02 -0.12978977649E+02  0.13913527910E+02  0.22612545482E+02  0.51100000000E-03 0.  1.
         12    1    3    3    0    0 -0.13159385386E+02  0.38730105576E+01 -0.18741899243E+02  0.23225598415E+02  0.00000000000E+00 0. -1.
</event>
<event>
 7    1  0.3020651E-013  0.7246159E+02  0.7816164E-02  0.1226708E+00
        -11   -1    0    0    0    0  0.00000000000E+00  0.00000000000E+00  0.45593999997E+02  0.45594000000E+02  0.51100000000E-03 0.  1.
         11   -1    0    0    0    0 -0.00000000000E+00 -0.00000000000E+00 -0.45593999997E+02  0.45594000000E+02  0.51100000000E-03 0. -1.
    9900012    2    1    2    0    0  0.13476114777E+02 -0.97291207705E+01  0.86265247881E+01  0.72461591098E+02  0.70000027100E+02 0.  0.
         12    1    1    2    0    0 -0.13476114777E+02  0.97291207705E+01 -0.86265247881E+01  0.18726408902E+02  0.00000000000E+00 0. -1.
         11    1    3    3    0    0 -0.54335305717E+01 -0.32482684818E+02 -0.14496241532E+01  0.32965883545E+02  0.51100000000E-03 0. -1.
        -11    1    3    3    0    0  0.31498836480E+01 -0.47786874728E+01 -0.11620736697E+01  0.58402085950E+01  0.51100000000E-03 0.  1.
        -12    1    3    3    0    0  0.15759761701E+02  0.27532251520E+02  0.11238222611E+02  0.33655498958E+02  0.00000000000E+00 0.  1.
</event>
<event>
 7    1  0.3020651E-013  0.7246172E+02  0.7816164E-02  0.1226708E+00
        -11   -1    0    0    0    0  0.00000000000E+00  0.00000000000E+00  0.45593999997E+02  0.45594000000E+02  0.51100000000E-03 0.  1.
         11   -1    0    0    0    0 -0.00000000000E+00 -0.00000000000E+00 -0.45593999997E+02  0.45594000000E+02  0.51100000000E-03 0. -1.
    9900012    2    1    2    0    0 -0.89588723717E+00  0.18662412243E+02  0.12590369599E+01  0.72461723842E+02  0.70000200024E+02 0.  0.
         12    1    1    2    0    0  0.89588723717E+00 -0.18662412243E+02 -0.12590369599E+01  0.18726276158E+02  0.00000000000E+00 0. -1.
         11    1    3    3    0    0  0.17374333585E+01 -0.56697884264E+01 -0.91396140208E+01  0.10894848332E+02  0.51100000000E-03 0. -1.
        -11    1    3    3    0    0 -0.16183776583E+02 -0.83633123637E+01 -0.99343215371E+01  0.20749707536E+02  0.51100000000E-03 0.  1.
         12    1    3    3    0    0  0.13550455987E+02  0.32695513033E+02  0.20332972518E+02  0.40817167973E+02  0.00000000000E+00 0. -1.
</event>
<event>
 7    1  0.3020651E-013  0.7246161E+02  0.7816164E-02  0.1226708E+00
        -11   -1    0    0    0    0  0.00000000000E+00  0.00000000000E+00  0.45593999997E+02  0.45594000000E+02  0.51100000000E-03 0.  1.
         11   -1    0    0    0    0 -0.00000000000E+00 -0.00000000000E+00 -0.45593999997E+02  0.45594000000E+02  0.51100000000E-03 0. -1.
    9900012    2    1    2    0    0  0.11679582221E+01 -0.21088636628E+01  0.18570570920E+02  0.72461613892E+02  0.70000056794E+02 0.  0.
         12    1    1    2    0    0 -0.11679582221E+01  0.21088636628E+01 -0.18570570920E+02  0.18726386108E+02  0.00000000000E+00 0. -1.
         11    1    3    3    0    0 -0.11924959159E+02  0.11782000255E+02  0.11816173997E+01  0.16805249207E+02  0.51100000000E-03 0. -1.
        -11    1    3    3    0    0 -0.18322663653E+02 -0.83798329866E+01  0.11572730788E+02  0.23235096350E+02  0.51100000000E-03 0.  1.
        -12    1    3    3    0    0  0.31415581034E+02 -0.55110309308E+01  0.58162227321E+01  0.32421268336E+02  0.00000000000E+00 0.  1.
</event>
<event>
 7    1  0.3020651E-013  0.7246160E+02  0.7816164E-02  0.1226708E+00
        -11   -1    0    0    0    0  0.00000000000E+00  0.00000000000E+00  0.45593999997E+02  0.45594000000E+02  0.51100000000E-03 0.  1.
         11   -1    0    0    0    0 -0.00000000000E+00 -0.00000000000E+00 -0.45593999997E+02  0.45594000000E+02  0.51100000000E-03 0. -1.
    9900012    2    1    2    0    0  0.90604085584E+00 -0.18431949980E+02  0.31812717115E+01  0.72461596720E+02  0.70000034425E+02 0.  0.
         12    1    1    2    0    0 -0.90604085584E+00  0.18431949980E+02 -0.31812717115E+01  0.18726403280E+02  0.00000000000E+00 0. -1.
         11    1    3    3    0    0  0.11062112379E+02 -0.13959643453E+02 -0.14829317250E+02  0.23176510220E+02  0.51100000000E-03 0. -1.
        -11    1    3    3    0    0 -0.62442268976E+01 -0.16258771279E+02 -0.89647745998E+01  0.19588394445E+02  0.51100000000E-03 0.  1.
        -12    1    3    3    0    0 -0.39118446256E+01  0.11786464753E+02  0.26975363561E+02  0.29696692055E+02  0.00000000000E+00 0.  1.
</event>
<event>
 7    1  0.3020651E-013  0.7246159E+02  0.7816164E-02  0.1226708E+00
        -11   -1    0    0    0    0  0.00000000000E+00  0.00000000000E+00  0.45593999997E+02  0.45594000000E+02  0.51100000000E-03 0. -1.
         11   -1    0    0    0    0 -0.00000000000E+00 -0.00000000000E+00 -0.45593999997E+02  0.45594000000E+02  0.51100000000E-03 0.  1.
    9900012    2    1    2    0    0  0.13310187867E+02 -0.16529009780E+00 -0.13171566422E+02  0.72461585931E+02  0.70000020369E+02 0.  0.
         12    1    1    2    0    0 -0.13310187867E+02  0.16529009780E+00  0.13171566422E+02  0.18726414069E+02  0.00000000000E+00 0. -1.
         11    1    3    3    0    0 -0.11695493434E+02 -0.54904131601E+00  0.72575789042E+01  0.13775284565E+02  0.51100000000E-03 0. -1.
        -11    1    3    3    0    0 -0.72516791037E+01  0.11175321147E+02  0.69459980211E+01  0.15024032127E+02  0.51100000000E-03 0.  1.
        -12    1    3    3    0    0  0.32257360405E+02 -0.10791569929E+02 -0.27375143347E+02  0.43662269239E+02  0.00000000000E+00 0.  1.
</event>
<event>
 7    1  0.3020651E-013  0.7246158E+02  0.7816164E-02  0.1226708E+00
        -11   -1    0    0    0    0  0.00000000000E+00  0.00000000000E+00  0.45593999997E+02  0.45594000000E+02  0.51100000000E-03 0. -1.
         11   -1    0    0    0    0 -0.00000000000E+00 -0.00000000000E+00 -0.45593999997E+02  0.45594000000E+02  0.51100000000E-03 0.  1.
    9900012    2    1    2    0    0 -0.66995101019E+01  0.17249415245E+02 -0.28728127851E+01  0.72461579755E+02  0.70000012325E+02 0.  0.
         12    1    1    2    0    0  0.66995101019E+01 -0.17249415245E+02  0.28728127851E+01  0.18726420245E+02  0.00000000000E+00 0. -1.
         11    1    3    3    0    0 -0.11902778760E+01  0.11596708598E+02  0.12971414459E+02  0.17440126291E+02  0.51100000000E-03 0. -1.
        -11    1    3    3    0    0 -0.20405520080E+01  0.16575482036E+02  0.14793479326E+02  0.22310479333E+02  0.51100000000E-03 0.  1.
        -12    1    3    3    0    0 -0.34686802179E+01 -0.10922775389E+02 -0.30637706571E+02  0.32710974131E+02  0.00000000000E+00 0.  1.
</event>
<event>
 7    1  0.3020651E-013  0.7246147E+02  0.7816164E-02  0.1226708E+00
        -11   -1    0    0    0    0  0.00000000000E+00  0.00000000000E+00  0.45593999997E+02  0.45594000000E+02  0.51100000000E-03 0.  1.
         11   -1    0    0    0    0 -0.00000000000E+00 -0.00000000000E+00 -0.45593999997E+02  0.45594000000E+02  0.51100000000E-03 0. -1.
    9900012    2    1    2    0    0 -0.15497543476E+02 -0.61029679647E+01  0.85593817339E+01  0.72461465685E+02  0.69999863727E+02 0.  0.
         12    1    1    2    0    0  0.15497543476E+02  0.61029679647E+01 -0.85593817339E+01  0.18726534315E+02  0.00000000000E+00 0. -1.
         11    1    3    3    0    0 -0.13228666394E+02 -0.18452903514E+02  0.72238538452E+01  0.23826273886E+02  0.51100000000E-03 0. -1.
        -11    1    3    3    0    0  0.31495282618E+01 -0.15212027175E+01  0.22492439742E+02  0.22762764151E+02  0.51100000000E-03 0.  1.
         12    1    3    3    0    0 -0.54184053442E+01  0.13871138267E+02 -0.21156911853E+02  0.25872427649E+02  0.00000000000E+00 0. -1.
</event>
<event>
 7    1  0.3020651E-013  0.7246155E+02  0.7816164E-02  0.1226708E+00
        -11   -1    0    0    0    0  0.00000000000E+00  0.00000000000E+00  0.45593999997E+02  0.45594000000E+02  0.51100000000E-03 0. -1.
         11   -1    0    0    0    0 -0.00000000000E+00 -0.00000000000E+00 -0.45593999997E+02  0.45594000000E+02  0.51100000000E-03 0.  1.
    9900012    2    1    2    0    0  0.68375386142E+01  0.16318302131E+02  0.61352308117E+01  0.72461548765E+02  0.69999971954E+02 0.  0.
         12    1    1    2    0    0 -0.68375386142E+01 -0.16318302131E+02 -0.61352308117E+01  0.18726451235E+02  0.00000000000E+00 0. -1.
         11    1    3    3    0    0 -0.22850445914E+02  0.22895935386E+02  0.82203339604E+01  0.33375749076E+02  0.51100000000E-03 0. -1.
        -11    1    3    3    0    0 -0.35564232039E+01  0.27377213813E+01  0.12933081984E+00  0.44899878718E+01  0.51100000000E-03 0.  1.
        -12    1    3    3    0    0  0.33244407733E+02 -0.93153546361E+01 -0.22144339686E+01  0.34595811817E+02  0.00000000000E+00 0.  1.
</event>
<event>
 7    1  0.3020651E-013  0.7246149E+02  0.7816164E-02  0.1226708E+00
        -11   -1    0    0    0    0  0.00000000000E+00  0.00000000000E+00  0.45593999997E+02  0.45594000000E+02  0.51100000000E-03 0.  1.
         11   -1    0    0    0    0 -0.00000000000E+00 -0.00000000000E+00 -0.45593999997E+02  0.45594000000E+02  0.51100000000E-03 0. -1.
    9900012    2    1    2    0    0 -0.16748891288E+02  0.61570941388E+01 -0.56786562141E+01  0.72461486603E+02  0.69999890976E+02 0.  0.
         12    1    1    2    0    0  0.16748891288E+02 -0.61570941388E+01  0.56786562141E+01  0.18726513397E+02  0.00000000000E+00 0. -1.
         11    1    3    3    0    0 -0.39236760678E+00 -0.60304854499E+01 -0.11554053375E+02  0.13039051222E+02  0.51100000000E-03 0. -1.
        -11    1    3    3    0    0 -0.17207520639E+02  0.31501946037E+02 -0.64841759052E+01  0.36476237581E+02  0.51100000000E-03 0.  1.
         12    1    3    3    0    0  0.85099695715E+00 -0.19314366448E+02  0.12359573066E+02  0.22946197800E+02  0.00000000000E+00 0. -1.
</event>
<event>
 7    1  0.3020651E-013  0.7246163E+02  0.7816164E-02  0.1226708E+00
        -11   -1    0    0    0    0  0.00000000000E+00  0.00000000000E+00  0.45593999997E+02  0.45594000000E+02  0.51100000000E-03 0.  1.
         11   -1    0    0    0    0 -0.00000000000E+00 -0.00000000000E+00 -0.45593999997E+02  0.45594000000E+02  0.51100000000E-03 0. -1.
    9900012    2    1    2    0    0  0.48885267692E+01 -0.10746263146E+02  0.14536066431E+02  0.72461625741E+02  0.70000072230E+02 0.  0.
         12    1    1    2    0    0 -0.48885267692E+01  0.10746263146E+02 -0.14536066431E+02  0.18726374259E+02  0.00000000000E+00 0. -1.
         11    1    3    3    0    0  0.32746141897E+01 -0.93436961757E-01 -0.32495649687E+01  0.46142714815E+01  0.51100000000E-03 0. -1.
        -11    1    3    3    0    0  0.21947513739E+02  0.19119060833E+02  0.11255790787E+02  0.31207766228E+02  0.51100000000E-03 0.  1.
         12    1    3    3    0    0 -0.20333601160E+02 -0.29771887017E+02  0.65298406133E+01  0.36639588032E+02  0.00000000000E+00 0. -1.
</event>
<event>
 7    1  0.3020651E-013  0.7246154E+02  0.7816164E-02  0.1226708E+00
        -11   -1    0    0    0    0  0.00000000000E+00  0.00000000000E+00  0.45593999997E+02  0.45594000000E+02  0.51100000000E-03 0.  1.
         11   -1    0    0    0    0 -0.00000000000E+00 -0.00000000000E+00 -0.45593999997E+02  0.45594000000E+02  0.51100000000E-03 0. -1.
    9900012    2    1    2    0    0  0.30976607616E+01  0.16957456895E+02  0.73163954397E+01  0.72461535070E+02  0.69999954114E+02 0.  0.
         12    1    1    2    0    0 -0.30976607616E+01 -0.16957456895E+02 -0.73163954397E+01  0.18726464930E+02  0.00000000000E+00 0. -1.
         11    1    3    3    0    0  0.12494818363E+02  0.97451823556E+01  0.33095119044E+01  0.16187709362E+02  0.51100000000E-03 0. -1.
        -11    1    3    3    0    0  0.51519953455E+01  0.24631969885E+02  0.16764379333E+02  0.30237748116E+02  0.51100000000E-03 0.  1.
         12    1    3    3    0    0 -0.14549152947E+02 -0.17419695345E+02 -0.12757495798E+02  0.26036077593E+02  0.00000000000E+00 0. -1.
</event>
<event>
 7    1  0.3020651E-013  0.7246148E+02  0.7816164E-02  0.1226708E+00
        -11   -1    0    0    0    0  0.00000000000E+00  0.00000000000E+00  0.45593999997E+02  0.45594000000E+02  0.51100000000E-03 0.  1.
         11   -1    0    0    0    0 -0.00000000000E+00 -0.00000000000E+00 -0.45593999997E+02  0.45594000000E+02  0.51100000000E-03 0. -1.
    9900012    2    1    2    0    0  0.91052416272E+01 -0.12921538375E+02  0.10040466911E+02  0.72461479905E+02  0.69999882251E+02 0.  0.
         12    1    1    2    0    0 -0.91052416272E+01  0.12921538375E+02 -0.10040466911E+02  0.18726520095E+02  0.00000000000E+00 0. -1.
         11    1    3    3    0    0  0.10043437354E+02  0.62335341659E+01  0.28666226746E+01  0.12163268800E+02  0.51100000000E-03 0. -1.
        -11    1    3    3    0    0  0.25072111147E+02  0.35747582641E+01  0.28027014782E+01  0.25480282374E+02  0.51100000000E-03 0.  1.
         12    1    3    3    0    0 -0.26010306874E+02 -0.22729830805E+02  0.43711427583E+01  0.34817928731E+02  0.00000000000E+00 0. -1.
</event>
<event>
 7    1  0.3020651E-013  0.7246165E+02  0.7816164E-02  0.1226708E+00
        -11   -1    0    0    0    0  0.00000000000E+00  0.00000000000E+00  0.45593999997E+02  0.45594000000E+02  0.51100000000E-03 0.  1.
         11   -1    0    0    0    0 -0.00000000000E+00 -0.00000000000E+00 -0.45593999997E+02  0.45594000000E+02  0.51100000000E-03 0. -1.
    9900012    2    1    2    0    0  0.94404718441E+01 -0.45680400284E+01  0.15514076447E+02  0.72461653150E+02  0.70000107934E+02 0.  0.
         12    1    1    2    0    0 -0.94404718441E+01  0.45680400284E+01 -0.15514076447E+02  0.18726346850E+02  0.00000000000E+00 0. -1.
         11    1    3    3    0    0  0.17218596678E+02  0.24529970492E+01  0.18115721644E+02  0.25113276111E+02  0.51100000000E-03 0. -1.
        -11    1    3    3    0    0  0.10657853348E+02 -0.27474417512E+01  0.16903663212E+02  0.20171070978E+02  0.51100000000E-03 0.  1.
         12    1    3    3    0    0 -0.18435978183E+02 -0.42735953265E+01 -0.19505308409E+02  0.27177306060E+02  0.00000000000E+00 0. -1.
</event>
<event>
 7    1  0.3020651E-013  0.7246157E+02  0.7816164E-02  0.1226708E+00
        -11   -1    0    0    0    0  0.00000000000E+00  0.00000000000E+00  0.45593999997E+02  0.45594000000E+02  0.51100000000E-03 0. -1.
         11   -1    0    0    0    0 -0.00000000000E+00 -0.00000000000E+00 -0.45593999997E+02  0.45594000000E+02  0.51100000000E-03 0.  1.
    9900012    2    1    2    0    0  0.88858466493E+01  0.34489088173E+01 -0.16119117368E+02  0.72461569816E+02  0.69999999377E+02 0.  0.
         12    1    1    2    0    0 -0.88858466493E+01 -0.34489088173E+01  0.16119117368E+02  0.18726430184E+02  0.00000000000E+00 0. -1.
         11    1    3    3    0    0 -0.11057549242E+02 -0.55487028601E+01  0.13918604782E+02  0.18622165772E+02  0.51100000000E-03 0. -1.
        -11    1    3    3    0    0  0.16855784911E+02 -0.13610094884E+02 -0.17171071750E+02  0.27644129088E+02  0.51100000000E-03 0.  1.
        -12    1    3    3    0    0  0.30876109807E+01  0.22607706562E+02 -0.12866650400E+02  0.26195274957E+02  0.00000000000E+00 0.  1.
</event>
<event>
 7    1  0.3020651E-013  0.7246155E+02  0.7816164E-02  0.1226708E+00
        -11   -1    0    0    0    0  0.00000000000E+00  0.00000000000E+00  0.45593999997E+02  0.45594000000E+02  0.51100000000E-03 0.  1.
         11   -1    0    0    0    0 -0.00000000000E+00 -0.00000000000E+00 -0.45593999997E+02  0.45594000000E+02  0.51100000000E-03 0. -1.
    9900012    2    1    2    0    0 -0.11660539168E+02 -0.14081944559E+02  0.40510115240E+01  0.72461547303E+02  0.69999970049E+02 0.  0.
         12    1    1    2    0    0  0.11660539168E+02  0.14081944559E+02 -0.40510115240E+01  0.18726452697E+02  0.00000000000E+00 0. -1.
         11    1    3    3    0    0  0.18970021192E+02  0.98663584379E+01  0.18363059647E+02  0.28185256655E+02  0.51100000000E-03 0. -1.
        -11    1    3    3    0    0  0.15325116851E+01 -0.28784312016E+01 -0.34859096400E-01  0.32611613982E+01  0.51100000000E-03 0.  1.
        -12    1    3    3    0    0 -0.32163072045E+02 -0.21069871795E+02 -0.14277189026E+02  0.41015129250E+02  0.00000000000E+00 0.  1.
</event>
<event>
 7    1  0.3020651E-013  0.7246159E+02  0.7816164E-02  0.1226708E+00
        -11   -1    0    0    0    0  0.00000000000E+00  0.00000000000E+00  0.45593999997E+02  0.45594000000E+02  0.51100000000E-03 0.  1.
         11   -1    0    0    0    0 -0.00000000000E+00 -0.00000000000E+00 -0.45593999997E+02  0.45594000000E+02  0.51100000000E-03 0. -1.
    9900012    2    1    2    0    0 -0.13449125460E+02 -0.11260886207E+02  0.65568285073E+01  0.72461587266E+02  0.70000022109E+02 0.  0.
         12    1    1    2    0    0  0.13449125460E+02  0.11260886207E+02 -0.65568285073E+01  0.18726412734E+02  0.00000000000E+00 0. -1.
         11    1    3    3    0    0  0.47438831796E+00 -0.67708113504E+00 -0.34236800345E+00  0.89481799856E+00  0.51100000000E-03 0. -1.
        -11    1    3    3    0    0  0.16905639374E+02 -0.28842823680E+02  0.11690724022E+02  0.35417257783E+02  0.51100000000E-03 0.  1.
        -12    1    3    3    0    0 -0.30829153153E+02  0.18259018608E+02 -0.47915275115E+01  0.36149511484E+02  0.00000000000E+00 0.  1.
</event>
<event>
 7    1  0.3020651E-013  0.7246158E+02  0.7816164E-02  0.1226708E+00
        -11   -1    0    0    0    0  0.00000000000E+00  0.00000000000E+00  0.45593999997E+02  0.45594000000E+02  0.51100000000E-03 0. -1.
         11   -1    0    0    0    0 -0.00000000000E+00 -0.00000000000E+00 -0.45593999997E+02  0.45594000000E+02  0.51100000000E-03 0.  1.
    9900012    2    1    2    0    0 -0.99847148125E+01 -0.14788473588E+02  0.56820190721E+01  0.72461579582E+02  0.70000012099E+02 0.  0.
         12    1    1    2    0    0  0.99847148125E+01  0.14788473588E+02 -0.56820190721E+01  0.18726420418E+02  0.00000000000E+00 0. -1.
         11    1    3    3    0    0  0.51902236997E+01  0.49397153631E+01 -0.86936314504E+00  0.72176867804E+01  0.51100000000E-03 0.  1.
        -11    1    3    3    0    0  0.15029704708E+02  0.11779552770E+02 -0.56670566235E+01  0.19918971311E+02  0.51100000000E-03 0. -1.
         12    1    3    3    0    0 -0.30204643220E+02 -0.31507741720E+02  0.12218438841E+02  0.45324921490E+02  0.00000000000E+00 0. -1.
</event>
<event>
 7    1  0.3250961E-013  0.7246161E+02  0.7816164E-02  0.1226708E+00
        -11   -1    0    0    0    0  0.00000000000E+00  0.00000000000E+00  0.45593999997E+02  0.45594000000E+02  0.51100000000E-03 0. -1.
         11   -1    0    0    0    0 -0.00000000000E+00 -0.00000000000E+00 -0.45593999997E+02  0.45594000000E+02  0.51100000000E-03 0.  1.
    9900012    2    1    2    0    0  0.86410027624E+01 -0.22171487993E+01 -0.16464961875E+02  0.72461610944E+02  0.70000052954E+02 0.  0.
         12    1    1    2    0    0 -0.86410027624E+01  0.22171487993E+01  0.16464961875E+02  0.18726389056E+02  0.00000000000E+00 0. -1.
         11    1    3    3    0    0  0.93388863768E+01 -0.16653610046E+02  0.18969034158E+02  0.26914341594E+02  0.51100000000E-03 0. -1.
        -11    1    3    3    0    0  0.84327522545E+01 -0.17291844250E+01 -0.51675534278E+01  0.10040169224E+02  0.51100000000E-03 0.  1.
        -12    1    3    3    0    0 -0.91306358689E+01  0.16165645672E+02 -0.30266442605E+02  0.35507100125E+02  0.00000000000E+00 0.  1.
</event>
<event>
 7    1  0.3020651E-013  0.7246149E+02  0.7816164E-02  0.1226708E+00
        -11   -1    0    0    0    0  0.00000000000E+00  0.00000000000E+00  0.45593999997E+02  0.45594000000E+02  0.51100000000E-03 0. -1.
         11   -1    0    0    0    0 -0.00000000000E+00 -0.00000000000E+00 -0.45593999997E+02  0.45594000000E+02  0.51100000000E-03 0.  1.
    9900012    2    1    2    0    0 -0.62585180412E+01  0.15423204195E+02 -0.85812588260E+01  0.72461487278E+02  0.69999891855E+02 0.  0.
         12    1    1    2    0    0  0.62585180412E+01 -0.15423204195E+02  0.85812588260E+01  0.18726512722E+02  0.00000000000E+00 0. -1.
         11    1    3    3    0    0 -0.13338752494E+02  0.43336506194E+01  0.30986336421E+01  0.14363299638E+02  0.51100000000E-03 0. -1.
        -11    1    3    3    0    0  0.21857212389E+02  0.26708566281E+02 -0.21487384341E+01  0.34578928892E+02  0.51100000000E-03 0.  1.
         12    1    3    3    0    0 -0.14776977936E+02 -0.15619012706E+02 -0.95311540339E+01  0.23519258748E+02  0.00000000000E+00 0. -1.
</event>
<event>
 7    1  0.3020651E-013  0.7246166E+02  0.7816164E-02  0.1226708E+00
        -11   -1    0    0    0    0  0.00000000000E+00  0.00000000000E+00  0.45593999997E+02  0.45594000000E+02  0.51100000000E-03 0.  1.
         11   -1    0    0    0    0 -0.00000000000E+00 -0.00000000000E+00 -0.45593999997E+02  0.45594000000E+02  0.51100000000E-03 0. -1.
    9900012    2    1    2    0    0  0.61232279008E+01  0.74144209771E-02  0.17696946714E+02  0.72461657648E+02  0.70000113794E+02 0.  0.
         12    1    1    2    0    0 -0.61232279008E+01 -0.74144209771E-02 -0.17696946714E+02  0.18726342352E+02  0.00000000000E+00 0. -1.
         11    1    3    3    0    0  0.25390903337E+00  0.14604746728E-01  0.27020565902E+01  0.27139994793E+01  0.51100000000E-03 0. -1.
        -11    1    3    3    0    0  0.26315854901E+02  0.11056697288E+02  0.30523303454E+02  0.41790511221E+02  0.51100000000E-03 0.  1.
         12    1    3    3    0    0 -0.20446536033E+02 -0.11063887614E+02 -0.15528413330E+02  0.27957146948E+02  0.00000000000E+00 0. -1.
</event>
<event>
 7    1  0.3020651E-013  0.7246153E+02  0.7816164E-02  0.1226708E+00
        -11   -1    0    0    0    0  0.00000000000E+00  0.00000000000E+00  0.45593999997E+02  0.45594000000E+02  0.51100000000E-03 0.  1.
         11   -1    0    0    0    0 -0.00000000000E+00 -0.00000000000E+00 -0.45593999997E+02  0.45594000000E+02  0.51100000000E-03 0. -1.
    9900012    2    1    2    0    0 -0.98994885020E-01  0.18334465583E+02  0.38102720638E+01  0.72461532063E+02  0.69999950197E+02 0.  0.
         12    1    1    2    0    0  0.98994885020E-01 -0.18334465583E+02 -0.38102720638E+01  0.18726467937E+02  0.00000000000E+00 0. -1.
         11    1    3    3    0    0  0.12052812798E+02  0.84170186521E+01  0.26974773010E+01  0.14946333443E+02  0.51100000000E-03 0. -1.
        -11    1    3    3    0    0  0.11503946510E+02  0.16232616982E+02  0.18751013586E+02  0.27339333389E+02  0.51100000000E-03 0.  1.
         12    1    3    3    0    0 -0.23655754193E+02 -0.63151700518E+01 -0.17638218823E+02  0.30175865232E+02  0.00000000000E+00 0. -1.
</event>
<event>
 7    1  0.3020651E-013  0.7246158E+02  0.7816164E-02  0.1226708E+00
        -11   -1    0    0    0    0  0.00000000000E+00  0.00000000000E+00  0.45593999997E+02  0.45594000000E+02  0.51100000000E-03 0. -1.
         11   -1    0    0    0    0 -0.00000000000E+00 -0.00000000000E+00 -0.45593999997E+02  0.45594000000E+02  0.51100000000E-03 0.  1.
    9900012    2    1    2    0    0  0.17890545835E+02 -0.18237160928E+01 -0.52231589634E+01  0.72461575883E+02  0.70000007280E+02 0.  0.
         12    1    1    2    0    0 -0.17890545835E+02  0.18237160928E+01  0.52231589634E+01  0.18726424117E+02  0.00000000000E+00 0. -1.
         11    1    3    3    0    0  0.88188883909E+01 -0.72293402321E+01 -0.14119428362E+01  0.11490419291E+02  0.51100000000E-03 0. -1.
        -11    1    3    3    0    0  0.31748019907E+02 -0.97095362001E+01 -0.55640062172E+01  0.33662590908E+02  0.51100000000E-03 0.  1.
         12    1    3    3    0    0 -0.22676362463E+02  0.15115160339E+02  0.17527900900E+01  0.27308565684E+02  0.00000000000E+00 0. -1.
</event>
<event>
 7    1  0.3020651E-013  0.7246157E+02  0.7816164E-02  0.1226708E+00
        -11   -1    0    0    0    0  0.00000000000E+00  0.00000000000E+00  0.45593999997E+02  0.45594000000E+02  0.51100000000E-03 0.  1.
         11   -1    0    0    0    0 -0.00000000000E+00 -0.00000000000E+00 -0.45593999997E+02  0.45594000000E+02  0.51100000000E-03 0. -1.
    9900012    2    1    2    0    0 -0.18678944083E+02 -0.22348412443E-01  0.13325601086E+01  0.72461570336E+02  0.70000000055E+02 0.  0.
         12    1    1    2    0    0  0.18678944083E+02  0.22348412443E-01 -0.13325601086E+01  0.18726429664E+02  0.00000000000E+00 0. -1.
         11    1    3    3    0    0  0.65262572744E+01  0.70654379962E+01 -0.21454013270E+02  0.23511425600E+02  0.51100000000E-03 0. -1.
        -11    1    3    3    0    0 -0.10406336755E+02  0.13905633201E+02  0.11894933005E+02  0.21051078615E+02  0.51100000000E-03 0.  1.
        -12    1    3    3    0    0 -0.14798864602E+02 -0.20993419610E+02  0.10891640373E+02  0.27899066121E+02  0.00000000000E+00 0.  1.
</event>
<event>
 7    1  0.3020651E-013  0.7246159E+02  0.7816164E-02  0.1226708E+00
        -11   -1    0    0    0    0  0.00000000000E+00  0.00000000000E+00  0.45593999997E+02  0.45594000000E+02  0.51100000000E-03 0. -1.
         11   -1    0    0    0    0 -0.00000000000E+00 -0.00000000000E+00 -0.45593999997E+02  0.45594000000E+02  0.51100000000E-03 0.  1.
    9900012    2    1    2    0    0 -0.11566224333E+02  0.18125322168E+01 -0.14615590142E+02  0.72461593683E+02  0.70000030468E+02 0.  0.
         12    1    1    2    0    0  0.11566224333E+02 -0.18125322168E+01  0.14615590142E+02  0.18726406317E+02  0.00000000000E+00 0. -1.
         11    1    3    3    0    0 -0.88811437907E+01 -0.30404005423E+02 -0.11765198183E+02  0.33789024096E+02  0.51100000000E-03 0. -1.
        -11    1    3    3    0    0 -0.23664103298E+01  0.68138885763E+01 -0.99546818048E+01  0.12293277247E+02  0.51100000000E-03 0.  1.
         12    1    3    3    0    0 -0.31867021274E+00  0.25402649063E+02  0.71042898460E+01  0.26379292340E+02  0.00000000000E+00 0. -1.
</event>
<event>
 7    1  0.3020651E-013  0.7246161E+02  0.7816164E-02  0.1226708E+00
        -11   -1    0    0    0    0  0.00000000000E+00  0.00000000000E+00  0.45593999997E+02  0.45594000000E+02  0.51100000000E-03 0. -1.
         11   -1    0    0    0    0 -0.00000000000E+00 -0.00000000000E+00 -0.45593999997E+02  0.45594000000E+02  0.51100000000E-03 0.  1.
    9900012    2    1    2    0    0  0.11063415841E+02  0.13311655483E+02 -0.71469101603E+01  0.72461610422E+02  0.70000052274E+02 0.  0.
         12    1    1    2    0    0 -0.11063415841E+02 -0.13311655483E+02  0.71469101603E+01  0.18726389578E+02  0.00000000000E+00 0. -1.
         11    1    3    3    0    0  0.11135362972E+02 -0.15450511957E+02 -0.21737818573E+02  0.28900646789E+02  0.51100000000E-03 0.  1.
        -11    1    3    3    0    0 -0.99411462983E+01  0.11560735319E+02 -0.46387696329E+01  0.15937226070E+02  0.51100000000E-03 0. -1.
        -12    1    3    3    0    0  0.98691991675E+01  0.17201432121E+02  0.19229678046E+02  0.27623737563E+02  0.00000000000E+00 0.  1.
</event>
<event>
 7    1  0.3020651E-013  0.7246097E+02  0.7816164E-02  0.1226710E+00
        -11   -1    0    0    0    0  0.00000000000E+00  0.00000000000E+00  0.45593999997E+02  0.45594000000E+02  0.51100000000E-03 0. -1.
         11   -1    0    0    0    0 -0.00000000000E+00 -0.00000000000E+00 -0.45593999997E+02  0.45594000000E+02  0.51100000000E-03 0.  1.
    9900012    2    1    2    0    0 -0.17554878789E+02 -0.30789186365E+00 -0.65140720587E+01  0.72460968695E+02  0.69999216301E+02 0.  0.
         12    1    1    2    0    0  0.17554878789E+02  0.30789186365E+00  0.65140720587E+01  0.18727031305E+02  0.00000000000E+00 0. -1.
         11    1    3    3    0    0  0.11768269787E+02  0.26254434471E+01 -0.16635709218E+02  0.20545849910E+02  0.51100000000E-03 0. -1.
        -11    1    3    3    0    0 -0.46109597596E+01  0.11898719491E+02 -0.10459305975E+02  0.16499622940E+02  0.51100000000E-03 0.  1.
         12    1    3    3    0    0 -0.24712188816E+02 -0.14832054801E+02  0.20580943134E+02  0.35415495846E+02  0.00000000000E+00 0. -1.
</event>
<event>
 7    1  0.3020651E-013  0.7246163E+02  0.7816164E-02  0.1226708E+00
        -11   -1    0    0    0    0  0.00000000000E+00  0.00000000000E+00  0.45593999997E+02  0.45594000000E+02  0.51100000000E-03 0. -1.
         11   -1    0    0    0    0 -0.00000000000E+00 -0.00000000000E+00 -0.45593999997E+02  0.45594000000E+02  0.51100000000E-03 0.  1.
    9900012    2    1    2    0    0 -0.10982793846E+00 -0.17645501217E+02 -0.62690645050E+01  0.72461629686E+02  0.70000077369E+02 0.  0.
         12    1    1    2    0    0  0.10982793846E+00  0.17645501217E+02  0.62690645050E+01  0.18726370314E+02  0.00000000000E+00 0. -1.
         11    1    3    3    0    0  0.28778063186E+02 -0.19015219470E+02 -0.14293354608E+02  0.37337052353E+02  0.51100000000E-03 0. -1.
        -11    1    3    3    0    0  0.23963664371E+01  0.58843094802E+00 -0.82773394295E+00  0.26026845415E+01  0.51100000000E-03 0.  1.
        -12    1    3    3    0    0 -0.31284257561E+02  0.78128730565E+00  0.88520240462E+01  0.32521892791E+02  0.00000000000E+00 0.  1.
</event>
<event>
 7    1  0.3020651E-013  0.7246165E+02  0.7816164E-02  0.1226708E+00
        -11   -1    0    0    0    0  0.00000000000E+00  0.00000000000E+00  0.45593999997E+02  0.45594000000E+02  0.51100000000E-03 0.  1.
         11   -1    0    0    0    0 -0.00000000000E+00 -0.00000000000E+00 -0.45593999997E+02  0.45594000000E+02  0.51100000000E-03 0. -1.
    9900012    2    1    2    0    0 -0.30883692140E+01 -0.17978273128E+02 -0.42331717316E+01  0.72461653000E+02  0.70000107739E+02 0.  0.
         12    1    1    2    0    0  0.30883692140E+01  0.17978273128E+02  0.42331717316E+01  0.18726347000E+02  0.00000000000E+00 0. -1.
         11    1    3    3    0    0 -0.54823350505E+01 -0.16218794063E+02  0.85907904389E+01  0.19154815559E+02  0.51100000000E-03 0. -1.
        -11    1    3    3    0    0  0.16967759860E+02 -0.18886451006E+02 -0.16835136031E+02  0.30463498021E+02  0.51100000000E-03 0.  1.
         12    1    3    3    0    0 -0.14573794024E+02  0.17126971941E+02  0.40111738603E+01  0.22843339420E+02  0.00000000000E+00 0. -1.
</event>
<event>
 7    1  0.3020651E-013  0.7246152E+02  0.7816164E-02  0.1226708E+00
        -11   -1    0    0    0    0  0.00000000000E+00  0.00000000000E+00  0.45593999997E+02  0.45594000000E+02  0.51100000000E-03 0.  1.
         11   -1    0    0    0    0 -0.00000000000E+00 -0.00000000000E+00 -0.45593999997E+02  0.45594000000E+02  0.51100000000E-03 0. -1.
    9900012    2    1    2    0    0 -0.12605149785E+01  0.11391793012E+02  0.14809428199E+02  0.72461521163E+02  0.69999935998E+02 0.  0.
         12    1    1    2    0    0  0.12605149785E+01 -0.11391793012E+02 -0.14809428199E+02  0.18726478837E+02  0.00000000000E+00 0. -1.
         11    1    3    3    0    0  0.13829377417E+02  0.58741792765E+01 -0.11019656935E+02  0.18633048627E+02  0.51100000000E-03 0.  1.
        -11    1    3    3    0    0  0.27682718722E+01 -0.17698220499E+02  0.10630195965E+02  0.20830060117E+02  0.51100000000E-03 0. -1.
        -12    1    3    3    0    0 -0.17858164268E+02  0.23215834234E+02  0.15198889170E+02  0.32998412419E+02  0.00000000000E+00 0.  1.
</event>
<event>
 7    1  0.3020651E-013  0.7246165E+02  0.7816164E-02  0.1226708E+00
        -11   -1    0    0    0    0  0.00000000000E+00  0.00000000000E+00  0.45593999997E+02  0.45594000000E+02  0.51100000000E-03 0. -1.
         11   -1    0    0    0    0 -0.00000000000E+00 -0.00000000000E+00 -0.45593999997E+02  0.45594000000E+02  0.51100000000E-03 0.  1.
    9900012    2    1    2    0    0 -0.46337676796E+01 -0.63050700623E+01 -0.17013247641E+02  0.72461646733E+02  0.70000099575E+02 0.  0.
         12    1    1    2    0    0  0.46337676796E+01  0.63050700623E+01  0.17013247641E+02  0.18726353267E+02  0.00000000000E+00 0. -1.
         11    1    3    3    0    0 -0.31434372696E+02 -0.75468673945E+01 -0.13531899478E+02  0.35045503250E+02  0.51100000000E-03 0. -1.
        -11    1    3    3    0    0 -0.38596970814E+01 -0.28438059667E+01 -0.43486741042E+01  0.64726702884E+01  0.51100000000E-03 0.  1.
         12    1    3    3    0    0  0.30660302098E+02  0.40856032989E+01  0.86732594160E+00  0.30943473195E+02  0.00000000000E+00 0. -1.
</event>
<event>
 7    1  0.3020651E-013  0.7246158E+02  0.7816164E-02  0.1226708E+00
        -11   -1    0    0    0    0  0.00000000000E+00  0.00000000000E+00  0.45593999997E+02  0.45594000000E+02  0.51100000000E-03 0. -1.
         11   -1    0    0    0    0 -0.00000000000E+00 -0.00000000000E+00 -0.45593999997E+02  0.45594000000E+02  0.51100000000E-03 0.  1.
    9900012    2    1    2    0    0 -0.17498269242E+02 -0.48557793936E+01 -0.45728300790E+01  0.72461580296E+02  0.70000013030E+02 0.  0.
         12    1    1    2    0    0  0.17498269242E+02  0.48557793936E+01  0.45728300790E+01  0.18726419704E+02  0.00000000000E+00 0. -1.
         11    1    3    3    0    0 -0.46831625459E+00  0.19741065240E+01 -0.49750093437E+01  0.53728144314E+01  0.51100000000E-03 0. -1.
        -11    1    3    3    0    0 -0.23540627453E+02  0.15213373389E+02 -0.21511337906E+02  0.35331933566E+02  0.51100000000E-03 0.  1.
         12    1    3    3    0    0  0.65106744658E+01 -0.22043259307E+02  0.21913517171E+02  0.31756832299E+02  0.00000000000E+00 0. -1.
</event>
<event>
 7    1  0.3020651E-013  0.7246157E+02  0.7816164E-02  0.1226708E+00
        -11   -1    0    0    0    0  0.00000000000E+00  0.00000000000E+00  0.45593999997E+02  0.45594000000E+02  0.51100000000E-03 0.  1.
         11   -1    0    0    0    0 -0.00000000000E+00 -0.00000000000E+00 -0.45593999997E+02  0.45594000000E+02  0.51100000000E-03 0. -1.
    9900012    2    1    2    0    0  0.77275719808E+01 -0.10189166476E+02  0.13680083742E+02  0.72461570191E+02  0.69999999865E+02 0.  0.
         12    1    1    2    0    0 -0.77275719808E+01  0.10189166476E+02 -0.13680083742E+02  0.18726429809E+02  0.00000000000E+00 0. -1.
         11    1    3    3    0    0  0.86800409578E+01 -0.55295805301E+01 -0.10962662209E+02  0.15036599843E+02  0.51100000000E-03 0.  1.
        -11    1    3    3    0    0 -0.85336656648E+01  0.35800463893E+01 -0.14228526039E+02  0.16973247636E+02  0.51100000000E-03 0. -1.
        -12    1    3    3    0    0  0.75811966879E+01 -0.82396323353E+01  0.38871271990E+02  0.40451722712E+02  0.00000000000E+00 0.  1.
</event>
<event>
 7    1  0.3020651E-013  0.7246159E+02  0.7816164E-02  0.1226708E+00
        -11   -1    0    0    0    0  0.00000000000E+00  0.00000000000E+00  0.45593999997E+02  0.45594000000E+02  0.51100000000E-03 0. -1.
         11   -1    0    0    0    0 -0.00000000000E+00 -0.00000000000E+00 -0.45593999997E+02  0.45594000000E+02  0.51100000000E-03 0.  1.
    9900012    2    1    2    0    0 -0.10646995979E+02  0.13086302809E+02 -0.81282473876E+01  0.72461594841E+02  0.70000031976E+02 0.  0.
         12    1    1    2    0    0  0.10646995979E+02 -0.13086302809E+02  0.81282473876E+01  0.18726405159E+02  0.00000000000E+00 0. -1.
         11    1    3    3    0    0 -0.24537326828E+02  0.74067341318E+01  0.10907833733E+02  0.27855357750E+02  0.51100000000E-03 0. -1.
        -11    1    3    3    0    0 -0.12982595662E+02  0.23743372084E+01 -0.74556344284E+01  0.15158223916E+02  0.51100000000E-03 0.  1.
        -12    1    3    3    0    0  0.26872926511E+02  0.33052314688E+01 -0.11580446692E+02  0.29448013175E+02  0.00000000000E+00 0.  1.
</event>
<event>
 7    1  0.3020651E-013  0.7246152E+02  0.7816164E-02  0.1226708E+00
        -11   -1    0    0    0    0  0.00000000000E+00  0.00000000000E+00  0.45593999997E+02  0.45594000000E+02  0.51100000000E-03 0. -1.
         11   -1    0    0    0    0 -0.00000000000E+00 -0.00000000000E+00 -0.45593999997E+02  0.45594000000E+02  0.51100000000E-03 0.  1.
    9900012    2    1    2    0    0 -0.13869340194E+02  0.15918699750E+01  0.12481517314E+02  0.72461523506E+02  0.69999939049E+02 0.  0.
         12    1    1    2    0    0  0.13869340194E+02 -0.15918699750E+01 -0.12481517314E+02  0.18726476494E+02  0.00000000000E+00 0. -1.
         11    1    3    3    0    0 -0.51781091523E+01  0.76820689478E+01  0.10698693163E+02  0.14152350807E+02  0.51100000000E-03 0. -1.
        -11    1    3    3    0    0 -0.13443706113E+02  0.24079694409E+02 -0.13209317227E+01  0.27609957945E+02  0.51100000000E-03 0.  1.
        -12    1    3    3    0    0  0.47524750704E+01 -0.30169893382E+02  0.31037558739E+01  0.30699214753E+02  0.00000000000E+00 0.  1.
</event>
<event>
 7    1  0.3020651E-013  0.7246153E+02  0.7816164E-02  0.1226708E+00
        -11   -1    0    0    0    0  0.00000000000E+00  0.00000000000E+00  0.45593999997E+02  0.45594000000E+02  0.51100000000E-03 0. -1.
         11   -1    0    0    0    0 -0.00000000000E+00 -0.00000000000E+00 -0.45593999997E+02  0.45594000000E+02  0.51100000000E-03 0.  1.
    9900012    2    1    2    0    0 -0.96908528276E+01 -0.54288159970E+01 -0.15076340361E+02  0.72461529154E+02  0.69999946407E+02 0.  0.
         12    1    1    2    0    0  0.96908528276E+01  0.54288159970E+01  0.15076340361E+02  0.18726470846E+02  0.00000000000E+00 0. -1.
         11    1    3    3    0    0 -0.10093988903E+02 -0.79559417302E+01  0.73604459638E+01  0.14810867154E+02  0.51100000000E-03 0. -1.
        -11    1    3    3    0    0  0.23039630626E+02 -0.11263965207E+02 -0.56039308143E+01  0.26250819652E+02  0.51100000000E-03 0.  1.
         12    1    3    3    0    0 -0.22636494551E+02  0.13791090940E+02 -0.16832855511E+02  0.31399842348E+02  0.00000000000E+00 0. -1.
</event>
<event>
 7    1  0.3020651E-013  0.7246153E+02  0.7816164E-02  0.1226708E+00
        -11   -1    0    0    0    0  0.00000000000E+00  0.00000000000E+00  0.45593999997E+02  0.45594000000E+02  0.51100000000E-03 0.  1.
         11   -1    0    0    0    0 -0.00000000000E+00 -0.00000000000E+00 -0.45593999997E+02  0.45594000000E+02  0.51100000000E-03 0. -1.
    9900012    2    1    2    0    0  0.10844585239E+02  0.39526279239E+01 -0.14746268574E+02  0.72461528539E+02  0.69999945606E+02 0.  0.
         12    1    1    2    0    0 -0.10844585239E+02 -0.39526279239E+01  0.14746268574E+02  0.18726471461E+02  0.00000000000E+00 0. -1.
         11    1    3    3    0    0 -0.86457614224E+01  0.14293868171E+02 -0.10449362592E+02  0.19704137553E+02  0.51100000000E-03 0. -1.
        -11    1    3    3    0    0 -0.71987248644E+00 -0.12516987531E+02  0.18414802279E+02  0.22277749808E+02  0.51100000000E-03 0.  1.
         12    1    3    3    0    0  0.20210219148E+02  0.21757472838E+01 -0.22711708261E+02  0.30479641179E+02  0.00000000000E+00 0. -1.
</event>
<event>
 7    1  0.3020651E-013  0.7246160E+02  0.7816164E-02  0.1226708E+00
        -11   -1    0    0    0    0  0.00000000000E+00  0.00000000000E+00  0.45593999997E+02  0.45594000000E+02  0.51100000000E-03 0.  1.
         11   -1    0    0    0    0 -0.00000000000E+00 -0.00000000000E+00 -0.45593999997E+02  0.45594000000E+02  0.51100000000E-03 0. -1.
    9900012    2    1    2    0    0  0.17278228208E+02 -0.66819714585E+01  0.27371472625E+01  0.72461604519E+02  0.70000044584E+02 0.  0.
         12    1    1    2    0    0 -0.17278228208E+02  0.66819714585E+01 -0.27371472625E+01  0.18726395481E+02  0.00000000000E+00 0. -1.
         11    1    3    3    0    0  0.18406633844E+02  0.73238001812E+01 -0.14291199264E+02  0.24427046388E+02  0.51100000000E-03 0. -1.
        -11    1    3    3    0    0  0.11815813117E+02  0.11153096391E+02  0.92264933411E+01  0.18685105789E+02  0.51100000000E-03 0.  1.
         12    1    3    3    0    0 -0.12944218752E+02 -0.25158868030E+02  0.78018531855E+01  0.29349452342E+02  0.00000000000E+00 0. -1.
</event>
<event>
 7    1  0.3020651E-013  0.7246141E+02  0.7816164E-02  0.1226708E+00
        -11   -1    0    0    0    0  0.00000000000E+00  0.00000000000E+00  0.45593999997E+02  0.45594000000E+02  0.51100000000E-03 0.  1.
         11   -1    0    0    0    0 -0.00000000000E+00 -0.00000000000E+00 -0.45593999997E+02  0.45594000000E+02  0.51100000000E-03 0. -1.
    9900012    2    1    2    0    0  0.52560402607E+01  0.11168021036E+02  0.14083126292E+02  0.72461411970E+02  0.69999793752E+02 0.  0.
         12    1    1    2    0    0 -0.52560402607E+01 -0.11168021036E+02 -0.14083126292E+02  0.18726588030E+02  0.00000000000E+00 0. -1.
         11    1    3    3    0    0 -0.17873971920E+02  0.74569371355E+01 -0.11897453524E+02  0.22729588299E+02  0.51100000000E-03 0. -1.
        -11    1    3    3    0    0 -0.38342251760E+01 -0.74607924099E+01 -0.26995121019E+01  0.88120413035E+01  0.51100000000E-03 0.  1.
        -12    1    3    3    0    0  0.26964237356E+02  0.11171876311E+02  0.28680091918E+02  0.40919782367E+02  0.00000000000E+00 0.  1.
</event>
<event>
 7    1  0.3020651E-013  0.7246158E+02  0.7816164E-02  0.1226708E+00
        -11   -1    0    0    0    0  0.00000000000E+00  0.00000000000E+00  0.45593999997E+02  0.45594000000E+02  0.51100000000E-03 0.  1.
         11   -1    0    0    0    0 -0.00000000000E+00 -0.00000000000E+00 -0.45593999997E+02  0.45594000000E+02  0.51100000000E-03 0. -1.
    9900012    2    1    2    0    0  0.11198346205E+02  0.13969263887E+02  0.54895986658E+01  0.72461575227E+02  0.70000006426E+02 0.  0.
         12    1    1    2    0    0 -0.11198346205E+02 -0.13969263887E+02 -0.54895986658E+01  0.18726424773E+02  0.00000000000E+00 0. -1.
         11    1    3    3    0    0 -0.15434687669E+02  0.12886751272E+01 -0.11776299772E+02  0.19456914031E+02  0.51100000000E-03 0. -1.
        -11    1    3    3    0    0 -0.60485075378E+01 -0.47902276081E+00 -0.77153311905E+01  0.98153065097E+01  0.51100000000E-03 0.  1.
        -12    1    3    3    0    0  0.32681541412E+02  0.13159611520E+02  0.24981229629E+02  0.43189354686E+02  0.00000000000E+00 0.  1.
</event>
<event>
 7    1  0.3020651E-013  0.7246158E+02  0.7816164E-02  0.1226708E+00
        -11   -1    0    0    0    0  0.00000000000E+00  0.00000000000E+00  0.45593999997E+02  0.45594000000E+02  0.51100000000E-03 0. -1.
         11   -1    0    0    0    0 -0.00000000000E+00 -0.00000000000E+00 -0.45593999997E+02  0.45594000000E+02  0.51100000000E-03 0.  1.
    9900012    2    1    2    0    0 -0.98400425526E+01  0.12940423900E+02 -0.92950354758E+01  0.72461583027E+02  0.70000016587E+02 0.  0.
         12    1    1    2    0    0  0.98400425526E+01 -0.12940423900E+02  0.92950354758E+01  0.18726416973E+02  0.00000000000E+00 0. -1.
         11    1    3    3    0    0 -0.14386233296E+02 -0.15775225019E+01 -0.20111336026E+02  0.24777371182E+02  0.51100000000E-03 0. -1.
        -11    1    3    3    0    0  0.80822537499E+01  0.68992725488E+01 -0.16210097537E+02  0.19382725552E+02  0.51100000000E-03 0.  1.
         12    1    3    3    0    0 -0.35360630062E+01  0.76186738529E+01  0.27026398087E+02  0.28301486294E+02  0.00000000000E+00 0. -1.
</event>
<event>
 7    1  0.3020651E-013  0.7246158E+02  0.7816164E-02  0.1226708E+00
        -11   -1    0    0    0    0  0.00000000000E+00  0.00000000000E+00  0.45593999997E+02  0.45594000000E+02  0.51100000000E-03 0.  1.
         11   -1    0    0    0    0 -0.00000000000E+00 -0.00000000000E+00 -0.45593999997E+02  0.45594000000E+02  0.51100000000E-03 0. -1.
    9900012    2    1    2    0    0  0.13759056230E+01  0.76926327258E+00  0.18659959045E+02  0.72461576054E+02  0.70000007502E+02 0.  0.
         12    1    1    2    0    0 -0.13759056230E+01 -0.76926327258E+00 -0.18659959045E+02  0.18726423946E+02  0.00000000000E+00 0. -1.
         11    1    3    3    0    0 -0.13924900964E+02 -0.68290194825E+01 -0.12875001984E+02  0.20156985149E+02  0.51100000000E-03 0. -1.
        -11    1    3    3    0    0  0.15949306584E+02 -0.13241024492E+02  0.17940356293E+02  0.27414621907E+02  0.51100000000E-03 0.  1.
        -12    1    3    3    0    0 -0.64849999778E+00  0.20839307247E+02  0.13594604736E+02  0.24889968998E+02  0.00000000000E+00 0.  1.
</event>
<event>
 7    1  0.3020651E-013  0.7246166E+02  0.7816164E-02  0.1226708E+00
        -11   -1    0    0    0    0  0.00000000000E+00  0.00000000000E+00  0.45593999997E+02  0.45594000000E+02  0.51100000000E-03 0. -1.
         11   -1    0    0    0    0 -0.00000000000E+00 -0.00000000000E+00 -0.45593999997E+02  0.45594000000E+02  0.51100000000E-03 0.  1.
    9900012    2    1    2    0    0  0.18680886619E+02  0.12922724284E+01 -0.17371584867E+00  0.72461663730E+02  0.70000121717E+02 0.  0.
         12    1    1    2    0    0 -0.18680886619E+02 -0.12922724284E+01  0.17371584867E+00  0.18726336270E+02  0.00000000000E+00 0. -1.
         11    1    3    3    0    0 -0.14550181739E+02 -0.34355534212E+01 -0.14158931333E+02  0.20590924037E+02  0.51100000000E-03 0. -1.
        -11    1    3    3    0    0 -0.66179087271E+01 -0.13349804314E+01 -0.38741568124E+01  0.77838281032E+01  0.51100000000E-03 0.  1.
        -12    1    3    3    0    0  0.39848977085E+02  0.60628062811E+01  0.17859372296E+02  0.44086911590E+02  0.00000000000E+00 0.  1.
</event>
<event>
 7    1  0.3020651E-013  0.7246160E+02  0.7816164E-02  0.1226708E+00
        -11   -1    0    0    0    0  0.00000000000E+00  0.00000000000E+00  0.45593999997E+02  0.45594000000E+02  0.51100000000E-03 0.  1.
         11   -1    0    0    0    0 -0.00000000000E+00 -0.00000000000E+00 -0.45593999997E+02  0.45594000000E+02  0.51100000000E-03 0. -1.
    9900012    2    1    2    0    0  0.16835939190E+02 -0.81601786230E+01  0.80050249170E+00  0.72461597041E+02  0.70000034842E+02 0.  0.
         12    1    1    2    0    0 -0.16835939190E+02  0.81601786230E+01 -0.80050249170E+00  0.18726402959E+02  0.00000000000E+00 0. -1.
         11    1    3    3    0    0 -0.15778593553E+02 -0.88863696479E+01 -0.18413686954E+02  0.25826255003E+02  0.51100000000E-03 0. -1.
        -11    1    3    3    0    0 -0.35000954253E+01  0.10935499414E+01 -0.25514796137E+01  0.44672774640E+01  0.51100000000E-03 0.  1.
        -12    1    3    3    0    0  0.36114628168E+02 -0.36735891649E+00  0.21765669059E+02  0.42168064573E+02  0.00000000000E+00 0.  1.
</event>
<event>
 7    1  0.3020651E-013  0.7246154E+02  0.7816164E-02  0.1226708E+00
        -11   -1    0    0    0    0  0.00000000000E+00  0.00000000000E+00  0.45593999997E+02  0.45594000000E+02  0.51100000000E-03 0.  1.
         11   -1    0    0    0    0 -0.00000000000E+00 -0.00000000000E+00 -0.45593999997E+02  0.45594000000E+02  0.51100000000E-03 0. -1.
    9900012    2    1    2    0    0  0.18108618502E+02  0.28032923437E+01 -0.38600362782E+01  0.72461537652E+02  0.69999957477E+02 0.  0.
         12    1    1    2    0    0 -0.18108618502E+02 -0.28032923437E+01  0.38600362782E+01  0.18726462348E+02  0.00000000000E+00 0. -1.
         11    1    3    3    0    0  0.29065425379E+02 -0.62658968673E+00 -0.16354286625E+02  0.33356472511E+02  0.51100000000E-03 0. -1.
        -11    1    3    3    0    0  0.90288993369E+01  0.75665268790E+01  0.14402657482E+02  0.18606716396E+02  0.51100000000E-03 0.  1.
        -12    1    3    3    0    0 -0.19985706214E+02 -0.41366448486E+01 -0.19084071351E+01  0.20498348745E+02  0.00000000000E+00 0.  1.
</event>
<event>
 7    1  0.3020651E-013  0.7246159E+02  0.7816164E-02  0.1226708E+00
        -11   -1    0    0    0    0  0.00000000000E+00  0.00000000000E+00  0.45593999997E+02  0.45594000000E+02  0.51100000000E-03 0. -1.
         11   -1    0    0    0    0 -0.00000000000E+00 -0.00000000000E+00 -0.45593999997E+02  0.45594000000E+02  0.51100000000E-03 0.  1.
    9900012    2    1    2    0    0 -0.67811192226E+01 -0.17343849304E+02 -0.19712642115E+01  0.72461586323E+02  0.70000020880E+02 0.  0.
         12    1    1    2    0    0  0.67811192226E+01  0.17343849304E+02  0.19712642115E+01  0.18726413677E+02  0.00000000000E+00 0. -1.
         11    1    3    3    0    0  0.10675502077E+02 -0.25781614189E+01  0.17115131836E+02  0.20335707485E+02  0.51100000000E-03 0. -1.
        -11    1    3    3    0    0 -0.16344329755E+02  0.96738522413E+01  0.29248784566E+01  0.19216540963E+02  0.51100000000E-03 0.  1.
        -12    1    3    3    0    0 -0.11122915449E+01 -0.24439540127E+02 -0.22011274504E+02  0.32909337875E+02  0.00000000000E+00 0.  1.
</event>
<event>
 7    1  0.3020651E-013  0.7246159E+02  0.7816164E-02  0.1226708E+00
        -11   -1    0    0    0    0  0.00000000000E+00  0.00000000000E+00  0.45593999997E+02  0.45594000000E+02  0.51100000000E-03 0.  1.
         11   -1    0    0    0    0 -0.00000000000E+00 -0.00000000000E+00 -0.45593999997E+02  0.45594000000E+02  0.51100000000E-03 0. -1.
    9900012    2    1    2    0    0  0.89007318346E+01 -0.15525400775E+02 -0.55152003618E+01  0.72461587331E+02  0.70000022194E+02 0.  0.
         12    1    1    2    0    0 -0.89007318346E+01  0.15525400775E+02  0.55152003618E+01  0.18726412669E+02  0.00000000000E+00 0. -1.
         11    1    3    3    0    0 -0.81733550143E+01 -0.13744553830E+02  0.61465599621E+01  0.17131745147E+02  0.51100000000E-03 0. -1.
        -11    1    3    3    0    0  0.11969547597E+02 -0.10760399048E+02  0.17866467211E+02  0.24047180879E+02  0.51100000000E-03 0.  1.
         12    1    3    3    0    0  0.51045392518E+01  0.89795521024E+01 -0.29528227535E+02  0.31282661305E+02  0.00000000000E+00 0. -1.
</event>
<event>
 7    1  0.3020651E-013  0.7246153E+02  0.7816164E-02  0.1226708E+00
        -11   -1    0    0    0    0  0.00000000000E+00  0.00000000000E+00  0.45593999997E+02  0.45594000000E+02  0.51100000000E-03 0.  1.
         11   -1    0    0    0    0 -0.00000000000E+00 -0.00000000000E+00 -0.45593999997E+02  0.45594000000E+02  0.51100000000E-03 0. -1.
    9900012    2    1    2    0    0 -0.18307203366E+02 -0.39374651826E+01 -0.15279106315E+00  0.72461530171E+02  0.69999947732E+02 0.  0.
         12    1    1    2    0    0  0.18307203366E+02  0.39374651826E+01  0.15279106315E+00  0.18726469829E+02  0.00000000000E+00 0. -1.
         11    1    3    3    0    0 -0.13838878622E+02  0.73785782662E+01 -0.27497896237E+02  0.31655841111E+02  0.51100000000E-03 0. -1.
        -11    1    3    3    0    0 -0.14820831427E+02 -0.11220604905E+02  0.11438154892E+02  0.21826369515E+02  0.51100000000E-03 0.  1.
        -12    1    3    3    0    0  0.10352506683E+02 -0.95438543662E-01  0.15906950281E+02  0.18979319545E+02  0.00000000000E+00 0.  1.
</event>
<event>
 7    1  0.3020651E-013  0.7246155E+02  0.7816164E-02  0.1226708E+00
        -11   -1    0    0    0    0  0.00000000000E+00  0.00000000000E+00  0.45593999997E+02  0.45594000000E+02  0.51100000000E-03 0.  1.
         11   -1    0    0    0    0 -0.00000000000E+00 -0.00000000000E+00 -0.45593999997E+02  0.45594000000E+02  0.51100000000E-03 0. -1.
    9900012    2    1    2    0    0  0.25456843634E+01  0.50168434344E+01  0.17861429221E+02  0.72461551304E+02  0.69999975262E+02 0.  0.
         12    1    1    2    0    0 -0.25456843634E+01 -0.50168434344E+01 -0.17861429221E+02  0.18726448696E+02  0.00000000000E+00 0. -1.
         11    1    3    3    0    0  0.37514846054E+01  0.11098410744E+02 -0.15942790705E+02  0.19784360832E+02  0.51100000000E-03 0. -1.
        -11    1    3    3    0    0 -0.77094493800E+00  0.58696731261E+01 -0.75695656783E+01  0.96096692724E+01  0.51100000000E-03 0.  1.
        -12    1    3    3    0    0 -0.43485530400E+00 -0.11951240435E+02  0.41373785605E+02  0.43067521200E+02  0.00000000000E+00 0.  1.
</event>
<event>
 7    1  0.3020651E-013  0.7246155E+02  0.7816164E-02  0.1226708E+00
        -11   -1    0    0    0    0  0.00000000000E+00  0.00000000000E+00  0.45593999997E+02  0.45594000000E+02  0.51100000000E-03 0. -1.
         11   -1    0    0    0    0 -0.00000000000E+00 -0.00000000000E+00 -0.45593999997E+02  0.45594000000E+02  0.51100000000E-03 0.  1.
    9900012    2    1    2    0    0  0.13267381636E+02 -0.28600995873E+01 -0.12902570093E+02  0.72461550786E+02  0.69999974587E+02 0.  0.
         12    1    1    2    0    0 -0.13267381636E+02  0.28600995873E+01  0.12902570093E+02  0.18726449214E+02  0.00000000000E+00 0. -1.
         11    1    3    3    0    0 -0.24210013591E+01 -0.11686514778E+02  0.57781083154E+01  0.13259804343E+02  0.51100000000E-03 0. -1.
        -11    1    3    3    0    0  0.13642461077E+02 -0.74251262223E+01  0.15098085581E+02  0.21661057964E+02  0.51100000000E-03 0.  1.
        -12    1    3    3    0    0  0.20459219184E+01  0.16251541413E+02 -0.33778763990E+02  0.37540688479E+02  0.00000000000E+00 0.  1.
</event>
<event>
 7    1  0.3020651E-013  0.7246156E+02  0.7816164E-02  0.1226708E+00
        -11   -1    0    0    0    0  0.00000000000E+00  0.00000000000E+00  0.45593999997E+02  0.45594000000E+02  0.51100000000E-03 0.  1.
         11   -1    0    0    0    0 -0.00000000000E+00 -0.00000000000E+00 -0.45593999997E+02  0.45594000000E+02  0.51100000000E-03 0. -1.
    9900012    2    1    2    0    0 -0.12116021123E+02 -0.12103205023E+02 -0.75758912819E+01  0.72461556974E+02  0.69999982648E+02 0.  0.
         12    1    1    2    0    0  0.12116021123E+02  0.12103205023E+02  0.75758912819E+01  0.18726443026E+02  0.00000000000E+00 0. -1.
         11    1    3    3    0    0  0.33037368728E+01 -0.75844868187E+01  0.82628332383E+01  0.11692456158E+02  0.51100000000E-03 0. -1.
        -11    1    3    3    0    0 -0.16195244879E+02 -0.25131683109E+02  0.62523942129E+01  0.30544719450E+02  0.51100000000E-03 0.  1.
         12    1    3    3    0    0  0.77548688380E+00  0.20612964905E+02 -0.22091118733E+02  0.30224381366E+02  0.00000000000E+00 0. -1.
</event>
<event>
 7    1  0.3020651E-013  0.7246160E+02  0.7816164E-02  0.1226708E+00
        -11   -1    0    0    0    0  0.00000000000E+00  0.00000000000E+00  0.45593999997E+02  0.45594000000E+02  0.51100000000E-03 0. -1.
         11   -1    0    0    0    0 -0.00000000000E+00 -0.00000000000E+00 -0.45593999997E+02  0.45594000000E+02  0.51100000000E-03 0.  1.
    9900012    2    1    2    0    0 -0.14870127106E+02 -0.11382066932E+02  0.77706637416E-01  0.72461597085E+02  0.70000034900E+02 0.  0.
         12    1    1    2    0    0  0.14870127106E+02  0.11382066932E+02 -0.77706637416E-01  0.18726402915E+02  0.00000000000E+00 0. -1.
         11    1    3    3    0    0 -0.18343142116E+02 -0.35547321905E+02  0.11948548231E+02  0.41747464144E+02  0.51100000000E-03 0. -1.
        -11    1    3    3    0    0 -0.46766290698E+00 -0.18222584214E+01 -0.16828693163E+01  0.25241600079E+01  0.51100000000E-03 0.  1.
        -12    1    3    3    0    0  0.39406779160E+01  0.25987513394E+02 -0.10187972277E+02  0.28189972933E+02  0.00000000000E+00 0.  1.
</event>
<event>
 7    1  0.3020651E-013  0.7246202E+02  0.7816164E-02  0.1226707E+00
        -11   -1    0    0    0    0  0.00000000000E+00  0.00000000000E+00  0.45593999997E+02  0.45594000000E+02  0.51100000000E-03 0.  1.
         11   -1    0    0    0    0 -0.00000000000E+00 -0.00000000000E+00 -0.45593999997E+02  0.45594000000E+02  0.51100000000E-03 0. -1.
    9900012    2    1    2    0    0  0.71750048051E+01  0.18171172603E+00  0.17295918570E+02  0.72462015051E+02  0.70000579376E+02 0.  0.
         12    1    1    2    0    0 -0.71750048051E+01 -0.18171172603E+00 -0.17295918570E+02  0.18725984949E+02  0.00000000000E+00 0. -1.
         11    1    3    3    0    0  0.59434991289E+01 -0.43505057438E+01 -0.75587091174E+01  0.10553964464E+02  0.51100000000E-03 0.  1.
        -11    1    3    3    0    0  0.28044886872E+02  0.58232791899E+01  0.64500095766E+01  0.29360328404E+02  0.51100000000E-03 0. -1.
        -12    1    3    3    0    0 -0.26813381196E+02 -0.12910617201E+01  0.18404618111E+02  0.32547722183E+02  0.00000000000E+00 0.  1.
</event>
<event>
 7    1  0.3020651E-013  0.7246160E+02  0.7816164E-02  0.1226708E+00
        -11   -1    0    0    0    0  0.00000000000E+00  0.00000000000E+00  0.45593999997E+02  0.45594000000E+02  0.51100000000E-03 0.  1.
         11   -1    0    0    0    0 -0.00000000000E+00 -0.00000000000E+00 -0.45593999997E+02  0.45594000000E+02  0.51100000000E-03 0. -1.
    9900012    2    1    2    0    0  0.86944454122E+01  0.15486807938E+02  0.59366255775E+01  0.72461598200E+02  0.70000036352E+02 0.  0.
         12    1    1    2    0    0 -0.86944454122E+01 -0.15486807938E+02 -0.59366255775E+01  0.18726401800E+02  0.00000000000E+00 0. -1.
         11    1    3    3    0    0 -0.98079610662E+00 -0.10346008425E+02 -0.60563199688E+01  0.12028335843E+02  0.51100000000E-03 0. -1.
        -11    1    3    3    0    0 -0.57392393272E+01 -0.14626948984E+02  0.90114116750E+00  0.15738442118E+02  0.51100000000E-03 0.  1.
        -12    1    3    3    0    0  0.15414480846E+02  0.40459765348E+02  0.11091804379E+02  0.44694820238E+02  0.00000000000E+00 0.  1.
</event>
<event>
 7    1  0.3020651E-013  0.7246113E+02  0.7816164E-02  0.1226709E+00
        -11   -1    0    0    0    0  0.00000000000E+00  0.00000000000E+00  0.45593999997E+02  0.45594000000E+02  0.51100000000E-03 0.  1.
         11   -1    0    0    0    0 -0.00000000000E+00 -0.00000000000E+00 -0.45593999997E+02  0.45594000000E+02  0.51100000000E-03 0. -1.
    9900012    2    1    2    0    0  0.63532616944E+01  0.21491096473E+01  0.17484651217E+02  0.72461130677E+02  0.69999427315E+02 0.  0.
         12    1    1    2    0    0 -0.63532616944E+01 -0.21491096473E+01 -0.17484651217E+02  0.18726869323E+02  0.00000000000E+00 0. -1.
         11    1    3    3    0    0 -0.90533402166E+01  0.34717036068E+01 -0.66235926245E+01  0.11742558262E+02  0.51100000000E-03 0. -1.
        -11    1    3    3    0    0 -0.25635066968E+01  0.16888581772E+02 -0.86548331036E+01  0.19149462059E+02  0.51100000000E-03 0.  1.
         12    1    3    3    0    0  0.17970108608E+02 -0.18211175731E+02  0.32763076945E+02  0.41569110356E+02  0.00000000000E+00 0. -1.
</event>
<event>
 7    1  0.3020651E-013  0.7246158E+02  0.7816164E-02  0.1226708E+00
        -11   -1    0    0    0    0  0.00000000000E+00  0.00000000000E+00  0.45593999997E+02  0.45594000000E+02  0.51100000000E-03 0. -1.
         11   -1    0    0    0    0 -0.00000000000E+00 -0.00000000000E+00 -0.45593999997E+02  0.45594000000E+02  0.51100000000E-03 0.  1.
    9900012    2    1    2    0    0 -0.10383547688E+02  0.13182203130E+02 -0.83120558576E+01  0.72461579772E+02  0.70000012347E+02 0.  0.
         12    1    1    2    0    0  0.10383547688E+02 -0.13182203130E+02  0.83120558576E+01  0.18726420228E+02  0.00000000000E+00 0. -1.
         11    1    3    3    0    0 -0.97304981386E+00  0.19121792084E+02  0.14011431751E+01  0.19197733223E+02  0.51100000000E-03 0. -1.
        -11    1    3    3    0    0 -0.49024898095E+01  0.22764877259E+02 -0.34621113497E+01  0.23542732598E+02  0.51100000000E-03 0.  1.
         12    1    3    3    0    0 -0.45080080646E+01 -0.28704466213E+02 -0.62510876830E+01  0.29721113951E+02  0.00000000000E+00 0. -1.
</event>
<event>
 7    1  0.3020651E-013  0.7246157E+02  0.7816164E-02  0.1226708E+00
        -11   -1    0    0    0    0  0.00000000000E+00  0.00000000000E+00  0.45593999997E+02  0.45594000000E+02  0.51100000000E-03 0. -1.
         11   -1    0    0    0    0 -0.00000000000E+00 -0.00000000000E+00 -0.45593999997E+02  0.45594000000E+02  0.51100000000E-03 0.  1.
    9900012    2    1    2    0    0 -0.11753428925E+02  0.49336829649E+01 -0.13718416215E+02  0.72461567811E+02  0.69999996765E+02 0.  0.
         12    1    1    2    0    0  0.11753428925E+02 -0.49336829649E+01  0.13718416215E+02  0.18726432189E+02  0.00000000000E+00 0. -1.
         11    1    3    3    0    0 -0.24345848893E+02 -0.21779970757E+02 -0.21720085057E+01  0.32738434686E+02  0.51100000000E-03 0. -1.
        -11    1    3    3    0    0  0.19793325490E+00 -0.21092251253E+01  0.41361742640E+01  0.46471438546E+01  0.51100000000E-03 0.  1.
        -12    1    3    3    0    0  0.12394486712E+02  0.28822878848E+02 -0.15682581973E+02  0.35075989270E+02  0.00000000000E+00 0.  1.
</event>
<event>
 7    1  0.3020651E-013  0.7246152E+02  0.7816164E-02  0.1226708E+00
        -11   -1    0    0    0    0  0.00000000000E+00  0.00000000000E+00  0.45593999997E+02  0.45594000000E+02  0.51100000000E-03 0. -1.
         11   -1    0    0    0    0 -0.00000000000E+00 -0.00000000000E+00 -0.45593999997E+02  0.45594000000E+02  0.51100000000E-03 0.  1.
    9900012    2    1    2    0    0 -0.10813933575E+02  0.14366151849E+02  0.52300481310E+01  0.72461524577E+02  0.69999940445E+02 0.  0.
         12    1    1    2    0    0  0.10813933575E+02 -0.14366151849E+02 -0.52300481310E+01  0.18726475423E+02  0.00000000000E+00 0. -1.
         11    1    3    3    0    0 -0.44356622579E+01 -0.16319160897E+01 -0.85009321198E+01  0.97264637437E+01  0.51100000000E-03 0. -1.
        -11    1    3    3    0    0  0.22724377159E+02  0.63564950992E+00 -0.70657319574E+01  0.23806006299E+02  0.51100000000E-03 0.  1.
         12    1    3    3    0    0 -0.29102648476E+02  0.15362418428E+02  0.20796712208E+02  0.38929054535E+02  0.00000000000E+00 0. -1.
</event>
<event>
 7    1  0.3020651E-013  0.7246166E+02  0.7816164E-02  0.1226708E+00
        -11   -1    0    0    0    0  0.00000000000E+00  0.00000000000E+00  0.45593999997E+02  0.45594000000E+02  0.51100000000E-03 0. -1.
         11   -1    0    0    0    0 -0.00000000000E+00 -0.00000000000E+00 -0.45593999997E+02  0.45594000000E+02  0.51100000000E-03 0.  1.
    9900012    2    1    2    0    0 -0.13541097241E+02  0.12919353577E+02  0.63614312901E+00  0.72461663214E+02  0.70000121045E+02 0.  0.
         12    1    1    2    0    0  0.13541097241E+02 -0.12919353577E+02 -0.63614312901E+00  0.18726336786E+02  0.00000000000E+00 0. -1.
         11    1    3    3    0    0  0.44429011964E+01  0.20420825227E+02  0.74872195264E+01  0.22199277702E+02  0.51100000000E-03 0. -1.
        -11    1    3    3    0    0  0.57431507424E+00  0.18099971496E+02 -0.12724867640E+01  0.18153733191E+02  0.51100000000E-03 0.  1.
        -12    1    3    3    0    0 -0.18558313512E+02 -0.25601443146E+02 -0.55785896334E+01  0.32108652321E+02  0.00000000000E+00 0.  1.
</event>
<event>
 7    1  0.3020651E-013  0.7246158E+02  0.7816164E-02  0.1226708E+00
        -11   -1    0    0    0    0  0.00000000000E+00  0.00000000000E+00  0.45593999997E+02  0.45594000000E+02  0.51100000000E-03 0. -1.
         11   -1    0    0    0    0 -0.00000000000E+00 -0.00000000000E+00 -0.45593999997E+02  0.45594000000E+02  0.51100000000E-03 0.  1.
    9900012    2    1    2    0    0 -0.10954017866E+01 -0.12737700579E+02 -0.13683195927E+02  0.72461580911E+02  0.70000013831E+02 0.  0.
         12    1    1    2    0    0  0.10954017866E+01  0.12737700579E+02  0.13683195927E+02  0.18726419089E+02  0.00000000000E+00 0. -1.
         11    1    3    3    0    0  0.30134117130E+01 -0.88897882861E+01 -0.71998492794E+01  0.11829911911E+02  0.51100000000E-03 0. -1.
        -11    1    3    3    0    0 -0.12104607445E+02 -0.30259088248E+02 -0.52376300777E+01  0.33008585430E+02  0.51100000000E-03 0.  1.
         12    1    3    3    0    0  0.79957939454E+01  0.26411175955E+02 -0.12457165697E+01  0.27623083570E+02  0.00000000000E+00 0. -1.
</event>
<event>
 7    1  0.3020651E-013  0.7246148E+02  0.7816164E-02  0.1226708E+00
        -11   -1    0    0    0    0  0.00000000000E+00  0.00000000000E+00  0.45593999997E+02  0.45594000000E+02  0.51100000000E-03 0.  1.
         11   -1    0    0    0    0 -0.00000000000E+00 -0.00000000000E+00 -0.45593999997E+02  0.45594000000E+02  0.51100000000E-03 0. -1.
    9900012    2    1    2    0    0 -0.68484174534E+01 -0.11320444724E+02  0.13252514900E+02  0.72461482931E+02  0.69999886193E+02 0.  0.
         12    1    1    2    0    0  0.68484174534E+01  0.11320444724E+02 -0.13252514900E+02  0.18726517069E+02  0.00000000000E+00 0. -1.
         11    1    3    3    0    0 -0.16495101609E+01 -0.25659356236E+00 -0.10492574151E+00  0.16726427291E+01  0.51100000000E-03 0. -1.
        -11    1    3    3    0    0 -0.11397182838E+02 -0.37168057100E+02 -0.36106648638E+01  0.39043528866E+02  0.51100000000E-03 0.  1.
         12    1    3    3    0    0  0.61982755457E+01  0.26104205938E+02  0.16968105505E+02  0.31745311336E+02  0.00000000000E+00 0. -1.
</event>
<event>
 7    1  0.3020651E-013  0.7246149E+02  0.7816164E-02  0.1226708E+00
        -11   -1    0    0    0    0  0.00000000000E+00  0.00000000000E+00  0.45593999997E+02  0.45594000000E+02  0.51100000000E-03 0. -1.
         11   -1    0    0    0    0 -0.00000000000E+00 -0.00000000000E+00 -0.45593999997E+02  0.45594000000E+02  0.51100000000E-03 0.  1.
    9900012    2    1    2    0    0  0.62650324607E+01  0.55393739719E+01 -0.16755504285E+02  0.72461488857E+02  0.69999893913E+02 0.  0.
         12    1    1    2    0    0 -0.62650324607E+01 -0.55393739719E+01  0.16755504285E+02  0.18726511143E+02  0.00000000000E+00 0. -1.
         11    1    3    3    0    0  0.59958220400E+01 -0.14561842325E+02  0.97483215044E+01  0.18520985564E+02  0.51100000000E-03 0. -1.
        -11    1    3    3    0    0 -0.79090618858E+01  0.20257421801E+02  0.42149322388E+01  0.22151344247E+02  0.51100000000E-03 0.  1.
         12    1    3    3    0    0  0.81782723065E+01 -0.15620550396E+00 -0.30718758028E+02  0.31789159046E+02  0.00000000000E+00 0. -1.
</event>
<event>
 7    1  0.3020651E-013  0.7246161E+02  0.7816164E-02  0.1226708E+00
        -11   -1    0    0    0    0  0.00000000000E+00  0.00000000000E+00  0.45593999997E+02  0.45594000000E+02  0.51100000000E-03 0.  1.
         11   -1    0    0    0    0 -0.00000000000E+00 -0.00000000000E+00 -0.45593999997E+02  0.45594000000E+02  0.51100000000E-03 0. -1.
    9900012    2    1    2    0    0 -0.44707430510E+01  0.17881074908E+02  0.33101986728E+01  0.72461606900E+02  0.70000047685E+02 0.  0.
         12    1    1    2    0    0  0.44707430510E+01 -0.17881074908E+02 -0.33101986728E+01  0.18726393100E+02  0.00000000000E+00 0. -1.
         11    1    3    3    0    0  0.86252100667E+01  0.13632808062E+02 -0.10554689365E+02  0.19278204590E+02  0.51100000000E-03 0. -1.
        -11    1    3    3    0    0 -0.51737753752E+01  0.14124276174E+01 -0.18749288793E+02  0.19501249548E+02  0.51100000000E-03 0.  1.
        -12    1    3    3    0    0 -0.79221777425E+01  0.28358392285E+01  0.32614176831E+02  0.33682152762E+02  0.00000000000E+00 0.  1.
</event>
<event>
 7    1  0.3020651E-013  0.7246151E+02  0.7816164E-02  0.1226708E+00
        -11   -1    0    0    0    0  0.00000000000E+00  0.00000000000E+00  0.45593999997E+02  0.45594000000E+02  0.51100000000E-03 0.  1.
         11   -1    0    0    0    0 -0.00000000000E+00 -0.00000000000E+00 -0.45593999997E+02  0.45594000000E+02  0.51100000000E-03 0. -1.
    9900012    2    1    2    0    0 -0.85050522532E+01  0.80487009260E+01  0.14613829883E+02  0.72461507422E+02  0.69999918097E+02 0.  0.
         12    1    1    2    0    0  0.85050522532E+01 -0.80487009260E+01 -0.14613829883E+02  0.18726492578E+02  0.00000000000E+00 0. -1.
         11    1    3    3    0    0  0.66178154587E+01  0.23380265603E+02  0.24364170413E+02  0.34409956427E+02  0.51100000000E-03 0. -1.
        -11    1    3    3    0    0 -0.39221147660E+01 -0.52402166381E+01  0.10761149746E+02  0.12595443572E+02  0.51100000000E-03 0.  1.
         12    1    3    3    0    0 -0.11200752946E+02 -0.10091348039E+02 -0.20511490276E+02  0.25456107423E+02  0.00000000000E+00 0. -1.
</event>
<event>
 7    1  0.3020651E-013  0.7246158E+02  0.7816164E-02  0.1226708E+00
        -11   -1    0    0    0    0  0.00000000000E+00  0.00000000000E+00  0.45593999997E+02  0.45594000000E+02  0.51100000000E-03 0.  1.
         11   -1    0    0    0    0 -0.00000000000E+00 -0.00000000000E+00 -0.45593999997E+02  0.45594000000E+02  0.51100000000E-03 0. -1.
    9900012    2    1    2    0    0 -0.58090787579E+01 -0.84605270114E+01  0.15663749110E+02  0.72461576168E+02  0.70000007652E+02 0.  0.
         12    1    1    2    0    0  0.58090787579E+01  0.84605270114E+01 -0.15663749110E+02  0.18726423832E+02  0.00000000000E+00 0. -1.
         11    1    3    3    0    0  0.93816725703E+01 -0.40160431371E+01 -0.64579749522E+00  0.10225528708E+02  0.51100000000E-03 0. -1.
        -11    1    3    3    0    0  0.19578701520E+02  0.46326731187E+01  0.16931781810E+02  0.26295863723E+02  0.51100000000E-03 0.  1.
         12    1    3    3    0    0 -0.34769452848E+02 -0.90771569931E+01 -0.62223520407E+00  0.35940183737E+02  0.00000000000E+00 0. -1.
</event>
<event>
 7    1  0.3020651E-013  0.7246158E+02  0.7816164E-02  0.1226708E+00
        -11   -1    0    0    0    0  0.00000000000E+00  0.00000000000E+00  0.45593999997E+02  0.45594000000E+02  0.51100000000E-03 0.  1.
         11   -1    0    0    0    0 -0.00000000000E+00 -0.00000000000E+00 -0.45593999997E+02  0.45594000000E+02  0.51100000000E-03 0. -1.
    9900012    2    1    2    0    0  0.79022662615E+01 -0.16406464360E+02  0.43658643969E+01  0.72461583985E+02  0.70000017834E+02 0.  0.
         12    1    1    2    0    0 -0.79022662615E+01  0.16406464360E+02 -0.43658643969E+01  0.18726416015E+02  0.00000000000E+00 0. -1.
         11    1    3    3    0    0  0.24159719851E+02 -0.40396972814E+00  0.79637560872E+01  0.25441632536E+02  0.51100000000E-03 0. -1.
        -11    1    3    3    0    0 -0.22235735778E+02 -0.16732208541E+02  0.11995995439E+02  0.30303442957E+02  0.51100000000E-03 0.  1.
         12    1    3    3    0    0  0.59782821875E+01  0.72971390967E+00 -0.15593887130E+02  0.16716508491E+02  0.00000000000E+00 0. -1.
</event>
<event>
 7    1  0.3020651E-013  0.7246156E+02  0.7816164E-02  0.1226708E+00
        -11   -1    0    0    0    0  0.00000000000E+00  0.00000000000E+00  0.45593999997E+02  0.45594000000E+02  0.51100000000E-03 0.  1.
         11   -1    0    0    0    0 -0.00000000000E+00 -0.00000000000E+00 -0.45593999997E+02  0.45594000000E+02  0.51100000000E-03 0. -1.
    9900012    2    1    2    0    0  0.10304809896E+01  0.18696900017E+02 -0.20918626686E+00  0.72461555591E+02  0.69999980846E+02 0.  0.
         12    1    1    2    0    0 -0.10304809896E+01 -0.18696900017E+02  0.20918626686E+00  0.18726444409E+02  0.00000000000E+00 0. -1.
         11    1    3    3    0    0 -0.24218284764E+02 -0.32751155904E+01 -0.89689235810E+01  0.26032542893E+02  0.51100000000E-03 0. -1.
        -11    1    3    3    0    0  0.11721728072E+02  0.22615099947E+02 -0.62347897397E+01  0.26224306625E+02  0.51100000000E-03 0.  1.
        -12    1    3    3    0    0  0.13527037681E+02 -0.64308433922E+00  0.14994527054E+02  0.20204706072E+02  0.00000000000E+00 0.  1.
</event>
<event>
 7    1  0.3020651E-013  0.7246159E+02  0.7816164E-02  0.1226708E+00
        -11   -1    0    0    0    0  0.00000000000E+00  0.00000000000E+00  0.45593999997E+02  0.45594000000E+02  0.51100000000E-03 0. -1.
         11   -1    0    0    0    0 -0.00000000000E+00 -0.00000000000E+00 -0.45593999997E+02  0.45594000000E+02  0.51100000000E-03 0.  1.
    9900012    2    1    2    0    0  0.11532486249E+02 -0.14634501897E+02 -0.18738905194E+01  0.72461592162E+02  0.70000028486E+02 0.  0.
         12    1    1    2    0    0 -0.11532486249E+02  0.14634501897E+02  0.18738905194E+01  0.18726407838E+02  0.00000000000E+00 0. -1.
         11    1    3    3    0    0 -0.37029298649E+01  0.99742827659E+01 -0.51113654508E+01  0.11803561467E+02  0.51100000000E-03 0. -1.
        -11    1    3    3    0    0  0.13105462029E+02  0.14111797626E+02 -0.70982913008E+01  0.20525148157E+02  0.51100000000E-03 0.  1.
         12    1    3    3    0    0  0.21299540851E+01 -0.38720582288E+02  0.10335766232E+02  0.40132882537E+02  0.00000000000E+00 0. -1.
</event>
<event>
 7    1  0.3020651E-013  0.7246160E+02  0.7816164E-02  0.1226708E+00
        -11   -1    0    0    0    0  0.00000000000E+00  0.00000000000E+00  0.45593999997E+02  0.45594000000E+02  0.51100000000E-03 0.  1.
         11   -1    0    0    0    0 -0.00000000000E+00 -0.00000000000E+00 -0.45593999997E+02  0.45594000000E+02  0.51100000000E-03 0. -1.
    9900012    2    1    2    0    0 -0.12874913235E+02 -0.12710554020E+02  0.48328642382E+01  0.72461597488E+02  0.70000035425E+02 0.  0.
         12    1    1    2    0    0  0.12874913235E+02  0.12710554020E+02 -0.48328642382E+01  0.18726402512E+02  0.00000000000E+00 0. -1.
         11    1    3    3    0    0 -0.23379056795E+01  0.33466902029E+01  0.49151430776E+01  0.63894264230E+01  0.51100000000E-03 0. -1.
        -11    1    3    3    0    0 -0.12799654370E+02 -0.21928817993E+02  0.27705663519E+02  0.37580686554E+02  0.51100000000E-03 0.  1.
         12    1    3    3    0    0  0.22626468145E+01  0.58715737706E+01 -0.27787942358E+02  0.28491484511E+02  0.00000000000E+00 0. -1.
</event>
<event>
 7    1  0.3020651E-013  0.7246159E+02  0.7816164E-02  0.1226708E+00
        -11   -1    0    0    0    0  0.00000000000E+00  0.00000000000E+00  0.45593999997E+02  0.45594000000E+02  0.51100000000E-03 0. -1.
         11   -1    0    0    0    0 -0.00000000000E+00 -0.00000000000E+00 -0.45593999997E+02  0.45594000000E+02  0.51100000000E-03 0.  1.
    9900012    2    1    2    0    0  0.61598400257E+01  0.17281956001E+02 -0.37508568281E+01  0.72461586588E+02  0.70000021225E+02 0.  0.
         12    1    1    2    0    0 -0.61598400257E+01 -0.17281956001E+02  0.37508568281E+01  0.18726413412E+02  0.00000000000E+00 0. -1.
         11    1    3    3    0    0  0.41109314688E+01  0.51606742874E+01  0.18205692288E+02  0.19364388671E+02  0.51100000000E-03 0. -1.
        -11    1    3    3    0    0  0.46409328811E+01  0.50520567678E+01  0.14409863250E+02  0.15959501707E+02  0.51100000000E-03 0.  1.
         12    1    3    3    0    0 -0.25920243242E+01  0.70692249453E+01 -0.36366412366E+02  0.37137696210E+02  0.00000000000E+00 0. -1.
</event>
<event>
 7    1  0.3020651E-013  0.7246158E+02  0.7816164E-02  0.1226708E+00
        -11   -1    0    0    0    0  0.00000000000E+00  0.00000000000E+00  0.45593999997E+02  0.45594000000E+02  0.51100000000E-03 0. -1.
         11   -1    0    0    0    0 -0.00000000000E+00 -0.00000000000E+00 -0.45593999997E+02  0.45594000000E+02  0.51100000000E-03 0.  1.
    9900012    2    1    2    0    0 -0.11763018685E+01  0.18109907685E+02  0.46180509847E+01  0.72461579164E+02  0.70000011554E+02 0.  0.
         12    1    1    2    0    0  0.11763018685E+01 -0.18109907685E+02 -0.46180509847E+01  0.18726420836E+02  0.00000000000E+00 0. -1.
         11    1    3    3    0    0  0.60561649252E+01 -0.40075999162E+01 -0.13496198345E+02  0.15325970140E+02  0.51100000000E-03 0. -1.
        -11    1    3    3    0    0 -0.26700185718E+02  0.84424204927E+01  0.18102613868E+02  0.33344849831E+02  0.51100000000E-03 0.  1.
         12    1    3    3    0    0  0.19467718925E+02  0.13675087109E+02  0.11635462267E-01  0.23790759192E+02  0.00000000000E+00 0. -1.
</event>
<event>
 7    1  0.3020651E-013  0.7246155E+02  0.7816164E-02  0.1226708E+00
        -11   -1    0    0    0    0  0.00000000000E+00  0.00000000000E+00  0.45593999997E+02  0.45594000000E+02  0.51100000000E-03 0.  1.
         11   -1    0    0    0    0 -0.00000000000E+00 -0.00000000000E+00 -0.45593999997E+02  0.45594000000E+02  0.51100000000E-03 0. -1.
    9900012    2    1    2    0    0 -0.12058554094E+01  0.12609583467E+02  0.13792183522E+02  0.72461547886E+02  0.69999970809E+02 0.  0.
         12    1    1    2    0    0  0.12058554094E+01 -0.12609583467E+02 -0.13792183522E+02  0.18726452114E+02  0.00000000000E+00 0. -1.
         11    1    3    3    0    0  0.21168983209E+02 -0.70168289936E+01 -0.11652528127E+02  0.25162335966E+02  0.51100000000E-03 0. -1.
        -11    1    3    3    0    0  0.42241163040E+01  0.78204302028E-01 -0.17078536938E+01  0.45569769544E+01  0.51100000000E-03 0.  1.
        -12    1    3    3    0    0 -0.26598954923E+02  0.19548208159E+02  0.27152565342E+02  0.42742234966E+02  0.00000000000E+00 0.  1.
</event>
<event>
 7    1  0.3020651E-013  0.7246150E+02  0.7816164E-02  0.1226708E+00
        -11   -1    0    0    0    0  0.00000000000E+00  0.00000000000E+00  0.45593999997E+02  0.45594000000E+02  0.51100000000E-03 0. -1.
         11   -1    0    0    0    0 -0.00000000000E+00 -0.00000000000E+00 -0.45593999997E+02  0.45594000000E+02  0.51100000000E-03 0.  1.
    9900012    2    1    2    0    0  0.11614723889E+02 -0.14529140395E+02 -0.21642730010E+01  0.72461499813E+02  0.69999908184E+02 0.  0.
         12    1    1    2    0    0 -0.11614723889E+02  0.14529140395E+02  0.21642730010E+01  0.18726500187E+02  0.00000000000E+00 0. -1.
         11    1    3    3    0    0 -0.32085891672E+01  0.34207928361E+01  0.29127122049E+02  0.29502306811E+02  0.51100000000E-03 0. -1.
        -11    1    3    3    0    0 -0.58863386318E+00  0.18453106484E+01  0.90892841518E+00  0.21395822814E+01  0.51100000000E-03 0.  1.
        -12    1    3    3    0    0  0.15411946920E+02 -0.19795243880E+02 -0.32200323465E+02  0.40819610720E+02  0.00000000000E+00 0.  1.
</event>
<event>
 7    1  0.3020651E-013  0.7246153E+02  0.7816164E-02  0.1226708E+00
        -11   -1    0    0    0    0  0.00000000000E+00  0.00000000000E+00  0.45593999997E+02  0.45594000000E+02  0.51100000000E-03 0.  1.
         11   -1    0    0    0    0 -0.00000000000E+00 -0.00000000000E+00 -0.45593999997E+02  0.45594000000E+02  0.51100000000E-03 0. -1.
    9900012    2    1    2    0    0  0.16110166403E+02  0.91959693220E+01 -0.25646305629E+01  0.72461530946E+02  0.69999948742E+02 0.  0.
         12    1    1    2    0    0 -0.16110166403E+02 -0.91959693220E+01  0.25646305629E+01  0.18726469054E+02  0.00000000000E+00 0. -1.
         11    1    3    3    0    0  0.11425825222E+02  0.61158550132E+01  0.25036297348E+02  0.28191653901E+02  0.51100000000E-03 0.  1.
        -11    1    3    3    0    0 -0.19870494731E+01  0.39227453852E+01  0.74113658340E+01  0.86176934705E+01  0.51100000000E-03 0. -1.
         12    1    3    3    0    0  0.66713906535E+01 -0.84263107644E+00 -0.35012293745E+02  0.35652183575E+02  0.00000000000E+00 0. -1.
</event>
<event>
 7    1  0.3020651E-013  0.7246155E+02  0.7816164E-02  0.1226708E+00
        -11   -1    0    0    0    0  0.00000000000E+00  0.00000000000E+00  0.45593999997E+02  0.45594000000E+02  0.51100000000E-03 0.  1.
         11   -1    0    0    0    0 -0.00000000000E+00 -0.00000000000E+00 -0.45593999997E+02  0.45594000000E+02  0.51100000000E-03 0. -1.
    9900012    2    1    2    0    0  0.33185817790E+01 -0.11547949669E+02  0.14363553599E+02  0.72461553499E+02  0.69999978120E+02 0.  0.
         12    1    1    2    0    0 -0.33185817790E+01  0.11547949669E+02 -0.14363553599E+02  0.18726446501E+02  0.00000000000E+00 0. -1.
         11    1    3    3    0    0  0.53651863976E+00  0.15318355719E+02 -0.81515311479E+00  0.15349408752E+02  0.51100000000E-03 0. -1.
        -11    1    3    3    0    0  0.56425128567E+01  0.28519582758E+01  0.24918461774E+02  0.25708001765E+02  0.51100000000E-03 0.  1.
         12    1    3    3    0    0 -0.28604497174E+01 -0.29718263663E+02 -0.97397550595E+01  0.31404142981E+02  0.00000000000E+00 0. -1.
</event>
<event>
 7    1  0.3020651E-013  0.7246156E+02  0.7816164E-02  0.1226708E+00
        -11   -1    0    0    0    0  0.00000000000E+00  0.00000000000E+00  0.45593999997E+02  0.45594000000E+02  0.51100000000E-03 0. -1.
         11   -1    0    0    0    0 -0.00000000000E+00 -0.00000000000E+00 -0.45593999997E+02  0.45594000000E+02  0.51100000000E-03 0.  1.
    9900012    2    1    2    0    0 -0.44065633596E+01 -0.62853865154E+01 -0.17080856897E+02  0.72461559958E+02  0.69999986536E+02 0.  0.
         12    1    1    2    0    0  0.44065633596E+01  0.62853865154E+01  0.17080856897E+02  0.18726440042E+02  0.00000000000E+00 0. -1.
         11    1    3    3    0    0 -0.84521993168E+01  0.52405684248E+01  0.10896496213E+02  0.14752520486E+02  0.51100000000E-03 0. -1.
        -11    1    3    3    0    0  0.25380559387E+02 -0.89886086771E+01 -0.73166651379E+01  0.27901639195E+02  0.51100000000E-03 0.  1.
         12    1    3    3    0    0 -0.21334923430E+02 -0.25373462632E+01 -0.20660687972E+02  0.29807400278E+02  0.00000000000E+00 0. -1.
</event>
<event>
 7    1  0.3020651E-013  0.7246156E+02  0.7816164E-02  0.1226708E+00
        -11   -1    0    0    0    0  0.00000000000E+00  0.00000000000E+00  0.45593999997E+02  0.45594000000E+02  0.51100000000E-03 0. -1.
         11   -1    0    0    0    0 -0.00000000000E+00 -0.00000000000E+00 -0.45593999997E+02  0.45594000000E+02  0.51100000000E-03 0.  1.
    9900012    2    1    2    0    0  0.14456023909E+02  0.60346981963E+01 -0.10260868516E+02  0.72461557939E+02  0.69999983904E+02 0.  0.
         12    1    1    2    0    0 -0.14456023909E+02 -0.60346981963E+01  0.10260868516E+02  0.18726442061E+02  0.00000000000E+00 0. -1.
         11    1    3    3    0    0  0.30881631575E+02 -0.15154714950E+02  0.86947403140E+01  0.35481531299E+02  0.51100000000E-03 0. -1.
        -11    1    3    3    0    0  0.16921426228E+01  0.24673473227E+01  0.19542757545E+01  0.35735617320E+01  0.51100000000E-03 0.  1.
        -12    1    3    3    0    0 -0.18117750289E+02  0.18722065824E+02 -0.20909884585E+02  0.33406464907E+02  0.00000000000E+00 0.  1.
</event>
<event>
 7    1  0.3020651E-013  0.7246153E+02  0.7816164E-02  0.1226708E+00
        -11   -1    0    0    0    0  0.00000000000E+00  0.00000000000E+00  0.45593999997E+02  0.45594000000E+02  0.51100000000E-03 0. -1.
         11   -1    0    0    0    0 -0.00000000000E+00 -0.00000000000E+00 -0.45593999997E+02  0.45594000000E+02  0.51100000000E-03 0.  1.
    9900012    2    1    2    0    0  0.15473565887E+01 -0.10810385619E+02 -0.15212554291E+02  0.72461533230E+02  0.69999951717E+02 0.  0.
         12    1    1    2    0    0 -0.15473565887E+01  0.10810385619E+02  0.15212554291E+02  0.18726466770E+02  0.00000000000E+00 0. -1.
         11    1    3    3    0    0 -0.16820505357E+02 -0.37425377271E+01 -0.67860983798E+01  0.18519911463E+02  0.51100000000E-03 0. -1.
        -11    1    3    3    0    0 -0.62422495459E+01 -0.14684194139E+02 -0.20096003012E+02  0.25660096926E+02  0.51100000000E-03 0.  1.
         12    1    3    3    0    0  0.24610111492E+02  0.76163462471E+01  0.11669547101E+02  0.28281524841E+02  0.00000000000E+00 0. -1.
</event>
<event>
 7    1  0.3020651E-013  0.7246144E+02  0.7816164E-02  0.1226708E+00
        -11   -1    0    0    0    0  0.00000000000E+00  0.00000000000E+00  0.45593999997E+02  0.45594000000E+02  0.51100000000E-03 0.  1.
         11   -1    0    0    0    0 -0.00000000000E+00 -0.00000000000E+00 -0.45593999997E+02  0.45594000000E+02  0.51100000000E-03 0. -1.
    9900012    2    1    2    0    0 -0.92765898137E+01  0.10565481572E+02  0.12369300269E+02  0.72461438421E+02  0.69999828210E+02 0.  0.
         12    1    1    2    0    0  0.92765898137E+01 -0.10565481572E+02 -0.12369300269E+02  0.18726561579E+02  0.00000000000E+00 0. -1.
         11    1    3    3    0    0  0.92739988439E+01 -0.64649939357E+01  0.17810591011E+02  0.21095505530E+02  0.51100000000E-03 0.  1.
        -11    1    3    3    0    0 -0.22722678037E+02  0.31108907995E+01  0.14169004658E+02  0.26958457522E+02  0.51100000000E-03 0. -1.
         12    1    3    3    0    0  0.41720893792E+01  0.13919584708E+02 -0.19610295399E+02  0.24407475369E+02  0.00000000000E+00 0. -1.
</event>
<event>
 7    1  0.3020651E-013  0.7246159E+02  0.7816164E-02  0.1226708E+00
        -11   -1    0    0    0    0  0.00000000000E+00  0.00000000000E+00  0.45593999997E+02  0.45594000000E+02  0.51100000000E-03 0. -1.
         11   -1    0    0    0    0 -0.00000000000E+00 -0.00000000000E+00 -0.45593999997E+02  0.45594000000E+02  0.51100000000E-03 0.  1.
    9900012    2    1    2    0    0  0.17623561893E+02 -0.54180944222E+01  0.32760934267E+01  0.72461588996E+02  0.70000024362E+02 0.  0.
         12    1    1    2    0    0 -0.17623561893E+02  0.54180944222E+01 -0.32760934267E+01  0.18726411004E+02  0.00000000000E+00 0. -1.
         11    1    3    3    0    0 -0.86864673649E+01  0.15905329074E+02  0.18565113562E+01  0.18217597067E+02  0.51100000000E-03 0. -1.
        -11    1    3    3    0    0 -0.10254570535E+02 -0.13289809702E+02  0.68119474434E+00  0.16799978729E+02  0.51100000000E-03 0.  1.
         12    1    3    3    0    0  0.36564599793E+02 -0.80336137944E+01  0.73838732620E+00  0.37444013199E+02  0.00000000000E+00 0. -1.
</event>
<event>
 7    1  0.3020651E-013  0.7246156E+02  0.7816164E-02  0.1226708E+00
        -11   -1    0    0    0    0  0.00000000000E+00  0.00000000000E+00  0.45593999997E+02  0.45594000000E+02  0.51100000000E-03 0. -1.
         11   -1    0    0    0    0 -0.00000000000E+00 -0.00000000000E+00 -0.45593999997E+02  0.45594000000E+02  0.51100000000E-03 0.  1.
    9900012    2    1    2    0    0  0.56159748200E+01  0.17853378728E+02 -0.63014709402E+00  0.72461564393E+02  0.69999992313E+02 0.  0.
         12    1    1    2    0    0 -0.56159748200E+01 -0.17853378728E+02  0.63014709402E+00  0.18726435607E+02  0.00000000000E+00 0. -1.
         11    1    3    3    0    0  0.11563318495E+02  0.44761349680E+01 -0.14555906168E+02  0.19121206120E+02  0.51100000000E-03 0. -1.
        -11    1    3    3    0    0 -0.13178374573E+02  0.24791212236E+02 -0.65294094535E+01  0.28825456607E+02  0.51100000000E-03 0.  1.
         12    1    3    3    0    0  0.72310308976E+01 -0.11413968476E+02  0.20455168527E+02  0.24514901666E+02  0.00000000000E+00 0. -1.
</event>
<event>
 7    1  0.3020651E-013  0.7246159E+02  0.7816164E-02  0.1226708E+00
        -11   -1    0    0    0    0  0.00000000000E+00  0.00000000000E+00  0.45593999997E+02  0.45594000000E+02  0.51100000000E-03 0.  1.
         11   -1    0    0    0    0 -0.00000000000E+00 -0.00000000000E+00 -0.45593999997E+02  0.45594000000E+02  0.51100000000E-03 0. -1.
    9900012    2    1    2    0    0 -0.25509644275E+01  0.13946496976E+02  0.12233820027E+02  0.72461586839E+02  0.70000021553E+02 0.  0.
         12    1    1    2    0    0  0.25509644275E+01 -0.13946496976E+02 -0.12233820027E+02  0.18726413161E+02  0.00000000000E+00 0. -1.
         11    1    3    3    0    0  0.85643256012E+01  0.59942110888E+01 -0.32810356588E+01  0.10956433491E+02  0.51100000000E-03 0. -1.
        -11    1    3    3    0    0 -0.98896258725E+01  0.32513140407E+02  0.14340370468E+02  0.36885704880E+02  0.51100000000E-03 0.  1.
         12    1    3    3    0    0 -0.12256641563E+01 -0.24560854520E+02  0.11744852174E+01  0.24619448469E+02  0.00000000000E+00 0. -1.
</event>
<event>
 7    1  0.3020651E-013  0.7246154E+02  0.7816164E-02  0.1226708E+00
        -11   -1    0    0    0    0  0.00000000000E+00  0.00000000000E+00  0.45593999997E+02  0.45594000000E+02  0.51100000000E-03 0. -1.
         11   -1    0    0    0    0 -0.00000000000E+00 -0.00000000000E+00 -0.45593999997E+02  0.45594000000E+02  0.51100000000E-03 0.  1.
    9900012    2    1    2    0    0 -0.14727398643E+02 -0.98170977037E+01 -0.61162680092E+01  0.72461537107E+02  0.69999956767E+02 0.  0.
         12    1    1    2    0    0  0.14727398643E+02  0.98170977037E+01  0.61162680092E+01  0.18726462893E+02  0.00000000000E+00 0. -1.
         11    1    3    3    0    0  0.13913938645E+02 -0.15366830260E+02 -0.16989610151E+02  0.26802686697E+02  0.51100000000E-03 0. -1.
        -11    1    3    3    0    0  0.41040610029E+00 -0.31147262961E+01 -0.89173597712E+01  0.94545892887E+01  0.51100000000E-03 0.  1.
        -12    1    3    3    0    0 -0.29051743388E+02  0.86644588527E+01  0.19790701913E+02  0.36204261121E+02  0.00000000000E+00 0.  1.
</event>
<event>
 7    1  0.3020651E-013  0.7246158E+02  0.7816164E-02  0.1226708E+00
        -11   -1    0    0    0    0  0.00000000000E+00  0.00000000000E+00  0.45593999997E+02  0.45594000000E+02  0.51100000000E-03 0. -1.
         11   -1    0    0    0    0 -0.00000000000E+00 -0.00000000000E+00 -0.45593999997E+02  0.45594000000E+02  0.51100000000E-03 0.  1.
    9900012    2    1    2    0    0  0.62014493930E+01 -0.31229410038E+01 -0.17391610047E+02  0.72461579223E+02  0.70000011631E+02 0.  0.
         12    1    1    2    0    0 -0.62014493930E+01  0.31229410038E+01  0.17391610047E+02  0.18726420777E+02  0.00000000000E+00 0. -1.
         11    1    3    3    0    0  0.18778170351E+02  0.66760003464E+01 -0.12208387092E+02  0.23371636186E+02  0.51100000000E-03 0. -1.
        -11    1    3    3    0    0 -0.93449166856E+01  0.57982356739E+01 -0.22815870858E+02  0.25328066805E+02  0.51100000000E-03 0.  1.
        -12    1    3    3    0    0 -0.32318042728E+01 -0.15597177024E+02  0.17632647903E+02  0.23761876231E+02  0.00000000000E+00 0.  1.
</event>
<event>
 7    1  0.3020651E-013  0.7246162E+02  0.7816164E-02  0.1226708E+00
        -11   -1    0    0    0    0  0.00000000000E+00  0.00000000000E+00  0.45593999997E+02  0.45594000000E+02  0.51100000000E-03 0.  1.
         11   -1    0    0    0    0 -0.00000000000E+00 -0.00000000000E+00 -0.45593999997E+02  0.45594000000E+02  0.51100000000E-03 0. -1.
    9900012    2    1    2    0    0 -0.12940502858E+02 -0.62138352651E+00 -0.13521628208E+02  0.72461623920E+02  0.70000069858E+02 0.  0.
         12    1    1    2    0    0  0.12940502858E+02  0.62138352651E+00  0.13521628208E+02  0.18726376080E+02  0.00000000000E+00 0. -1.
         11    1    3    3    0    0 -0.19888221234E+02  0.24835597461E+02 -0.67667363224E+01  0.32529017290E+02  0.51100000000E-03 0. -1.
        -11    1    3    3    0    0  0.18428294281E+00  0.49534652828E+01  0.46115831270E+01  0.67703380794E+01  0.51100000000E-03 0.  1.
         12    1    3    3    0    0  0.67634354337E+01 -0.30410446271E+02 -0.11366475012E+02  0.33162268551E+02  0.00000000000E+00 0. -1.
</event>
<event>
 7    1  0.3020651E-013  0.7246158E+02  0.7816164E-02  0.1226708E+00
        -11   -1    0    0    0    0  0.00000000000E+00  0.00000000000E+00  0.45593999997E+02  0.45594000000E+02  0.51100000000E-03 0. -1.
         11   -1    0    0    0    0 -0.00000000000E+00 -0.00000000000E+00 -0.45593999997E+02  0.45594000000E+02  0.51100000000E-03 0.  1.
    9900012    2    1    2    0    0  0.81284117530E+01  0.32123737509E+01 -0.16561649464E+02  0.72461584013E+02  0.70000017871E+02 0.  0.
         12    1    1    2    0    0 -0.81284117530E+01 -0.32123737509E+01  0.16561649464E+02  0.18726415987E+02  0.00000000000E+00 0. -1.
         11    1    3    3    0    0  0.13913457241E+02 -0.16794681257E+02  0.17385625258E+02  0.27890958692E+02  0.51100000000E-03 0. -1.
        -11    1    3    3    0    0  0.16044241803E+01  0.55419591983E+01  0.11625092941E+01  0.58854835678E+01  0.51100000000E-03 0.  1.
        -12    1    3    3    0    0 -0.73894696679E+01  0.14465095809E+02 -0.35109784017E+02  0.38685141753E+02  0.00000000000E+00 0.  1.
</event>
<event>
 7    1  0.3020651E-013  0.7246185E+02  0.7816164E-02  0.1226707E+00
        -11   -1    0    0    0    0  0.00000000000E+00  0.00000000000E+00  0.45593999997E+02  0.45594000000E+02  0.51100000000E-03 0.  1.
         11   -1    0    0    0    0 -0.00000000000E+00 -0.00000000000E+00 -0.45593999997E+02  0.45594000000E+02  0.51100000000E-03 0. -1.
    9900012    2    1    2    0    0 -0.57355613939E+01  0.12048764767E+02  0.13137702819E+02  0.72461851644E+02  0.70000366509E+02 0.  0.
         12    1    1    2    0    0  0.57355613939E+01 -0.12048764767E+02 -0.13137702819E+02  0.18726148356E+02  0.00000000000E+00 0. -1.
         11    1    3    3    0    0 -0.55791061752E+01 -0.74003973497E+01  0.66291010784E+01  0.11394616624E+02  0.51100000000E-03 0. -1.
        -11    1    3    3    0    0 -0.27710575987E+02  0.13336465456E+01  0.31463879237E+01  0.27920501282E+02  0.51100000000E-03 0.  1.
        -12    1    3    3    0    0  0.27554120768E+02  0.18115515571E+02  0.33622138166E+01  0.33146733737E+02  0.00000000000E+00 0.  1.
</event>
<event>
 7    1  0.3020651E-013  0.7246151E+02  0.7816164E-02  0.1226708E+00
        -11   -1    0    0    0    0  0.00000000000E+00  0.00000000000E+00  0.45593999997E+02  0.45594000000E+02  0.51100000000E-03 0.  1.
         11   -1    0    0    0    0 -0.00000000000E+00 -0.00000000000E+00 -0.45593999997E+02  0.45594000000E+02  0.51100000000E-03 0. -1.
    9900012    2    1    2    0    0  0.54722516692E+01  0.70481203802E+01  0.16463892880E+02  0.72461513197E+02  0.69999925620E+02 0.  0.
         12    1    1    2    0    0 -0.54722516692E+01 -0.70481203802E+01 -0.16463892880E+02  0.18726486803E+02  0.00000000000E+00 0. -1.
         11    1    3    3    0    0 -0.90356034575E+01  0.24598998366E+02 -0.10283505508E+01  0.26226138785E+02  0.51100000000E-03 0. -1.
        -11    1    3    3    0    0 -0.10643398880E+02 -0.35961406342E+01  0.12902770279E+02  0.17108350251E+02  0.51100000000E-03 0.  1.
        -12    1    3    3    0    0  0.25151254006E+02 -0.13954737352E+02  0.45894731513E+01  0.29127024161E+02  0.00000000000E+00 0.  1.
</event>
<event>
 7    1  0.3020651E-013  0.7246152E+02  0.7816164E-02  0.1226708E+00
        -11   -1    0    0    0    0  0.00000000000E+00  0.00000000000E+00  0.45593999997E+02  0.45594000000E+02  0.51100000000E-03 0. -1.
         11   -1    0    0    0    0 -0.00000000000E+00 -0.00000000000E+00 -0.45593999997E+02  0.45594000000E+02  0.51100000000E-03 0.  1.
    9900012    2    1    2    0    0  0.83815042681E+01 -0.15852861729E+02  0.53961315156E+01  0.72461519441E+02  0.69999933754E+02 0.  0.
         12    1    1    2    0    0 -0.83815042681E+01  0.15852861729E+02 -0.53961315156E+01  0.18726480559E+02  0.00000000000E+00 0. -1.
         11    1    3    3    0    0  0.40822464281E+01 -0.57647628357E+01 -0.51805345445E+01  0.87598610080E+01  0.51100000000E-03 0. -1.
        -11    1    3    3    0    0  0.16412255388E+02 -0.22306485848E+02 -0.16043688990E+02  0.32005333845E+02  0.51100000000E-03 0.  1.
         12    1    3    3    0    0 -0.12112997548E+02  0.12218386955E+02  0.26620355051E+02  0.31696324588E+02  0.00000000000E+00 0. -1.
</event>
<event>
 7    1  0.3020651E-013  0.7246160E+02  0.7816164E-02  0.1226708E+00
        -11   -1    0    0    0    0  0.00000000000E+00  0.00000000000E+00  0.45593999997E+02  0.45594000000E+02  0.51100000000E-03 0.  1.
         11   -1    0    0    0    0 -0.00000000000E+00 -0.00000000000E+00 -0.45593999997E+02  0.45594000000E+02  0.51100000000E-03 0. -1.
    9900012    2    1    2    0    0 -0.18028425161E+01  0.18593414739E+02  0.13087256684E+01  0.72461599501E+02  0.70000038047E+02 0.  0.
         12    1    1    2    0    0  0.18028425161E+01 -0.18593414739E+02 -0.13087256684E+01  0.18726400499E+02  0.00000000000E+00 0. -1.
         11    1    3    3    0    0 -0.54067894325E+01 -0.61449538795E+01 -0.23451707980E+01  0.85143206706E+01  0.51100000000E-03 0. -1.
        -11    1    3    3    0    0 -0.17354360274E+02 -0.10625455896E+02  0.94443291309E+01  0.22433668592E+02  0.51100000000E-03 0.  1.
         12    1    3    3    0    0  0.20958307190E+02  0.35363824514E+02 -0.57904326644E+01  0.41513610238E+02  0.00000000000E+00 0. -1.
</event>
<event>
 7    1  0.3020651E-013  0.7246158E+02  0.7816164E-02  0.1226708E+00
        -11   -1    0    0    0    0  0.00000000000E+00  0.00000000000E+00  0.45593999997E+02  0.45594000000E+02  0.51100000000E-03 0. -1.
         11   -1    0    0    0    0 -0.00000000000E+00 -0.00000000000E+00 -0.45593999997E+02  0.45594000000E+02  0.51100000000E-03 0.  1.
    9900012    2    1    2    0    0  0.16403899606E+02 -0.35619896022E+00 -0.90257324756E+01  0.72461584254E+02  0.70000018185E+02 0.  0.
         12    1    1    2    0    0 -0.16403899606E+02  0.35619896022E+00  0.90257324756E+01  0.18726415746E+02  0.00000000000E+00 0. -1.
         11    1    3    3    0    0 -0.10470999263E+01  0.40308196400E+01 -0.11053875282E+02  0.11812369967E+02  0.51100000000E-03 0. -1.
        -11    1    3    3    0    0  0.26862405066E+02 -0.85022767476E+01 -0.21193761088E+02  0.35256957117E+02  0.51100000000E-03 0.  1.
         12    1    3    3    0    0 -0.94114055342E+01  0.41152581475E+01  0.23221903894E+02  0.25392257171E+02  0.00000000000E+00 0. -1.
</event>
<event>
 7    1  0.3020651E-013  0.7246157E+02  0.7816164E-02  0.1226708E+00
        -11   -1    0    0    0    0  0.00000000000E+00  0.00000000000E+00  0.45593999997E+02  0.45594000000E+02  0.51100000000E-03 0.  1.
         11   -1    0    0    0    0 -0.00000000000E+00 -0.00000000000E+00 -0.45593999997E+02  0.45594000000E+02  0.51100000000E-03 0. -1.
    9900012    2    1    2    0    0 -0.93998036718E+01 -0.14048036816E+02  0.80607352189E+01  0.72461572158E+02  0.70000002428E+02 0.  0.
         12    1    1    2    0    0  0.93998036718E+01  0.14048036816E+02 -0.80607352189E+01  0.18726427842E+02  0.00000000000E+00 0. -1.
         11    1    3    3    0    0  0.16337102194E+02 -0.15887713895E+02 -0.34997464873E+01  0.23055771222E+02  0.51100000000E-03 0. -1.
        -11    1    3    3    0    0 -0.11571629915E+02  0.21052844085E+02  0.39117960869E+01  0.24339823579E+02  0.51100000000E-03 0.  1.
         12    1    3    3    0    0 -0.14165275951E+02 -0.19213167006E+02  0.76486856192E+01  0.25065977357E+02  0.00000000000E+00 0. -1.
</event>
<event>
 7    1  0.3020651E-013  0.7246159E+02  0.7816164E-02  0.1226708E+00
        -11   -1    0    0    0    0  0.00000000000E+00  0.00000000000E+00  0.45593999997E+02  0.45594000000E+02  0.51100000000E-03 0. -1.
         11   -1    0    0    0    0 -0.00000000000E+00 -0.00000000000E+00 -0.45593999997E+02  0.45594000000E+02  0.51100000000E-03 0.  1.
    9900012    2    1    2    0    0 -0.11017727796E+02  0.66679574880E+01 -0.13595092245E+02  0.72461587744E+02  0.70000022731E+02 0.  0.
         12    1    1    2    0    0  0.11017727796E+02 -0.66679574880E+01  0.13595092245E+02  0.18726412256E+02  0.00000000000E+00 0. -1.
         11    1    3    3    0    0  0.37472306602E+01 -0.74795289739E+01 -0.54254324829E+01  0.99709783461E+01  0.51100000000E-03 0. -1.
        -11    1    3    3    0    0 -0.14392411533E+02 -0.17916183428E+02 -0.17734843525E+02  0.29028534470E+02  0.51100000000E-03 0.  1.
         12    1    3    3    0    0 -0.37254692304E+00  0.32063669890E+02  0.95651837625E+01  0.33462074928E+02  0.00000000000E+00 0. -1.
</event>
<event>
 7    1  0.3020651E-013  0.7246161E+02  0.7816164E-02  0.1226708E+00
        -11   -1    0    0    0    0  0.00000000000E+00  0.00000000000E+00  0.45593999997E+02  0.45594000000E+02  0.51100000000E-03 0. -1.
         11   -1    0    0    0    0 -0.00000000000E+00 -0.00000000000E+00 -0.45593999997E+02  0.45594000000E+02  0.51100000000E-03 0.  1.
    9900012    2    1    2    0    0  0.31612891759E+01  0.10939428895E+01 -0.18425181137E+02  0.72461607923E+02  0.70000049019E+02 0.  0.
         12    1    1    2    0    0 -0.31612891759E+01 -0.10939428895E+01  0.18425181137E+02  0.18726392077E+02  0.00000000000E+00 0. -1.
         11    1    3    3    0    0  0.54539722741E+01  0.31782086378E+01  0.13361941647E+02  0.14777966996E+02  0.51100000000E-03 0. -1.
        -11    1    3    3    0    0 -0.19423018112E+01 -0.13119472796E+02  0.86051947650E+01  0.15809569253E+02  0.51100000000E-03 0.  1.
        -12    1    3    3    0    0 -0.35038128700E+00  0.11035207048E+02 -0.40392317548E+02  0.41874071674E+02  0.00000000000E+00 0.  1.
</event>
