<event>
 7    1  0.2580704E-010  0.4778728E+02  0.7816164E-02  0.1312668E+00
        -11   -1    0    0    0    0  0.00000000000E+00  0.00000000000E+00  0.45593999997E+02  0.45594000000E+02  0.51100000000E-03 0.  1.
         11   -1    0    0    0    0 -0.00000000000E+00 -0.00000000000E+00 -0.45593999997E+02  0.45594000000E+02  0.51100000000E-03 0. -1.
    9900012    2    1    2    0    0 -0.25536833388E+01 -0.13299370094E+02  0.41233824048E+02  0.47787276629E+02  0.20000025462E+02 0.  0.
         12    1    1    2    0    0  0.25536833388E+01  0.13299370094E+02 -0.41233824048E+02  0.43400723371E+02  0.00000000000E+00 0. -1.
         11    1    3    3    0    0 -0.51990453815E+01 -0.61321260677E+01  0.31949515882E+01  0.86510553635E+01  0.51100000000E-03 0. -1.
        -11    1    3    3    0    0 -0.87519590904E+00 -0.38185889892E+01  0.11308962578E+02  0.11968300823E+02  0.51100000000E-03 0.  1.
        -12    1    3    3    0    0  0.35205579518E+01 -0.33486550366E+01  0.26729909882E+02  0.27167920442E+02  0.00000000000E+00 0.  1.
</event>
<event>
 7    1  0.2580704E-010  0.4778727E+02  0.7816164E-02  0.1312668E+00
        -11   -1    0    0    0    0  0.00000000000E+00  0.00000000000E+00  0.45593999997E+02  0.45594000000E+02  0.51100000000E-03 0.  1.
         11   -1    0    0    0    0 -0.00000000000E+00 -0.00000000000E+00 -0.45593999997E+02  0.45594000000E+02  0.51100000000E-03 0. -1.
    9900012    2    1    2    0    0 -0.31054664659E+02  0.76480637186E+01  0.29338337425E+02  0.47787272833E+02  0.20000008156E+02 0.  0.
         12    1    1    2    0    0  0.31054664659E+02 -0.76480637186E+01 -0.29338337425E+02  0.43400727167E+02  0.00000000000E+00 0. -1.
         11    1    3    3    0    0 -0.84423456762E+01  0.26064150619E+01  0.17587527204E+01  0.90088740353E+01  0.51100000000E-03 0. -1.
        -11    1    3    3    0    0 -0.11183401068E+02 -0.46556170062E+01  0.10270469420E+02  0.15881617409E+02  0.51100000000E-03 0.  1.
        -12    1    3    3    0    0 -0.11428917916E+02  0.96972656629E+01  0.17309115284E+02  0.22896781389E+02  0.00000000000E+00 0.  1.
</event>
<event>
 7    1  0.2580704E-010  0.4778727E+02  0.7816164E-02  0.1312668E+00
        -11   -1    0    0    0    0  0.00000000000E+00  0.00000000000E+00  0.45593999997E+02  0.45594000000E+02  0.51100000000E-03 0.  1.
         11   -1    0    0    0    0 -0.00000000000E+00 -0.00000000000E+00 -0.45593999997E+02  0.45594000000E+02  0.51100000000E-03 0. -1.
    9900012    2    1    2    0    0  0.15945257604E+02 -0.28519597660E+01  0.40264601267E+02  0.47787273857E+02  0.20000012825E+02 0.  0.
         12    1    1    2    0    0 -0.15945257604E+02  0.28519597660E+01 -0.40264601267E+02  0.43400726143E+02  0.00000000000E+00 0. -1.
         11    1    3    3    0    0 -0.35299854610E+01 -0.37728589486E+01  0.52354352805E+01  0.73556131517E+01  0.51100000000E-03 0. -1.
        -11    1    3    3    0    0  0.80760370178E+01  0.29340876991E+01  0.13978240047E+02  0.16407999256E+02  0.51100000000E-03 0.  1.
         12    1    3    3    0    0  0.11399206047E+02 -0.20131885165E+01  0.21050925940E+02  0.24023661449E+02  0.00000000000E+00 0. -1.
</event>
<event>
 7    1  0.2580704E-010  0.4778727E+02  0.7816164E-02  0.1312668E+00
        -11   -1    0    0    0    0  0.00000000000E+00  0.00000000000E+00  0.45593999997E+02  0.45594000000E+02  0.51100000000E-03 0.  1.
         11   -1    0    0    0    0 -0.00000000000E+00 -0.00000000000E+00 -0.45593999997E+02  0.45594000000E+02  0.51100000000E-03 0. -1.
    9900012    2    1    2    0    0  0.28599529786E+02 -0.31521234399E+02 -0.84912980038E+01  0.47787268856E+02  0.19999990022E+02 0.  0.
         12    1    1    2    0    0 -0.28599529786E+02  0.31521234399E+02  0.84912980038E+01  0.43400731144E+02  0.00000000000E+00 0. -1.
         11    1    3    3    0    0  0.59276902961E+00 -0.19437559757E+00  0.19221623914E+01  0.20208576188E+01  0.51100000000E-03 0. -1.
        -11    1    3    3    0    0  0.10244955885E+02 -0.18688495315E+02  0.64590513696E+00  0.21322199041E+02  0.51100000000E-03 0.  1.
         12    1    3    3    0    0  0.17761804872E+02 -0.12638363486E+02 -0.11059365532E+02  0.24444212196E+02  0.00000000000E+00 0. -1.
</event>
<event>
 7    1  0.2580704E-010  0.4778726E+02  0.7816164E-02  0.1312668E+00
        -11   -1    0    0    0    0  0.00000000000E+00  0.00000000000E+00  0.45593999997E+02  0.45594000000E+02  0.51100000000E-03 0.  1.
         11   -1    0    0    0    0 -0.00000000000E+00 -0.00000000000E+00 -0.45593999997E+02  0.45594000000E+02  0.51100000000E-03 0. -1.
    9900012    2    1    2    0    0 -0.36544555891E+02  0.10473563519E+02 -0.20938572738E+02  0.47787263528E+02  0.19999965728E+02 0.  0.
         12    1    1    2    0    0  0.36544555891E+02 -0.10473563519E+02  0.20938572738E+02  0.43400736472E+02  0.00000000000E+00 0. -1.
         11    1    3    3    0    0 -0.17776125756E+02  0.18816223807E+01 -0.12957900863E+02  0.22078005905E+02  0.51100000000E-03 0. -1.
        -11    1    3    3    0    0 -0.18901201167E+02  0.83467104729E+01 -0.10498306804E+02  0.23176225475E+02  0.51100000000E-03 0.  1.
         12    1    3    3    0    0  0.13277103172E+00  0.24523066505E+00  0.25176349293E+01  0.25330321481E+01  0.00000000000E+00 0. -1.
</event>
<event>
 7    1  0.2580704E-010  0.4778727E+02  0.7816164E-02  0.1312668E+00
        -11   -1    0    0    0    0  0.00000000000E+00  0.00000000000E+00  0.45593999997E+02  0.45594000000E+02  0.51100000000E-03 0.  1.
         11   -1    0    0    0    0 -0.00000000000E+00 -0.00000000000E+00 -0.45593999997E+02  0.45594000000E+02  0.51100000000E-03 0. -1.
    9900012    2    1    2    0    0  0.14764163452E+02 -0.40452975552E+01  0.40611314038E+02  0.47787265183E+02  0.19999973278E+02 0.  0.
         12    1    1    2    0    0 -0.14764163452E+02  0.40452975552E+01 -0.40611314038E+02  0.43400734817E+02  0.00000000000E+00 0. -1.
         11    1    3    3    0    0  0.36949442215E+01  0.56386363740E+01  0.15579052463E+02  0.16975090835E+02  0.51100000000E-03 0.  1.
        -11    1    3    3    0    0  0.80122749067E+01 -0.22115237546E+00  0.10765934268E+02  0.13422026616E+02  0.51100000000E-03 0. -1.
        -12    1    3    3    0    0  0.30569443240E+01 -0.94627815537E+01  0.14266327307E+02  0.17390147733E+02  0.00000000000E+00 0.  1.
</event>
<event>
 7    1  0.2580704E-010  0.4778727E+02  0.7816164E-02  0.1312668E+00
        -11   -1    0    0    0    0  0.00000000000E+00  0.00000000000E+00  0.45593999997E+02  0.45594000000E+02  0.51100000000E-03 0.  1.
         11   -1    0    0    0    0 -0.00000000000E+00 -0.00000000000E+00 -0.45593999997E+02  0.45594000000E+02  0.51100000000E-03 0. -1.
    9900012    2    1    2    0    0  0.29393586795E+02 -0.69682339374E+01  0.31162222365E+02  0.47787270379E+02  0.19999996966E+02 0.  0.
         12    1    1    2    0    0 -0.29393586795E+02  0.69682339374E+01 -0.31162222365E+02  0.43400729621E+02  0.00000000000E+00 0. -1.
         11    1    3    3    0    0 -0.14434121749E+01 -0.29150293236E+01  0.66470235456E+00  0.33200397807E+01  0.51100000000E-03 0. -1.
        -11    1    3    3    0    0  0.55725689875E+01 -0.33217616814E+01  0.30941150406E+01  0.71875707951E+01  0.51100000000E-03 0.  1.
        -12    1    3    3    0    0  0.25264429982E+02 -0.73144293239E+00  0.27403404970E+02  0.37279659803E+02  0.00000000000E+00 0.  1.
</event>
<event>
 7    1  0.2580704E-010  0.4778727E+02  0.7816164E-02  0.1312668E+00
        -11   -1    0    0    0    0  0.00000000000E+00  0.00000000000E+00  0.45593999997E+02  0.45594000000E+02  0.51100000000E-03 0. -1.
         11   -1    0    0    0    0 -0.00000000000E+00 -0.00000000000E+00 -0.45593999997E+02  0.45594000000E+02  0.51100000000E-03 0.  1.
    9900012    2    1    2    0    0 -0.36653844371E+02  0.45912440684E+01 -0.22782435128E+02  0.47787272131E+02  0.20000004953E+02 0.  0.
         12    1    1    2    0    0  0.36653844371E+02 -0.45912440684E+01  0.22782435128E+02  0.43400727869E+02  0.00000000000E+00 0. -1.
         11    1    3    3    0    0 -0.22518173270E+02 -0.21315062334E-01 -0.13026142732E+02  0.26014399406E+02  0.51100000000E-03 0. -1.
        -11    1    3    3    0    0 -0.14129638914E+02  0.31083764955E+01 -0.29022770589E+01  0.14755741684E+02  0.51100000000E-03 0.  1.
         12    1    3    3    0    0 -0.60321868897E-02  0.15041826352E+01 -0.68540153374E+01  0.70171310400E+01  0.00000000000E+00 0. -1.
</event>
<event>
 7    1  0.2580704E-010  0.4778727E+02  0.7816164E-02  0.1312668E+00
        -11   -1    0    0    0    0  0.00000000000E+00  0.00000000000E+00  0.45593999997E+02  0.45594000000E+02  0.51100000000E-03 0.  1.
         11   -1    0    0    0    0 -0.00000000000E+00 -0.00000000000E+00 -0.45593999997E+02  0.45594000000E+02  0.51100000000E-03 0. -1.
    9900012    2    1    2    0    0 -0.23563740323E+02  0.28344167932E+02  0.22912473728E+02  0.47787272286E+02  0.20000005660E+02 0.  0.
         12    1    1    2    0    0  0.23563740323E+02 -0.28344167932E+02 -0.22912473728E+02  0.43400727714E+02  0.00000000000E+00 0. -1.
         11    1    3    3    0    0 -0.23495338782E+02  0.16311725165E+02  0.16513391106E+02  0.33027191955E+02  0.51100000000E-03 0. -1.
        -11    1    3    3    0    0 -0.25376502777E+01  0.82179981916E+01  0.52373532112E+01  0.10070006561E+02  0.51100000000E-03 0.  1.
         12    1    3    3    0    0  0.24692487372E+01  0.38144445758E+01  0.11617294107E+01  0.46900737704E+01  0.00000000000E+00 0. -1.
</event>
<event>
 7    1  0.2580704E-010  0.4778727E+02  0.7816164E-02  0.1312668E+00
        -11   -1    0    0    0    0  0.00000000000E+00  0.00000000000E+00  0.45593999997E+02  0.45594000000E+02  0.51100000000E-03 0.  1.
         11   -1    0    0    0    0 -0.00000000000E+00 -0.00000000000E+00 -0.45593999997E+02  0.45594000000E+02  0.51100000000E-03 0. -1.
    9900012    2    1    2    0    0  0.41106481222E+02 -0.64524544310E+01  0.12338806964E+02  0.47787272772E+02  0.20000007876E+02 0.  0.
         12    1    1    2    0    0 -0.41106481222E+02  0.64524544310E+01 -0.12338806964E+02  0.43400727228E+02  0.00000000000E+00 0. -1.
         11    1    3    3    0    0  0.21272279436E+02 -0.20933118625E+01  0.11176851353E+02  0.24120817428E+02  0.51100000000E-03 0.  1.
        -11    1    3    3    0    0  0.20847074672E+02 -0.59030399394E+01  0.17270360601E+01  0.21735433208E+02  0.51100000000E-03 0. -1.
        -12    1    3    3    0    0 -0.10128728860E+01  0.15438973709E+01 -0.56508044986E+00  0.19310221360E+01  0.00000000000E+00 0.  1.
</event>
<event>
 7    1  0.2580704E-010  0.4778727E+02  0.7816164E-02  0.1312668E+00
        -11   -1    0    0    0    0  0.00000000000E+00  0.00000000000E+00  0.45593999997E+02  0.45594000000E+02  0.51100000000E-03 0. -1.
         11   -1    0    0    0    0 -0.00000000000E+00 -0.00000000000E+00 -0.45593999997E+02  0.45594000000E+02  0.51100000000E-03 0.  1.
    9900012    2    1    2    0    0 -0.31022297554E+02 -0.18504404608E+02 -0.24058832428E+02  0.47787270130E+02  0.19999995831E+02 0.  0.
         12    1    1    2    0    0  0.31022297554E+02  0.18504404608E+02  0.24058832428E+02  0.43400729870E+02  0.00000000000E+00 0. -1.
         11    1    3    3    0    0 -0.97576624773E+01 -0.22911900950E+01 -0.81959749149E+01  0.12947414187E+02  0.51100000000E-03 0. -1.
        -11    1    3    3    0    0 -0.16645467959E+02 -0.41326574757E+01 -0.13182083483E+02  0.21631407411E+02  0.51100000000E-03 0.  1.
        -12    1    3    3    0    0 -0.46191671183E+01 -0.12080557038E+02 -0.26807740298E+01  0.13208448531E+02  0.00000000000E+00 0.  1.
</event>
<event>
 7    1  0.2580704E-010  0.4778727E+02  0.7816164E-02  0.1312668E+00
        -11   -1    0    0    0    0  0.00000000000E+00  0.00000000000E+00  0.45593999997E+02  0.45594000000E+02  0.51100000000E-03 0.  1.
         11   -1    0    0    0    0 -0.00000000000E+00 -0.00000000000E+00 -0.45593999997E+02  0.45594000000E+02  0.51100000000E-03 0. -1.
    9900012    2    1    2    0    0  0.36572841743E+02 -0.17867419786E+02  0.15060071962E+02  0.47787271775E+02  0.20000003331E+02 0.  0.
         12    1    1    2    0    0 -0.36572841743E+02  0.17867419786E+02 -0.15060071962E+02  0.43400728225E+02  0.00000000000E+00 0. -1.
         11    1    3    3    0    0  0.32740261957E+01  0.24513518868E+01  0.53404035856E+00  0.41247512615E+01  0.51100000000E-03 0. -1.
        -11    1    3    3    0    0  0.17519627002E+02 -0.31157140036E+01  0.53664413179E+01  0.18586115697E+02  0.51100000000E-03 0.  1.
         12    1    3    3    0    0  0.15779188545E+02 -0.17203057669E+02  0.91595902853E+01  0.25076404816E+02  0.00000000000E+00 0. -1.
</event>
<event>
 7    1  0.2580704E-010  0.4778727E+02  0.7816164E-02  0.1312668E+00
        -11   -1    0    0    0    0  0.00000000000E+00  0.00000000000E+00  0.45593999997E+02  0.45594000000E+02  0.51100000000E-03 0. -1.
         11   -1    0    0    0    0 -0.00000000000E+00 -0.00000000000E+00 -0.45593999997E+02  0.45594000000E+02  0.51100000000E-03 0.  1.
    9900012    2    1    2    0    0  0.40854451714E+02 -0.88797831011E+01 -0.11648458005E+02  0.47787270206E+02  0.19999996178E+02 0.  0.
         12    1    1    2    0    0 -0.40854451714E+02  0.88797831011E+01  0.11648458005E+02  0.43400729794E+02  0.00000000000E+00 0. -1.
         11    1    3    3    0    0  0.74678332162E+01 -0.58580841665E+01 -0.87666803160E+01  0.12920540510E+02  0.51100000000E-03 0. -1.
        -11    1    3    3    0    0  0.34869018034E+01 -0.20335631847E+01  0.20816958578E+01  0.45417310927E+01  0.51100000000E-03 0.  1.
        -12    1    3    3    0    0  0.29899716694E+02 -0.98813574995E+00 -0.49634735467E+01  0.30324998603E+02  0.00000000000E+00 0.  1.
</event>
<event>
 7    1  0.2580704E-010  0.4778728E+02  0.7816164E-02  0.1312668E+00
        -11   -1    0    0    0    0  0.00000000000E+00  0.00000000000E+00  0.45593999997E+02  0.45594000000E+02  0.51100000000E-03 0.  1.
         11   -1    0    0    0    0 -0.00000000000E+00 -0.00000000000E+00 -0.45593999997E+02  0.45594000000E+02  0.51100000000E-03 0. -1.
    9900012    2    1    2    0    0 -0.53292033222E+01  0.26107455606E+02  0.34258179259E+02  0.47787280047E+02  0.20000041047E+02 0.  0.
         12    1    1    2    0    0  0.53292033222E+01 -0.26107455606E+02 -0.34258179259E+02  0.43400719953E+02  0.00000000000E+00 0. -1.
         11    1    3    3    0    0 -0.67748188943E+01  0.18706382861E+02  0.29540784017E+02  0.35615794971E+02  0.51100000000E-03 0.  1.
        -11    1    3    3    0    0 -0.31224878425E+01  0.86391538392E+00  0.15323692751E+01  0.35839134997E+01  0.51100000000E-03 0. -1.
        -12    1    3    3    0    0  0.45681034146E+01  0.65371573618E+01  0.31850259664E+01  0.85875715767E+01  0.00000000000E+00 0.  1.
</event>
<event>
 7    1  0.2580704E-010  0.4778726E+02  0.7816164E-02  0.1312668E+00
        -11   -1    0    0    0    0  0.00000000000E+00  0.00000000000E+00  0.45593999997E+02  0.45594000000E+02  0.51100000000E-03 0.  1.
         11   -1    0    0    0    0 -0.00000000000E+00 -0.00000000000E+00 -0.45593999997E+02  0.45594000000E+02  0.51100000000E-03 0. -1.
    9900012    2    1    2    0    0  0.92830544644E+01 -0.90418337166E+01  0.41420936886E+02  0.47787264181E+02  0.19999968705E+02 0.  0.
         12    1    1    2    0    0 -0.92830544644E+01  0.90418337166E+01 -0.41420936886E+02  0.43400735819E+02  0.00000000000E+00 0. -1.
         11    1    3    3    0    0  0.44239649825E+01  0.36201102725E+01  0.55567099023E+01  0.79720568081E+01  0.51100000000E-03 0. -1.
        -11    1    3    3    0    0  0.42100136543E+01  0.36745406271E+00  0.96256553904E+01  0.10512491589E+02  0.51100000000E-03 0.  1.
        -12    1    3    3    0    0  0.64907582755E+00 -0.13029398052E+02  0.26238571593E+02  0.29302715783E+02  0.00000000000E+00 0.  1.
</event>
<event>
 7    1  0.2580704E-010  0.4778725E+02  0.7816164E-02  0.1312668E+00
        -11   -1    0    0    0    0  0.00000000000E+00  0.00000000000E+00  0.45593999997E+02  0.45594000000E+02  0.51100000000E-03 0. -1.
         11   -1    0    0    0    0 -0.00000000000E+00 -0.00000000000E+00 -0.45593999997E+02  0.45594000000E+02  0.51100000000E-03 0.  1.
    9900012    2    1    2    0    0 -0.35223307910E+02 -0.15560926445E+02 -0.20020011549E+02  0.47787254449E+02  0.19999924334E+02 0.  0.
         12    1    1    2    0    0  0.35223307910E+02  0.15560926445E+02  0.20020011549E+02  0.43400745551E+02  0.00000000000E+00 0. -1.
         11    1    3    3    0    0 -0.10684930942E+02 -0.49674741445E+01 -0.76442001459E+01  0.14045545370E+02  0.51100000000E-03 0.  1.
        -11    1    3    3    0    0 -0.10432989555E+02  0.39150967711E+01 -0.39564434855E+01  0.11824918566E+02  0.51100000000E-03 0. -1.
        -12    1    3    3    0    0 -0.14105387413E+02 -0.14508549072E+02 -0.84193679181E+01  0.21916790513E+02  0.00000000000E+00 0.  1.
</event>
<event>
 7    1  0.2580704E-010  0.4778727E+02  0.7816164E-02  0.1312668E+00
        -11   -1    0    0    0    0  0.00000000000E+00  0.00000000000E+00  0.45593999997E+02  0.45594000000E+02  0.51100000000E-03 0. -1.
         11   -1    0    0    0    0 -0.00000000000E+00 -0.00000000000E+00 -0.45593999997E+02  0.45594000000E+02  0.51100000000E-03 0.  1.
    9900012    2    1    2    0    0  0.20526626243E+02 -0.31119083969E+02  0.22223488465E+02  0.47787271762E+02  0.20000003272E+02 0.  0.
         12    1    1    2    0    0 -0.20526626243E+02  0.31119083969E+02 -0.22223488465E+02  0.43400728238E+02  0.00000000000E+00 0. -1.
         11    1    3    3    0    0  0.85922620781E+01 -0.14731294920E+02  0.73159172021E+01  0.18556957251E+02  0.51100000000E-03 0. -1.
        -11    1    3    3    0    0 -0.74215041684E+00 -0.11477950431E+02  0.77252652814E+01  0.13855463084E+02  0.51100000000E-03 0.  1.
         12    1    3    3    0    0  0.12676514582E+02 -0.49098386178E+01  0.71823059819E+01  0.15374851427E+02  0.00000000000E+00 0. -1.
</event>
<event>
 7    1  0.2580704E-010  0.4778726E+02  0.7816164E-02  0.1312668E+00
        -11   -1    0    0    0    0  0.00000000000E+00  0.00000000000E+00  0.45593999997E+02  0.45594000000E+02  0.51100000000E-03 0.  1.
         11   -1    0    0    0    0 -0.00000000000E+00 -0.00000000000E+00 -0.45593999997E+02  0.45594000000E+02  0.51100000000E-03 0. -1.
    9900012    2    1    2    0    0  0.40885807869E+02 -0.11803436179E+02 -0.85237028096E+01  0.47787263827E+02  0.19999967093E+02 0.  0.
         12    1    1    2    0    0 -0.40885807869E+02  0.11803436179E+02  0.85237028096E+01  0.43400736173E+02  0.00000000000E+00 0. -1.
         11    1    3    3    0    0  0.56179847506E+01  0.25047535467E+01  0.13171075970E+01  0.62904940721E+01  0.51100000000E-03 0. -1.
        -11    1    3    3    0    0  0.16150562951E+02 -0.21823299994E+01 -0.94826449608E+01  0.18855338861E+02  0.51100000000E-03 0.  1.
         12    1    3    3    0    0  0.19117260168E+02 -0.12125859726E+02 -0.35816544578E+00  0.22641430894E+02  0.00000000000E+00 0. -1.
</event>
<event>
 7    1  0.2580704E-010  0.4778727E+02  0.7816164E-02  0.1312668E+00
        -11   -1    0    0    0    0  0.00000000000E+00  0.00000000000E+00  0.45593999997E+02  0.45594000000E+02  0.51100000000E-03 0.  1.
         11   -1    0    0    0    0 -0.00000000000E+00 -0.00000000000E+00 -0.45593999997E+02  0.45594000000E+02  0.51100000000E-03 0. -1.
    9900012    2    1    2    0    0 -0.18886733848E+02  0.84778362315E+01  0.38145002948E+02  0.47787266452E+02  0.19999979061E+02 0.  0.
         12    1    1    2    0    0  0.18886733848E+02 -0.84778362315E+01 -0.38145002948E+02  0.43400733548E+02  0.00000000000E+00 0. -1.
         11    1    3    3    0    0 -0.61242001180E+01  0.15649887836E+01  0.22228714112E+02  0.23109970755E+02  0.51100000000E-03 0. -1.
        -11    1    3    3    0    0 -0.87095303845E+01  0.36107402415E+01  0.16905269435E+02  0.19356691338E+02  0.51100000000E-03 0.  1.
        -12    1    3    3    0    0 -0.40530033455E+01  0.33021072064E+01 -0.98898059894E+00  0.53206043591E+01  0.00000000000E+00 0.  1.
</event>
<event>
 7    1  0.2580704E-010  0.4778727E+02  0.7816164E-02  0.1312668E+00
        -11   -1    0    0    0    0  0.00000000000E+00  0.00000000000E+00  0.45593999997E+02  0.45594000000E+02  0.51100000000E-03 0.  1.
         11   -1    0    0    0    0 -0.00000000000E+00 -0.00000000000E+00 -0.45593999997E+02  0.45594000000E+02  0.51100000000E-03 0. -1.
    9900012    2    1    2    0    0 -0.14043685186E+02 -0.87489659048E+01  0.40122987649E+02  0.47787266874E+02  0.19999980984E+02 0.  0.
         12    1    1    2    0    0  0.14043685186E+02  0.87489659048E+01 -0.40122987649E+02  0.43400733126E+02  0.00000000000E+00 0. -1.
         11    1    3    3    0    0 -0.59271145167E+01  0.14486507403E+01  0.13690376045E+02  0.14988518005E+02  0.51100000000E-03 0. -1.
        -11    1    3    3    0    0 -0.79880550456E+01 -0.74255432025E+01  0.27683803055E+02  0.29754674710E+02  0.51100000000E-03 0.  1.
         12    1    3    3    0    0 -0.12851562385E+00 -0.27720734427E+01 -0.12511914509E+01  0.30440741588E+01  0.00000000000E+00 0. -1.
</event>
<event>
 7    1  0.2580704E-010  0.4778727E+02  0.7816164E-02  0.1312668E+00
        -11   -1    0    0    0    0  0.00000000000E+00  0.00000000000E+00  0.45593999997E+02  0.45594000000E+02  0.51100000000E-03 0. -1.
         11   -1    0    0    0    0 -0.00000000000E+00 -0.00000000000E+00 -0.45593999997E+02  0.45594000000E+02  0.51100000000E-03 0.  1.
    9900012    2    1    2    0    0 -0.91331840673E+01  0.40075622626E+02 -0.13933869769E+02  0.47787270665E+02  0.19999998270E+02 0.  0.
         12    1    1    2    0    0  0.91331840673E+01 -0.40075622626E+02  0.13933869769E+02  0.43400729335E+02  0.00000000000E+00 0. -1.
         11    1    3    3    0    0 -0.10372981943E+01  0.74390343855E+01  0.30288566108E+01  0.80987155007E+01  0.51100000000E-03 0. -1.
        -11    1    3    3    0    0  0.22774938790E+01  0.13907423709E+02 -0.39562361519E+01  0.14637459388E+02  0.51100000000E-03 0.  1.
         12    1    3    3    0    0 -0.10373379752E+02  0.18729164532E+02 -0.13006490228E+02  0.25051095776E+02  0.00000000000E+00 0. -1.
</event>
<event>
 7    1  0.2580704E-010  0.4778728E+02  0.7816164E-02  0.1312668E+00
        -11   -1    0    0    0    0  0.00000000000E+00  0.00000000000E+00  0.45593999997E+02  0.45594000000E+02  0.51100000000E-03 0.  1.
         11   -1    0    0    0    0 -0.00000000000E+00 -0.00000000000E+00 -0.45593999997E+02  0.45594000000E+02  0.51100000000E-03 0. -1.
    9900012    2    1    2    0    0  0.40814878868E+02 -0.13152131473E+02  0.66924980203E+01  0.47787280777E+02  0.20000044375E+02 0.  0.
         12    1    1    2    0    0 -0.40814878868E+02  0.13152131473E+02 -0.66924980203E+01  0.43400719223E+02  0.00000000000E+00 0. -1.
         11    1    3    3    0    0  0.26375382815E+00 -0.43203746497E+01  0.49043368865E+00  0.43561139402E+01  0.51100000000E-03 0. -1.
        -11    1    3    3    0    0  0.11319104149E+02 -0.34693067527E+01  0.69005920440E+01  0.13703152152E+02  0.51100000000E-03 0.  1.
         12    1    3    3    0    0  0.29232020891E+02 -0.53624500705E+01 -0.69852771229E+00  0.29728014685E+02  0.00000000000E+00 0. -1.
</event>
<event>
 7    1  0.2580704E-010  0.4778727E+02  0.7816164E-02  0.1312668E+00
        -11   -1    0    0    0    0  0.00000000000E+00  0.00000000000E+00  0.45593999997E+02  0.45594000000E+02  0.51100000000E-03 0.  1.
         11   -1    0    0    0    0 -0.00000000000E+00 -0.00000000000E+00 -0.45593999997E+02  0.45594000000E+02  0.51100000000E-03 0. -1.
    9900012    2    1    2    0    0  0.95246937434E+00 -0.12414318574E+02  0.41576445120E+02  0.47787270831E+02  0.19999999028E+02 0.  0.
         12    1    1    2    0    0 -0.95246937434E+00  0.12414318574E+02 -0.41576445120E+02  0.43400729169E+02  0.00000000000E+00 0. -1.
         11    1    3    3    0    0 -0.67742946345E+00 -0.14215965595E+02  0.25882125349E+02  0.29537044560E+02  0.51100000000E-03 0. -1.
        -11    1    3    3    0    0  0.30604907438E+01 -0.29821492187E+01  0.81678906857E+01  0.92181481910E+01  0.51100000000E-03 0.  1.
        -12    1    3    3    0    0 -0.14305919061E+01  0.47837962404E+01  0.75264290856E+01  0.90320780805E+01  0.00000000000E+00 0.  1.
</event>
<event>
 7    1  0.2580704E-010  0.4778727E+02  0.7816164E-02  0.1312668E+00
        -11   -1    0    0    0    0  0.00000000000E+00  0.00000000000E+00  0.45593999997E+02  0.45594000000E+02  0.51100000000E-03 0. -1.
         11   -1    0    0    0    0 -0.00000000000E+00 -0.00000000000E+00 -0.45593999997E+02  0.45594000000E+02  0.51100000000E-03 0.  1.
    9900012    2    1    2    0    0  0.21112450322E+02 -0.21126762632E+02 -0.31488850560E+02  0.47787269966E+02  0.19999995082E+02 0.  0.
         12    1    1    2    0    0 -0.21112450322E+02  0.21126762632E+02  0.31488850560E+02  0.43400730034E+02  0.00000000000E+00 0. -1.
         11    1    3    3    0    0  0.62773427820E+00 -0.53917497460E+01 -0.85882576620E+01  0.10159881179E+02  0.51100000000E-03 0. -1.
        -11    1    3    3    0    0  0.12896616340E+02 -0.16949263440E+02 -0.12497807913E+02  0.24694036670E+02  0.51100000000E-03 0.  1.
         12    1    3    3    0    0  0.75880997041E+01  0.12142505537E+01 -0.10402784985E+02  0.12933352117E+02  0.00000000000E+00 0. -1.
</event>
<event>
 7    1  0.2580704E-010  0.4778727E+02  0.7816164E-02  0.1312668E+00
        -11   -1    0    0    0    0  0.00000000000E+00  0.00000000000E+00  0.45593999997E+02  0.45594000000E+02  0.51100000000E-03 0. -1.
         11   -1    0    0    0    0 -0.00000000000E+00 -0.00000000000E+00 -0.45593999997E+02  0.45594000000E+02  0.51100000000E-03 0.  1.
    9900012    2    1    2    0    0 -0.36865859438E+02  0.14058718873E+02 -0.18079942585E+02  0.47787268528E+02  0.19999988526E+02 0.  0.
         12    1    1    2    0    0  0.36865859438E+02 -0.14058718873E+02  0.18079942585E+02  0.43400731472E+02  0.00000000000E+00 0. -1.
         11    1    3    3    0    0 -0.80636712022E+00  0.50481830717E+01 -0.31209894943E+01  0.59895705975E+01  0.51100000000E-03 0. -1.
        -11    1    3    3    0    0 -0.98514804886E+01  0.72551904745E+01 -0.80227544103E+01  0.14630585950E+02  0.51100000000E-03 0.  1.
        -12    1    3    3    0    0 -0.26208011829E+02  0.17553453264E+01 -0.69361986808E+01  0.27167111981E+02  0.00000000000E+00 0.  1.
</event>
<event>
 7    1  0.2580704E-010  0.4778727E+02  0.7816164E-02  0.1312668E+00
        -11   -1    0    0    0    0  0.00000000000E+00  0.00000000000E+00  0.45593999997E+02  0.45594000000E+02  0.51100000000E-03 0.  1.
         11   -1    0    0    0    0 -0.00000000000E+00 -0.00000000000E+00 -0.45593999997E+02  0.45594000000E+02  0.51100000000E-03 0. -1.
    9900012    2    1    2    0    0  0.67726456598E+01 -0.27046460236E+02  0.33260234471E+02  0.47787274918E+02  0.20000017663E+02 0.  0.
         12    1    1    2    0    0 -0.67726456598E+01  0.27046460236E+02 -0.33260234471E+02  0.43400725082E+02  0.00000000000E+00 0. -1.
         11    1    3    3    0    0  0.34265156846E+01 -0.63811625997E+01  0.20215388876E+01  0.75197649961E+01  0.51100000000E-03 0. -1.
        -11    1    3    3    0    0  0.51329813998E-01 -0.34631407401E+01 -0.97678697429E+00  0.35986235688E+01  0.51100000000E-03 0.  1.
         12    1    3    3    0    0  0.32948001612E+01 -0.17202156896E+02  0.32215482558E+02  0.36668886354E+02  0.00000000000E+00 0. -1.
</event>
<event>
 7    1  0.2580704E-010  0.4778727E+02  0.7816164E-02  0.1312668E+00
        -11   -1    0    0    0    0  0.00000000000E+00  0.00000000000E+00  0.45593999997E+02  0.45594000000E+02  0.51100000000E-03 0. -1.
         11   -1    0    0    0    0 -0.00000000000E+00 -0.00000000000E+00 -0.45593999997E+02  0.45594000000E+02  0.51100000000E-03 0.  1.
    9900012    2    1    2    0    0  0.15852762645E+02  0.28099294346E+02 -0.29030035046E+02  0.47787270041E+02  0.19999995423E+02 0.  0.
         12    1    1    2    0    0 -0.15852762645E+02 -0.28099294346E+02  0.29030035046E+02  0.43400729959E+02  0.00000000000E+00 0. -1.
         11    1    3    3    0    0  0.71327343659E+01  0.21958872077E+01 -0.57374412307E+01  0.94136099505E+01  0.51100000000E-03 0. -1.
        -11    1    3    3    0    0  0.11625501222E+02  0.13989465203E+02 -0.14907710205E+02  0.23518019456E+02  0.51100000000E-03 0.  1.
        -12    1    3    3    0    0 -0.29054729434E+01  0.11913941936E+02 -0.83848836105E+01  0.14855640634E+02  0.00000000000E+00 0.  1.
</event>
<event>
 7    1  0.2580704E-010  0.4778727E+02  0.7816164E-02  0.1312668E+00
        -11   -1    0    0    0    0  0.00000000000E+00  0.00000000000E+00  0.45593999997E+02  0.45594000000E+02  0.51100000000E-03 0.  1.
         11   -1    0    0    0    0 -0.00000000000E+00 -0.00000000000E+00 -0.45593999997E+02  0.45594000000E+02  0.51100000000E-03 0. -1.
    9900012    2    1    2    0    0 -0.17484910470E+02  0.34228837099E+02  0.20156575801E+02  0.47787274991E+02  0.20000017992E+02 0.  0.
         12    1    1    2    0    0  0.17484910470E+02 -0.34228837099E+02 -0.20156575801E+02  0.43400725009E+02  0.00000000000E+00 0. -1.
         11    1    3    3    0    0 -0.96397042013E+01  0.11195251196E+02  0.98161138958E+01  0.17737351513E+02  0.51100000000E-03 0. -1.
        -11    1    3    3    0    0 -0.20110132398E+01  0.87292801088E+00  0.64421208917E+01  0.68049319914E+01  0.51100000000E-03 0.  1.
         12    1    3    3    0    0 -0.58341930290E+01  0.22160657892E+02  0.38983410139E+01  0.23244991486E+02  0.00000000000E+00 0. -1.
</event>
<event>
 7    1  0.2580704E-010  0.4778727E+02  0.7816164E-02  0.1312668E+00
        -11   -1    0    0    0    0  0.00000000000E+00  0.00000000000E+00  0.45593999997E+02  0.45594000000E+02  0.51100000000E-03 0.  1.
         11   -1    0    0    0    0 -0.00000000000E+00 -0.00000000000E+00 -0.45593999997E+02  0.45594000000E+02  0.51100000000E-03 0. -1.
    9900012    2    1    2    0    0  0.36616399572E+02 -0.22364935429E+02  0.65324102027E+01  0.47787269161E+02  0.19999991411E+02 0.  0.
         12    1    1    2    0    0 -0.36616399572E+02  0.22364935429E+02 -0.65324102027E+01  0.43400730839E+02  0.00000000000E+00 0. -1.
         11    1    3    3    0    0  0.30368078336E+02 -0.10601882943E+02  0.87454229869E+01  0.33333204575E+02  0.51100000000E-03 0. -1.
        -11    1    3    3    0    0  0.17392898455E+01 -0.13628956116E+01  0.13283616597E+01  0.25782084041E+01  0.51100000000E-03 0.  1.
        -12    1    3    3    0    0  0.45090313900E+01 -0.10400156874E+02 -0.35413744439E+01  0.11875856181E+02  0.00000000000E+00 0.  1.
</event>
<event>
 7    1  0.2580704E-010  0.4778726E+02  0.7816164E-02  0.1312668E+00
        -11   -1    0    0    0    0  0.00000000000E+00  0.00000000000E+00  0.45593999997E+02  0.45594000000E+02  0.51100000000E-03 0.  1.
         11   -1    0    0    0    0 -0.00000000000E+00 -0.00000000000E+00 -0.45593999997E+02  0.45594000000E+02  0.51100000000E-03 0. -1.
    9900012    2    1    2    0    0 -0.80710771667E+01  0.33294906283E+01  0.42513489535E+02  0.47787255918E+02  0.19999931030E+02 0.  0.
         12    1    1    2    0    0  0.80710771667E+01 -0.33294906283E+01 -0.42513489535E+02  0.43400744082E+02  0.00000000000E+00 0. -1.
         11    1    3    3    0    0  0.28631559859E+01  0.28854893316E+01  0.11519261285E+02  0.12215444801E+02  0.51100000000E-03 0. -1.
        -11    1    3    3    0    0 -0.86046563530E+01  0.60780519419E+01  0.24475179208E+02  0.26646148388E+02  0.51100000000E-03 0.  1.
         12    1    3    3    0    0 -0.23295767995E+01 -0.56340506452E+01  0.65190490421E+01  0.89256627289E+01  0.00000000000E+00 0. -1.
</event>
<event>
 7    1  0.2580704E-010  0.4778727E+02  0.7816164E-02  0.1312668E+00
        -11   -1    0    0    0    0  0.00000000000E+00  0.00000000000E+00  0.45593999997E+02  0.45594000000E+02  0.51100000000E-03 0.  1.
         11   -1    0    0    0    0 -0.00000000000E+00 -0.00000000000E+00 -0.45593999997E+02  0.45594000000E+02  0.51100000000E-03 0. -1.
    9900012    2    1    2    0    0  0.41404743407E+02 -0.40841866559E+01  0.12352715414E+02  0.47787274945E+02  0.20000017783E+02 0.  0.
         12    1    1    2    0    0 -0.41404743407E+02  0.40841866559E+01 -0.12352715414E+02  0.43400725055E+02  0.00000000000E+00 0. -1.
         11    1    3    3    0    0  0.18777896113E+01  0.87500359310E+00  0.46560399275E+01  0.50961194236E+01  0.51100000000E-03 0. -1.
        -11    1    3    3    0    0  0.71515188883E+01  0.33408898256E+01 -0.14818728893E+01  0.80312959575E+01  0.51100000000E-03 0.  1.
        -12    1    3    3    0    0  0.32375434907E+02 -0.83000800746E+01  0.91785483757E+01  0.34659859564E+02  0.00000000000E+00 0.  1.
</event>
<event>
 7    1  0.2580704E-010  0.4778728E+02  0.7816164E-02  0.1312668E+00
        -11   -1    0    0    0    0  0.00000000000E+00  0.00000000000E+00  0.45593999997E+02  0.45594000000E+02  0.51100000000E-03 0.  1.
         11   -1    0    0    0    0 -0.00000000000E+00 -0.00000000000E+00 -0.45593999997E+02  0.45594000000E+02  0.51100000000E-03 0. -1.
    9900012    2    1    2    0    0  0.32856430086E+02 -0.25037426942E+02  0.13311825690E+02  0.47787280547E+02  0.20000043325E+02 0.  0.
         12    1    1    2    0    0 -0.32856430086E+02  0.25037426942E+02 -0.13311825690E+02  0.43400719453E+02  0.00000000000E+00 0. -1.
         11    1    3    3    0    0  0.14605175983E+02 -0.81133743051E+01 -0.22732095355E+01  0.16861360858E+02  0.51100000000E-03 0. -1.
        -11    1    3    3    0    0  0.70230559442E+01 -0.10923706160E+02  0.36849161286E+01  0.13499232504E+02  0.51100000000E-03 0.  1.
        -12    1    3    3    0    0  0.11228198158E+02 -0.60003464763E+01  0.11900119097E+02  0.17426687185E+02  0.00000000000E+00 0.  1.
</event>
<event>
 7    1  0.2580704E-010  0.4778729E+02  0.7816164E-02  0.1312668E+00
        -11   -1    0    0    0    0  0.00000000000E+00  0.00000000000E+00  0.45593999997E+02  0.45594000000E+02  0.51100000000E-03 0.  1.
         11   -1    0    0    0    0 -0.00000000000E+00 -0.00000000000E+00 -0.45593999997E+02  0.45594000000E+02  0.51100000000E-03 0. -1.
    9900012    2    1    2    0    0  0.17001679423E+02  0.31683227975E+02  0.24305102303E+02  0.47787285304E+02  0.20000065016E+02 0.  0.
         12    1    1    2    0    0 -0.17001679423E+02 -0.31683227975E+02 -0.24305102303E+02  0.43400714696E+02  0.00000000000E+00 0. -1.
         11    1    3    3    0    0  0.88036362705E+00  0.66875422267E+01  0.10437508503E+02  0.12427382877E+02  0.51100000000E-03 0.  1.
        -11    1    3    3    0    0  0.15602580917E+02  0.21631755076E+02  0.68143277258E+01  0.27528320355E+02  0.51100000000E-03 0. -1.
         12    1    3    3    0    0  0.51873487887E+00  0.33639306724E+01  0.70532660739E+01  0.78315820722E+01  0.00000000000E+00 0. -1.
</event>
<event>
 7    1  0.2580704E-010  0.4778727E+02  0.7816164E-02  0.1312668E+00
        -11   -1    0    0    0    0  0.00000000000E+00  0.00000000000E+00  0.45593999997E+02  0.45594000000E+02  0.51100000000E-03 0.  1.
         11   -1    0    0    0    0 -0.00000000000E+00 -0.00000000000E+00 -0.45593999997E+02  0.45594000000E+02  0.51100000000E-03 0. -1.
    9900012    2    1    2    0    0  0.10568975364E+02  0.41976355212E+02 -0.31473158545E+01  0.47787271501E+02  0.20000002083E+02 0.  0.
         12    1    1    2    0    0 -0.10568975364E+02 -0.41976355212E+02  0.31473158545E+01  0.43400728499E+02  0.00000000000E+00 0. -1.
         11    1    3    3    0    0  0.15359433305E+01  0.13750223557E+02 -0.12436752224E+01  0.13891526126E+02  0.51100000000E-03 0. -1.
        -11    1    3    3    0    0  0.22590189605E+01  0.25465235611E+02  0.19282039503E+01  0.25637850185E+02  0.51100000000E-03 0.  1.
         12    1    3    3    0    0  0.67740130725E+01  0.27608960444E+01 -0.38318445824E+01  0.82578951906E+01  0.00000000000E+00 0. -1.
</event>
<event>
 7    1  0.2580704E-010  0.4778727E+02  0.7816164E-02  0.1312668E+00
        -11   -1    0    0    0    0  0.00000000000E+00  0.00000000000E+00  0.45593999997E+02  0.45594000000E+02  0.51100000000E-03 0.  1.
         11   -1    0    0    0    0 -0.00000000000E+00 -0.00000000000E+00 -0.45593999997E+02  0.45594000000E+02  0.51100000000E-03 0. -1.
    9900012    2    1    2    0    0  0.91529782223E+01 -0.30864676894E+02  0.29107009258E+02  0.47787270996E+02  0.19999999781E+02 0.  0.
         12    1    1    2    0    0 -0.91529782223E+01  0.30864676894E+02 -0.29107009258E+02  0.43400729004E+02  0.00000000000E+00 0. -1.
         11    1    3    3    0    0  0.47062510708E+01 -0.51991345268E+01  0.13611698094E+02  0.15312025477E+02  0.51100000000E-03 0. -1.
        -11    1    3    3    0    0  0.17472895431E+01 -0.54725086454E+01  0.97354567920E+01  0.11304003310E+02  0.51100000000E-03 0.  1.
        -12    1    3    3    0    0  0.26994376084E+01 -0.20193033722E+02  0.57598543722E+01  0.21171242209E+02  0.00000000000E+00 0.  1.
</event>
<event>
 7    1  0.2580704E-010  0.4778727E+02  0.7816164E-02  0.1312668E+00
        -11   -1    0    0    0    0  0.00000000000E+00  0.00000000000E+00  0.45593999997E+02  0.45594000000E+02  0.51100000000E-03 0.  1.
         11   -1    0    0    0    0 -0.00000000000E+00 -0.00000000000E+00 -0.45593999997E+02  0.45594000000E+02  0.51100000000E-03 0. -1.
    9900012    2    1    2    0    0 -0.38628139805E+02 -0.17713737730E+02  0.88155287781E+01  0.47787271471E+02  0.20000001945E+02 0.  0.
         12    1    1    2    0    0  0.38628139805E+02  0.17713737730E+02 -0.88155287781E+01  0.43400728529E+02  0.00000000000E+00 0. -1.
         11    1    3    3    0    0 -0.76239299304E+01 -0.34670981418E+00  0.69127384781E+01  0.10297109731E+02  0.51100000000E-03 0. -1.
        -11    1    3    3    0    0 -0.15650149530E+02 -0.14956251199E+02  0.32480949639E+01  0.21889877830E+02  0.51100000000E-03 0.  1.
         12    1    3    3    0    0 -0.15354060345E+02 -0.24107767169E+01 -0.13453046639E+01  0.15600283911E+02  0.00000000000E+00 0. -1.
</event>
<event>
 7    1  0.2580704E-010  0.4778727E+02  0.7816164E-02  0.1312668E+00
        -11   -1    0    0    0    0  0.00000000000E+00  0.00000000000E+00  0.45593999997E+02  0.45594000000E+02  0.51100000000E-03 0.  1.
         11   -1    0    0    0    0 -0.00000000000E+00 -0.00000000000E+00 -0.45593999997E+02  0.45594000000E+02  0.51100000000E-03 0. -1.
    9900012    2    1    2    0    0 -0.23986001456E+02 -0.65672084866E+01  0.35569182390E+02  0.47787271561E+02  0.20000002356E+02 0.  0.
         12    1    1    2    0    0  0.23986001456E+02  0.65672084866E+01 -0.35569182390E+02  0.43400728439E+02  0.00000000000E+00 0. -1.
         11    1    3    3    0    0  0.17253359910E+01 -0.29181692730E+01  0.33590747604E+01  0.47724081651E+01  0.51100000000E-03 0. -1.
        -11    1    3    3    0    0 -0.17569558693E+01  0.21352690352E+01  0.80197497329E+01  0.84830804440E+01  0.51100000000E-03 0.  1.
        -12    1    3    3    0    0 -0.23954381577E+02 -0.57843082487E+01  0.24190357897E+02  0.34531782952E+02  0.00000000000E+00 0.  1.
</event>
<event>
 7    1  0.2580704E-010  0.4778727E+02  0.7816164E-02  0.1312668E+00
        -11   -1    0    0    0    0  0.00000000000E+00  0.00000000000E+00  0.45593999997E+02  0.45594000000E+02  0.51100000000E-03 0.  1.
         11   -1    0    0    0    0 -0.00000000000E+00 -0.00000000000E+00 -0.45593999997E+02  0.45594000000E+02  0.51100000000E-03 0. -1.
    9900012    2    1    2    0    0  0.97803298865E+01 -0.19177989583E+02  0.37685189581E+02  0.47787266701E+02  0.19999980195E+02 0.  0.
         12    1    1    2    0    0 -0.97803298865E+01  0.19177989583E+02 -0.37685189581E+02  0.43400733299E+02  0.00000000000E+00 0. -1.
         11    1    3    3    0    0 -0.24364196957E+01 -0.48768908869E+00  0.42476074865E+01  0.49209908760E+01  0.51100000000E-03 0. -1.
        -11    1    3    3    0    0 -0.27613033297E+00 -0.66147026848E+01  0.19495868247E+02  0.20589303498E+02  0.51100000000E-03 0.  1.
        -12    1    3    3    0    0  0.12492879915E+02 -0.12075597810E+02  0.13941713848E+02  0.22276972327E+02  0.00000000000E+00 0.  1.
</event>
<event>
 7    1  0.2580704E-010  0.4778727E+02  0.7816164E-02  0.1312668E+00
        -11   -1    0    0    0    0  0.00000000000E+00  0.00000000000E+00  0.45593999997E+02  0.45594000000E+02  0.51100000000E-03 0.  1.
         11   -1    0    0    0    0 -0.00000000000E+00 -0.00000000000E+00 -0.45593999997E+02  0.45594000000E+02  0.51100000000E-03 0. -1.
    9900012    2    1    2    0    0 -0.10021502817E+02  0.33948229268E+01  0.42091186769E+02  0.47787270224E+02  0.19999996260E+02 0.  0.
         12    1    1    2    0    0  0.10021502817E+02 -0.33948229268E+01 -0.42091186769E+02  0.43400729776E+02  0.00000000000E+00 0. -1.
         11    1    3    3    0    0  0.14758822067E+01 -0.30343992447E-01 -0.39959632938E+00  0.15293222465E+01  0.51100000000E-03 0. -1.
        -11    1    3    3    0    0  0.28078964004E+01  0.33933865098E+00  0.13380724772E+02  0.13676374834E+02  0.51100000000E-03 0.  1.
        -12    1    3    3    0    0 -0.14305281424E+02  0.30858282683E+01  0.29110058327E+02  0.32581573144E+02  0.00000000000E+00 0.  1.
</event>
<event>
 7    1  0.2580704E-010  0.4778727E+02  0.7816164E-02  0.1312668E+00
        -11   -1    0    0    0    0  0.00000000000E+00  0.00000000000E+00  0.45593999997E+02  0.45594000000E+02  0.51100000000E-03 0. -1.
         11   -1    0    0    0    0 -0.00000000000E+00 -0.00000000000E+00 -0.45593999997E+02  0.45594000000E+02  0.51100000000E-03 0.  1.
    9900012    2    1    2    0    0  0.22999406985E+02 -0.12265682267E+02 -0.34701638078E+02  0.47787269955E+02  0.19999995033E+02 0.  0.
         12    1    1    2    0    0 -0.22999406985E+02  0.12265682267E+02  0.34701638078E+02  0.43400730045E+02  0.00000000000E+00 0. -1.
         11    1    3    3    0    0  0.50197957315E+01  0.30892755987E+01 -0.13136336099E+01  0.60388414810E+01  0.51100000000E-03 0. -1.
        -11    1    3    3    0    0  0.29668086019E+01 -0.43501119854E+00 -0.12102961497E+01  0.32335746558E+01  0.51100000000E-03 0.  1.
        -12    1    3    3    0    0  0.15012802652E+02 -0.14919946667E+02 -0.32177708319E+02  0.38514853818E+02  0.00000000000E+00 0.  1.
</event>
<event>
 7    1  0.2580704E-010  0.4778728E+02  0.7816164E-02  0.1312668E+00
        -11   -1    0    0    0    0  0.00000000000E+00  0.00000000000E+00  0.45593999997E+02  0.45594000000E+02  0.51100000000E-03 0. -1.
         11   -1    0    0    0    0 -0.00000000000E+00 -0.00000000000E+00 -0.45593999997E+02  0.45594000000E+02  0.51100000000E-03 0.  1.
    9900012    2    1    2    0    0  0.27111063018E+02 -0.32304657128E+02 -0.10248025693E+02  0.47787278339E+02  0.20000033259E+02 0.  0.
         12    1    1    2    0    0 -0.27111063018E+02  0.32304657128E+02  0.10248025693E+02  0.43400721661E+02  0.00000000000E+00 0. -1.
         11    1    3    3    0    0  0.10752077026E+02 -0.83283274490E+01  0.42144494270E+01  0.14238320923E+02  0.51100000000E-03 0. -1.
        -11    1    3    3    0    0  0.44273312456E+01 -0.19453604736E+01 -0.44373062050E+01  0.65631833700E+01  0.51100000000E-03 0.  1.
        -12    1    3    3    0    0  0.11931654746E+02 -0.22030969205E+02 -0.10025168915E+02  0.26985774046E+02  0.00000000000E+00 0.  1.
</event>
<event>
 7    1  0.2580704E-010  0.4778727E+02  0.7816164E-02  0.1312668E+00
        -11   -1    0    0    0    0  0.00000000000E+00  0.00000000000E+00  0.45593999997E+02  0.45594000000E+02  0.51100000000E-03 0. -1.
         11   -1    0    0    0    0 -0.00000000000E+00 -0.00000000000E+00 -0.45593999997E+02  0.45594000000E+02  0.51100000000E-03 0.  1.
    9900012    2    1    2    0    0  0.32200471713E+02 -0.27440859625E+02 -0.96825901187E+01  0.47787266055E+02  0.19999977252E+02 0.  0.
         12    1    1    2    0    0 -0.32200471713E+02  0.27440859625E+02  0.96825901187E+01  0.43400733945E+02  0.00000000000E+00 0. -1.
         11    1    3    3    0    0  0.94249203216E+00 -0.67680772898E+01  0.37877606729E+00  0.68438755835E+01  0.51100000000E-03 0. -1.
        -11    1    3    3    0    0  0.69514605411E+01 -0.44037956499E+01 -0.82286741661E+01  0.11637323514E+02  0.51100000000E-03 0.  1.
         12    1    3    3    0    0  0.24306519140E+02 -0.16268986686E+02 -0.18326920199E+01  0.29306066958E+02  0.00000000000E+00 0. -1.
</event>
<event>
 7    1  0.2580704E-010  0.4778727E+02  0.7816164E-02  0.1312668E+00
        -11   -1    0    0    0    0  0.00000000000E+00  0.00000000000E+00  0.45593999997E+02  0.45594000000E+02  0.51100000000E-03 0. -1.
         11   -1    0    0    0    0 -0.00000000000E+00 -0.00000000000E+00 -0.45593999997E+02  0.45594000000E+02  0.51100000000E-03 0.  1.
    9900012    2    1    2    0    0  0.21648513982E+01 -0.40903777972E+02  0.14346343610E+02  0.47787271793E+02  0.20000003412E+02 0.  0.
         12    1    1    2    0    0 -0.21648513982E+01  0.40903777972E+02 -0.14346343610E+02  0.43400728207E+02  0.00000000000E+00 0. -1.
         11    1    3    3    0    0 -0.12883624726E+01 -0.66599207478E-02 -0.71273884620E+00  0.14723855268E+01  0.51100000000E-03 0. -1.
        -11    1    3    3    0    0  0.30670315811E+00 -0.22020761333E+02  0.96694550904E-01  0.22023109377E+02  0.51100000000E-03 0.  1.
         12    1    3    3    0    0  0.31465107128E+01 -0.18876356718E+02  0.14962387905E+02  0.24291776889E+02  0.00000000000E+00 0. -1.
</event>
<event>
 7    1  0.2580704E-010  0.4778726E+02  0.7816164E-02  0.1312668E+00
        -11   -1    0    0    0    0  0.00000000000E+00  0.00000000000E+00  0.45593999997E+02  0.45594000000E+02  0.51100000000E-03 0.  1.
         11   -1    0    0    0    0 -0.00000000000E+00 -0.00000000000E+00 -0.45593999997E+02  0.45594000000E+02  0.51100000000E-03 0. -1.
    9900012    2    1    2    0    0  0.22155788316E+02  0.37175130294E+02 -0.32794850372E+01  0.47787259334E+02  0.19999946607E+02 0.  0.
         12    1    1    2    0    0 -0.22155788316E+02 -0.37175130294E+02  0.32794850372E+01  0.43400740666E+02  0.00000000000E+00 0. -1.
         11    1    3    3    0    0  0.11368207596E+02  0.23814766545E+02  0.85705946964E-01  0.26389137828E+02  0.51100000000E-03 0.  1.
        -11    1    3    3    0    0 -0.58320774419E+00  0.87955587949E+01 -0.58788153761E+00  0.88344547512E+01  0.51100000000E-03 0. -1.
        -12    1    3    3    0    0  0.11370788464E+02  0.45648049534E+01 -0.27773094466E+01  0.12563666754E+02  0.00000000000E+00 0.  1.
</event>
<event>
 7    1  0.2580704E-010  0.4778729E+02  0.7816164E-02  0.1312668E+00
        -11   -1    0    0    0    0  0.00000000000E+00  0.00000000000E+00  0.45593999997E+02  0.45594000000E+02  0.51100000000E-03 0. -1.
         11   -1    0    0    0    0 -0.00000000000E+00 -0.00000000000E+00 -0.45593999997E+02  0.45594000000E+02  0.51100000000E-03 0.  1.
    9900012    2    1    2    0    0  0.17224074469E+02  0.20811686949E+02 -0.33968022903E+02  0.47787289926E+02  0.20000086087E+02 0.  0.
         12    1    1    2    0    0 -0.17224074469E+02 -0.20811686949E+02  0.33968022903E+02  0.43400710074E+02  0.00000000000E+00 0. -1.
         11    1    3    3    0    0  0.14469057034E+02  0.15766649977E+02 -0.21240667188E+02  0.30151398074E+02  0.51100000000E-03 0. -1.
        -11    1    3    3    0    0  0.57308675201E+01 -0.53797043663E+00 -0.48095333876E+01  0.75009243691E+01  0.51100000000E-03 0.  1.
        -12    1    3    3    0    0 -0.29758500852E+01  0.55830074092E+01 -0.79178223279E+01  0.10134967483E+02  0.00000000000E+00 0.  1.
</event>
<event>
 7    1  0.2580704E-010  0.4778728E+02  0.7816164E-02  0.1312668E+00
        -11   -1    0    0    0    0  0.00000000000E+00  0.00000000000E+00  0.45593999997E+02  0.45594000000E+02  0.51100000000E-03 0.  1.
         11   -1    0    0    0    0 -0.00000000000E+00 -0.00000000000E+00 -0.45593999997E+02  0.45594000000E+02  0.51100000000E-03 0. -1.
    9900012    2    1    2    0    0 -0.54744719249E+01  0.81048769107E+01  0.42284322371E+02  0.47787276608E+02  0.20000025365E+02 0.  0.
         12    1    1    2    0    0  0.54744719249E+01 -0.81048769107E+01 -0.42284322371E+02  0.43400723392E+02  0.00000000000E+00 0. -1.
         11    1    3    3    0    0 -0.55690334943E+01  0.16079297359E+00  0.22767949966E+01  0.60186197885E+01  0.51100000000E-03 0. -1.
        -11    1    3    3    0    0 -0.78864318391E-01 -0.17415484580E+01  0.12159657081E+02  0.12283992478E+02  0.51100000000E-03 0.  1.
        -12    1    3    3    0    0  0.17342588780E+00  0.96856323951E+01  0.27847870293E+02  0.29484664341E+02  0.00000000000E+00 0.  1.
</event>
<event>
 7    1  0.2580704E-010  0.4778727E+02  0.7816164E-02  0.1312668E+00
        -11   -1    0    0    0    0  0.00000000000E+00  0.00000000000E+00  0.45593999997E+02  0.45594000000E+02  0.51100000000E-03 0. -1.
         11   -1    0    0    0    0 -0.00000000000E+00 -0.00000000000E+00 -0.45593999997E+02  0.45594000000E+02  0.51100000000E-03 0.  1.
    9900012    2    1    2    0    0 -0.23833201074E+02  0.34625963005E+02  0.10800213773E+02  0.47787269534E+02  0.19999993114E+02 0.  0.
         12    1    1    2    0    0  0.23833201074E+02 -0.34625963005E+02 -0.10800213773E+02  0.43400730466E+02  0.00000000000E+00 0. -1.
         11    1    3    3    0    0 -0.19825122290E+02  0.25669482519E+02  0.11858886743E+01  0.32455571768E+02  0.51100000000E-03 0.  1.
        -11    1    3    3    0    0 -0.23606993707E+01 -0.24365816688E+00  0.85591847399E+00  0.25228689059E+01  0.51100000000E-03 0. -1.
        -12    1    3    3    0    0 -0.16473794132E+01  0.92001386529E+01  0.87584066246E+01  0.12808828860E+02  0.00000000000E+00 0.  1.
</event>
<event>
 7    1  0.2580704E-010  0.4778727E+02  0.7816164E-02  0.1312668E+00
        -11   -1    0    0    0    0  0.00000000000E+00  0.00000000000E+00  0.45593999997E+02  0.45594000000E+02  0.51100000000E-03 0.  1.
         11   -1    0    0    0    0 -0.00000000000E+00 -0.00000000000E+00 -0.45593999997E+02  0.45594000000E+02  0.51100000000E-03 0. -1.
    9900012    2    1    2    0    0  0.54493969805E+01 -0.30937124366E+02  0.29946979324E+02  0.47787272332E+02  0.20000005872E+02 0.  0.
         12    1    1    2    0    0 -0.54493969805E+01  0.30937124366E+02 -0.29946979324E+02  0.43400727668E+02  0.00000000000E+00 0. -1.
         11    1    3    3    0    0 -0.21064204787E+01 -0.13961814277E+01  0.78707390633E+00  0.26468500916E+01  0.51100000000E-03 0. -1.
        -11    1    3    3    0    0  0.61054744237E+01 -0.31461169442E+02  0.26955866019E+02  0.41877209956E+02  0.51100000000E-03 0.  1.
        -12    1    3    3    0    0  0.14503430355E+01  0.19202265038E+01  0.22040393984E+01  0.32632122849E+01  0.00000000000E+00 0.  1.
</event>
<event>
 7    1  0.2580704E-010  0.4778727E+02  0.7816164E-02  0.1312668E+00
        -11   -1    0    0    0    0  0.00000000000E+00  0.00000000000E+00  0.45593999997E+02  0.45594000000E+02  0.51100000000E-03 0.  1.
         11   -1    0    0    0    0 -0.00000000000E+00 -0.00000000000E+00 -0.45593999997E+02  0.45594000000E+02  0.51100000000E-03 0. -1.
    9900012    2    1    2    0    0 -0.91424701291E+01 -0.37624580361E+02  0.19606877702E+02  0.47787268893E+02  0.19999990193E+02 0.  0.
         12    1    1    2    0    0  0.91424701291E+01  0.37624580361E+02 -0.19606877702E+02  0.43400731107E+02  0.00000000000E+00 0. -1.
         11    1    3    3    0    0 -0.32875700997E+00 -0.41802580600E+01 -0.24426193260E+01  0.48527340801E+01  0.51100000000E-03 0. -1.
        -11    1    3    3    0    0  0.16643435912E+01 -0.14358708150E+02  0.50504191068E+01  0.15311736438E+02  0.51100000000E-03 0.  1.
        -12    1    3    3    0    0 -0.10478056710E+02 -0.19085614151E+02  0.16999077921E+02  0.27622798375E+02  0.00000000000E+00 0.  1.
</event>
<event>
 7    1  0.2580704E-010  0.4778728E+02  0.7816164E-02  0.1312668E+00
        -11   -1    0    0    0    0  0.00000000000E+00  0.00000000000E+00  0.45593999997E+02  0.45594000000E+02  0.51100000000E-03 0. -1.
         11   -1    0    0    0    0 -0.00000000000E+00 -0.00000000000E+00 -0.45593999997E+02  0.45594000000E+02  0.51100000000E-03 0.  1.
    9900012    2    1    2    0    0 -0.23307135998E+02  0.20216542463E+02 -0.30523617405E+02  0.47787281146E+02  0.20000046055E+02 0.  0.
         12    1    1    2    0    0  0.23307135998E+02 -0.20216542463E+02  0.30523617405E+02  0.43400718854E+02  0.00000000000E+00 0. -1.
         11    1    3    3    0    0  0.30825670109E+00  0.23274604870E+01 -0.28572364133E+01  0.36980933865E+01  0.51100000000E-03 0. -1.
        -11    1    3    3    0    0 -0.24387880581E+02  0.20055549132E+02 -0.23610460179E+02  0.39426483489E+02  0.51100000000E-03 0.  1.
        -12    1    3    3    0    0  0.77248788156E+00 -0.21664671562E+01 -0.40559208130E+01  0.46627042697E+01  0.00000000000E+00 0.  1.
</event>
<event>
 7    1  0.2580704E-010  0.4778727E+02  0.7816164E-02  0.1312668E+00
        -11   -1    0    0    0    0  0.00000000000E+00  0.00000000000E+00  0.45593999997E+02  0.45594000000E+02  0.51100000000E-03 0.  1.
         11   -1    0    0    0    0 -0.00000000000E+00 -0.00000000000E+00 -0.45593999997E+02  0.45594000000E+02  0.51100000000E-03 0. -1.
    9900012    2    1    2    0    0 -0.15250672508E+02  0.40546662041E+02  0.26473399159E+01  0.47787271627E+02  0.20000002658E+02 0.  0.
         12    1    1    2    0    0  0.15250672508E+02 -0.40546662041E+02 -0.26473399159E+01  0.43400728373E+02  0.00000000000E+00 0. -1.
         11    1    3    3    0    0 -0.29549269473E+01  0.40840570573E+01  0.19532774308E+01  0.54061454192E+01  0.51100000000E-03 0. -1.
        -11    1    3    3    0    0 -0.28532079987E+01  0.19560376936E+02 -0.77846667624E+01  0.21245003616E+02  0.51100000000E-03 0.  1.
        -12    1    3    3    0    0 -0.94425375618E+01  0.16902228048E+02  0.84787292475E+01  0.21136122593E+02  0.00000000000E+00 0.  1.
</event>
<event>
 7    1  0.2580704E-010  0.4778726E+02  0.7816164E-02  0.1312668E+00
        -11   -1    0    0    0    0  0.00000000000E+00  0.00000000000E+00  0.45593999997E+02  0.45594000000E+02  0.51100000000E-03 0. -1.
         11   -1    0    0    0    0 -0.00000000000E+00 -0.00000000000E+00 -0.45593999997E+02  0.45594000000E+02  0.51100000000E-03 0.  1.
    9900012    2    1    2    0    0  0.10631963329E+02  0.27422842111E+02 -0.31915091304E+02  0.47787263064E+02  0.19999963613E+02 0.  0.
         12    1    1    2    0    0 -0.10631963329E+02 -0.27422842111E+02  0.31915091304E+02  0.43400736936E+02  0.00000000000E+00 0. -1.
         11    1    3    3    0    0 -0.31110742955E+00 -0.14997262113E+01 -0.23475473356E+01  0.28030243123E+01  0.51100000000E-03 0. -1.
        -11    1    3    3    0    0  0.12299152905E+02  0.12946687537E+02 -0.16157229935E+02  0.24081984133E+02  0.51100000000E-03 0.  1.
         12    1    3    3    0    0 -0.13560821468E+01  0.15975880785E+02 -0.13410314033E+02  0.20902254618E+02  0.00000000000E+00 0. -1.
</event>
<event>
 7    1  0.2580704E-010  0.4778727E+02  0.7816164E-02  0.1312668E+00
        -11   -1    0    0    0    0  0.00000000000E+00  0.00000000000E+00  0.45593999997E+02  0.45594000000E+02  0.51100000000E-03 0.  1.
         11   -1    0    0    0    0 -0.00000000000E+00 -0.00000000000E+00 -0.45593999997E+02  0.45594000000E+02  0.51100000000E-03 0. -1.
    9900012    2    1    2    0    0  0.11857282094E+02 -0.40788468238E+02  0.89066921830E+01  0.47787269068E+02  0.19999990986E+02 0.  0.
         12    1    1    2    0    0 -0.11857282094E+02  0.40788468238E+02 -0.89066921830E+01  0.43400730932E+02  0.00000000000E+00 0. -1.
         11    1    3    3    0    0  0.40436901898E+01 -0.24643744077E+01 -0.16167787563E+01  0.50038530535E+01  0.51100000000E-03 0. -1.
        -11    1    3    3    0    0 -0.38047695995E+01 -0.62058343149E+01  0.25197375224E+01  0.77030986423E+01  0.51100000000E-03 0.  1.
        -12    1    3    3    0    0  0.11618361503E+02 -0.32118259515E+02  0.80037334168E+01  0.35080317372E+02  0.00000000000E+00 0.  1.
</event>
<event>
 7    1  0.2580704E-010  0.4778725E+02  0.7816164E-02  0.1312668E+00
        -11   -1    0    0    0    0  0.00000000000E+00  0.00000000000E+00  0.45593999997E+02  0.45594000000E+02  0.51100000000E-03 0.  1.
         11   -1    0    0    0    0 -0.00000000000E+00 -0.00000000000E+00 -0.45593999997E+02  0.45594000000E+02  0.51100000000E-03 0. -1.
    9900012    2    1    2    0    0 -0.32484501785E+02 -0.23225791015E+02 -0.16998381873E+02  0.47787248730E+02  0.19999898260E+02 0.  0.
         12    1    1    2    0    0  0.32484501785E+02  0.23225791015E+02  0.16998381873E+02  0.43400751270E+02  0.00000000000E+00 0. -1.
         11    1    3    3    0    0 -0.61012473799E+01 -0.69758947416E+01 -0.26163260333E+01  0.96298229065E+01  0.51100000000E-03 0.  1.
        -11    1    3    3    0    0 -0.23427452602E+02 -0.19747235905E+02 -0.11394711398E+02  0.32690033793E+02  0.51100000000E-03 0. -1.
         12    1    3    3    0    0 -0.29558018035E+01  0.34973396320E+01 -0.29873444413E+01  0.54673920304E+01  0.00000000000E+00 0. -1.
</event>
<event>
 7    1  0.2580704E-010  0.4778727E+02  0.7816164E-02  0.1312668E+00
        -11   -1    0    0    0    0  0.00000000000E+00  0.00000000000E+00  0.45593999997E+02  0.45594000000E+02  0.51100000000E-03 0.  1.
         11   -1    0    0    0    0 -0.00000000000E+00 -0.00000000000E+00 -0.45593999997E+02  0.45594000000E+02  0.51100000000E-03 0. -1.
    9900012    2    1    2    0    0 -0.20559361481E+02 -0.10470969905E+02  0.36759962065E+02  0.47787269979E+02  0.19999995144E+02 0.  0.
         12    1    1    2    0    0  0.20559361481E+02  0.10470969905E+02 -0.36759962065E+02  0.43400730021E+02  0.00000000000E+00 0. -1.
         11    1    3    3    0    0 -0.24808789517E+01  0.54078870797E+00  0.50979420873E+01  0.56952810805E+01  0.51100000000E-03 0.  1.
        -11    1    3    3    0    0  0.25253128661E+01  0.21175381058E+01  0.34365645178E+01  0.47614229645E+01  0.51100000000E-03 0. -1.
         12    1    3    3    0    0 -0.20603795396E+02 -0.13129296719E+02  0.28225455460E+02  0.37330565934E+02  0.00000000000E+00 0. -1.
</event>
<event>
 7    1  0.2580704E-010  0.4778727E+02  0.7816164E-02  0.1312668E+00
        -11   -1    0    0    0    0  0.00000000000E+00  0.00000000000E+00  0.45593999997E+02  0.45594000000E+02  0.51100000000E-03 0. -1.
         11   -1    0    0    0    0 -0.00000000000E+00 -0.00000000000E+00 -0.45593999997E+02  0.45594000000E+02  0.51100000000E-03 0.  1.
    9900012    2    1    2    0    0  0.40619287271E+02 -0.56084868709E+01 -0.14221169735E+02  0.47787270836E+02  0.19999999049E+02 0.  0.
         12    1    1    2    0    0 -0.40619287271E+02  0.56084868709E+01  0.14221169735E+02  0.43400729164E+02  0.00000000000E+00 0. -1.
         11    1    3    3    0    0 -0.51581712977E+00  0.18280200331E+00 -0.43917632500E+01  0.44257280292E+01  0.51100000000E-03 0. -1.
        -11    1    3    3    0    0  0.90389455296E+01 -0.17945686071E+01  0.96033524964E+00  0.92652715462E+01  0.51100000000E-03 0.  1.
         12    1    3    3    0    0  0.32096158871E+02 -0.39967202671E+01 -0.10789741734E+02  0.34096271260E+02  0.00000000000E+00 0. -1.
</event>
<event>
 7    1  0.2580704E-010  0.4778727E+02  0.7816164E-02  0.1312668E+00
        -11   -1    0    0    0    0  0.00000000000E+00  0.00000000000E+00  0.45593999997E+02  0.45594000000E+02  0.51100000000E-03 0.  1.
         11   -1    0    0    0    0 -0.00000000000E+00 -0.00000000000E+00 -0.45593999997E+02  0.45594000000E+02  0.51100000000E-03 0. -1.
    9900012    2    1    2    0    0 -0.89608895480E+01 -0.26375755455E+02  0.33281307048E+02  0.47787269405E+02  0.19999992527E+02 0.  0.
         12    1    1    2    0    0  0.89608895480E+01  0.26375755455E+02 -0.33281307048E+02  0.43400730595E+02  0.00000000000E+00 0. -1.
         11    1    3    3    0    0 -0.33828440220E+01 -0.51803107574E+01  0.82262687421E+00  0.62414716578E+01  0.51100000000E-03 0. -1.
        -11    1    3    3    0    0 -0.48161871948E+01 -0.12678663370E+02  0.82579116272E+01  0.15878830834E+02  0.51100000000E-03 0.  1.
         12    1    3    3    0    0 -0.76185833127E+00 -0.85167813279E+01  0.24200768547E+02  0.25666966914E+02  0.00000000000E+00 0. -1.
</event>
<event>
 7    1  0.2580704E-010  0.4778727E+02  0.7816164E-02  0.1312668E+00
        -11   -1    0    0    0    0  0.00000000000E+00  0.00000000000E+00  0.45593999997E+02  0.45594000000E+02  0.51100000000E-03 0.  1.
         11   -1    0    0    0    0 -0.00000000000E+00 -0.00000000000E+00 -0.45593999997E+02  0.45594000000E+02  0.51100000000E-03 0. -1.
    9900012    2    1    2    0    0  0.40991452041E+02  0.12218520515E+02 -0.73506338982E+01  0.47787271864E+02  0.20000003737E+02 0.  0.
         12    1    1    2    0    0 -0.40991452041E+02 -0.12218520515E+02  0.73506338982E+01  0.43400728136E+02  0.00000000000E+00 0. -1.
         11    1    3    3    0    0  0.63837092959E+01  0.28644476615E+01 -0.15767644511E+01  0.71723769543E+01  0.51100000000E-03 0. -1.
        -11    1    3    3    0    0  0.18152758819E+02  0.12300220072E+02 -0.87983070592E+01  0.23626854931E+02  0.51100000000E-03 0.  1.
         12    1    3    3    0    0  0.16454983926E+02 -0.29461472187E+01  0.30244376121E+01  0.16988039979E+02  0.00000000000E+00 0. -1.
</event>
<event>
 7    1  0.2580704E-010  0.4778728E+02  0.7816164E-02  0.1312668E+00
        -11   -1    0    0    0    0  0.00000000000E+00  0.00000000000E+00  0.45593999997E+02  0.45594000000E+02  0.51100000000E-03 0.  1.
         11   -1    0    0    0    0 -0.00000000000E+00 -0.00000000000E+00 -0.45593999997E+02  0.45594000000E+02  0.51100000000E-03 0. -1.
    9900012    2    1    2    0    0 -0.26823559391E+02 -0.25205147675E+02  0.22996088032E+02  0.47787275668E+02  0.20000021082E+02 0.  0.
         12    1    1    2    0    0  0.26823559391E+02  0.25205147675E+02 -0.22996088032E+02  0.43400724332E+02  0.00000000000E+00 0. -1.
         11    1    3    3    0    0  0.10302300956E+00 -0.78259966225E+00 -0.14230079484E+01  0.16272762071E+01  0.51100000000E-03 0. -1.
        -11    1    3    3    0    0 -0.10867277818E+02 -0.16092232747E+02  0.59561866248E+01  0.20310929111E+02  0.51100000000E-03 0.  1.
        -12    1    3    3    0    0 -0.16059304582E+02 -0.83303152652E+01  0.18462909356E+02  0.25849070350E+02  0.00000000000E+00 0.  1.
</event>
<event>
 7    1  0.2580704E-010  0.4778727E+02  0.7816164E-02  0.1312668E+00
        -11   -1    0    0    0    0  0.00000000000E+00  0.00000000000E+00  0.45593999997E+02  0.45594000000E+02  0.51100000000E-03 0. -1.
         11   -1    0    0    0    0 -0.00000000000E+00 -0.00000000000E+00 -0.45593999997E+02  0.45594000000E+02  0.51100000000E-03 0.  1.
    9900012    2    1    2    0    0 -0.23704339103E+02 -0.20582186395E+02 -0.29968336806E+02  0.47787270743E+02  0.19999998628E+02 0.  0.
         12    1    1    2    0    0  0.23704339103E+02  0.20582186395E+02  0.29968336806E+02  0.43400729257E+02  0.00000000000E+00 0. -1.
         11    1    3    3    0    0 -0.20709689663E+01 -0.24686618938E+01 -0.18721009366E+01  0.37266561665E+01  0.51100000000E-03 0. -1.
        -11    1    3    3    0    0 -0.15091038485E+02 -0.19886674747E+02 -0.27672372516E+02  0.37269014959E+02  0.51100000000E-03 0.  1.
         12    1    3    3    0    0 -0.65423316517E+01  0.17731502457E+01 -0.42386335285E+00  0.67915996184E+01  0.00000000000E+00 0. -1.
</event>
<event>
 7    1  0.2580704E-010  0.4778727E+02  0.7816164E-02  0.1312668E+00
        -11   -1    0    0    0    0  0.00000000000E+00  0.00000000000E+00  0.45593999997E+02  0.45594000000E+02  0.51100000000E-03 0.  1.
         11   -1    0    0    0    0 -0.00000000000E+00 -0.00000000000E+00 -0.45593999997E+02  0.45594000000E+02  0.51100000000E-03 0. -1.
    9900012    2    1    2    0    0 -0.69147512708E+00  0.20556064311E+02  0.38217716715E+02  0.47787265113E+02  0.19999972955E+02 0.  0.
         12    1    1    2    0    0  0.69147512708E+00 -0.20556064311E+02 -0.38217716715E+02  0.43400734887E+02  0.00000000000E+00 0. -1.
         11    1    3    3    0    0 -0.15638408126E+01  0.10091250668E+02  0.49487908479E+01  0.11347663603E+02  0.51100000000E-03 0.  1.
        -11    1    3    3    0    0 -0.24108196393E+01 -0.12338214874E+01  0.56125812070E+01  0.62318083140E+01  0.51100000000E-03 0. -1.
        -12    1    3    3    0    0  0.32831853248E+01  0.11698635131E+02  0.27656344660E+02  0.30207793196E+02  0.00000000000E+00 0.  1.
</event>
<event>
 7    1  0.2580704E-010  0.4778727E+02  0.7816164E-02  0.1312668E+00
        -11   -1    0    0    0    0  0.00000000000E+00  0.00000000000E+00  0.45593999997E+02  0.45594000000E+02  0.51100000000E-03 0. -1.
         11   -1    0    0    0    0 -0.00000000000E+00 -0.00000000000E+00 -0.45593999997E+02  0.45594000000E+02  0.51100000000E-03 0.  1.
    9900012    2    1    2    0    0 -0.24174620075E+02  0.31368935909E+02 -0.17753899102E+02  0.47787270408E+02  0.19999997097E+02 0.  0.
         12    1    1    2    0    0  0.24174620075E+02 -0.31368935909E+02  0.17753899102E+02  0.43400729592E+02  0.00000000000E+00 0. -1.
         11    1    3    3    0    0 -0.59191217981E+01  0.13512542269E+02 -0.32452696119E+01  0.15104852748E+02  0.51100000000E-03 0.  1.
        -11    1    3    3    0    0 -0.59055494678E+01  0.15043115527E+02 -0.10965741367E+02  0.19529934032E+02  0.51100000000E-03 0. -1.
         12    1    3    3    0    0 -0.12349948809E+02  0.28132781123E+01 -0.35428881235E+01  0.13152483628E+02  0.00000000000E+00 0. -1.
</event>
<event>
 7    1  0.2580704E-010  0.4778732E+02  0.7816164E-02  0.1312668E+00
        -11   -1    0    0    0    0  0.00000000000E+00  0.00000000000E+00  0.45593999997E+02  0.45594000000E+02  0.51100000000E-03 0.  1.
         11   -1    0    0    0    0 -0.00000000000E+00 -0.00000000000E+00 -0.45593999997E+02  0.45594000000E+02  0.51100000000E-03 0. -1.
    9900012    2    1    2    0    0  0.33180214856E+02 -0.24825715200E+02 -0.12898699225E+02  0.47787317577E+02  0.20000212157E+02 0.  0.
         12    1    1    2    0    0 -0.33180214856E+02  0.24825715200E+02  0.12898699225E+02  0.43400682423E+02  0.00000000000E+00 0. -1.
         11    1    3    3    0    0  0.68611057412E+01 -0.57903269372E+01 -0.90382738637E+01  0.12739429058E+02  0.51100000000E-03 0. -1.
        -11    1    3    3    0    0  0.18990491298E+02 -0.61688520466E+01 -0.11987860392E+01  0.20003264322E+02  0.51100000000E-03 0.  1.
         12    1    3    3    0    0  0.73286178170E+01 -0.12866536217E+02 -0.26616393220E+01  0.15044624196E+02  0.00000000000E+00 0. -1.
</event>
<event>
 7    1  0.2580704E-010  0.4778727E+02  0.7816164E-02  0.1312668E+00
        -11   -1    0    0    0    0  0.00000000000E+00  0.00000000000E+00  0.45593999997E+02  0.45594000000E+02  0.51100000000E-03 0. -1.
         11   -1    0    0    0    0 -0.00000000000E+00 -0.00000000000E+00 -0.45593999997E+02  0.45594000000E+02  0.51100000000E-03 0.  1.
    9900012    2    1    2    0    0  0.11865545047E+02  0.24675498906E+02 -0.33674205120E+02  0.47787268485E+02  0.19999988332E+02 0.  0.
         12    1    1    2    0    0 -0.11865545047E+02 -0.24675498906E+02  0.33674205120E+02  0.43400731515E+02  0.00000000000E+00 0. -1.
         11    1    3    3    0    0  0.11305031703E+02  0.16334801200E+02 -0.26611272175E+02  0.33208271245E+02  0.51100000000E-03 0. -1.
        -11    1    3    3    0    0  0.36331195633E+01 -0.23132975300E+00 -0.22426307078E+01  0.42757998045E+01  0.51100000000E-03 0.  1.
         12    1    3    3    0    0 -0.30726062196E+01  0.85720274592E+01 -0.48203022376E+01  0.10303197436E+02  0.00000000000E+00 0. -1.
</event>
<event>
 7    1  0.2580704E-010  0.4778727E+02  0.7816164E-02  0.1312668E+00
        -11   -1    0    0    0    0  0.00000000000E+00  0.00000000000E+00  0.45593999997E+02  0.45594000000E+02  0.51100000000E-03 0.  1.
         11   -1    0    0    0    0 -0.00000000000E+00 -0.00000000000E+00 -0.45593999997E+02  0.45594000000E+02  0.51100000000E-03 0. -1.
    9900012    2    1    2    0    0 -0.38644307511E+01 -0.46433328687E+01  0.42978235821E+02  0.47787272824E+02  0.20000008112E+02 0.  0.
         12    1    1    2    0    0  0.38644307511E+01  0.46433328687E+01 -0.42978235821E+02  0.43400727176E+02  0.00000000000E+00 0. -1.
         11    1    3    3    0    0  0.19011429819E+01  0.53874070924E+00  0.30700714005E+02  0.30764239416E+02  0.51100000000E-03 0. -1.
        -11    1    3    3    0    0 -0.45627153252E+01 -0.16489955185E+01  0.12372387387E+02  0.13289602224E+02  0.51100000000E-03 0.  1.
        -12    1    3    3    0    0 -0.12028584079E+01 -0.35330780595E+01 -0.94865571004E-01  0.37334311833E+01  0.00000000000E+00 0.  1.
</event>
<event>
 7    1  0.2580704E-010  0.4778727E+02  0.7816164E-02  0.1312668E+00
        -11   -1    0    0    0    0  0.00000000000E+00  0.00000000000E+00  0.45593999997E+02  0.45594000000E+02  0.51100000000E-03 0. -1.
         11   -1    0    0    0    0 -0.00000000000E+00 -0.00000000000E+00 -0.45593999997E+02  0.45594000000E+02  0.51100000000E-03 0.  1.
    9900012    2    1    2    0    0  0.37111125905E+02  0.22075618592E+02  0.43651631638E+01  0.47787271302E+02  0.20000001173E+02 0.  0.
         12    1    1    2    0    0 -0.37111125905E+02 -0.22075618592E+02 -0.43651631638E+01  0.43400728698E+02  0.00000000000E+00 0. -1.
         11    1    3    3    0    0  0.14263441466E+02  0.10985952250E+02 -0.32592487142E+01  0.18296437133E+02  0.51100000000E-03 0. -1.
        -11    1    3    3    0    0  0.18491792393E+02  0.69040345760E+01 -0.31461498645E-01  0.19738618731E+02  0.51100000000E-03 0.  1.
         12    1    3    3    0    0  0.43558920451E+01  0.41856317651E+01  0.76558733766E+01  0.97522154375E+01  0.00000000000E+00 0. -1.
</event>
<event>
 7    1  0.3501200E-010  0.4778727E+02  0.7816164E-02  0.1312668E+00
        -11   -1    0    0    0    0  0.00000000000E+00  0.00000000000E+00  0.45593999997E+02  0.45594000000E+02  0.51100000000E-03 0.  1.
         11   -1    0    0    0    0 -0.00000000000E+00 -0.00000000000E+00 -0.45593999997E+02  0.45594000000E+02  0.51100000000E-03 0. -1.
    9900012    2    1    2    0    0 -0.81354561966E+01 -0.40220418423E+02 -0.14133499199E+02  0.47787268379E+02  0.19999987848E+02 0.  0.
         12    1    1    2    0    0  0.81354561966E+01  0.40220418423E+02  0.14133499199E+02  0.43400731621E+02  0.00000000000E+00 0. -1.
         11    1    3    3    0    0  0.28903784079E+01 -0.11866708753E+01  0.16679639327E+00  0.31289449348E+01  0.51100000000E-03 0. -1.
        -11    1    3    3    0    0  0.11333818247E+00 -0.10321101914E+02 -0.83835487224E+01  0.13297438840E+02  0.51100000000E-03 0.  1.
        -12    1    3    3    0    0 -0.11139172787E+02 -0.28712645633E+02 -0.59167468695E+01  0.31360884604E+02  0.00000000000E+00 0.  1.
</event>
<event>
 7    1  0.2580704E-010  0.4778727E+02  0.7816164E-02  0.1312668E+00
        -11   -1    0    0    0    0  0.00000000000E+00  0.00000000000E+00  0.45593999997E+02  0.45594000000E+02  0.51100000000E-03 0.  1.
         11   -1    0    0    0    0 -0.00000000000E+00 -0.00000000000E+00 -0.45593999997E+02  0.45594000000E+02  0.51100000000E-03 0. -1.
    9900012    2    1    2    0    0 -0.24014881315E+02  0.18289736770E+01  0.36104896346E+02  0.47787271786E+02  0.20000003382E+02 0.  0.
         12    1    1    2    0    0  0.24014881315E+02 -0.18289736770E+01 -0.36104896346E+02  0.43400728214E+02  0.00000000000E+00 0. -1.
         11    1    3    3    0    0  0.41898794291E+00  0.46371679730E+01  0.42378278505E+01  0.62958766552E+01  0.51100000000E-03 0. -1.
        -11    1    3    3    0    0 -0.85451909163E+01  0.16911554987E+01  0.52584114644E+01  0.10175027573E+02  0.51100000000E-03 0.  1.
        -12    1    3    3    0    0 -0.15888678342E+02 -0.44993497948E+01  0.26608657031E+02  0.31316367558E+02  0.00000000000E+00 0.  1.
</event>
<event>
 7    1  0.2580704E-010  0.4778728E+02  0.7816164E-02  0.1312668E+00
        -11   -1    0    0    0    0  0.00000000000E+00  0.00000000000E+00  0.45593999997E+02  0.45594000000E+02  0.51100000000E-03 0.  1.
         11   -1    0    0    0    0 -0.00000000000E+00 -0.00000000000E+00 -0.45593999997E+02  0.45594000000E+02  0.51100000000E-03 0. -1.
    9900012    2    1    2    0    0 -0.28903583522E+02 -0.32373149109E+02  0.43011509692E+00  0.47787275091E+02  0.20000018452E+02 0.  0.
         12    1    1    2    0    0  0.28903583522E+02  0.32373149109E+02 -0.43011509692E+00  0.43400724909E+02  0.00000000000E+00 0. -1.
         11    1    3    3    0    0 -0.19556682329E+01 -0.47319267584E+01  0.39453609887E+01  0.64638721117E+01  0.51100000000E-03 0. -1.
        -11    1    3    3    0    0 -0.27387087937E+02 -0.28650444755E+02 -0.44444212607E+01  0.39882997015E+02  0.51100000000E-03 0.  1.
        -12    1    3    3    0    0  0.43917264798E+00  0.10092224047E+01  0.92917536884E+00  0.14404059646E+01  0.00000000000E+00 0.  1.
</event>
<event>
 7    1  0.2580704E-010  0.4778727E+02  0.7816164E-02  0.1312668E+00
        -11   -1    0    0    0    0  0.00000000000E+00  0.00000000000E+00  0.45593999997E+02  0.45594000000E+02  0.51100000000E-03 0.  1.
         11   -1    0    0    0    0 -0.00000000000E+00 -0.00000000000E+00 -0.45593999997E+02  0.45594000000E+02  0.51100000000E-03 0. -1.
    9900012    2    1    2    0    0 -0.34854301848E+02  0.10428008001E+02  0.23665536485E+02  0.47787270453E+02  0.19999997302E+02 0.  0.
         12    1    1    2    0    0  0.34854301848E+02 -0.10428008001E+02 -0.23665536485E+02  0.43400729547E+02  0.00000000000E+00 0. -1.
         11    1    3    3    0    0 -0.10905483250E+02  0.13923786746E+01  0.10692172094E+02  0.15335932565E+02  0.51100000000E-03 0. -1.
        -11    1    3    3    0    0 -0.24823106059E+02  0.10521218517E+02  0.14067000449E+02  0.30409918372E+02  0.51100000000E-03 0.  1.
         12    1    3    3    0    0  0.87428746138E+00 -0.14855891906E+01 -0.10936360591E+01  0.20414195155E+01  0.00000000000E+00 0. -1.
</event>
<event>
 7    1  0.2580704E-010  0.4778727E+02  0.7816164E-02  0.1312668E+00
        -11   -1    0    0    0    0  0.00000000000E+00  0.00000000000E+00  0.45593999997E+02  0.45594000000E+02  0.51100000000E-03 0.  1.
         11   -1    0    0    0    0 -0.00000000000E+00 -0.00000000000E+00 -0.45593999997E+02  0.45594000000E+02  0.51100000000E-03 0. -1.
    9900012    2    1    2    0    0  0.33239500719E+02 -0.56568366408E-01  0.27906191208E+02  0.47787272865E+02  0.20000008302E+02 0.  0.
         12    1    1    2    0    0 -0.33239500719E+02  0.56568366408E-01 -0.27906191208E+02  0.43400727135E+02  0.00000000000E+00 0. -1.
         11    1    3    3    0    0  0.62108005852E+01  0.14847747203E+01  0.99603679082E+01  0.11831632559E+02  0.51100000000E-03 0. -1.
        -11    1    3    3    0    0  0.22863872781E+02  0.45724459266E+01  0.16088389660E+02  0.28328434874E+02  0.51100000000E-03 0.  1.
         12    1    3    3    0    0  0.41648273535E+01 -0.61137890133E+01  0.18574336402E+01  0.76272054326E+01  0.00000000000E+00 0. -1.
</event>
<event>
 7    1  0.2813804E-010  0.4778730E+02  0.7816164E-02  0.1312668E+00
        -11   -1    0    0    0    0  0.00000000000E+00  0.00000000000E+00  0.45593999997E+02  0.45594000000E+02  0.51100000000E-03 0. -1.
         11   -1    0    0    0    0 -0.00000000000E+00 -0.00000000000E+00 -0.45593999997E+02  0.45594000000E+02  0.51100000000E-03 0.  1.
    9900012    2    1    2    0    0 -0.25451530997E+00  0.15524139548E+02 -0.40528476170E+02  0.47787296464E+02  0.20000115898E+02 0.  0.
         12    1    1    2    0    0  0.25451530997E+00 -0.15524139548E+02  0.40528476170E+02  0.43400703536E+02  0.00000000000E+00 0. -1.
         11    1    3    3    0    0  0.29520093448E+01  0.77045293964E+01 -0.28709082639E+01  0.87359170619E+01  0.51100000000E-03 0. -1.
        -11    1    3    3    0    0 -0.27005089813E+01  0.50963442327E+00 -0.14637440520E+02  0.14893191103E+02  0.51100000000E-03 0.  1.
        -12    1    3    3    0    0 -0.50601567356E+00  0.73099757279E+01 -0.23020127387E+02  0.24158188299E+02  0.00000000000E+00 0.  1.
</event>
<event>
 7    1  0.2580704E-010  0.4778727E+02  0.7816164E-02  0.1312668E+00
        -11   -1    0    0    0    0  0.00000000000E+00  0.00000000000E+00  0.45593999997E+02  0.45594000000E+02  0.51100000000E-03 0. -1.
         11   -1    0    0    0    0 -0.00000000000E+00 -0.00000000000E+00 -0.45593999997E+02  0.45594000000E+02  0.51100000000E-03 0.  1.
    9900012    2    1    2    0    0  0.79230441569E+01  0.42631608012E+02  0.18424472563E+01  0.47787271408E+02  0.20000001659E+02 0.  0.
         12    1    1    2    0    0 -0.79230441569E+01 -0.42631608012E+02 -0.18424472563E+01  0.43400728592E+02  0.00000000000E+00 0. -1.
         11    1    3    3    0    0 -0.17930278527E+00  0.12566064167E+02  0.75404717705E+00  0.12589944621E+02  0.51100000000E-03 0. -1.
        -11    1    3    3    0    0  0.58355507411E+01  0.22603208062E+02 -0.65860083991E+01  0.24255600880E+02  0.51100000000E-03 0.  1.
         12    1    3    3    0    0  0.22667962011E+01  0.74623357821E+01  0.76744084783E+01  0.10941725908E+02  0.00000000000E+00 0. -1.
</event>
<event>
 7    1  0.2580704E-010  0.4778729E+02  0.7816164E-02  0.1312668E+00
        -11   -1    0    0    0    0  0.00000000000E+00  0.00000000000E+00  0.45593999997E+02  0.45594000000E+02  0.51100000000E-03 0.  1.
         11   -1    0    0    0    0 -0.00000000000E+00 -0.00000000000E+00 -0.45593999997E+02  0.45594000000E+02  0.51100000000E-03 0. -1.
    9900012    2    1    2    0    0  0.29982057295E+02 -0.15066007214E+02  0.27526597299E+02  0.47787286966E+02  0.20000072593E+02 0.  0.
         12    1    1    2    0    0 -0.29982057295E+02  0.15066007214E+02 -0.27526597299E+02  0.43400713034E+02  0.00000000000E+00 0. -1.
         11    1    3    3    0    0  0.10804754987E+02  0.68527283468E+00  0.45323928385E+01  0.11736903948E+02  0.51100000000E-03 0. -1.
        -11    1    3    3    0    0  0.79726304114E+01  0.17941554230E+00  0.92483328033E+01  0.12211743754E+02  0.51100000000E-03 0.  1.
         12    1    3    3    0    0  0.11204671896E+02 -0.15930695591E+02  0.13745871657E+02  0.23838639263E+02  0.00000000000E+00 0. -1.
</event>
<event>
 7    1  0.2580704E-010  0.4778727E+02  0.7816164E-02  0.1312668E+00
        -11   -1    0    0    0    0  0.00000000000E+00  0.00000000000E+00  0.45593999997E+02  0.45594000000E+02  0.51100000000E-03 0.  1.
         11   -1    0    0    0    0 -0.00000000000E+00 -0.00000000000E+00 -0.45593999997E+02  0.45594000000E+02  0.51100000000E-03 0. -1.
    9900012    2    1    2    0    0  0.16632845625E+02  0.30149395927E+02  0.26419419869E+02  0.47787269885E+02  0.19999994712E+02 0.  0.
         12    1    1    2    0    0 -0.16632845625E+02 -0.30149395927E+02 -0.26419419869E+02  0.43400730115E+02  0.00000000000E+00 0. -1.
         11    1    3    3    0    0  0.25024388107E+01  0.64086827325E+01  0.77918598266E+01  0.10394541557E+02  0.51100000000E-03 0. -1.
        -11    1    3    3    0    0  0.59350309955E+01 -0.93390185922E+00  0.59906800642E+01  0.84843982398E+01  0.51100000000E-03 0.  1.
        -12    1    3    3    0    0  0.81953758191E+01  0.24674615054E+02  0.12636879978E+02  0.28908330087E+02  0.00000000000E+00 0.  1.
</event>
<event>
 7    1  0.2580704E-010  0.4778727E+02  0.7816164E-02  0.1312668E+00
        -11   -1    0    0    0    0  0.00000000000E+00  0.00000000000E+00  0.45593999997E+02  0.45594000000E+02  0.51100000000E-03 0.  1.
         11   -1    0    0    0    0 -0.00000000000E+00 -0.00000000000E+00 -0.45593999997E+02  0.45594000000E+02  0.51100000000E-03 0. -1.
    9900012    2    1    2    0    0  0.13178560222E+02 -0.18753155225E+02  0.36854689197E+02  0.47787269635E+02  0.19999993576E+02 0.  0.
         12    1    1    2    0    0 -0.13178560222E+02  0.18753155225E+02 -0.36854689197E+02  0.43400730365E+02  0.00000000000E+00 0. -1.
         11    1    3    3    0    0  0.24663674952E+01 -0.23975574409E+01  0.13888424924E+02  0.14308025630E+02  0.51100000000E-03 0. -1.
        -11    1    3    3    0    0  0.11406377555E+02 -0.11989149943E+02  0.23792404821E+02  0.28981437037E+02  0.51100000000E-03 0.  1.
         12    1    3    3    0    0 -0.69418482870E+00 -0.43664478403E+01 -0.82614054830E+00  0.44978069683E+01  0.00000000000E+00 0. -1.
</event>
<event>
 7    1  0.2580704E-010  0.4778728E+02  0.7816164E-02  0.1312668E+00
        -11   -1    0    0    0    0  0.00000000000E+00  0.00000000000E+00  0.45593999997E+02  0.45594000000E+02  0.51100000000E-03 0.  1.
         11   -1    0    0    0    0 -0.00000000000E+00 -0.00000000000E+00 -0.45593999997E+02  0.45594000000E+02  0.51100000000E-03 0. -1.
    9900012    2    1    2    0    0  0.66537122920E+01 -0.30248324967E+00  0.42886587177E+02  0.47787277159E+02  0.20000027880E+02 0.  0.
         12    1    1    2    0    0 -0.66537122920E+01  0.30248324967E+00 -0.42886587177E+02  0.43400722841E+02  0.00000000000E+00 0. -1.
         11    1    3    3    0    0  0.79319867030E+01 -0.28458593064E+01  0.19397664988E+02  0.21149107203E+02  0.51100000000E-03 0. -1.
        -11    1    3    3    0    0  0.40144149076E+00 -0.43096469384E+01  0.14935616856E+02  0.15550140293E+02  0.51100000000E-03 0.  1.
        -12    1    3    3    0    0 -0.16797159018E+01  0.68530229951E+01  0.85533053334E+01  0.11088029663E+02  0.00000000000E+00 0.  1.
</event>
<event>
 7    1  0.2580704E-010  0.4778725E+02  0.7816164E-02  0.1312668E+00
        -11   -1    0    0    0    0  0.00000000000E+00  0.00000000000E+00  0.45593999997E+02  0.45594000000E+02  0.51100000000E-03 0. -1.
         11   -1    0    0    0    0 -0.00000000000E+00 -0.00000000000E+00 -0.45593999997E+02  0.45594000000E+02  0.51100000000E-03 0.  1.
    9900012    2    1    2    0    0  0.73596743165E+01  0.40441704989E+02  0.13925840106E+02  0.47787247344E+02  0.19999891939E+02 0.  0.
         12    1    1    2    0    0 -0.73596743165E+01 -0.40441704989E+02 -0.13925840106E+02  0.43400752656E+02  0.00000000000E+00 0. -1.
         11    1    3    3    0    0 -0.42285258511E+01  0.76522944703E+01  0.36250663708E+01  0.94646261409E+01  0.51100000000E-03 0. -1.
        -11    1    3    3    0    0 -0.22356900367E+01  0.63935065935E+01  0.40031211704E+01  0.78676690238E+01  0.51100000000E-03 0.  1.
        -12    1    3    3    0    0  0.13823890204E+02  0.26395903925E+02  0.62976525649E+01  0.30454952179E+02  0.00000000000E+00 0.  1.
</event>
<event>
 7    1  0.2580704E-010  0.4778727E+02  0.7816164E-02  0.1312668E+00
        -11   -1    0    0    0    0  0.00000000000E+00  0.00000000000E+00  0.45593999997E+02  0.45594000000E+02  0.51100000000E-03 0.  1.
         11   -1    0    0    0    0 -0.00000000000E+00 -0.00000000000E+00 -0.45593999997E+02  0.45594000000E+02  0.51100000000E-03 0. -1.
    9900012    2    1    2    0    0  0.43366242746E+02 -0.16993480376E+01  0.32319696173E+00  0.47787271320E+02  0.20000001257E+02 0.  0.
         12    1    1    2    0    0 -0.43366242746E+02  0.16993480376E+01 -0.32319696173E+00  0.43400728680E+02  0.00000000000E+00 0. -1.
         11    1    3    3    0    0  0.40520564981E+01  0.17043399005E+01 -0.45588259193E+01  0.63329953721E+01  0.51100000000E-03 0. -1.
        -11    1    3    3    0    0  0.40734299708E+01  0.23592345127E+01  0.32267521916E+01  0.57070788658E+01  0.51100000000E-03 0.  1.
        -12    1    3    3    0    0  0.35240756277E+02 -0.57629224508E+01  0.16552706894E+01  0.35747197082E+02  0.00000000000E+00 0.  1.
</event>
<event>
 7    1  0.2580704E-010  0.4778732E+02  0.7816164E-02  0.1312668E+00
        -11   -1    0    0    0    0  0.00000000000E+00  0.00000000000E+00  0.45593999997E+02  0.45594000000E+02  0.51100000000E-03 0.  1.
         11   -1    0    0    0    0 -0.00000000000E+00 -0.00000000000E+00 -0.45593999997E+02  0.45594000000E+02  0.51100000000E-03 0. -1.
    9900012    2    1    2    0    0 -0.35873328535E+02  0.12785463868E+02  0.20814785083E+02  0.47787319538E+02  0.20000221099E+02 0.  0.
         12    1    1    2    0    0  0.35873328535E+02 -0.12785463868E+02 -0.20814785083E+02  0.43400680462E+02  0.00000000000E+00 0. -1.
         11    1    3    3    0    0 -0.66788350877E+01 -0.23398157825E+00 -0.88266308468E+00  0.67409702484E+01  0.51100000000E-03 0. -1.
        -11    1    3    3    0    0 -0.10386604811E+02  0.15230884568E+00  0.13110465990E+01  0.10470128984E+02  0.51100000000E-03 0.  1.
         12    1    3    3    0    0 -0.18807888636E+02  0.12867136601E+02  0.20386401569E+02  0.30576220306E+02  0.00000000000E+00 0. -1.
</event>
<event>
 7    1  0.2580704E-010  0.4778727E+02  0.7816164E-02  0.1312668E+00
        -11   -1    0    0    0    0  0.00000000000E+00  0.00000000000E+00  0.45593999997E+02  0.45594000000E+02  0.51100000000E-03 0.  1.
         11   -1    0    0    0    0 -0.00000000000E+00 -0.00000000000E+00 -0.45593999997E+02  0.45594000000E+02  0.51100000000E-03 0. -1.
    9900012    2    1    2    0    0  0.25494765974E+02 -0.22019596322E+02  0.27363800123E+02  0.47787271073E+02  0.20000000130E+02 0.  0.
         12    1    1    2    0    0 -0.25494765974E+02  0.22019596322E+02 -0.27363800123E+02  0.43400728927E+02  0.00000000000E+00 0. -1.
         11    1    3    3    0    0  0.23501706732E+02 -0.13130318994E+02  0.15164594529E+02  0.30898226870E+02  0.51100000000E-03 0.  1.
        -11    1    3    3    0    0  0.24862000175E+01 -0.92038228087E+00  0.66692231586E+01  0.71768260304E+01  0.51100000000E-03 0. -1.
        -12    1    3    3    0    0 -0.49314077597E+00 -0.79688950476E+01  0.55299824355E+01  0.97122181731E+01  0.00000000000E+00 0.  1.
</event>
<event>
 7    1  0.2580704E-010  0.4778727E+02  0.7816164E-02  0.1312668E+00
        -11   -1    0    0    0    0  0.00000000000E+00  0.00000000000E+00  0.45593999997E+02  0.45594000000E+02  0.51100000000E-03 0.  1.
         11   -1    0    0    0    0 -0.00000000000E+00 -0.00000000000E+00 -0.45593999997E+02  0.45594000000E+02  0.51100000000E-03 0. -1.
    9900012    2    1    2    0    0 -0.25695784661E+02  0.49659167962E+01  0.34622096832E+02  0.47787271112E+02  0.20000000307E+02 0.  0.
         12    1    1    2    0    0  0.25695784661E+02 -0.49659167962E+01 -0.34622096832E+02  0.43400728888E+02  0.00000000000E+00 0. -1.
         11    1    3    3    0    0 -0.35416299106E+01 -0.34936953120E+01  0.24450266286E+01  0.55432125011E+01  0.51100000000E-03 0. -1.
        -11    1    3    3    0    0 -0.29206743182E+00  0.41574202981E+01  0.98766487231E+01  0.10719964421E+02  0.51100000000E-03 0.  1.
        -12    1    3    3    0    0 -0.21862087319E+02  0.43021918102E+01  0.22300421480E+02  0.31524094190E+02  0.00000000000E+00 0.  1.
</event>
<event>
 7    1  0.2580704E-010  0.4778727E+02  0.7816164E-02  0.1312668E+00
        -11   -1    0    0    0    0  0.00000000000E+00  0.00000000000E+00  0.45593999997E+02  0.45594000000E+02  0.51100000000E-03 0.  1.
         11   -1    0    0    0    0 -0.00000000000E+00 -0.00000000000E+00 -0.45593999997E+02  0.45594000000E+02  0.51100000000E-03 0. -1.
    9900012    2    1    2    0    0  0.30229464813E+02 -0.30633574961E+02  0.56024145879E+01  0.47787268359E+02  0.19999987757E+02 0.  0.
         12    1    1    2    0    0 -0.30229464813E+02  0.30633574961E+02 -0.56024145879E+01  0.43400731641E+02  0.00000000000E+00 0. -1.
         11    1    3    3    0    0  0.60334856423E+01 -0.86314488102E+01 -0.51626466355E+01  0.11728502807E+02  0.51100000000E-03 0. -1.
        -11    1    3    3    0    0  0.97782723012E+01 -0.14432910599E+02  0.19501837814E+01  0.17542141676E+02  0.51100000000E-03 0.  1.
        -12    1    3    3    0    0  0.14417706869E+02 -0.75692155518E+01  0.88148774420E+01  0.18516623876E+02  0.00000000000E+00 0.  1.
</event>
<event>
 7    1  0.2580704E-010  0.4778727E+02  0.7816164E-02  0.1312668E+00
        -11   -1    0    0    0    0  0.00000000000E+00  0.00000000000E+00  0.45593999997E+02  0.45594000000E+02  0.51100000000E-03 0.  1.
         11   -1    0    0    0    0 -0.00000000000E+00 -0.00000000000E+00 -0.45593999997E+02  0.45594000000E+02  0.51100000000E-03 0. -1.
    9900012    2    1    2    0    0 -0.40663935280E+02 -0.13908547906E+02  0.60514536430E+01  0.47787269263E+02  0.19999991876E+02 0.  0.
         12    1    1    2    0    0  0.40663935280E+02  0.13908547906E+02 -0.60514536430E+01  0.43400730737E+02  0.00000000000E+00 0. -1.
         11    1    3    3    0    0  0.47814994065E+00 -0.14428069181E+00  0.10269629221E+00  0.50989319796E+00  0.51100000000E-03 0. -1.
        -11    1    3    3    0    0 -0.19332849482E+02  0.15109557271E+01  0.70354770939E+01  0.20628620761E+02  0.51100000000E-03 0.  1.
         12    1    3    3    0    0 -0.21809235739E+02 -0.15275222942E+02 -0.10867197431E+01  0.26648755304E+02  0.00000000000E+00 0. -1.
</event>
<event>
 7    1  0.2580704E-010  0.4778727E+02  0.7816164E-02  0.1312668E+00
        -11   -1    0    0    0    0  0.00000000000E+00  0.00000000000E+00  0.45593999997E+02  0.45594000000E+02  0.51100000000E-03 0.  1.
         11   -1    0    0    0    0 -0.00000000000E+00 -0.00000000000E+00 -0.45593999997E+02  0.45594000000E+02  0.51100000000E-03 0. -1.
    9900012    2    1    2    0    0 -0.17365981872E+02  0.12678844042E+02  0.37700038238E+02  0.47787270792E+02  0.19999998851E+02 0.  0.
         12    1    1    2    0    0  0.17365981872E+02 -0.12678844042E+02 -0.37700038238E+02  0.43400729208E+02  0.00000000000E+00 0. -1.
         11    1    3    3    0    0  0.91831645355E+00 -0.14545781950E+01  0.45696203463E+01  0.48826768483E+01  0.51100000000E-03 0. -1.
        -11    1    3    3    0    0 -0.12702173876E+02  0.16166834837E+02  0.20953787478E+02  0.29355970087E+02  0.51100000000E-03 0.  1.
         12    1    3    3    0    0 -0.55821244491E+01 -0.20334126009E+01  0.12176630414E+02  0.13548623857E+02  0.00000000000E+00 0. -1.
</event>
<event>
 7    1  0.2580704E-010  0.4778727E+02  0.7816164E-02  0.1312668E+00
        -11   -1    0    0    0    0  0.00000000000E+00  0.00000000000E+00  0.45593999997E+02  0.45594000000E+02  0.51100000000E-03 0. -1.
         11   -1    0    0    0    0 -0.00000000000E+00 -0.00000000000E+00 -0.45593999997E+02  0.45594000000E+02  0.51100000000E-03 0.  1.
    9900012    2    1    2    0    0 -0.34283443538E+02 -0.34518794728E+01 -0.26388504454E+02  0.47787272586E+02  0.20000007029E+02 0.  0.
         12    1    1    2    0    0  0.34283443538E+02  0.34518794728E+01  0.26388504454E+02  0.43400727414E+02  0.00000000000E+00 0. -1.
         11    1    3    3    0    0 -0.12655727797E+02  0.25789283479E+01 -0.10161831385E+02  0.16434145394E+02  0.51100000000E-03 0. -1.
        -11    1    3    3    0    0 -0.20219754468E+02 -0.62484298750E+00 -0.15948121356E+02  0.25759881105E+02  0.51100000000E-03 0.  1.
         12    1    3    3    0    0 -0.14079612730E+01 -0.54059648332E+01 -0.27855171324E+00  0.55932460862E+01  0.00000000000E+00 0. -1.
</event>
<event>
 7    1  0.2580704E-010  0.4778727E+02  0.7816164E-02  0.1312668E+00
        -11   -1    0    0    0    0  0.00000000000E+00  0.00000000000E+00  0.45593999997E+02  0.45594000000E+02  0.51100000000E-03 0. -1.
         11   -1    0    0    0    0 -0.00000000000E+00 -0.00000000000E+00 -0.45593999997E+02  0.45594000000E+02  0.51100000000E-03 0.  1.
    9900012    2    1    2    0    0 -0.41479933600E+02  0.86248896307E+01 -0.94154026704E+01  0.47787269360E+02  0.19999992321E+02 0.  0.
         12    1    1    2    0    0  0.41479933600E+02 -0.86248896307E+01  0.94154026704E+01  0.43400730640E+02  0.00000000000E+00 0. -1.
         11    1    3    3    0    0 -0.32937213779E+02 -0.84828945850E+00 -0.46972184641E+01  0.33281278643E+02  0.51100000000E-03 0.  1.
        -11    1    3    3    0    0  0.11455119449E+00  0.27654476582E-01  0.61604874666E+00  0.62721851505E+00  0.51100000000E-03 0. -1.
        -12    1    3    3    0    0 -0.86572710153E+01  0.94455246126E+01 -0.53342329529E+01  0.13878772202E+02  0.00000000000E+00 0.  1.
</event>
<event>
 7    1  0.2580704E-010  0.4778727E+02  0.7816164E-02  0.1312668E+00
        -11   -1    0    0    0    0  0.00000000000E+00  0.00000000000E+00  0.45593999997E+02  0.45594000000E+02  0.51100000000E-03 0.  1.
         11   -1    0    0    0    0 -0.00000000000E+00 -0.00000000000E+00 -0.45593999997E+02  0.45594000000E+02  0.51100000000E-03 0. -1.
    9900012    2    1    2    0    0 -0.12387298955E+02 -0.24036782438E+02  0.33947178195E+02  0.47787274283E+02  0.20000014766E+02 0.  0.
         12    1    1    2    0    0  0.12387298955E+02  0.24036782438E+02 -0.33947178195E+02  0.43400725717E+02  0.00000000000E+00 0. -1.
         11    1    3    3    0    0 -0.20274763660E+01 -0.80579733807E+01  0.12712473968E+02  0.15187119216E+02  0.51100000000E-03 0. -1.
        -11    1    3    3    0    0 -0.49121143990E+01 -0.60468145404E+01  0.19680170322E+02  0.21166056272E+02  0.51100000000E-03 0.  1.
        -12    1    3    3    0    0 -0.54477081895E+01 -0.99319945168E+01  0.15545339053E+01  0.11434098795E+02  0.00000000000E+00 0.  1.
</event>
<event>
 7    1  0.2580704E-010  0.4778728E+02  0.7816164E-02  0.1312668E+00
        -11   -1    0    0    0    0  0.00000000000E+00  0.00000000000E+00  0.45593999997E+02  0.45594000000E+02  0.51100000000E-03 0.  1.
         11   -1    0    0    0    0 -0.00000000000E+00 -0.00000000000E+00 -0.45593999997E+02  0.45594000000E+02  0.51100000000E-03 0. -1.
    9900012    2    1    2    0    0 -0.28262865533E+02  0.11463350566E+02  0.30877576501E+02  0.47787277599E+02  0.20000029885E+02 0.  0.
         12    1    1    2    0    0  0.28262865533E+02 -0.11463350566E+02 -0.30877576501E+02  0.43400722401E+02  0.00000000000E+00 0. -1.
         11    1    3    3    0    0 -0.12239106187E+02  0.38484884376E+01  0.25004425427E+02  0.28103876507E+02  0.51100000000E-03 0. -1.
        -11    1    3    3    0    0 -0.48492757075E+01 -0.76573412348E-01  0.33257155659E+01  0.58806226423E+01  0.51100000000E-03 0.  1.
        -12    1    3    3    0    0 -0.11174483639E+02  0.76914355404E+01  0.25474355081E+01  0.13802778450E+02  0.00000000000E+00 0.  1.
</event>
<event>
 7    1  0.2580704E-010  0.4778727E+02  0.7816164E-02  0.1312668E+00
        -11   -1    0    0    0    0  0.00000000000E+00  0.00000000000E+00  0.45593999997E+02  0.45594000000E+02  0.51100000000E-03 0.  1.
         11   -1    0    0    0    0 -0.00000000000E+00 -0.00000000000E+00 -0.45593999997E+02  0.45594000000E+02  0.51100000000E-03 0. -1.
    9900012    2    1    2    0    0  0.20700237799E+00  0.20360466661E+02  0.38327950796E+02  0.47787271148E+02  0.20000000472E+02 0.  0.
         12    1    1    2    0    0 -0.20700237799E+00 -0.20360466661E+02 -0.38327950796E+02  0.43400728852E+02  0.00000000000E+00 0. -1.
         11    1    3    3    0    0 -0.25717562418E+01 -0.12982837183E+01  0.32895834465E+01  0.43727371626E+01  0.51100000000E-03 0. -1.
        -11    1    3    3    0    0 -0.14377057244E+01 -0.10767842140E+01  0.52549278354E+00  0.18715247581E+01  0.51100000000E-03 0.  1.
        -12    1    3    3    0    0  0.42164643442E+01  0.22735534594E+02  0.34512874566E+02  0.41543009227E+02  0.00000000000E+00 0.  1.
</event>
<event>
 7    1  0.2580704E-010  0.4778728E+02  0.7816164E-02  0.1312668E+00
        -11   -1    0    0    0    0  0.00000000000E+00  0.00000000000E+00  0.45593999997E+02  0.45594000000E+02  0.51100000000E-03 0.  1.
         11   -1    0    0    0    0 -0.00000000000E+00 -0.00000000000E+00 -0.45593999997E+02  0.45594000000E+02  0.51100000000E-03 0. -1.
    9900012    2    1    2    0    0 -0.35038118975E+02  0.24519146831E+02  0.74003026333E+01  0.47787276254E+02  0.20000023753E+02 0.  0.
         12    1    1    2    0    0  0.35038118975E+02 -0.24519146831E+02 -0.74003026333E+01  0.43400723746E+02  0.00000000000E+00 0. -1.
         11    1    3    3    0    0 -0.52342331207E+01  0.26803241572E+01 -0.42751373664E+01  0.72703599438E+01  0.51100000000E-03 0. -1.
        -11    1    3    3    0    0 -0.10711664567E+02  0.41912283570E+01 -0.10882324784E+01  0.11553804703E+02  0.51100000000E-03 0.  1.
         12    1    3    3    0    0 -0.19092221287E+02  0.17647594317E+02  0.12763672478E+02  0.28963111607E+02  0.00000000000E+00 0. -1.
</event>
<event>
 7    1  0.2580704E-010  0.4778727E+02  0.7816164E-02  0.1312668E+00
        -11   -1    0    0    0    0  0.00000000000E+00  0.00000000000E+00  0.45593999997E+02  0.45594000000E+02  0.51100000000E-03 0.  1.
         11   -1    0    0    0    0 -0.00000000000E+00 -0.00000000000E+00 -0.45593999997E+02  0.45594000000E+02  0.51100000000E-03 0. -1.
    9900012    2    1    2    0    0  0.80023959180E+01 -0.20787958272E+02  0.37248433536E+02  0.47787270162E+02  0.19999995979E+02 0.  0.
         12    1    1    2    0    0 -0.80023959180E+01  0.20787958272E+02 -0.37248433536E+02  0.43400729838E+02  0.00000000000E+00 0. -1.
         11    1    3    3    0    0  0.24478577678E+01 -0.12221973443E+01  0.48880158372E+01  0.56016491399E+01  0.51100000000E-03 0. -1.
        -11    1    3    3    0    0  0.61921787524E+01 -0.17333002638E+02  0.12638051896E+02  0.22327033259E+02  0.51100000000E-03 0.  1.
         12    1    3    3    0    0 -0.63764060227E+00 -0.22327582897E+01  0.19722365803E+02  0.19858587764E+02  0.00000000000E+00 0. -1.
</event>
<event>
 7    1  0.2580704E-010  0.4778729E+02  0.7816164E-02  0.1312668E+00
        -11   -1    0    0    0    0  0.00000000000E+00  0.00000000000E+00  0.45593999997E+02  0.45594000000E+02  0.51100000000E-03 0.  1.
         11   -1    0    0    0    0 -0.00000000000E+00 -0.00000000000E+00 -0.45593999997E+02  0.45594000000E+02  0.51100000000E-03 0. -1.
    9900012    2    1    2    0    0  0.20943569839E+01 -0.38784435684E+02  0.19364980292E+02  0.47787294427E+02  0.20000106612E+02 0.  0.
         12    1    1    2    0    0 -0.20943569839E+01  0.38784435684E+02 -0.19364980292E+02  0.43400705573E+02  0.00000000000E+00 0. -1.
         11    1    3    3    0    0 -0.59007062784E+01 -0.19680798533E+02  0.11584314382E+02  0.23587041049E+02  0.51100000000E-03 0.  1.
        -11    1    3    3    0    0  0.19131656040E+01 -0.20193253657E+00 -0.13451878355E+01  0.23474475397E+01  0.51100000000E-03 0. -1.
        -12    1    3    3    0    0  0.60818976583E+01 -0.18901704614E+02  0.91258537451E+01  0.21852805839E+02  0.00000000000E+00 0.  1.
</event>
<event>
 7    1  0.2580704E-010  0.4778727E+02  0.7816164E-02  0.1312668E+00
        -11   -1    0    0    0    0  0.00000000000E+00  0.00000000000E+00  0.45593999997E+02  0.45594000000E+02  0.51100000000E-03 0.  1.
         11   -1    0    0    0    0 -0.00000000000E+00 -0.00000000000E+00 -0.45593999997E+02  0.45594000000E+02  0.51100000000E-03 0. -1.
    9900012    2    1    2    0    0  0.29159129566E+02  0.16490921518E+02  0.27593804609E+02  0.47787269795E+02  0.19999994303E+02 0.  0.
         12    1    1    2    0    0 -0.29159129566E+02 -0.16490921518E+02 -0.27593804609E+02  0.43400730205E+02  0.00000000000E+00 0. -1.
         11    1    3    3    0    0  0.13148153782E+02  0.19883696220E+01  0.38639026930E+01  0.13847646223E+02  0.51100000000E-03 0. -1.
        -11    1    3    3    0    0  0.70580245166E+01  0.10541978743E+02  0.68282962752E+01  0.14407451411E+02  0.51100000000E-03 0.  1.
        -12    1    3    3    0    0  0.89529512678E+01  0.39605731529E+01  0.16901605641E+02  0.19532172161E+02  0.00000000000E+00 0.  1.
</event>
<event>
 7    1  0.2580704E-010  0.4778727E+02  0.7816164E-02  0.1312668E+00
        -11   -1    0    0    0    0  0.00000000000E+00  0.00000000000E+00  0.45593999997E+02  0.45594000000E+02  0.51100000000E-03 0.  1.
         11   -1    0    0    0    0 -0.00000000000E+00 -0.00000000000E+00 -0.45593999997E+02  0.45594000000E+02  0.51100000000E-03 0. -1.
    9900012    2    1    2    0    0  0.43803681381E+01  0.16436346637E+02  0.39928464322E+02  0.47787269835E+02  0.19999994484E+02 0.  0.
         12    1    1    2    0    0 -0.43803681381E+01 -0.16436346637E+02 -0.39928464322E+02  0.43400730165E+02  0.00000000000E+00 0. -1.
         11    1    3    3    0    0 -0.29499192812E+01  0.34394807846E+01  0.14191932642E+02  0.14897751649E+02  0.51100000000E-03 0. -1.
        -11    1    3    3    0    0  0.30026167513E+00  0.91506843507E+01  0.22419171556E+02  0.24216614848E+02  0.51100000000E-03 0.  1.
        -12    1    3    3    0    0  0.70300257441E+01  0.38461815018E+01  0.33173601236E+01  0.86729033372E+01  0.00000000000E+00 0.  1.
</event>
<event>
 7    1  0.2580704E-010  0.4778727E+02  0.7816164E-02  0.1312668E+00
        -11   -1    0    0    0    0  0.00000000000E+00  0.00000000000E+00  0.45593999997E+02  0.45594000000E+02  0.51100000000E-03 0. -1.
         11   -1    0    0    0    0 -0.00000000000E+00 -0.00000000000E+00 -0.45593999997E+02  0.45594000000E+02  0.51100000000E-03 0.  1.
    9900012    2    1    2    0    0 -0.21106757091E+02  0.11425127115E+02 -0.36160679359E+02  0.47787268944E+02  0.19999990423E+02 0.  0.
         12    1    1    2    0    0  0.21106757091E+02 -0.11425127115E+02  0.36160679359E+02  0.43400731056E+02  0.00000000000E+00 0. -1.
         11    1    3    3    0    0  0.26905404015E+01 -0.91596287902E-01 -0.42056060986E+01  0.49934477518E+01  0.51100000000E-03 0. -1.
        -11    1    3    3    0    0 -0.80823303588E+01 -0.84076703585E+00 -0.12421680339E+02  0.14843486651E+02  0.51100000000E-03 0.  1.
         12    1    3    3    0    0 -0.15714967134E+02  0.12357490439E+02 -0.19533392921E+02  0.27950334541E+02  0.00000000000E+00 0. -1.
</event>
<event>
 7    1  0.2580704E-010  0.4778727E+02  0.7816164E-02  0.1312668E+00
        -11   -1    0    0    0    0  0.00000000000E+00  0.00000000000E+00  0.45593999997E+02  0.45594000000E+02  0.51100000000E-03 0.  1.
         11   -1    0    0    0    0 -0.00000000000E+00 -0.00000000000E+00 -0.45593999997E+02  0.45594000000E+02  0.51100000000E-03 0. -1.
    9900012    2    1    2    0    0  0.34884123236E+02  0.19232334373E+02  0.17229003453E+02  0.47787270750E+02  0.19999998660E+02 0.  0.
         12    1    1    2    0    0 -0.34884123236E+02 -0.19232334373E+02 -0.17229003453E+02  0.43400729250E+02  0.00000000000E+00 0. -1.
         11    1    3    3    0    0  0.13938102985E+02  0.18278407303E+02  0.12844293026E+02  0.26331478347E+02  0.51100000000E-03 0.  1.
        -11    1    3    3    0    0  0.11484725208E+02  0.10661501694E+01  0.26825622802E+01  0.11841947895E+02  0.51100000000E-03 0. -1.
        -12    1    3    3    0    0  0.94612950431E+01 -0.11222309956E+00  0.17021481465E+01  0.96138445082E+01  0.00000000000E+00 0.  1.
</event>
<event>
 7    1  0.2580704E-010  0.4778727E+02  0.7816164E-02  0.1312668E+00
        -11   -1    0    0    0    0  0.00000000000E+00  0.00000000000E+00  0.45593999997E+02  0.45594000000E+02  0.51100000000E-03 0.  1.
         11   -1    0    0    0    0 -0.00000000000E+00 -0.00000000000E+00 -0.45593999997E+02  0.45594000000E+02  0.51100000000E-03 0. -1.
    9900012    2    1    2    0    0 -0.39614965750E+02  0.78641671335E+01 -0.15888127936E+02  0.47787271373E+02  0.20000001496E+02 0.  0.
         12    1    1    2    0    0  0.39614965750E+02 -0.78641671335E+01  0.15888127936E+02  0.43400728627E+02  0.00000000000E+00 0. -1.
         11    1    3    3    0    0 -0.11270674828E+02  0.69818509038E+01 -0.26997096906E+01  0.13530069689E+02  0.51100000000E-03 0. -1.
        -11    1    3    3    0    0  0.15008537514E+01  0.56001090699E+00 -0.15268997863E+01  0.22130516075E+01  0.51100000000E-03 0.  1.
        -12    1    3    3    0    0 -0.29845144674E+02  0.32230532273E+00 -0.11661518459E+02  0.32044150076E+02  0.00000000000E+00 0.  1.
</event>
<event>
 7    1  0.2580704E-010  0.4778727E+02  0.7816164E-02  0.1312668E+00
        -11   -1    0    0    0    0  0.00000000000E+00  0.00000000000E+00  0.45593999997E+02  0.45594000000E+02  0.51100000000E-03 0.  1.
         11   -1    0    0    0    0 -0.00000000000E+00 -0.00000000000E+00 -0.45593999997E+02  0.45594000000E+02  0.51100000000E-03 0. -1.
    9900012    2    1    2    0    0  0.10958766386E+02 -0.43963534910E+01  0.41763634939E+02  0.47787266273E+02  0.19999978247E+02 0.  0.
         12    1    1    2    0    0 -0.10958766386E+02  0.43963534910E+01 -0.41763634939E+02  0.43400733727E+02  0.00000000000E+00 0. -1.
         11    1    3    3    0    0  0.83045375032E+00  0.53069255313E+01  0.38114285101E+01  0.65863570792E+01  0.51100000000E-03 0. -1.
        -11    1    3    3    0    0  0.26335153967E+01 -0.75501190471E+01  0.15645309837E+02  0.17570299403E+02  0.51100000000E-03 0.  1.
        -12    1    3    3    0    0  0.74947972395E+01 -0.21531599752E+01  0.22306896592E+02  0.23630609791E+02  0.00000000000E+00 0.  1.
</event>
<event>
 7    1  0.2580704E-010  0.4778727E+02  0.7816164E-02  0.1312668E+00
        -11   -1    0    0    0    0  0.00000000000E+00  0.00000000000E+00  0.45593999997E+02  0.45594000000E+02  0.51100000000E-03 0. -1.
         11   -1    0    0    0    0 -0.00000000000E+00 -0.00000000000E+00 -0.45593999997E+02  0.45594000000E+02  0.51100000000E-03 0.  1.
    9900012    2    1    2    0    0  0.25332315723E+02 -0.31175552149E+02  0.16431134705E+02  0.47787268907E+02  0.19999990255E+02 0.  0.
         12    1    1    2    0    0 -0.25332315723E+02  0.31175552149E+02 -0.16431134705E+02  0.43400731093E+02  0.00000000000E+00 0. -1.
         11    1    3    3    0    0  0.24136060912E+01 -0.34178611896E+01 -0.26878115047E+01  0.49730876144E+01  0.51100000000E-03 0. -1.
        -11    1    3    3    0    0  0.13435950611E+02 -0.63822557389E+01  0.84944922699E+01  0.17129341970E+02  0.51100000000E-03 0.  1.
         12    1    3    3    0    0  0.94827590208E+01 -0.21375435221E+02  0.10624453940E+02  0.25684839323E+02  0.00000000000E+00 0. -1.
</event>
<event>
 7    1  0.2580704E-010  0.4778725E+02  0.7816164E-02  0.1312668E+00
        -11   -1    0    0    0    0  0.00000000000E+00  0.00000000000E+00  0.45593999997E+02  0.45594000000E+02  0.51100000000E-03 0. -1.
         11   -1    0    0    0    0 -0.00000000000E+00 -0.00000000000E+00 -0.45593999997E+02  0.45594000000E+02  0.51100000000E-03 0.  1.
    9900012    2    1    2    0    0 -0.24212593843E+02  0.31197272100E+02 -0.18002928804E+02  0.47787251935E+02  0.19999912873E+02 0.  0.
         12    1    1    2    0    0  0.24212593843E+02 -0.31197272100E+02  0.18002928804E+02  0.43400748065E+02  0.00000000000E+00 0. -1.
         11    1    3    3    0    0 -0.26746469864E+01 -0.24982033884E+00 -0.31126809067E+01  0.41115604570E+01  0.51100000000E-03 0. -1.
        -11    1    3    3    0    0 -0.13794437359E+02  0.83815965868E+01 -0.23750855421E+01  0.16314983757E+02  0.51100000000E-03 0.  1.
        -12    1    3    3    0    0 -0.77435094975E+01  0.23065495852E+02 -0.12515162356E+02  0.27360707721E+02  0.00000000000E+00 0.  1.
</event>
<event>
 7    1  0.2580704E-010  0.4778727E+02  0.7816164E-02  0.1312668E+00
        -11   -1    0    0    0    0  0.00000000000E+00  0.00000000000E+00  0.45593999997E+02  0.45594000000E+02  0.51100000000E-03 0.  1.
         11   -1    0    0    0    0 -0.00000000000E+00 -0.00000000000E+00 -0.45593999997E+02  0.45594000000E+02  0.51100000000E-03 0. -1.
    9900012    2    1    2    0    0 -0.19265680113E+02 -0.10771244828E+02  0.37368928261E+02  0.47787274836E+02  0.20000017289E+02 0.  0.
         12    1    1    2    0    0  0.19265680113E+02  0.10771244828E+02 -0.37368928261E+02  0.43400725164E+02  0.00000000000E+00 0. -1.
         11    1    3    3    0    0  0.28000436821E+00 -0.30409864847E+01  0.38947717942E+01  0.49492675050E+01  0.51100000000E-03 0. -1.
        -11    1    3    3    0    0 -0.56831158756E+01  0.45753672391E+01  0.14933720664E+02  0.16620704094E+02  0.51100000000E-03 0.  1.
        -12    1    3    3    0    0 -0.13862568605E+02 -0.12305625582E+02  0.18540435803E+02  0.26217303238E+02  0.00000000000E+00 0.  1.
</event>
<event>
 7    1  0.2580704E-010  0.4778727E+02  0.7816164E-02  0.1312668E+00
        -11   -1    0    0    0    0  0.00000000000E+00  0.00000000000E+00  0.45593999997E+02  0.45594000000E+02  0.51100000000E-03 0.  1.
         11   -1    0    0    0    0 -0.00000000000E+00 -0.00000000000E+00 -0.45593999997E+02  0.45594000000E+02  0.51100000000E-03 0. -1.
    9900012    2    1    2    0    0 -0.34761990405E+02  0.12712670148E+02  0.22663088681E+02  0.47787267889E+02  0.19999985612E+02 0.  0.
         12    1    1    2    0    0  0.34761990405E+02 -0.12712670148E+02 -0.22663088681E+02  0.43400732111E+02  0.00000000000E+00 0. -1.
         11    1    3    3    0    0 -0.61743009703E+01 -0.31076122122E+01  0.25801831710E+01  0.73781157209E+01  0.51100000000E-03 0. -1.
        -11    1    3    3    0    0 -0.72141628174E+01  0.49777937980E+01 -0.55369495034E+00  0.87823205709E+01  0.51100000000E-03 0.  1.
        -12    1    3    3    0    0 -0.21373526617E+02  0.10842488562E+02  0.20636600461E+02  0.31626831597E+02  0.00000000000E+00 0.  1.
</event>
<event>
 7    1  0.2580704E-010  0.4778727E+02  0.7816164E-02  0.1312668E+00
        -11   -1    0    0    0    0  0.00000000000E+00  0.00000000000E+00  0.45593999997E+02  0.45594000000E+02  0.51100000000E-03 0.  1.
         11   -1    0    0    0    0 -0.00000000000E+00 -0.00000000000E+00 -0.45593999997E+02  0.45594000000E+02  0.51100000000E-03 0. -1.
    9900012    2    1    2    0    0  0.14731058232E+02 -0.57852758382E+00  0.40820154355E+02  0.47787265302E+02  0.19999973816E+02 0.  0.
         12    1    1    2    0    0 -0.14731058232E+02  0.57852758382E+00 -0.40820154355E+02  0.43400734698E+02  0.00000000000E+00 0. -1.
         11    1    3    3    0    0  0.37445112528E+00  0.52468177951E+01  0.21480449211E+01  0.56818489829E+01  0.51100000000E-03 0. -1.
        -11    1    3    3    0    0  0.13982222507E+01 -0.52814284148E+00  0.10925046394E+02  0.11026812745E+02  0.51100000000E-03 0.  1.
        -12    1    3    3    0    0  0.12958384856E+02 -0.52972025374E+01  0.27747063040E+02  0.31078603574E+02  0.00000000000E+00 0.  1.
</event>
<event>
 7    1  0.2580704E-010  0.4778731E+02  0.7816164E-02  0.1312668E+00
        -11   -1    0    0    0    0  0.00000000000E+00  0.00000000000E+00  0.45593999997E+02  0.45594000000E+02  0.51100000000E-03 0.  1.
         11   -1    0    0    0    0 -0.00000000000E+00 -0.00000000000E+00 -0.45593999997E+02  0.45594000000E+02  0.51100000000E-03 0. -1.
    9900012    2    1    2    0    0  0.29045643537E+01 -0.24342169400E+02  0.35813993899E+02  0.47787310326E+02  0.20000179099E+02 0.  0.
         12    1    1    2    0    0 -0.29045643537E+01  0.24342169400E+02 -0.35813993899E+02  0.43400689674E+02  0.00000000000E+00 0. -1.
         11    1    3    3    0    0  0.89960451841E+00  0.13729339583E+01  0.14727329164E+01  0.22052615372E+01  0.51100000000E-03 0. -1.
        -11    1    3    3    0    0 -0.47377415455E+01 -0.12891315257E+02  0.24436296895E+02  0.28031496753E+02  0.51100000000E-03 0.  1.
        -12    1    3    3    0    0  0.67427013809E+01 -0.12823788101E+02  0.99049640875E+01  0.17550552035E+02  0.00000000000E+00 0.  1.
</event>
<event>
 7    1  0.2580704E-010  0.4778727E+02  0.7816164E-02  0.1312668E+00
        -11   -1    0    0    0    0  0.00000000000E+00  0.00000000000E+00  0.45593999997E+02  0.45594000000E+02  0.51100000000E-03 0. -1.
         11   -1    0    0    0    0 -0.00000000000E+00 -0.00000000000E+00 -0.45593999997E+02  0.45594000000E+02  0.51100000000E-03 0.  1.
    9900012    2    1    2    0    0 -0.16919082652E+02 -0.39850963664E+02  0.30445231624E+01  0.47787265168E+02  0.19999973205E+02 0.  0.
         12    1    1    2    0    0  0.16919082652E+02  0.39850963664E+02 -0.30445231624E+01  0.43400734832E+02  0.00000000000E+00 0. -1.
         11    1    3    3    0    0 -0.29290528769E+00 -0.10065395761E+02  0.28132633199E+01  0.10455258777E+02  0.51100000000E-03 0. -1.
        -11    1    3    3    0    0 -0.13867187649E+02 -0.20076056735E+02  0.67499615561E+01  0.25316179186E+02  0.51100000000E-03 0.  1.
         12    1    3    3    0    0 -0.27589897155E+01 -0.97095111683E+01 -0.65187017137E+01  0.12015827205E+02  0.00000000000E+00 0. -1.
</event>
<event>
 7    1  0.2580704E-010  0.4778727E+02  0.7816164E-02  0.1312668E+00
        -11   -1    0    0    0    0  0.00000000000E+00  0.00000000000E+00  0.45593999997E+02  0.45594000000E+02  0.51100000000E-03 0.  1.
         11   -1    0    0    0    0 -0.00000000000E+00 -0.00000000000E+00 -0.45593999997E+02  0.45594000000E+02  0.51100000000E-03 0. -1.
    9900012    2    1    2    0    0  0.37578253417E+01  0.15982072331E+02  0.40175554680E+02  0.47787273265E+02  0.20000010125E+02 0.  0.
         12    1    1    2    0    0 -0.37578253417E+01 -0.15982072331E+02 -0.40175554680E+02  0.43400726735E+02  0.00000000000E+00 0. -1.
         11    1    3    3    0    0 -0.57476379990E+01  0.72222974571E+01  0.16285928985E+02  0.18719733072E+02  0.51100000000E-03 0. -1.
        -11    1    3    3    0    0 -0.35166300330E+00  0.35332203616E+01  0.13003238340E+02  0.13479299706E+02  0.51100000000E-03 0.  1.
        -12    1    3    3    0    0  0.98571263440E+01  0.52265545123E+01  0.10886387355E+02  0.15588240487E+02  0.00000000000E+00 0.  1.
</event>
<event>
 7    1  0.2580704E-010  0.4778727E+02  0.7816164E-02  0.1312668E+00
        -11   -1    0    0    0    0  0.00000000000E+00  0.00000000000E+00  0.45593999997E+02  0.45594000000E+02  0.51100000000E-03 0.  1.
         11   -1    0    0    0    0 -0.00000000000E+00 -0.00000000000E+00 -0.45593999997E+02  0.45594000000E+02  0.51100000000E-03 0. -1.
    9900012    2    1    2    0    0  0.45503150217E+01 -0.42551470097E+02  0.72312152252E+01  0.47787269040E+02  0.19999990861E+02 0.  0.
         12    1    1    2    0    0 -0.45503150217E+01  0.42551470097E+02 -0.72312152252E+01  0.43400730960E+02  0.00000000000E+00 0. -1.
         11    1    3    3    0    0 -0.54901628843E+00 -0.86605972194E-01 -0.86191164922E+00  0.10255785838E+01  0.51100000000E-03 0. -1.
        -11    1    3    3    0    0 -0.27832404899E+01 -0.34445390123E+02  0.81963518643E+01  0.35516355563E+02  0.51100000000E-03 0.  1.
         12    1    3    3    0    0  0.78825718000E+01 -0.80194740019E+01 -0.10322498980E+00  0.11245334893E+02  0.00000000000E+00 0. -1.
</event>
<event>
 7    1  0.2580704E-010  0.4778731E+02  0.7816164E-02  0.1312668E+00
        -11   -1    0    0    0    0  0.00000000000E+00  0.00000000000E+00  0.45593999997E+02  0.45594000000E+02  0.51100000000E-03 0.  1.
         11   -1    0    0    0    0 -0.00000000000E+00 -0.00000000000E+00 -0.45593999997E+02  0.45594000000E+02  0.51100000000E-03 0. -1.
    9900012    2    1    2    0    0 -0.57188470939E+01  0.89368161650E+01  0.42083821549E+02  0.47787309551E+02  0.20000175568E+02 0.  0.
         12    1    1    2    0    0  0.57188470939E+01 -0.89368161650E+01 -0.42083821549E+02  0.43400690449E+02  0.00000000000E+00 0. -1.
         11    1    3    3    0    0 -0.22119523047E+01  0.25899961646E+01 -0.56380734460E-01  0.34064632949E+01  0.51100000000E-03 0. -1.
        -11    1    3    3    0    0 -0.53140871555E+01 -0.10533109943E+01  0.10251577731E+02  0.11594991703E+02  0.51100000000E-03 0.  1.
        -12    1    3    3    0    0  0.18071923664E+01  0.74001309946E+01  0.31888624552E+02  0.32785854554E+02  0.00000000000E+00 0.  1.
</event>
<event>
 7    1  0.2580704E-010  0.4778727E+02  0.7816164E-02  0.1312668E+00
        -11   -1    0    0    0    0  0.00000000000E+00  0.00000000000E+00  0.45593999997E+02  0.45594000000E+02  0.51100000000E-03 0.  1.
         11   -1    0    0    0    0 -0.00000000000E+00 -0.00000000000E+00 -0.45593999997E+02  0.45594000000E+02  0.51100000000E-03 0. -1.
    9900012    2    1    2    0    0 -0.78728189733E+01  0.11088971219E+02  0.41215008515E+02  0.47787268576E+02  0.19999988744E+02 0.  0.
         12    1    1    2    0    0  0.78728189733E+01 -0.11088971219E+02 -0.41215008515E+02  0.43400731424E+02  0.00000000000E+00 0. -1.
         11    1    3    3    0    0  0.33425303719E+00  0.74276016203E+01  0.76760299002E+01  0.10686553524E+02  0.51100000000E-03 0. -1.
        -11    1    3    3    0    0 -0.51940880539E+01  0.13087483124E+00  0.25897345925E+01  0.58053772017E+01  0.51100000000E-03 0.  1.
        -12    1    3    3    0    0 -0.30129839566E+01  0.35304947675E+01  0.30949244022E+02  0.31295337850E+02  0.00000000000E+00 0.  1.
</event>
<event>
 7    1  0.2580704E-010  0.4778727E+02  0.7816164E-02  0.1312668E+00
        -11   -1    0    0    0    0  0.00000000000E+00  0.00000000000E+00  0.45593999997E+02  0.45594000000E+02  0.51100000000E-03 0.  1.
         11   -1    0    0    0    0 -0.00000000000E+00 -0.00000000000E+00 -0.45593999997E+02  0.45594000000E+02  0.51100000000E-03 0. -1.
    9900012    2    1    2    0    0 -0.11018730036E+02 -0.41926978299E+02 -0.20830482977E+01  0.47787274072E+02  0.20000013802E+02 0.  0.
         12    1    1    2    0    0  0.11018730036E+02  0.41926978299E+02  0.20830482977E+01  0.43400725928E+02  0.00000000000E+00 0. -1.
         11    1    3    3    0    0 -0.23415932954E+01 -0.32387287569E+01 -0.50511947302E+01  0.64410396354E+01  0.51100000000E-03 0. -1.
        -11    1    3    3    0    0 -0.96249015417E+01 -0.22658724597E+02 -0.15446548326E+01  0.24666627027E+02  0.51100000000E-03 0.  1.
         12    1    3    3    0    0  0.94776480128E+00 -0.16029524945E+02  0.45128012650E+01  0.16679607410E+02  0.00000000000E+00 0. -1.
</event>
<event>
 7    1  0.2580704E-010  0.4778727E+02  0.7816164E-02  0.1312668E+00
        -11   -1    0    0    0    0  0.00000000000E+00  0.00000000000E+00  0.45593999997E+02  0.45594000000E+02  0.51100000000E-03 0. -1.
         11   -1    0    0    0    0 -0.00000000000E+00 -0.00000000000E+00 -0.45593999997E+02  0.45594000000E+02  0.51100000000E-03 0.  1.
    9900012    2    1    2    0    0 -0.42246075919E+02 -0.23580586386E+01 -0.96608448187E+01  0.47787270816E+02  0.19999998960E+02 0.  0.
         12    1    1    2    0    0  0.42246075919E+02  0.23580586386E+01  0.96608448187E+01  0.43400729184E+02  0.00000000000E+00 0. -1.
         11    1    3    3    0    0 -0.30067345154E+01 -0.22800638035E+01 -0.60512378591E+01  0.71313829853E+01  0.51100000000E-03 0. -1.
        -11    1    3    3    0    0 -0.63232102153E+01  0.37421688932E+01 -0.29560116036E+00  0.73535158774E+01  0.51100000000E-03 0.  1.
        -12    1    3    3    0    0 -0.32916131188E+02 -0.38201637283E+01 -0.33140057992E+01  0.33302371954E+02  0.00000000000E+00 0.  1.
</event>
<event>
 7    1  0.2580704E-010  0.4778728E+02  0.7816164E-02  0.1312668E+00
        -11   -1    0    0    0    0  0.00000000000E+00  0.00000000000E+00  0.45593999997E+02  0.45594000000E+02  0.51100000000E-03 0.  1.
         11   -1    0    0    0    0 -0.00000000000E+00 -0.00000000000E+00 -0.45593999997E+02  0.45594000000E+02  0.51100000000E-03 0. -1.
    9900012    2    1    2    0    0  0.16635037869E+02  0.20062048479E+02  0.34704642990E+02  0.47787279739E+02  0.20000039642E+02 0.  0.
         12    1    1    2    0    0 -0.16635037869E+02 -0.20062048479E+02 -0.34704642990E+02  0.43400720261E+02  0.00000000000E+00 0. -1.
         11    1    3    3    0    0 -0.25214764879E+01  0.91887768157E+01  0.11533781839E+02  0.14960601152E+02  0.51100000000E-03 0. -1.
        -11    1    3    3    0    0  0.47249527000E+01  0.67377989257E+01  0.86946764464E+01  0.11971654487E+02  0.51100000000E-03 0.  1.
         12    1    3    3    0    0  0.14431561657E+02  0.41354727378E+01  0.14476184705E+02  0.20855024101E+02  0.00000000000E+00 0. -1.
</event>
<event>
 7    1  0.2580704E-010  0.4778727E+02  0.7816164E-02  0.1312668E+00
        -11   -1    0    0    0    0  0.00000000000E+00  0.00000000000E+00  0.45593999997E+02  0.45594000000E+02  0.51100000000E-03 0.  1.
         11   -1    0    0    0    0 -0.00000000000E+00 -0.00000000000E+00 -0.45593999997E+02  0.45594000000E+02  0.51100000000E-03 0. -1.
    9900012    2    1    2    0    0 -0.25822176815E+02 -0.31775802231E+02  0.14392253146E+02  0.47787269896E+02  0.19999994766E+02 0.  0.
         12    1    1    2    0    0  0.25822176815E+02  0.31775802231E+02 -0.14392253146E+02  0.43400730104E+02  0.00000000000E+00 0. -1.
         11    1    3    3    0    0 -0.83222350092E+01 -0.82630901518E+01 -0.39788900498E+01  0.12384256970E+02  0.51100000000E-03 0. -1.
        -11    1    3    3    0    0 -0.77299701203E+01 -0.13476031019E+02  0.58023406056E+01  0.16583817620E+02  0.51100000000E-03 0.  1.
        -12    1    3    3    0    0 -0.97699716858E+01 -0.10036681060E+02  0.12568802590E+02  0.18819195307E+02  0.00000000000E+00 0.  1.
</event>
<event>
 7    1  0.2580704E-010  0.4778727E+02  0.7816164E-02  0.1312668E+00
        -11   -1    0    0    0    0  0.00000000000E+00  0.00000000000E+00  0.45593999997E+02  0.45594000000E+02  0.51100000000E-03 0. -1.
         11   -1    0    0    0    0 -0.00000000000E+00 -0.00000000000E+00 -0.45593999997E+02  0.45594000000E+02  0.51100000000E-03 0.  1.
    9900012    2    1    2    0    0  0.15577802252E+02  0.25674890942E+01 -0.40427263693E+02  0.47787267599E+02  0.19999984291E+02 0.  0.
         12    1    1    2    0    0 -0.15577802252E+02 -0.25674890942E+01  0.40427263693E+02  0.43400732401E+02  0.00000000000E+00 0. -1.
         11    1    3    3    0    0  0.74941815263E+01 -0.34933046650E+01 -0.11324548718E+02  0.14021816507E+02  0.51100000000E-03 0. -1.
        -11    1    3    3    0    0  0.11746495659E+02  0.51395716762E+01 -0.18489033704E+02  0.22499771662E+02  0.51100000000E-03 0.  1.
        -12    1    3    3    0    0 -0.36628749328E+01  0.92122208297E+00 -0.10613681270E+02  0.11265679429E+02  0.00000000000E+00 0.  1.
</event>
<event>
 7    1  0.2580704E-010  0.4778727E+02  0.7816164E-02  0.1312668E+00
        -11   -1    0    0    0    0  0.00000000000E+00  0.00000000000E+00  0.45593999997E+02  0.45594000000E+02  0.51100000000E-03 0.  1.
         11   -1    0    0    0    0 -0.00000000000E+00 -0.00000000000E+00 -0.45593999997E+02  0.45594000000E+02  0.51100000000E-03 0. -1.
    9900012    2    1    2    0    0  0.70664557099E+00 -0.29069134790E+02  0.32219700993E+02  0.47787273307E+02  0.20000010315E+02 0.  0.
         12    1    1    2    0    0 -0.70664557099E+00  0.29069134790E+02 -0.32219700993E+02  0.43400726693E+02  0.00000000000E+00 0. -1.
         11    1    3    3    0    0  0.12200730200E+01 -0.37519752064E+01 -0.98506892398E+00  0.40664797023E+01  0.51100000000E-03 0.  1.
        -11    1    3    3    0    0  0.50143224015E+00  0.43674943412E+00 -0.80753465025E+00  0.10460864363E+01  0.51100000000E-03 0. -1.
        -12    1    3    3    0    0 -0.10148596891E+01 -0.25753909018E+02  0.34012304568E+02  0.42674707168E+02  0.00000000000E+00 0.  1.
</event>
<event>
 7    1  0.2580704E-010  0.4778728E+02  0.7816164E-02  0.1312668E+00
        -11   -1    0    0    0    0  0.00000000000E+00  0.00000000000E+00  0.45593999997E+02  0.45594000000E+02  0.51100000000E-03 0.  1.
         11   -1    0    0    0    0 -0.00000000000E+00 -0.00000000000E+00 -0.45593999997E+02  0.45594000000E+02  0.51100000000E-03 0. -1.
    9900012    2    1    2    0    0  0.70352712451E+01  0.41290002396E+02 -0.11369404153E+02  0.47787277769E+02  0.20000030661E+02 0.  0.
         12    1    1    2    0    0 -0.70352712451E+01 -0.41290002396E+02  0.11369404153E+02  0.43400722231E+02  0.00000000000E+00 0. -1.
         11    1    3    3    0    0  0.19661417697E+00  0.13217387857E+02  0.30288222013E+01  0.13561407120E+02  0.51100000000E-03 0. -1.
        -11    1    3    3    0    0  0.54909647182E+00  0.19647446901E+02 -0.53903129441E+01  0.20380852547E+02  0.51100000000E-03 0.  1.
         12    1    3    3    0    0  0.62895605963E+01  0.84251676383E+01 -0.90079134100E+01  0.13845018101E+02  0.00000000000E+00 0. -1.
</event>
<event>
 7    1  0.2580704E-010  0.4778729E+02  0.7816164E-02  0.1312668E+00
        -11   -1    0    0    0    0  0.00000000000E+00  0.00000000000E+00  0.45593999997E+02  0.45594000000E+02  0.51100000000E-03 0. -1.
         11   -1    0    0    0    0 -0.00000000000E+00 -0.00000000000E+00 -0.45593999997E+02  0.45594000000E+02  0.51100000000E-03 0.  1.
    9900012    2    1    2    0    0 -0.43147176929E+02 -0.38601117551E+01  0.26537870690E+01  0.47787286578E+02  0.20000070826E+02 0.  0.
         12    1    1    2    0    0  0.43147176929E+02  0.38601117551E+01 -0.26537870690E+01  0.43400713422E+02  0.00000000000E+00 0. -1.
         11    1    3    3    0    0 -0.16627853083E+02  0.10335523635E+01  0.38276608290E+01  0.17093996499E+02  0.51100000000E-03 0. -1.
        -11    1    3    3    0    0 -0.25717035107E+02 -0.64341509630E+01  0.25022176852E+01  0.26627528742E+02  0.51100000000E-03 0.  1.
         12    1    3    3    0    0 -0.80228873931E+00  0.15404868445E+01 -0.36760914452E+01  0.40657613374E+01  0.00000000000E+00 0. -1.
</event>
<event>
 7    1  0.2580704E-010  0.4778727E+02  0.7816164E-02  0.1312668E+00
        -11   -1    0    0    0    0  0.00000000000E+00  0.00000000000E+00  0.45593999997E+02  0.45594000000E+02  0.51100000000E-03 0. -1.
         11   -1    0    0    0    0 -0.00000000000E+00 -0.00000000000E+00 -0.45593999997E+02  0.45594000000E+02  0.51100000000E-03 0.  1.
    9900012    2    1    2    0    0  0.11284413498E+02 -0.19258199236E+02 -0.37221058971E+02  0.47787268938E+02  0.19999990397E+02 0.  0.
         12    1    1    2    0    0 -0.11284413498E+02  0.19258199236E+02  0.37221058971E+02  0.43400731062E+02  0.00000000000E+00 0. -1.
         11    1    3    3    0    0 -0.20272658144E+01 -0.38234236758E+01 -0.68052191443E+01  0.80646998177E+01  0.51100000000E-03 0. -1.
        -11    1    3    3    0    0  0.25817321659E+01 -0.12502041154E+02 -0.90946129555E+01  0.15674130249E+02  0.51100000000E-03 0.  1.
        -12    1    3    3    0    0  0.10729947147E+02 -0.29327344056E+01 -0.21321226871E+02  0.24048438871E+02  0.00000000000E+00 0.  1.
</event>
<event>
 7    1  0.2580704E-010  0.4778727E+02  0.7816164E-02  0.1312668E+00
        -11   -1    0    0    0    0  0.00000000000E+00  0.00000000000E+00  0.45593999997E+02  0.45594000000E+02  0.51100000000E-03 0.  1.
         11   -1    0    0    0    0 -0.00000000000E+00 -0.00000000000E+00 -0.45593999997E+02  0.45594000000E+02  0.51100000000E-03 0. -1.
    9900012    2    1    2    0    0 -0.26465306246E+02 -0.31886278002E+01  0.34249720268E+02  0.47787272813E+02  0.20000008063E+02 0.  0.
         12    1    1    2    0    0  0.26465306246E+02  0.31886278002E+01 -0.34249720268E+02  0.43400727187E+02  0.00000000000E+00 0. -1.
         11    1    3    3    0    0 -0.70796172537E+00  0.21430938241E+01  0.81096020218E+01  0.84178207487E+01  0.51100000000E-03 0. -1.
        -11    1    3    3    0    0 -0.89458778287E+01  0.34665170699E+01  0.13531766691E+02  0.16587772025E+02  0.51100000000E-03 0.  1.
         12    1    3    3    0    0 -0.16811466692E+02 -0.87982386942E+01  0.12608351555E+02  0.22781680039E+02  0.00000000000E+00 0. -1.
</event>
<event>
 7    1  0.2580704E-010  0.4778727E+02  0.7816164E-02  0.1312668E+00
        -11   -1    0    0    0    0  0.00000000000E+00  0.00000000000E+00  0.45593999997E+02  0.45594000000E+02  0.51100000000E-03 0. -1.
         11   -1    0    0    0    0 -0.00000000000E+00 -0.00000000000E+00 -0.45593999997E+02  0.45594000000E+02  0.51100000000E-03 0.  1.
    9900012    2    1    2    0    0 -0.11099813745E+02  0.29315399876E+02 -0.30017077688E+02  0.47787268578E+02  0.19999988755E+02 0.  0.
         12    1    1    2    0    0  0.11099813745E+02 -0.29315399876E+02  0.30017077688E+02  0.43400731422E+02  0.00000000000E+00 0. -1.
         11    1    3    3    0    0 -0.76547068112E+01  0.11477534671E+02 -0.64646262865E+01  0.15235476093E+02  0.51100000000E-03 0. -1.
        -11    1    3    3    0    0  0.23865732251E+01  0.70203767847E+01 -0.18993601027E+01  0.76543445845E+01  0.51100000000E-03 0.  1.
         12    1    3    3    0    0 -0.58316801586E+01  0.10817488420E+02 -0.21653091299E+02  0.24897447901E+02  0.00000000000E+00 0. -1.
</event>
<event>
 7    1  0.2580704E-010  0.4778727E+02  0.7816164E-02  0.1312668E+00
        -11   -1    0    0    0    0  0.00000000000E+00  0.00000000000E+00  0.45593999997E+02  0.45594000000E+02  0.51100000000E-03 0.  1.
         11   -1    0    0    0    0 -0.00000000000E+00 -0.00000000000E+00 -0.45593999997E+02  0.45594000000E+02  0.51100000000E-03 0. -1.
    9900012    2    1    2    0    0 -0.32781322379E+02 -0.28135607624E+02 -0.41708347144E+01  0.47787269874E+02  0.19999994662E+02 0.  0.
         12    1    1    2    0    0  0.32781322379E+02  0.28135607624E+02  0.41708347144E+01  0.43400730126E+02  0.00000000000E+00 0. -1.
         11    1    3    3    0    0 -0.61130794771E+01 -0.10136939892E+02 -0.35314338975E+01  0.12353069121E+02  0.51100000000E-03 0. -1.
        -11    1    3    3    0    0 -0.21444278858E+02 -0.14045239482E+02 -0.67149246899E+01  0.26499359646E+02  0.51100000000E-03 0.  1.
        -12    1    3    3    0    0 -0.52239640442E+01 -0.39534282499E+01  0.60755238731E+01  0.89348411063E+01  0.00000000000E+00 0.  1.
</event>
<event>
 7    1  0.2580704E-010  0.4778728E+02  0.7816164E-02  0.1312668E+00
        -11   -1    0    0    0    0  0.00000000000E+00  0.00000000000E+00  0.45593999997E+02  0.45594000000E+02  0.51100000000E-03 0. -1.
         11   -1    0    0    0    0 -0.00000000000E+00 -0.00000000000E+00 -0.45593999997E+02  0.45594000000E+02  0.51100000000E-03 0.  1.
    9900012    2    1    2    0    0  0.30318217808E+02 -0.28947916527E+02 -0.11244842608E+02  0.47787277799E+02  0.20000030795E+02 0.  0.
         12    1    1    2    0    0 -0.30318217808E+02  0.28947916527E+02  0.11244842608E+02  0.43400722201E+02  0.00000000000E+00 0. -1.
         11    1    3    3    0    0  0.48307727760E+01 -0.10037429746E+01 -0.39452765869E+01  0.63173628344E+01  0.51100000000E-03 0. -1.
        -11    1    3    3    0    0  0.22434624991E+02 -0.16170067453E+02 -0.92297574430E+01  0.29154277604E+02  0.51100000000E-03 0.  1.
         12    1    3    3    0    0  0.30528200405E+01 -0.11774106100E+02  0.19301914216E+01  0.12315637360E+02  0.00000000000E+00 0. -1.
</event>
<event>
 7    1  0.2580704E-010  0.4778727E+02  0.7816164E-02  0.1312668E+00
        -11   -1    0    0    0    0  0.00000000000E+00  0.00000000000E+00  0.45593999997E+02  0.45594000000E+02  0.51100000000E-03 0.  1.
         11   -1    0    0    0    0 -0.00000000000E+00 -0.00000000000E+00 -0.45593999997E+02  0.45594000000E+02  0.51100000000E-03 0. -1.
    9900012    2    1    2    0    0 -0.41013883021E+02 -0.13174385573E+02  0.52839529338E+01  0.47787271961E+02  0.20000004179E+02 0.  0.
         12    1    1    2    0    0  0.41013883021E+02  0.13174385573E+02 -0.52839529338E+01  0.43400728039E+02  0.00000000000E+00 0. -1.
         11    1    3    3    0    0  0.48812184132E+00  0.77444368189E+00 -0.14702434936E+00  0.92716900769E+00  0.51100000000E-03 0. -1.
        -11    1    3    3    0    0 -0.27560784187E+02 -0.25349537786E+01 -0.10904755103E+01  0.27698591169E+02  0.51100000000E-03 0.  1.
        -12    1    3    3    0    0 -0.13941220676E+02 -0.11413875476E+02  0.65214527935E+01  0.19161511784E+02  0.00000000000E+00 0.  1.
</event>
<event>
 7    1  0.2580704E-010  0.4778727E+02  0.7816164E-02  0.1312668E+00
        -11   -1    0    0    0    0  0.00000000000E+00  0.00000000000E+00  0.45593999997E+02  0.45594000000E+02  0.51100000000E-03 0.  1.
         11   -1    0    0    0    0 -0.00000000000E+00 -0.00000000000E+00 -0.45593999997E+02  0.45594000000E+02  0.51100000000E-03 0. -1.
    9900012    2    1    2    0    0 -0.33020989541E+02 -0.25131308156E+02  0.12714357770E+02  0.47787270820E+02  0.19999998976E+02 0.  0.
         12    1    1    2    0    0  0.33020989541E+02  0.25131308156E+02 -0.12714357770E+02  0.43400729180E+02  0.00000000000E+00 0. -1.
         11    1    3    3    0    0 -0.11249547972E+01  0.12584004504E+01  0.30921643377E+01  0.35228646783E+01  0.51100000000E-03 0. -1.
        -11    1    3    3    0    0  0.39645236672E+00 -0.82277833288E+00 -0.13590423599E+01  0.16374171922E+01  0.51100000000E-03 0.  1.
        -12    1    3    3    0    0 -0.32292487110E+02 -0.25566930274E+02  0.10981235792E+02  0.42626988949E+02  0.00000000000E+00 0.  1.
</event>
<event>
 7    1  0.2580704E-010  0.4778727E+02  0.7816164E-02  0.1312668E+00
        -11   -1    0    0    0    0  0.00000000000E+00  0.00000000000E+00  0.45593999997E+02  0.45594000000E+02  0.51100000000E-03 0.  1.
         11   -1    0    0    0    0 -0.00000000000E+00 -0.00000000000E+00 -0.45593999997E+02  0.45594000000E+02  0.51100000000E-03 0. -1.
    9900012    2    1    2    0    0  0.30419646588E+02 -0.21081273309E+02  0.22668232721E+02  0.47787265472E+02  0.19999974593E+02 0.  0.
         12    1    1    2    0    0 -0.30419646588E+02  0.21081273309E+02 -0.22668232721E+02  0.43400734528E+02  0.00000000000E+00 0. -1.
         11    1    3    3    0    0  0.28308440125E+02 -0.12623613670E+02  0.16374613022E+02  0.35054976198E+02  0.51100000000E-03 0.  1.
        -11    1    3    3    0    0  0.31010973584E+01 -0.16136772271E+01  0.42873825678E+01  0.55319443746E+01  0.51100000000E-03 0. -1.
        -12    1    3    3    0    0 -0.98989089485E+00 -0.68439824122E+01  0.20062371311E+01  0.72003448992E+01  0.00000000000E+00 0.  1.
</event>
<event>
 7    1  0.2580704E-010  0.4778727E+02  0.7816164E-02  0.1312668E+00
        -11   -1    0    0    0    0  0.00000000000E+00  0.00000000000E+00  0.45593999997E+02  0.45594000000E+02  0.51100000000E-03 0.  1.
         11   -1    0    0    0    0 -0.00000000000E+00 -0.00000000000E+00 -0.45593999997E+02  0.45594000000E+02  0.51100000000E-03 0. -1.
    9900012    2    1    2    0    0  0.30578823196E+02  0.27927946346E+02  0.12984163594E+02  0.47787272824E+02  0.20000008112E+02 0.  0.
         12    1    1    2    0    0 -0.30578823196E+02 -0.27927946346E+02 -0.12984163594E+02  0.43400727176E+02  0.00000000000E+00 0. -1.
         11    1    3    3    0    0  0.32273461381E+01  0.40254464034E+01 -0.15602042793E+01  0.53901966101E+01  0.51100000000E-03 0.  1.
        -11    1    3    3    0    0  0.59918992810E+01  0.59880796254E+01 -0.35254594595E+01  0.91754465426E+01  0.51100000000E-03 0. -1.
        -12    1    3    3    0    0  0.21359577777E+02  0.17914420318E+02  0.18069827333E+02  0.33221629671E+02  0.00000000000E+00 0.  1.
</event>
<event>
 7    1  0.2580704E-010  0.4778727E+02  0.7816164E-02  0.1312668E+00
        -11   -1    0    0    0    0  0.00000000000E+00  0.00000000000E+00  0.45593999997E+02  0.45594000000E+02  0.51100000000E-03 0.  1.
         11   -1    0    0    0    0 -0.00000000000E+00 -0.00000000000E+00 -0.45593999997E+02  0.45594000000E+02  0.51100000000E-03 0. -1.
    9900012    2    1    2    0    0  0.13201823927E+02  0.29622008342E+02  0.28842182357E+02  0.47787274012E+02  0.20000013529E+02 0.  0.
         12    1    1    2    0    0 -0.13201823927E+02 -0.29622008342E+02 -0.28842182357E+02  0.43400725988E+02  0.00000000000E+00 0. -1.
         11    1    3    3    0    0  0.80101928674E+00  0.58274082337E+01 -0.29680166960E+00  0.58896867584E+01  0.51100000000E-03 0. -1.
        -11    1    3    3    0    0  0.10020593131E+02  0.15532638354E+02  0.10232038823E+02  0.21127464582E+02  0.51100000000E-03 0.  1.
        -12    1    3    3    0    0  0.23802115088E+01  0.82619617545E+01  0.18906945203E+02  0.20770122671E+02  0.00000000000E+00 0.  1.
</event>
<event>
 7    1  0.2580704E-010  0.4778727E+02  0.7816164E-02  0.1312668E+00
        -11   -1    0    0    0    0  0.00000000000E+00  0.00000000000E+00  0.45593999997E+02  0.45594000000E+02  0.51100000000E-03 0.  1.
         11   -1    0    0    0    0 -0.00000000000E+00 -0.00000000000E+00 -0.45593999997E+02  0.45594000000E+02  0.51100000000E-03 0. -1.
    9900012    2    1    2    0    0 -0.36056211949E+01  0.16602953023E+01  0.43218817687E+02  0.47787270894E+02  0.19999999313E+02 0.  0.
         12    1    1    2    0    0  0.36056211949E+01 -0.16602953023E+01 -0.43218817687E+02  0.43400729106E+02  0.00000000000E+00 0. -1.
         11    1    3    3    0    0 -0.13163194063E+01 -0.40066440248E+01  0.12402756998E+02  0.13100163149E+02  0.51100000000E-03 0. -1.
        -11    1    3    3    0    0 -0.14207999954E+01 -0.49212049166E+01  0.12569849859E+02  0.13573431998E+02  0.51100000000E-03 0.  1.
         12    1    3    3    0    0 -0.86850179323E+00  0.10588144244E+02  0.18246210830E+02  0.21113675747E+02  0.00000000000E+00 0. -1.
</event>
<event>
 7    1  0.2580704E-010  0.4778727E+02  0.7816164E-02  0.1312668E+00
        -11   -1    0    0    0    0  0.00000000000E+00  0.00000000000E+00  0.45593999997E+02  0.45594000000E+02  0.51100000000E-03 0.  1.
         11   -1    0    0    0    0 -0.00000000000E+00 -0.00000000000E+00 -0.45593999997E+02  0.45594000000E+02  0.51100000000E-03 0. -1.
    9900012    2    1    2    0    0  0.35658140457E+02 -0.10960404629E+01  0.24716774659E+02  0.47787271491E+02  0.20000002035E+02 0.  0.
         12    1    1    2    0    0 -0.35658140457E+02  0.10960404629E+01 -0.24716774659E+02  0.43400728509E+02  0.00000000000E+00 0. -1.
         11    1    3    3    0    0  0.88373571417E+01  0.47870101085E+00  0.62845353862E+01  0.10854649750E+02  0.51100000000E-03 0. -1.
        -11    1    3    3    0    0  0.88870510470E+00  0.71237600374E+00 -0.30022888794E+01  0.32110769394E+01  0.51100000000E-03 0.  1.
        -12    1    3    3    0    0  0.25932078211E+02 -0.22871174775E+01  0.21434528153E+02  0.33721544802E+02  0.00000000000E+00 0.  1.
</event>
<event>
 7    1  0.2580704E-010  0.4778727E+02  0.7816164E-02  0.1312668E+00
        -11   -1    0    0    0    0  0.00000000000E+00  0.00000000000E+00  0.45593999997E+02  0.45594000000E+02  0.51100000000E-03 0.  1.
         11   -1    0    0    0    0 -0.00000000000E+00 -0.00000000000E+00 -0.45593999997E+02  0.45594000000E+02  0.51100000000E-03 0. -1.
    9900012    2    1    2    0    0 -0.38134272341E+02 -0.83988876551E+01  0.18943586521E+02  0.47787268311E+02  0.19999987538E+02 0.  0.
         12    1    1    2    0    0  0.38134272341E+02  0.83988876551E+01 -0.18943586521E+02  0.43400731689E+02  0.00000000000E+00 0. -1.
         11    1    3    3    0    0 -0.20644810579E+01 -0.11775162559E+01 -0.27233495890E+01  0.36145898545E+01  0.51100000000E-03 0. -1.
        -11    1    3    3    0    0  0.20687084462E+00 -0.91478148534E-01  0.25348899903E+01  0.25449619490E+01  0.51100000000E-03 0.  1.
        -12    1    3    3    0    0 -0.36276662128E+02 -0.71298932506E+01  0.19132046120E+02  0.41627716508E+02  0.00000000000E+00 0.  1.
</event>
<event>
 7    1  0.2580704E-010  0.4778727E+02  0.7816164E-02  0.1312668E+00
        -11   -1    0    0    0    0  0.00000000000E+00  0.00000000000E+00  0.45593999997E+02  0.45594000000E+02  0.51100000000E-03 0. -1.
         11   -1    0    0    0    0 -0.00000000000E+00 -0.00000000000E+00 -0.45593999997E+02  0.45594000000E+02  0.51100000000E-03 0.  1.
    9900012    2    1    2    0    0  0.41008621429E+02  0.13816911794E+02 -0.33180365679E+01  0.47787269019E+02  0.19999990765E+02 0.  0.
         12    1    1    2    0    0 -0.41008621429E+02 -0.13816911794E+02  0.33180365679E+01  0.43400730981E+02  0.00000000000E+00 0. -1.
         11    1    3    3    0    0 -0.76405495050E+00  0.26221902037E+01 -0.93366787692E+00  0.28864160125E+01  0.51100000000E-03 0. -1.
        -11    1    3    3    0    0  0.95634396113E+01  0.76375236478E+01 -0.25192113166E+01  0.12495502014E+02  0.51100000000E-03 0.  1.
        -12    1    3    3    0    0  0.32209236768E+02  0.35571979424E+01  0.13484262564E+00  0.32405350992E+02  0.00000000000E+00 0.  1.
</event>
<event>
 7    1  0.2580704E-010  0.4778726E+02  0.7816164E-02  0.1312668E+00
        -11   -1    0    0    0    0  0.00000000000E+00  0.00000000000E+00  0.45593999997E+02  0.45594000000E+02  0.51100000000E-03 0.  1.
         11   -1    0    0    0    0 -0.00000000000E+00 -0.00000000000E+00 -0.45593999997E+02  0.45594000000E+02  0.51100000000E-03 0. -1.
    9900012    2    1    2    0    0  0.33882011355E+02  0.21996381944E+02  0.15867973320E+02  0.47787261649E+02  0.19999957162E+02 0.  0.
         12    1    1    2    0    0 -0.33882011355E+02 -0.21996381944E+02 -0.15867973320E+02  0.43400738351E+02  0.00000000000E+00 0. -1.
         11    1    3    3    0    0  0.19093695136E+01  0.32177113924E+01 -0.25293789362E+01  0.45163167081E+01  0.51100000000E-03 0. -1.
        -11    1    3    3    0    0  0.18757303040E+02  0.16870740033E+02  0.83970770455E+01  0.26588892225E+02  0.51100000000E-03 0.  1.
        -12    1    3    3    0    0  0.13215338802E+02  0.19079305190E+01  0.10000275211E+02  0.16682052716E+02  0.00000000000E+00 0.  1.
</event>
<event>
 7    1  0.2580704E-010  0.4778728E+02  0.7816164E-02  0.1312668E+00
        -11   -1    0    0    0    0  0.00000000000E+00  0.00000000000E+00  0.45593999997E+02  0.45594000000E+02  0.51100000000E-03 0.  1.
         11   -1    0    0    0    0 -0.00000000000E+00 -0.00000000000E+00 -0.45593999997E+02  0.45594000000E+02  0.51100000000E-03 0. -1.
    9900012    2    1    2    0    0  0.20104744913E+02  0.11081453505E+02  0.36832364781E+02  0.47787280246E+02  0.20000041953E+02 0.  0.
         12    1    1    2    0    0 -0.20104744913E+02 -0.11081453505E+02 -0.36832364781E+02  0.43400719754E+02  0.00000000000E+00 0. -1.
         11    1    3    3    0    0  0.13261498317E+01  0.81287578605E+01  0.62577596724E+01  0.10343835561E+02  0.51100000000E-03 0. -1.
        -11    1    3    3    0    0  0.93035715021E+01  0.65113614536E+01  0.18262447121E+02  0.21505144636E+02  0.51100000000E-03 0.  1.
        -12    1    3    3    0    0  0.94750235788E+01 -0.35586658087E+01  0.12312157987E+02  0.15938300049E+02  0.00000000000E+00 0.  1.
</event>
<event>
 7    1  0.2665491E-010  0.4778727E+02  0.7816164E-02  0.1312668E+00
        -11   -1    0    0    0    0  0.00000000000E+00  0.00000000000E+00  0.45593999997E+02  0.45594000000E+02  0.51100000000E-03 0. -1.
         11   -1    0    0    0    0 -0.00000000000E+00 -0.00000000000E+00 -0.45593999997E+02  0.45594000000E+02  0.51100000000E-03 0.  1.
    9900012    2    1    2    0    0 -0.18824672504E+02 -0.38782111467E+02 -0.50202408195E+01  0.47787270944E+02  0.19999999543E+02 0.  0.
         12    1    1    2    0    0  0.18824672504E+02  0.38782111467E+02  0.50202408195E+01  0.43400729056E+02  0.00000000000E+00 0. -1.
         11    1    3    3    0    0 -0.16591942333E+01 -0.35676859154E+01  0.42819902039E+01  0.58152169918E+01  0.51100000000E-03 0. -1.
        -11    1    3    3    0    0 -0.87693070995E+01 -0.69741958124E+01 -0.47107434966E+01  0.12154474846E+02  0.51100000000E-03 0.  1.
        -12    1    3    3    0    0 -0.83961711715E+01 -0.28240229739E+02 -0.45914875268E+01  0.29817579106E+02  0.00000000000E+00 0.  1.
</event>
<event>
 7    1  0.2580704E-010  0.4778727E+02  0.7816164E-02  0.1312668E+00
        -11   -1    0    0    0    0  0.00000000000E+00  0.00000000000E+00  0.45593999997E+02  0.45594000000E+02  0.51100000000E-03 0. -1.
         11   -1    0    0    0    0 -0.00000000000E+00 -0.00000000000E+00 -0.45593999997E+02  0.45594000000E+02  0.51100000000E-03 0.  1.
    9900012    2    1    2    0    0 -0.13484746909E+02 -0.34546954686E+02 -0.22545351694E+02  0.47787270049E+02  0.19999995462E+02 0.  0.
         12    1    1    2    0    0  0.13484746909E+02  0.34546954686E+02  0.22545351694E+02  0.43400729951E+02  0.00000000000E+00 0. -1.
         11    1    3    3    0    0 -0.75243706680E+00 -0.26289737094E+01 -0.67705070439E+01  0.73018785389E+01  0.51100000000E-03 0. -1.
        -11    1    3    3    0    0  0.30861217704E+01 -0.81858753421E+01 -0.31948495717E+01  0.93134186390E+01  0.51100000000E-03 0.  1.
        -12    1    3    3    0    0 -0.15818431612E+02 -0.23732105635E+02 -0.12579995078E+02  0.31171972871E+02  0.00000000000E+00 0.  1.
</event>
<event>
 7    1  0.2580704E-010  0.4778727E+02  0.7816164E-02  0.1312668E+00
        -11   -1    0    0    0    0  0.00000000000E+00  0.00000000000E+00  0.45593999997E+02  0.45594000000E+02  0.51100000000E-03 0.  1.
         11   -1    0    0    0    0 -0.00000000000E+00 -0.00000000000E+00 -0.45593999997E+02  0.45594000000E+02  0.51100000000E-03 0. -1.
    9900012    2    1    2    0    0  0.17315291254E+01 -0.62098847664E+00  0.43361728353E+02  0.47787270679E+02  0.19999998336E+02 0.  0.
         12    1    1    2    0    0 -0.17315291254E+01  0.62098847664E+00 -0.43361728353E+02  0.43400729321E+02  0.00000000000E+00 0. -1.
         11    1    3    3    0    0 -0.53847376354E+01 -0.66818660093E+01  0.21558489088E+02  0.23203689034E+02  0.51100000000E-03 0. -1.
        -11    1    3    3    0    0  0.40919803390E+01 -0.50626478606E+00  0.82058661079E+01  0.91835094583E+01  0.51100000000E-03 0.  1.
         12    1    3    3    0    0  0.30242864218E+01  0.65671423187E+01  0.13597373157E+02  0.15400072187E+02  0.00000000000E+00 0. -1.
</event>
<event>
 7    1  0.2580704E-010  0.4778727E+02  0.7816164E-02  0.1312668E+00
        -11   -1    0    0    0    0  0.00000000000E+00  0.00000000000E+00  0.45593999997E+02  0.45594000000E+02  0.51100000000E-03 0.  1.
         11   -1    0    0    0    0 -0.00000000000E+00 -0.00000000000E+00 -0.45593999997E+02  0.45594000000E+02  0.51100000000E-03 0. -1.
    9900012    2    1    2    0    0  0.29699850461E+02 -0.17039242882E+00  0.31646693177E+02  0.47787270283E+02  0.19999996527E+02 0.  0.
         12    1    1    2    0    0 -0.29699850461E+02  0.17039242882E+00 -0.31646693177E+02  0.43400729717E+02  0.00000000000E+00 0. -1.
         11    1    3    3    0    0 -0.33741865177E+00  0.25175614806E+01 -0.12065812128E+01  0.28120820826E+01  0.51100000000E-03 0. -1.
        -11    1    3    3    0    0  0.69989354460E+01 -0.23253183648E+01  0.10822320501E+02  0.13096366830E+02  0.51100000000E-03 0.  1.
         12    1    3    3    0    0  0.23038333667E+02 -0.36263554463E+00  0.22030953889E+02  0.31878821370E+02  0.00000000000E+00 0. -1.
</event>
<event>
 7    1  0.2580704E-010  0.4778729E+02  0.7816164E-02  0.1312668E+00
        -11   -1    0    0    0    0  0.00000000000E+00  0.00000000000E+00  0.45593999997E+02  0.45594000000E+02  0.51100000000E-03 0. -1.
         11   -1    0    0    0    0 -0.00000000000E+00 -0.00000000000E+00 -0.45593999997E+02  0.45594000000E+02  0.51100000000E-03 0.  1.
    9900012    2    1    2    0    0  0.37014458523E+02  0.27545402729E+01 -0.22493642741E+02  0.47787290379E+02  0.20000088154E+02 0.  0.
         12    1    1    2    0    0 -0.37014458523E+02 -0.27545402729E+01  0.22493642741E+02  0.43400709621E+02  0.00000000000E+00 0. -1.
         11    1    3    3    0    0  0.15505417942E+02  0.17126465797E+01 -0.12785589818E+02  0.20169840136E+02  0.51100000000E-03 0. -1.
        -11    1    3    3    0    0  0.20159977403E+02 -0.21962461285E+01 -0.11869086443E+02  0.23497306211E+02  0.51100000000E-03 0.  1.
         12    1    3    3    0    0  0.13490631777E+01  0.32381398218E+01  0.21610335204E+01  0.41201440314E+01  0.00000000000E+00 0. -1.
</event>
<event>
 7    1  0.2580704E-010  0.4778726E+02  0.7816164E-02  0.1312668E+00
        -11   -1    0    0    0    0  0.00000000000E+00  0.00000000000E+00  0.45593999997E+02  0.45594000000E+02  0.51100000000E-03 0. -1.
         11   -1    0    0    0    0 -0.00000000000E+00 -0.00000000000E+00 -0.45593999997E+02  0.45594000000E+02  0.51100000000E-03 0.  1.
    9900012    2    1    2    0    0  0.29917863992E+02 -0.14780776719E+02 -0.27750209026E+02  0.47787262134E+02  0.19999959375E+02 0.  0.
         12    1    1    2    0    0 -0.29917863992E+02  0.14780776719E+02  0.27750209026E+02  0.43400737866E+02  0.00000000000E+00 0. -1.
         11    1    3    3    0    0  0.34890193729E+01  0.65767028798E+00 -0.81174265546E+01  0.88599323092E+01  0.51100000000E-03 0. -1.
        -11    1    3    3    0    0  0.19755801253E+02 -0.13299385669E+02 -0.21042140516E+02  0.31779506291E+02  0.51100000000E-03 0.  1.
         12    1    3    3    0    0  0.66730433663E+01 -0.21390613376E+01  0.14093580445E+01  0.71478235339E+01  0.00000000000E+00 0. -1.
</event>
<event>
 7    1  0.2580704E-010  0.4778727E+02  0.7816164E-02  0.1312668E+00
        -11   -1    0    0    0    0  0.00000000000E+00  0.00000000000E+00  0.45593999997E+02  0.45594000000E+02  0.51100000000E-03 0.  1.
         11   -1    0    0    0    0 -0.00000000000E+00 -0.00000000000E+00 -0.45593999997E+02  0.45594000000E+02  0.51100000000E-03 0. -1.
    9900012    2    1    2    0    0 -0.25384016693E+02  0.11350195487E+01  0.35185034038E+02  0.47787271975E+02  0.20000004244E+02 0.  0.
         12    1    1    2    0    0  0.25384016693E+02 -0.11350195487E+01 -0.35185034038E+02  0.43400728025E+02  0.00000000000E+00 0. -1.
         11    1    3    3    0    0  0.85069516072E+00 -0.11996153391E+01  0.38535824408E+01  0.41246644842E+01  0.51100000000E-03 0. -1.
        -11    1    3    3    0    0 -0.22228237643E+01 -0.29079395050E+01  0.11541340312E+02  0.12107831932E+02  0.51100000000E-03 0.  1.
         12    1    3    3    0    0 -0.24011888089E+02  0.52425743928E+01  0.19790111285E+02  0.31554775559E+02  0.00000000000E+00 0. -1.
</event>
<event>
 7    1  0.2580704E-010  0.4778727E+02  0.7816164E-02  0.1312668E+00
        -11   -1    0    0    0    0  0.00000000000E+00  0.00000000000E+00  0.45593999997E+02  0.45594000000E+02  0.51100000000E-03 0. -1.
         11   -1    0    0    0    0 -0.00000000000E+00 -0.00000000000E+00 -0.45593999997E+02  0.45594000000E+02  0.51100000000E-03 0.  1.
    9900012    2    1    2    0    0 -0.34764105747E+02 -0.72893372636E+01 -0.24938840478E+02  0.47787271314E+02  0.20000001227E+02 0.  0.
         12    1    1    2    0    0  0.34764105747E+02  0.72893372636E+01  0.24938840478E+02  0.43400728686E+02  0.00000000000E+00 0. -1.
         11    1    3    3    0    0 -0.58054839739E+01  0.10123096100E+01 -0.43615570161E+01  0.73315479118E+01  0.51100000000E-03 0. -1.
        -11    1    3    3    0    0 -0.70088826517E+01 -0.10640555765E+02 -0.81258303762E+01  0.15112080683E+02  0.51100000000E-03 0.  1.
        -12    1    3    3    0    0 -0.21949739121E+02  0.23389088914E+01 -0.12451453086E+02  0.25343642718E+02  0.00000000000E+00 0.  1.
</event>
<event>
 7    1  0.2580704E-010  0.4778724E+02  0.7816164E-02  0.1312668E+00
        -11   -1    0    0    0    0  0.00000000000E+00  0.00000000000E+00  0.45593999997E+02  0.45594000000E+02  0.51100000000E-03 0. -1.
         11   -1    0    0    0    0 -0.00000000000E+00 -0.00000000000E+00 -0.45593999997E+02  0.45594000000E+02  0.51100000000E-03 0.  1.
    9900012    2    1    2    0    0 -0.33756224002E+02  0.47459143081E+00 -0.27274866871E+02  0.47787236658E+02  0.19999843216E+02 0.  0.
         12    1    1    2    0    0  0.33756224002E+02 -0.47459143081E+00  0.27274866871E+02  0.43400763342E+02  0.00000000000E+00 0. -1.
         11    1    3    3    0    0 -0.17237412497E+02 -0.21888781773E-01 -0.56830164619E+01  0.18150083887E+02  0.51100000000E-03 0. -1.
        -11    1    3    3    0    0 -0.54246152310E+01  0.38291109445E+01 -0.21020571172E+01  0.69647100022E+01  0.51100000000E-03 0.  1.
        -12    1    3    3    0    0 -0.11094196273E+02 -0.33326307319E+01 -0.19489793292E+02  0.22672442769E+02  0.00000000000E+00 0.  1.
</event>
<event>
 7    1  0.2580704E-010  0.4778727E+02  0.7816164E-02  0.1312668E+00
        -11   -1    0    0    0    0  0.00000000000E+00  0.00000000000E+00  0.45593999997E+02  0.45594000000E+02  0.51100000000E-03 0. -1.
         11   -1    0    0    0    0 -0.00000000000E+00 -0.00000000000E+00 -0.45593999997E+02  0.45594000000E+02  0.51100000000E-03 0.  1.
    9900012    2    1    2    0    0  0.38853678224E+01  0.43214377218E+02 -0.10222955058E+01  0.47787267638E+02  0.19999984468E+02 0.  0.
         12    1    1    2    0    0 -0.38853678224E+01 -0.43214377218E+02  0.10222955058E+01  0.43400732362E+02  0.00000000000E+00 0. -1.
         11    1    3    3    0    0 -0.84206492955E+00  0.12050518640E+02  0.58901200425E+01  0.13439404273E+02  0.51100000000E-03 0. -1.
        -11    1    3    3    0    0  0.33097520101E+01  0.11296420700E+02  0.29304666079E+01  0.12130590003E+02  0.51100000000E-03 0.  1.
        -12    1    3    3    0    0  0.14176807419E+01  0.19867437878E+02 -0.98428821562E+01  0.22217273362E+02  0.00000000000E+00 0.  1.
</event>
<event>
 7    1  0.2580704E-010  0.4778727E+02  0.7816164E-02  0.1312668E+00
        -11   -1    0    0    0    0  0.00000000000E+00  0.00000000000E+00  0.45593999997E+02  0.45594000000E+02  0.51100000000E-03 0. -1.
         11   -1    0    0    0    0 -0.00000000000E+00 -0.00000000000E+00 -0.45593999997E+02  0.45594000000E+02  0.51100000000E-03 0.  1.
    9900012    2    1    2    0    0 -0.97876152679E+01 -0.40010166770E+02  0.13675251039E+02  0.47787270184E+02  0.19999996078E+02 0.  0.
         12    1    1    2    0    0  0.97876152679E+01  0.40010166770E+02 -0.13675251039E+02  0.43400729816E+02  0.00000000000E+00 0. -1.
         11    1    3    3    0    0 -0.22854285217E+01 -0.25242282477E+01 -0.16710766490E+01  0.37930738461E+01  0.51100000000E-03 0.  1.
        -11    1    3    3    0    0 -0.11727180773E+01 -0.71348444157E+01 -0.31556021486E+01  0.78891759840E+01  0.51100000000E-03 0. -1.
        -12    1    3    3    0    0 -0.63294686689E+01 -0.30351094106E+02  0.18501929837E+02  0.36105020354E+02  0.00000000000E+00 0.  1.
</event>
<event>
 7    1  0.2580704E-010  0.4778728E+02  0.7816164E-02  0.1312668E+00
        -11   -1    0    0    0    0  0.00000000000E+00  0.00000000000E+00  0.45593999997E+02  0.45594000000E+02  0.51100000000E-03 0.  1.
         11   -1    0    0    0    0 -0.00000000000E+00 -0.00000000000E+00 -0.45593999997E+02  0.45594000000E+02  0.51100000000E-03 0. -1.
    9900012    2    1    2    0    0  0.42464512999E+02 -0.35259034194E+01  0.82435382444E+01  0.47787276712E+02  0.20000025839E+02 0.  0.
         12    1    1    2    0    0 -0.42464512999E+02  0.35259034194E+01 -0.82435382444E+01  0.43400723288E+02  0.00000000000E+00 0. -1.
         11    1    3    3    0    0  0.27522498753E+02 -0.33469992989E+01  0.24322233775E+01  0.27831745413E+02  0.51100000000E-03 0. -1.
        -11    1    3    3    0    0  0.16756705357E+02 -0.14461333727E+01  0.46202808094E+01  0.17442060405E+02  0.51100000000E-03 0.  1.
         12    1    3    3    0    0 -0.18146911110E+01  0.12672292521E+01  0.11910340575E+01  0.25134708934E+01  0.00000000000E+00 0. -1.
</event>
<event>
 7    1  0.2580704E-010  0.4778727E+02  0.7816164E-02  0.1312668E+00
        -11   -1    0    0    0    0  0.00000000000E+00  0.00000000000E+00  0.45593999997E+02  0.45594000000E+02  0.51100000000E-03 0. -1.
         11   -1    0    0    0    0 -0.00000000000E+00 -0.00000000000E+00 -0.45593999997E+02  0.45594000000E+02  0.51100000000E-03 0.  1.
    9900012    2    1    2    0    0  0.41547356684E+02 -0.11761989292E+02 -0.43698776409E+01  0.47787273391E+02  0.20000010701E+02 0.  0.
         12    1    1    2    0    0 -0.41547356684E+02  0.11761989292E+02  0.43698776409E+01  0.43400726609E+02  0.00000000000E+00 0. -1.
         11    1    3    3    0    0  0.86569083541E+01 -0.61756089751E+01 -0.15933192885E+00  0.10635111442E+02  0.51100000000E-03 0.  1.
        -11    1    3    3    0    0  0.29958259911E+02 -0.96236609506E+01 -0.56271407700E+01  0.31965245196E+02  0.51100000000E-03 0. -1.
         12    1    3    3    0    0  0.29321884195E+01  0.40372806335E+01  0.14165950580E+01  0.51869167527E+01  0.00000000000E+00 0. -1.
</event>
<event>
 7    1  0.2580704E-010  0.4778727E+02  0.7816164E-02  0.1312668E+00
        -11   -1    0    0    0    0  0.00000000000E+00  0.00000000000E+00  0.45593999997E+02  0.45594000000E+02  0.51100000000E-03 0.  1.
         11   -1    0    0    0    0 -0.00000000000E+00 -0.00000000000E+00 -0.45593999997E+02  0.45594000000E+02  0.51100000000E-03 0. -1.
    9900012    2    1    2    0    0 -0.27949861034E+02  0.23326495723E+02  0.23628439703E+02  0.47787270775E+02  0.19999998770E+02 0.  0.
         12    1    1    2    0    0  0.27949861034E+02 -0.23326495723E+02 -0.23628439703E+02  0.43400729225E+02  0.00000000000E+00 0. -1.
         11    1    3    3    0    0 -0.24303726857E+01 -0.93457238975E+00 -0.69317829807E+00  0.26945562449E+01  0.51100000000E-03 0. -1.
        -11    1    3    3    0    0 -0.18292349545E+01  0.59722862982E+01  0.10292161506E+02  0.12039223100E+02  0.51100000000E-03 0.  1.
        -12    1    3    3    0    0 -0.23690253394E+02  0.18288781814E+02  0.14029456495E+02  0.33053491429E+02  0.00000000000E+00 0.  1.
</event>
<event>
 7    1  0.2580704E-010  0.4778727E+02  0.7816164E-02  0.1312668E+00
        -11   -1    0    0    0    0  0.00000000000E+00  0.00000000000E+00  0.45593999997E+02  0.45594000000E+02  0.51100000000E-03 0. -1.
         11   -1    0    0    0    0 -0.00000000000E+00 -0.00000000000E+00 -0.45593999997E+02  0.45594000000E+02  0.51100000000E-03 0.  1.
    9900012    2    1    2    0    0  0.21112361314E+02  0.21785544620E+02 -0.31036777033E+02  0.47787270936E+02  0.19999999507E+02 0.  0.
         12    1    1    2    0    0 -0.21112361314E+02 -0.21785544620E+02  0.31036777033E+02  0.43400729064E+02  0.00000000000E+00 0. -1.
         11    1    3    3    0    0  0.11081826341E+02  0.15027842764E+02 -0.11885172535E+02  0.22133690601E+02  0.51100000000E-03 0. -1.
        -11    1    3    3    0    0  0.61715472456E+01  0.94083354870E+01 -0.17261175483E+02  0.20604682753E+02  0.51100000000E-03 0.  1.
        -12    1    3    3    0    0  0.38589877278E+01 -0.26506336311E+01 -0.18904290145E+01  0.50488975815E+01  0.00000000000E+00 0.  1.
</event>
<event>
 7    1  0.2580704E-010  0.4778727E+02  0.7816164E-02  0.1312668E+00
        -11   -1    0    0    0    0  0.00000000000E+00  0.00000000000E+00  0.45593999997E+02  0.45594000000E+02  0.51100000000E-03 0. -1.
         11   -1    0    0    0    0 -0.00000000000E+00 -0.00000000000E+00 -0.45593999997E+02  0.45594000000E+02  0.51100000000E-03 0.  1.
    9900012    2    1    2    0    0  0.24622162185E+02 -0.25571653150E+02 -0.24969240963E+02  0.47787270631E+02  0.19999998115E+02 0.  0.
         12    1    1    2    0    0 -0.24622162185E+02  0.25571653150E+02  0.24969240963E+02  0.43400729369E+02  0.00000000000E+00 0. -1.
         11    1    3    3    0    0  0.11189794957E+02 -0.11196227030E+02 -0.11988495212E+02  0.19856762793E+02  0.51100000000E-03 0.  1.
        -11    1    3    3    0    0  0.11838764557E+02 -0.35611540994E+01 -0.21611083864E+01  0.12550241211E+02  0.51100000000E-03 0. -1.
         12    1    3    3    0    0  0.15936026709E+01 -0.10814272021E+02 -0.10819637364E+02  0.15380266627E+02  0.00000000000E+00 0. -1.
</event>
<event>
 7    1  0.2580704E-010  0.4778727E+02  0.7816164E-02  0.1312668E+00
        -11   -1    0    0    0    0  0.00000000000E+00  0.00000000000E+00  0.45593999997E+02  0.45594000000E+02  0.51100000000E-03 0.  1.
         11   -1    0    0    0    0 -0.00000000000E+00 -0.00000000000E+00 -0.45593999997E+02  0.45594000000E+02  0.51100000000E-03 0. -1.
    9900012    2    1    2    0    0 -0.11970950944E+02 -0.35332210626E+02  0.22180042710E+02  0.47787273407E+02  0.20000010771E+02 0.  0.
         12    1    1    2    0    0  0.11970950944E+02  0.35332210626E+02 -0.22180042710E+02  0.43400726593E+02  0.00000000000E+00 0. -1.
         11    1    3    3    0    0 -0.61758958601E+00 -0.23403715782E+00 -0.11535906138E+01  0.13292711737E+01  0.51100000000E-03 0. -1.
        -11    1    3    3    0    0 -0.15275807946E+02 -0.28513776772E+02  0.17166683372E+02  0.36620769960E+02  0.51100000000E-03 0.  1.
         12    1    3    3    0    0  0.39224465882E+01 -0.65843966960E+01  0.61669499523E+01  0.98372322734E+01  0.00000000000E+00 0. -1.
</event>
<event>
 7    1  0.2580704E-010  0.4778727E+02  0.7816164E-02  0.1312668E+00
        -11   -1    0    0    0    0  0.00000000000E+00  0.00000000000E+00  0.45593999997E+02  0.45594000000E+02  0.51100000000E-03 0. -1.
         11   -1    0    0    0    0 -0.00000000000E+00 -0.00000000000E+00 -0.45593999997E+02  0.45594000000E+02  0.51100000000E-03 0.  1.
    9900012    2    1    2    0    0  0.86784528773E+01 -0.35278899508E+02 -0.23742513372E+02  0.47787271480E+02  0.20000001986E+02 0.  0.
         12    1    1    2    0    0 -0.86784528773E+01  0.35278899508E+02  0.23742513372E+02  0.43400728520E+02  0.00000000000E+00 0. -1.
         11    1    3    3    0    0  0.91879944733E+01 -0.11417647499E+02 -0.73109523190E+01  0.16377788035E+02  0.51100000000E-03 0. -1.
        -11    1    3    3    0    0  0.20254223015E+01 -0.21098981417E+02 -0.88848889263E+01  0.22982832807E+02  0.51100000000E-03 0.  1.
        -12    1    3    3    0    0 -0.25349638975E+01 -0.27622705915E+01 -0.75466721265E+01  0.84266506375E+01  0.00000000000E+00 0.  1.
</event>
<event>
 7    1  0.2580704E-010  0.4778727E+02  0.7816164E-02  0.1312668E+00
        -11   -1    0    0    0    0  0.00000000000E+00  0.00000000000E+00  0.45593999997E+02  0.45594000000E+02  0.51100000000E-03 0.  1.
         11   -1    0    0    0    0 -0.00000000000E+00 -0.00000000000E+00 -0.45593999997E+02  0.45594000000E+02  0.51100000000E-03 0. -1.
    9900012    2    1    2    0    0 -0.34317248824E+02 -0.26283001772E+01  0.26439400826E+02  0.47787269076E+02  0.19999991025E+02 0.  0.
         12    1    1    2    0    0  0.34317248824E+02  0.26283001772E+01 -0.26439400826E+02  0.43400730924E+02  0.00000000000E+00 0. -1.
         11    1    3    3    0    0 -0.17561938632E+02  0.40115070130E+01  0.92445667241E+01  0.20247861398E+02  0.51100000000E-03 0. -1.
        -11    1    3    3    0    0 -0.88925259001E+01 -0.33181964699E+01  0.14114163372E+01  0.95958085138E+01  0.51100000000E-03 0.  1.
        -12    1    3    3    0    0 -0.78627842925E+01 -0.33216107203E+01  0.15783417765E+02  0.17943599164E+02  0.00000000000E+00 0.  1.
</event>
<event>
 7    1  0.2580704E-010  0.4778727E+02  0.7816164E-02  0.1312668E+00
        -11   -1    0    0    0    0  0.00000000000E+00  0.00000000000E+00  0.45593999997E+02  0.45594000000E+02  0.51100000000E-03 0. -1.
         11   -1    0    0    0    0 -0.00000000000E+00 -0.00000000000E+00 -0.45593999997E+02  0.45594000000E+02  0.51100000000E-03 0.  1.
    9900012    2    1    2    0    0 -0.35580171095E+02 -0.24848934831E+02 -0.45296725146E+00  0.47787270551E+02  0.19999997750E+02 0.  0.
         12    1    1    2    0    0  0.35580171095E+02  0.24848934831E+02  0.45296725146E+00  0.43400729449E+02  0.00000000000E+00 0. -1.
         11    1    3    3    0    0 -0.61626224772E+00 -0.29114257010E+01 -0.60559337519E+00  0.30369264673E+01  0.51100000000E-03 0. -1.
        -11    1    3    3    0    0 -0.21663222319E+02 -0.12109854802E+02  0.84897395300E+01  0.26230125088E+02  0.51100000000E-03 0.  1.
        -12    1    3    3    0    0 -0.13300686528E+02 -0.98276543279E+01 -0.83371134062E+01  0.18520218996E+02  0.00000000000E+00 0.  1.
</event>
<event>
 7    1  0.2580704E-010  0.4778729E+02  0.7816164E-02  0.1312668E+00
        -11   -1    0    0    0    0  0.00000000000E+00  0.00000000000E+00  0.45593999997E+02  0.45594000000E+02  0.51100000000E-03 0.  1.
         11   -1    0    0    0    0 -0.00000000000E+00 -0.00000000000E+00 -0.45593999997E+02  0.45594000000E+02  0.51100000000E-03 0. -1.
    9900012    2    1    2    0    0 -0.79629859990E+01 -0.19136046380E+02  0.38131671491E+02  0.47787288165E+02  0.20000078057E+02 0.  0.
         12    1    1    2    0    0  0.79629859990E+01  0.19136046380E+02 -0.38131671491E+02  0.43400711835E+02  0.00000000000E+00 0. -1.
         11    1    3    3    0    0 -0.38591935741E+01 -0.37147574325E+01  0.52640702563E+01  0.75102086355E+01  0.51100000000E-03 0. -1.
        -11    1    3    3    0    0  0.44780582970E+01 -0.12758245845E+02  0.14480674891E+02  0.19812011223E+02  0.51100000000E-03 0.  1.
        -12    1    3    3    0    0 -0.85818507219E+01 -0.26630431033E+01  0.18386926344E+02  0.20465068306E+02  0.00000000000E+00 0.  1.
</event>
<event>
 7    1  0.2580704E-010  0.4778727E+02  0.7816164E-02  0.1312668E+00
        -11   -1    0    0    0    0  0.00000000000E+00  0.00000000000E+00  0.45593999997E+02  0.45594000000E+02  0.51100000000E-03 0.  1.
         11   -1    0    0    0    0 -0.00000000000E+00 -0.00000000000E+00 -0.45593999997E+02  0.45594000000E+02  0.51100000000E-03 0. -1.
    9900012    2    1    2    0    0  0.39955010316E+02  0.40069359611E+01  0.16467085561E+02  0.47787270836E+02  0.19999999047E+02 0.  0.
         12    1    1    2    0    0 -0.39955010316E+02 -0.40069359611E+01 -0.16467085561E+02  0.43400729164E+02  0.00000000000E+00 0. -1.
         11    1    3    3    0    0  0.45056166454E+01  0.11743244487E+01 -0.70900817091E+00  0.47098101993E+01  0.51100000000E-03 0. -1.
        -11    1    3    3    0    0  0.36653474789E+02  0.42617988630E+00  0.14958636450E+02  0.39590651019E+02  0.51100000000E-03 0.  1.
         12    1    3    3    0    0 -0.12040811184E+01  0.24064316261E+01  0.22174572820E+01  0.34868096174E+01  0.00000000000E+00 0. -1.
</event>
<event>
 7    1  0.2580704E-010  0.4778727E+02  0.7816164E-02  0.1312668E+00
        -11   -1    0    0    0    0  0.00000000000E+00  0.00000000000E+00  0.45593999997E+02  0.45594000000E+02  0.51100000000E-03 0.  1.
         11   -1    0    0    0    0 -0.00000000000E+00 -0.00000000000E+00 -0.45593999997E+02  0.45594000000E+02  0.51100000000E-03 0. -1.
    9900012    2    1    2    0    0  0.30839948130E+02 -0.26037325874E+01 -0.30426004676E+02  0.47787267465E+02  0.19999983679E+02 0.  0.
         12    1    1    2    0    0 -0.30839948130E+02  0.26037325874E+01  0.30426004676E+02  0.43400732535E+02  0.00000000000E+00 0. -1.
         11    1    3    3    0    0  0.14857421969E+02 -0.27871345928E+01 -0.81076317935E+01  0.17153565238E+02  0.51100000000E-03 0. -1.
        -11    1    3    3    0    0  0.12651999606E+02  0.12774913403E+01 -0.62162595229E+01  0.14154397228E+02  0.51100000000E-03 0.  1.
         12    1    3    3    0    0  0.33305265539E+01 -0.10940893349E+01 -0.16102113360E+02  0.16479304999E+02  0.00000000000E+00 0. -1.
</event>
<event>
 7    1  0.2580704E-010  0.4778727E+02  0.7816164E-02  0.1312668E+00
        -11   -1    0    0    0    0  0.00000000000E+00  0.00000000000E+00  0.45593999997E+02  0.45594000000E+02  0.51100000000E-03 0.  1.
         11   -1    0    0    0    0 -0.00000000000E+00 -0.00000000000E+00 -0.45593999997E+02  0.45594000000E+02  0.51100000000E-03 0. -1.
    9900012    2    1    2    0    0 -0.18383770204E+02 -0.27698553445E+02  0.27900724025E+02  0.47787271078E+02  0.20000000153E+02 0.  0.
         12    1    1    2    0    0  0.18383770204E+02  0.27698553445E+02 -0.27900724025E+02  0.43400728922E+02  0.00000000000E+00 0. -1.
         11    1    3    3    0    0 -0.35618227677E+01 -0.19510487108E+01 -0.21179856424E+01  0.45802877576E+01  0.51100000000E-03 0. -1.
        -11    1    3    3    0    0 -0.13795916867E+02 -0.17098591669E+02  0.18222115875E+02  0.28543557355E+02  0.51100000000E-03 0.  1.
        -12    1    3    3    0    0 -0.10260305689E+01 -0.86489130653E+01  0.11796593792E+02  0.14663425965E+02  0.00000000000E+00 0.  1.
</event>
<event>
 7    1  0.2580704E-010  0.4778727E+02  0.7816164E-02  0.1312668E+00
        -11   -1    0    0    0    0  0.00000000000E+00  0.00000000000E+00  0.45593999997E+02  0.45594000000E+02  0.51100000000E-03 0.  1.
         11   -1    0    0    0    0 -0.00000000000E+00 -0.00000000000E+00 -0.45593999997E+02  0.45594000000E+02  0.51100000000E-03 0. -1.
    9900012    2    1    2    0    0 -0.59515999120E+01 -0.41397339707E+02 -0.11595782466E+02  0.47787269046E+02  0.19999990890E+02 0.  0.
         12    1    1    2    0    0  0.59515999120E+01  0.41397339707E+02  0.11595782466E+02  0.43400730954E+02  0.00000000000E+00 0. -1.
         11    1    3    3    0    0 -0.40889087447E+01 -0.22855699555E+02 -0.51792469069E+01  0.23789215533E+02  0.51100000000E-03 0. -1.
        -11    1    3    3    0    0 -0.66178760084E+01 -0.70265047943E+01  0.65162662810E+00  0.96743304683E+01  0.51100000000E-03 0.  1.
         12    1    3    3    0    0  0.47551848411E+01 -0.11515135357E+02 -0.70681621876E+01  0.14323723045E+02  0.00000000000E+00 0. -1.
</event>
<event>
 7    1  0.2580704E-010  0.4778727E+02  0.7816164E-02  0.1312668E+00
        -11   -1    0    0    0    0  0.00000000000E+00  0.00000000000E+00  0.45593999997E+02  0.45594000000E+02  0.51100000000E-03 0.  1.
         11   -1    0    0    0    0 -0.00000000000E+00 -0.00000000000E+00 -0.45593999997E+02  0.45594000000E+02  0.51100000000E-03 0. -1.
    9900012    2    1    2    0    0  0.20264040788E+01 -0.35492833942E+02  0.24895293216E+02  0.47787271907E+02  0.20000003933E+02 0.  0.
         12    1    1    2    0    0 -0.20264040788E+01  0.35492833942E+02 -0.24895293216E+02  0.43400728093E+02  0.00000000000E+00 0. -1.
         11    1    3    3    0    0 -0.39304239290E+01 -0.53392420256E+01  0.33196986512E+01  0.74145894738E+01  0.51100000000E-03 0. -1.
        -11    1    3    3    0    0 -0.46162664751E+01 -0.10575362191E+02  0.47586815827E+01  0.12481716721E+02  0.51100000000E-03 0.  1.
        -12    1    3    3    0    0  0.10573094483E+02 -0.19578229725E+02  0.16816912982E+02  0.27890965712E+02  0.00000000000E+00 0.  1.
</event>
<event>
 7    1  0.2580704E-010  0.4778727E+02  0.7816164E-02  0.1312668E+00
        -11   -1    0    0    0    0  0.00000000000E+00  0.00000000000E+00  0.45593999997E+02  0.45594000000E+02  0.51100000000E-03 0.  1.
         11   -1    0    0    0    0 -0.00000000000E+00 -0.00000000000E+00 -0.45593999997E+02  0.45594000000E+02  0.51100000000E-03 0. -1.
    9900012    2    1    2    0    0 -0.16976591249E+02 -0.12263421230E+02  0.38013516008E+02  0.47787267863E+02  0.19999985496E+02 0.  0.
         12    1    1    2    0    0  0.16976591249E+02  0.12263421230E+02 -0.38013516008E+02  0.43400732137E+02  0.00000000000E+00 0. -1.
         11    1    3    3    0    0 -0.99630054456E+00 -0.32184495167E+01  0.11467043782E+02  0.11951741523E+02  0.51100000000E-03 0. -1.
        -11    1    3    3    0    0  0.24005626435E+01  0.40001882081E+00  0.69193937460E+01  0.73348978272E+01  0.51100000000E-03 0.  1.
        -12    1    3    3    0    0 -0.18380853348E+02 -0.94449905343E+01  0.19627078480E+02  0.28500628513E+02  0.00000000000E+00 0.  1.
</event>
<event>
 7    1  0.2580704E-010  0.4778727E+02  0.7816164E-02  0.1312668E+00
        -11   -1    0    0    0    0  0.00000000000E+00  0.00000000000E+00  0.45593999997E+02  0.45594000000E+02  0.51100000000E-03 0.  1.
         11   -1    0    0    0    0 -0.00000000000E+00 -0.00000000000E+00 -0.45593999997E+02  0.45594000000E+02  0.51100000000E-03 0. -1.
    9900012    2    1    2    0    0  0.28354562605E+02 -0.11338690745E+02  0.30839521171E+02  0.47787271960E+02  0.20000004173E+02 0.  0.
         12    1    1    2    0    0 -0.28354562605E+02  0.11338690745E+02 -0.30839521171E+02  0.43400728040E+02  0.00000000000E+00 0. -1.
         11    1    3    3    0    0  0.10284701776E+01 -0.27840326156E+01  0.66549131925E+00  0.30416225059E+01  0.51100000000E-03 0. -1.
        -11    1    3    3    0    0  0.15449969242E+02  0.33385913972E+01  0.11052981908E+02  0.19287720223E+02  0.51100000000E-03 0.  1.
        -12    1    3    3    0    0  0.11876123186E+02 -0.11893249527E+02  0.19121047944E+02  0.25457929230E+02  0.00000000000E+00 0.  1.
</event>
<event>
 7    1  0.2580704E-010  0.4778727E+02  0.7816164E-02  0.1312668E+00
        -11   -1    0    0    0    0  0.00000000000E+00  0.00000000000E+00  0.45593999997E+02  0.45594000000E+02  0.51100000000E-03 0.  1.
         11   -1    0    0    0    0 -0.00000000000E+00 -0.00000000000E+00 -0.45593999997E+02  0.45594000000E+02  0.51100000000E-03 0. -1.
    9900012    2    1    2    0    0 -0.28201195600E+01 -0.40522027543E+02  0.15285131304E+02  0.47787273860E+02  0.20000012836E+02 0.  0.
         12    1    1    2    0    0  0.28201195600E+01  0.40522027543E+02 -0.15285131304E+02  0.43400726140E+02  0.00000000000E+00 0. -1.
         11    1    3    3    0    0  0.43281481949E+01 -0.29932209936E+01  0.15448683403E+01  0.54844194919E+01  0.51100000000E-03 0. -1.
        -11    1    3    3    0    0 -0.19226299267E-01 -0.12414697141E+02  0.99765293819E+01  0.15926588258E+02  0.51100000000E-03 0.  1.
         12    1    3    3    0    0 -0.71290414556E+01 -0.25114109408E+02  0.37637335821E+01  0.26376266110E+02  0.00000000000E+00 0. -1.
</event>
<event>
 7    1  0.2580704E-010  0.4778726E+02  0.7816164E-02  0.1312668E+00
        -11   -1    0    0    0    0  0.00000000000E+00  0.00000000000E+00  0.45593999997E+02  0.45594000000E+02  0.51100000000E-03 0.  1.
         11   -1    0    0    0    0 -0.00000000000E+00 -0.00000000000E+00 -0.45593999997E+02  0.45594000000E+02  0.51100000000E-03 0. -1.
    9900012    2    1    2    0    0  0.26619312097E+02 -0.10596763711E+02  0.32599767129E+02  0.47787262742E+02  0.19999962145E+02 0.  0.
         12    1    1    2    0    0 -0.26619312097E+02  0.10596763711E+02 -0.32599767129E+02  0.43400737258E+02  0.00000000000E+00 0. -1.
         11    1    3    3    0    0  0.94613509770E+01 -0.91106304550E+01  0.61446254249E+01  0.14500936917E+02  0.51100000000E-03 0. -1.
        -11    1    3    3    0    0  0.26937948803E+01 -0.31675935807E+01  0.15519911945E+01  0.44383394280E+01  0.51100000000E-03 0.  1.
        -12    1    3    3    0    0  0.14464166240E+02  0.16814603248E+01  0.24903150510E+02  0.28847986397E+02  0.00000000000E+00 0.  1.
</event>
<event>
 7    1  0.2580704E-010  0.4778728E+02  0.7816164E-02  0.1312668E+00
        -11   -1    0    0    0    0  0.00000000000E+00  0.00000000000E+00  0.45593999997E+02  0.45594000000E+02  0.51100000000E-03 0.  1.
         11   -1    0    0    0    0 -0.00000000000E+00 -0.00000000000E+00 -0.45593999997E+02  0.45594000000E+02  0.51100000000E-03 0. -1.
    9900012    2    1    2    0    0 -0.71544089739E+01 -0.42350729227E+02  0.62332127086E+01  0.47787276797E+02  0.20000026230E+02 0.  0.
         12    1    1    2    0    0  0.71544089739E+01  0.42350729227E+02 -0.62332127086E+01  0.43400723203E+02  0.00000000000E+00 0. -1.
         11    1    3    3    0    0 -0.46907555991E+01 -0.16137777426E+02  0.54181528581E+01  0.17657503476E+02  0.51100000000E-03 0. -1.
        -11    1    3    3    0    0 -0.67793253972E+01 -0.23626348290E+02  0.27626993699E+01  0.24734512213E+02  0.51100000000E-03 0.  1.
         12    1    3    3    0    0  0.43156720224E+01 -0.25866035111E+01 -0.19476395194E+01  0.53952611082E+01  0.00000000000E+00 0. -1.
</event>
<event>
 7    1  0.2580704E-010  0.4778728E+02  0.7816164E-02  0.1312668E+00
        -11   -1    0    0    0    0  0.00000000000E+00  0.00000000000E+00  0.45593999997E+02  0.45594000000E+02  0.51100000000E-03 0. -1.
         11   -1    0    0    0    0 -0.00000000000E+00 -0.00000000000E+00 -0.45593999997E+02  0.45594000000E+02  0.51100000000E-03 0.  1.
    9900012    2    1    2    0    0 -0.31251209876E+02 -0.14619218169E+02 -0.26329892714E+02  0.47787275249E+02  0.20000019172E+02 0.  0.
         12    1    1    2    0    0  0.31251209876E+02  0.14619218169E+02  0.26329892714E+02  0.43400724751E+02  0.00000000000E+00 0. -1.
         11    1    3    3    0    0 -0.58594701180E+01 -0.25365779137E+01 -0.64121604325E+01  0.90489457535E+01  0.51100000000E-03 0.  1.
        -11    1    3    3    0    0 -0.16907779551E+02 -0.10424406914E+02 -0.22208678057E+02  0.29795413241E+02  0.51100000000E-03 0. -1.
         12    1    3    3    0    0 -0.84839602065E+01 -0.16582333413E+01  0.22909457764E+01  0.89429162553E+01  0.00000000000E+00 0. -1.
</event>
<event>
 7    1  0.2580704E-010  0.4778727E+02  0.7816164E-02  0.1312668E+00
        -11   -1    0    0    0    0  0.00000000000E+00  0.00000000000E+00  0.45593999997E+02  0.45594000000E+02  0.51100000000E-03 0. -1.
         11   -1    0    0    0    0 -0.00000000000E+00 -0.00000000000E+00 -0.45593999997E+02  0.45594000000E+02  0.51100000000E-03 0.  1.
    9900012    2    1    2    0    0 -0.25007891778E+02 -0.21140508593E+02 -0.28483466809E+02  0.47787266870E+02  0.19999980968E+02 0.  0.
         12    1    1    2    0    0  0.25007891778E+02  0.21140508593E+02  0.28483466809E+02  0.43400733130E+02  0.00000000000E+00 0. -1.
         11    1    3    3    0    0 -0.18384363882E+02 -0.14171608008E+02 -0.13942179244E+02  0.27077733864E+02  0.51100000000E-03 0. -1.
        -11    1    3    3    0    0 -0.62884204641E+01 -0.88437953415E+01 -0.15215840813E+02  0.18689001040E+02  0.51100000000E-03 0.  1.
         12    1    3    3    0    0 -0.33510743113E+00  0.18748947566E+01  0.67455324803E+00  0.20205319654E+01  0.00000000000E+00 0. -1.
</event>
<event>
 7    1  0.2580704E-010  0.4778727E+02  0.7816164E-02  0.1312668E+00
        -11   -1    0    0    0    0  0.00000000000E+00  0.00000000000E+00  0.45593999997E+02  0.45594000000E+02  0.51100000000E-03 0.  1.
         11   -1    0    0    0    0 -0.00000000000E+00 -0.00000000000E+00 -0.45593999997E+02  0.45594000000E+02  0.51100000000E-03 0. -1.
    9900012    2    1    2    0    0 -0.12065702274E+02  0.25575080937E+02  0.32923506554E+02  0.47787271664E+02  0.20000002823E+02 0.  0.
         12    1    1    2    0    0  0.12065702274E+02 -0.25575080937E+02 -0.32923506554E+02  0.43400728336E+02  0.00000000000E+00 0. -1.
         11    1    3    3    0    0 -0.36053398978E+01  0.14214165932E+02  0.91577568608E+01  0.17288883709E+02  0.51100000000E-03 0. -1.
        -11    1    3    3    0    0 -0.90315511975E+01  0.69346138796E+01  0.75080499327E+01  0.13639230211E+02  0.51100000000E-03 0.  1.
         12    1    3    3    0    0  0.57118882101E+00  0.44263011253E+01  0.16257699760E+02  0.16859157744E+02  0.00000000000E+00 0. -1.
</event>
<event>
 7    1  0.2580704E-010  0.4778727E+02  0.7816164E-02  0.1312668E+00
        -11   -1    0    0    0    0  0.00000000000E+00  0.00000000000E+00  0.45593999997E+02  0.45594000000E+02  0.51100000000E-03 0.  1.
         11   -1    0    0    0    0 -0.00000000000E+00 -0.00000000000E+00 -0.45593999997E+02  0.45594000000E+02  0.51100000000E-03 0. -1.
    9900012    2    1    2    0    0 -0.40910974300E+01 -0.43761989302E+01  0.42985286074E+02  0.47787274037E+02  0.20000013646E+02 0.  0.
         12    1    1    2    0    0  0.40910974300E+01  0.43761989302E+01 -0.42985286074E+02  0.43400725963E+02  0.00000000000E+00 0. -1.
         11    1    3    3    0    0 -0.32700334429E+00 -0.73858326738E+00 -0.17847372637E+01  0.19590109218E+01  0.51100000000E-03 0. -1.
        -11    1    3    3    0    0 -0.26893825959E+01  0.84739416045E+00  0.46077805838E+01  0.54020827262E+01  0.51100000000E-03 0.  1.
        -12    1    3    3    0    0 -0.10747114898E+01 -0.44850098232E+01  0.40162242753E+02  0.40426180389E+02  0.00000000000E+00 0.  1.
</event>
<event>
 7    1  0.2580704E-010  0.4778726E+02  0.7816164E-02  0.1312668E+00
        -11   -1    0    0    0    0  0.00000000000E+00  0.00000000000E+00  0.45593999997E+02  0.45594000000E+02  0.51100000000E-03 0. -1.
         11   -1    0    0    0    0 -0.00000000000E+00 -0.00000000000E+00 -0.45593999997E+02  0.45594000000E+02  0.51100000000E-03 0.  1.
    9900012    2    1    2    0    0  0.40335303080E+02 -0.11121258343E+01 -0.15982830679E+02  0.47787258359E+02  0.19999942162E+02 0.  0.
         12    1    1    2    0    0 -0.40335303080E+02  0.11121258343E+01  0.15982830679E+02  0.43400741641E+02  0.00000000000E+00 0. -1.
         11    1    3    3    0    0  0.13955123781E+02 -0.23156851939E+01 -0.70345723382E+00  0.14163429317E+02  0.51100000000E-03 0. -1.
        -11    1    3    3    0    0  0.23928406890E+02 -0.24828432618E+01 -0.84752409450E+01  0.25506134092E+02  0.51100000000E-03 0.  1.
         12    1    3    3    0    0  0.24517724092E+01  0.36864026214E+01 -0.68041325005E+01  0.81176949510E+01  0.00000000000E+00 0. -1.
</event>
<event>
 7    1  0.2580704E-010  0.4778727E+02  0.7816164E-02  0.1312668E+00
        -11   -1    0    0    0    0  0.00000000000E+00  0.00000000000E+00  0.45593999997E+02  0.45594000000E+02  0.51100000000E-03 0.  1.
         11   -1    0    0    0    0 -0.00000000000E+00 -0.00000000000E+00 -0.45593999997E+02  0.45594000000E+02  0.51100000000E-03 0. -1.
    9900012    2    1    2    0    0 -0.27267674056E+01  0.39104914542E+02  0.18627759853E+02  0.47787273751E+02  0.20000012341E+02 0.  0.
         12    1    1    2    0    0  0.27267674056E+01 -0.39104914542E+02 -0.18627759853E+02  0.43400726249E+02  0.00000000000E+00 0. -1.
         11    1    3    3    0    0  0.31280576573E+01  0.96063019802E+00  0.44357182458E+01  0.55120914090E+01  0.51100000000E-03 0. -1.
        -11    1    3    3    0    0 -0.32126603420E+01  0.62822147525E+01  0.60218675754E+01  0.92763299869E+01  0.51100000000E-03 0.  1.
         12    1    3    3    0    0 -0.26421647208E+01  0.31862069591E+02  0.81701740315E+01  0.32998852355E+02  0.00000000000E+00 0. -1.
</event>
<event>
 7    1  0.2580704E-010  0.4778727E+02  0.7816164E-02  0.1312668E+00
        -11   -1    0    0    0    0  0.00000000000E+00  0.00000000000E+00  0.45593999997E+02  0.45594000000E+02  0.51100000000E-03 0.  1.
         11   -1    0    0    0    0 -0.00000000000E+00 -0.00000000000E+00 -0.45593999997E+02  0.45594000000E+02  0.51100000000E-03 0. -1.
    9900012    2    1    2    0    0  0.30577703422E+01 -0.10889537975E+02  0.41900970553E+02  0.47787270397E+02  0.19999997050E+02 0.  0.
         12    1    1    2    0    0 -0.30577703422E+01  0.10889537975E+02 -0.41900970553E+02  0.43400729603E+02  0.00000000000E+00 0. -1.
         11    1    3    3    0    0  0.81480492003E+01 -0.49651713768E+01  0.20424359828E+02  0.22543249704E+02  0.51100000000E-03 0. -1.
        -11    1    3    3    0    0 -0.45556447180E+00  0.27730549448E+01  0.21104294494E+01  0.35144395623E+01  0.51100000000E-03 0.  1.
         12    1    3    3    0    0 -0.46347143862E+01 -0.86974215428E+01  0.19366181275E+02  0.21729581131E+02  0.00000000000E+00 0. -1.
</event>
<event>
 7    1  0.2580704E-010  0.4778727E+02  0.7816164E-02  0.1312668E+00
        -11   -1    0    0    0    0  0.00000000000E+00  0.00000000000E+00  0.45593999997E+02  0.45594000000E+02  0.51100000000E-03 0. -1.
         11   -1    0    0    0    0 -0.00000000000E+00 -0.00000000000E+00 -0.45593999997E+02  0.45594000000E+02  0.51100000000E-03 0.  1.
    9900012    2    1    2    0    0 -0.42492799215E+02  0.51484772577E+01 -0.71748502241E+01  0.47787270986E+02  0.19999999733E+02 0.  0.
         12    1    1    2    0    0  0.42492799215E+02 -0.51484772577E+01  0.71748502241E+01  0.43400729014E+02  0.00000000000E+00 0. -1.
         11    1    3    3    0    0 -0.93785952087E+01  0.46455322563E+01  0.12321049278E+01  0.10538363291E+02  0.51100000000E-03 0. -1.
        -11    1    3    3    0    0 -0.22646496394E+02 -0.95199115603E+00  0.15625459782E+01  0.22720291289E+02  0.51100000000E-03 0.  1.
        -12    1    3    3    0    0 -0.10467707613E+02  0.14549361574E+01 -0.99695011302E+01  0.14528616406E+02  0.00000000000E+00 0.  1.
</event>
<event>
 7    1  0.2580704E-010  0.4778727E+02  0.7816164E-02  0.1312668E+00
        -11   -1    0    0    0    0  0.00000000000E+00  0.00000000000E+00  0.45593999997E+02  0.45594000000E+02  0.51100000000E-03 0.  1.
         11   -1    0    0    0    0 -0.00000000000E+00 -0.00000000000E+00 -0.45593999997E+02  0.45594000000E+02  0.51100000000E-03 0. -1.
    9900012    2    1    2    0    0 -0.14380486280E+02  0.10213292735E+02  0.39654931060E+02  0.47787270841E+02  0.19999999071E+02 0.  0.
         12    1    1    2    0    0  0.14380486280E+02 -0.10213292735E+02 -0.39654931060E+02  0.43400729159E+02  0.00000000000E+00 0. -1.
         11    1    3    3    0    0  0.42414690681E+01 -0.86270340401E+00  0.97386297885E+01  0.10657167890E+02  0.51100000000E-03 0. -1.
        -11    1    3    3    0    0 -0.41170637606E+01  0.40555016707E+01  0.64094978458E+01  0.86301199706E+01  0.51100000000E-03 0.  1.
         12    1    3    3    0    0 -0.14504891588E+02  0.70204944685E+01  0.23506803426E+02  0.28499982980E+02  0.00000000000E+00 0. -1.
</event>
<event>
 7    1  0.2580704E-010  0.4778730E+02  0.7816164E-02  0.1312668E+00
        -11   -1    0    0    0    0  0.00000000000E+00  0.00000000000E+00  0.45593999997E+02  0.45594000000E+02  0.51100000000E-03 0.  1.
         11   -1    0    0    0    0 -0.00000000000E+00 -0.00000000000E+00 -0.45593999997E+02  0.45594000000E+02  0.51100000000E-03 0. -1.
    9900012    2    1    2    0    0 -0.39037652366E+02  0.12862868472E+02  0.13936611708E+02  0.47787299159E+02  0.20000128186E+02 0.  0.
         12    1    1    2    0    0  0.39037652366E+02 -0.12862868472E+02 -0.13936611708E+02  0.43400700841E+02  0.00000000000E+00 0. -1.
         11    1    3    3    0    0 -0.20043536831E+02  0.11646101650E+02  0.10271484640E+02  0.25355047807E+02  0.51100000000E-03 0. -1.
        -11    1    3    3    0    0 -0.10059923989E+02  0.29497106300E+01  0.71473526691E+01  0.12688085510E+02  0.51100000000E-03 0.  1.
         12    1    3    3    0    0 -0.89341915462E+01 -0.17329438081E+01 -0.34822256007E+01  0.97441658423E+01  0.00000000000E+00 0. -1.
</event>
<event>
 7    1  0.2580704E-010  0.4778728E+02  0.7816164E-02  0.1312668E+00
        -11   -1    0    0    0    0  0.00000000000E+00  0.00000000000E+00  0.45593999997E+02  0.45594000000E+02  0.51100000000E-03 0.  1.
         11   -1    0    0    0    0 -0.00000000000E+00 -0.00000000000E+00 -0.45593999997E+02  0.45594000000E+02  0.51100000000E-03 0. -1.
    9900012    2    1    2    0    0  0.25231185933E+01  0.27158240157E+02  0.33759245724E+02  0.47787276415E+02  0.20000024485E+02 0.  0.
         12    1    1    2    0    0 -0.25231185933E+01 -0.27158240157E+02 -0.33759245724E+02  0.43400723585E+02  0.00000000000E+00 0. -1.
         11    1    3    3    0    0 -0.12267684585E+01 -0.63809939372E+00  0.34885593628E+01  0.37526228662E+01  0.51100000000E-03 0. -1.
        -11    1    3    3    0    0  0.32573291843E+01 -0.60463739264E+00  0.16133729227E+01  0.36849358529E+01  0.51100000000E-03 0.  1.
        -12    1    3    3    0    0  0.49255786746E+00  0.28400976943E+02  0.28657313439E+02  0.40349717696E+02  0.00000000000E+00 0.  1.
</event>
<event>
 7    1  0.2580704E-010  0.4778727E+02  0.7816164E-02  0.1312668E+00
        -11   -1    0    0    0    0  0.00000000000E+00  0.00000000000E+00  0.45593999997E+02  0.45594000000E+02  0.51100000000E-03 0.  1.
         11   -1    0    0    0    0 -0.00000000000E+00 -0.00000000000E+00 -0.45593999997E+02  0.45594000000E+02  0.51100000000E-03 0. -1.
    9900012    2    1    2    0    0 -0.42076260790E+02  0.25707551520E+01 -0.10324867314E+02  0.47787269716E+02  0.19999993942E+02 0.  0.
         12    1    1    2    0    0  0.42076260790E+02 -0.25707551520E+01  0.10324867314E+02  0.43400730284E+02  0.00000000000E+00 0. -1.
         11    1    3    3    0    0 -0.16743857430E+02 -0.19341510120E+01 -0.87946389272E+01  0.19011664206E+02  0.51100000000E-03 0. -1.
        -11    1    3    3    0    0 -0.12405845439E+02 -0.42430059228E+01 -0.23365569614E+00  0.13113454753E+02  0.51100000000E-03 0.  1.
        -12    1    3    3    0    0 -0.12926557922E+02  0.87479120868E+01 -0.12965726910E+01  0.15662150757E+02  0.00000000000E+00 0.  1.
</event>
<event>
 7    1  0.2878125E-010  0.4778728E+02  0.7816164E-02  0.1312668E+00
        -11   -1    0    0    0    0  0.00000000000E+00  0.00000000000E+00  0.45593999997E+02  0.45594000000E+02  0.51100000000E-03 0. -1.
         11   -1    0    0    0    0 -0.00000000000E+00 -0.00000000000E+00 -0.45593999997E+02  0.45594000000E+02  0.51100000000E-03 0.  1.
    9900012    2    1    2    0    0 -0.92751742449E+01  0.40649227987E+02 -0.12051312706E+02  0.47787277297E+02  0.20000028508E+02 0.  0.
         12    1    1    2    0    0  0.92751742449E+01 -0.40649227987E+02  0.12051312706E+02  0.43400722703E+02  0.00000000000E+00 0. -1.
         11    1    3    3    0    0  0.19743688609E+01  0.37240329421E+01 -0.45450557755E+01  0.61987164813E+01  0.51100000000E-03 0. -1.
        -11    1    3    3    0    0 -0.75536496717E+01  0.25553413443E+02 -0.11443389610E+02  0.28999753930E+02  0.51100000000E-03 0.  1.
        -12    1    3    3    0    0 -0.36958934342E+01  0.11371781601E+02  0.39371326798E+01  0.12588806886E+02  0.00000000000E+00 0.  1.
</event>
<event>
 7    1  0.2580704E-010  0.4778726E+02  0.7816164E-02  0.1312668E+00
        -11   -1    0    0    0    0  0.00000000000E+00  0.00000000000E+00  0.45593999997E+02  0.45594000000E+02  0.51100000000E-03 0.  1.
         11   -1    0    0    0    0 -0.00000000000E+00 -0.00000000000E+00 -0.45593999997E+02  0.45594000000E+02  0.51100000000E-03 0. -1.
    9900012    2    1    2    0    0 -0.79790757681E+01 -0.40828189892E+02 -0.12370010690E+02  0.47787263780E+02  0.19999966880E+02 0.  0.
         12    1    1    2    0    0  0.79790757681E+01  0.40828189892E+02  0.12370010690E+02  0.43400736220E+02  0.00000000000E+00 0. -1.
         11    1    3    3    0    0 -0.67248025935E+01 -0.20803151356E+02 -0.37936330026E+01  0.22189766287E+02  0.51100000000E-03 0. -1.
        -11    1    3    3    0    0 -0.38857181872E+01 -0.19962068609E+02 -0.46354108833E+01  0.20858332227E+02  0.51100000000E-03 0.  1.
         12    1    3    3    0    0  0.26314450126E+01 -0.62969926791E-01 -0.39409668042E+01  0.47391652660E+01  0.00000000000E+00 0. -1.
</event>
<event>
 7    1  0.2580704E-010  0.4778727E+02  0.7816164E-02  0.1312668E+00
        -11   -1    0    0    0    0  0.00000000000E+00  0.00000000000E+00  0.45593999997E+02  0.45594000000E+02  0.51100000000E-03 0.  1.
         11   -1    0    0    0    0 -0.00000000000E+00 -0.00000000000E+00 -0.45593999997E+02  0.45594000000E+02  0.51100000000E-03 0. -1.
    9900012    2    1    2    0    0  0.26412929978E+02  0.78646174948E+01  0.33528021977E+02  0.47787270328E+02  0.19999996733E+02 0.  0.
         12    1    1    2    0    0 -0.26412929978E+02 -0.78646174948E+01 -0.33528021977E+02  0.43400729672E+02  0.00000000000E+00 0. -1.
         11    1    3    3    0    0  0.47280106843E+01 -0.48640645059E+01  0.57567564494E+01  0.88968226703E+01  0.51100000000E-03 0. -1.
        -11    1    3    3    0    0  0.15312829748E+02  0.30132000768E+01  0.16001979032E+02  0.22352303300E+02  0.51100000000E-03 0.  1.
         12    1    3    3    0    0  0.63720895459E+01  0.97154819240E+01  0.11769286496E+02  0.16538144358E+02  0.00000000000E+00 0. -1.
</event>
<event>
 7    1  0.2580704E-010  0.4778725E+02  0.7816164E-02  0.1312668E+00
        -11   -1    0    0    0    0  0.00000000000E+00  0.00000000000E+00  0.45593999997E+02  0.45594000000E+02  0.51100000000E-03 0. -1.
         11   -1    0    0    0    0 -0.00000000000E+00 -0.00000000000E+00 -0.45593999997E+02  0.45594000000E+02  0.51100000000E-03 0.  1.
    9900012    2    1    2    0    0  0.26528514492E+02 -0.33228998895E+02 -0.87003769045E+01  0.47787251078E+02  0.19999908964E+02 0.  0.
         12    1    1    2    0    0 -0.26528514492E+02  0.33228998895E+02  0.87003769045E+01  0.43400748922E+02  0.00000000000E+00 0. -1.
         11    1    3    3    0    0  0.15088374797E+02 -0.11215633634E+02 -0.83832287993E+00  0.18818934012E+02  0.51100000000E-03 0. -1.
        -11    1    3    3    0    0  0.13741419730E+02 -0.15637273516E+02 -0.41045363882E+01  0.21217873560E+02  0.51100000000E-03 0.  1.
         12    1    3    3    0    0 -0.23012800350E+01 -0.63760917454E+01 -0.37575176364E+01  0.77504435056E+01  0.00000000000E+00 0. -1.
</event>
<event>
 7    1  0.2580704E-010  0.4778728E+02  0.7816164E-02  0.1312668E+00
        -11   -1    0    0    0    0  0.00000000000E+00  0.00000000000E+00  0.45593999997E+02  0.45594000000E+02  0.51100000000E-03 0.  1.
         11   -1    0    0    0    0 -0.00000000000E+00 -0.00000000000E+00 -0.45593999997E+02  0.45594000000E+02  0.51100000000E-03 0. -1.
    9900012    2    1    2    0    0  0.32783254934E+02 -0.19782519460E+02  0.20433625161E+02  0.47787275150E+02  0.20000018721E+02 0.  0.
         12    1    1    2    0    0 -0.32783254934E+02  0.19782519460E+02 -0.20433625161E+02  0.43400724850E+02  0.00000000000E+00 0. -1.
         11    1    3    3    0    0  0.15264685472E+01  0.14698920611E+01 -0.88257872642E+00  0.22955684190E+01  0.51100000000E-03 0. -1.
        -11    1    3    3    0    0  0.23353105171E+02 -0.11350401733E+02  0.81373844157E+01  0.27210589226E+02  0.51100000000E-03 0.  1.
         12    1    3    3    0    0  0.79036812163E+01 -0.99020097878E+01  0.13178819471E+02  0.18281117506E+02  0.00000000000E+00 0. -1.
</event>
<event>
 7    1  0.2580704E-010  0.4778727E+02  0.7816164E-02  0.1312668E+00
        -11   -1    0    0    0    0  0.00000000000E+00  0.00000000000E+00  0.45593999997E+02  0.45594000000E+02  0.51100000000E-03 0. -1.
         11   -1    0    0    0    0 -0.00000000000E+00 -0.00000000000E+00 -0.45593999997E+02  0.45594000000E+02  0.51100000000E-03 0.  1.
    9900012    2    1    2    0    0  0.40397337130E+02  0.63877777435E+00 -0.15851508850E+02  0.47787271699E+02  0.20000002983E+02 0.  0.
         12    1    1    2    0    0 -0.40397337130E+02 -0.63877777435E+00  0.15851508850E+02  0.43400728301E+02  0.00000000000E+00 0. -1.
         11    1    3    3    0    0  0.74320640425E+00  0.13871895143E+01 -0.33553717250E+01  0.37060990519E+01  0.51100000000E-03 0.  1.
        -11    1    3    3    0    0  0.95202744881E+01  0.61179877958E+01 -0.43059655777E+01  0.12108127057E+02  0.51100000000E-03 0. -1.
        -12    1    3    3    0    0  0.30133856238E+02 -0.68663995357E+01 -0.81901715477E+01  0.31973045590E+02  0.00000000000E+00 0.  1.
</event>
<event>
 7    1  0.2580704E-010  0.4778727E+02  0.7816164E-02  0.1312668E+00
        -11   -1    0    0    0    0  0.00000000000E+00  0.00000000000E+00  0.45593999997E+02  0.45594000000E+02  0.51100000000E-03 0.  1.
         11   -1    0    0    0    0 -0.00000000000E+00 -0.00000000000E+00 -0.45593999997E+02  0.45594000000E+02  0.51100000000E-03 0. -1.
    9900012    2    1    2    0    0  0.27950272599E+02  0.18697818694E+02  0.27437147025E+02  0.47787271905E+02  0.20000003925E+02 0.  0.
         12    1    1    2    0    0 -0.27950272599E+02 -0.18697818694E+02 -0.27437147025E+02  0.43400728095E+02  0.00000000000E+00 0. -1.
         11    1    3    3    0    0  0.17164736188E-02  0.42457090378E+01 -0.12450733441E+01  0.44245063084E+01  0.51100000000E-03 0. -1.
        -11    1    3    3    0    0  0.14981753822E+01  0.31271344073E+01  0.50661348262E+01  0.61391547802E+01  0.51100000000E-03 0.  1.
        -12    1    3    3    0    0  0.26450380743E+02  0.11324975249E+02  0.23616085543E+02  0.37223610817E+02  0.00000000000E+00 0.  1.
</event>
<event>
 7    1  0.2580704E-010  0.4778727E+02  0.7816164E-02  0.1312668E+00
        -11   -1    0    0    0    0  0.00000000000E+00  0.00000000000E+00  0.45593999997E+02  0.45594000000E+02  0.51100000000E-03 0.  1.
         11   -1    0    0    0    0 -0.00000000000E+00 -0.00000000000E+00 -0.45593999997E+02  0.45594000000E+02  0.51100000000E-03 0. -1.
    9900012    2    1    2    0    0  0.89335292368E+01 -0.22988606767E+02  0.35711891248E+02  0.47787272331E+02  0.20000005865E+02 0.  0.
         12    1    1    2    0    0 -0.89335292368E+01  0.22988606767E+02 -0.35711891248E+02  0.43400727669E+02  0.00000000000E+00 0. -1.
         11    1    3    3    0    0  0.26025967588E+01 -0.90692223140E+01  0.71269878285E+01  0.11824477115E+02  0.51100000000E-03 0. -1.
        -11    1    3    3    0    0  0.98974298085E+01 -0.11587285330E+02  0.13740643266E+02  0.20519005233E+02  0.51100000000E-03 0.  1.
         12    1    3    3    0    0 -0.35664973305E+01 -0.23320991230E+01  0.14844260154E+02  0.15443789983E+02  0.00000000000E+00 0. -1.
</event>
<event>
 7    1  0.2580704E-010  0.4778727E+02  0.7816164E-02  0.1312668E+00
        -11   -1    0    0    0    0  0.00000000000E+00  0.00000000000E+00  0.45593999997E+02  0.45594000000E+02  0.51100000000E-03 0.  1.
         11   -1    0    0    0    0 -0.00000000000E+00 -0.00000000000E+00 -0.45593999997E+02  0.45594000000E+02  0.51100000000E-03 0. -1.
    9900012    2    1    2    0    0 -0.15808123384E+02  0.40305175714E+02  0.30363771348E+01  0.47787267975E+02  0.19999986004E+02 0.  0.
         12    1    1    2    0    0  0.15808123384E+02 -0.40305175714E+02 -0.30363771348E+01  0.43400732025E+02  0.00000000000E+00 0. -1.
         11    1    3    3    0    0 -0.20899221536E+01  0.43141472484E+01  0.56649816698E+01  0.74210281409E+01  0.51100000000E-03 0. -1.
        -11    1    3    3    0    0  0.12151411053E+01  0.86867604019E+01 -0.29171973854E+01  0.92437230071E+01  0.51100000000E-03 0.  1.
        -12    1    3    3    0    0 -0.14933342336E+02  0.27304268063E+02  0.28859285048E+00  0.31122516827E+02  0.00000000000E+00 0.  1.
</event>
<event>
 7    1  0.2580704E-010  0.4778726E+02  0.7816164E-02  0.1312668E+00
        -11   -1    0    0    0    0  0.00000000000E+00  0.00000000000E+00  0.45593999997E+02  0.45594000000E+02  0.51100000000E-03 0. -1.
         11   -1    0    0    0    0 -0.00000000000E+00 -0.00000000000E+00 -0.45593999997E+02  0.45594000000E+02  0.51100000000E-03 0.  1.
    9900012    2    1    2    0    0 -0.43122078420E+02  0.39977724796E+01  0.28509927457E+01  0.47787262774E+02  0.19999962293E+02 0.  0.
         12    1    1    2    0    0  0.43122078420E+02 -0.39977724796E+01 -0.28509927457E+01  0.43400737226E+02  0.00000000000E+00 0. -1.
         11    1    3    3    0    0 -0.10493311715E+02  0.35874279153E+01  0.37969588478E+00  0.11096098370E+02  0.51100000000E-03 0. -1.
        -11    1    3    3    0    0 -0.26931593765E+02  0.83560760798E+00  0.86278941402E+01  0.28292216957E+02  0.51100000000E-03 0.  1.
         12    1    3    3    0    0 -0.56971729401E+01 -0.42526304365E+00 -0.61565972792E+01  0.83989474474E+01  0.00000000000E+00 0. -1.
</event>
<event>
 7    1  0.2580704E-010  0.4778727E+02  0.7816164E-02  0.1312668E+00
        -11   -1    0    0    0    0  0.00000000000E+00  0.00000000000E+00  0.45593999997E+02  0.45594000000E+02  0.51100000000E-03 0. -1.
         11   -1    0    0    0    0 -0.00000000000E+00 -0.00000000000E+00 -0.45593999997E+02  0.45594000000E+02  0.51100000000E-03 0.  1.
    9900012    2    1    2    0    0  0.23014532396E+02  0.17723962061E+01 -0.36753408471E+02  0.47787272772E+02  0.20000007876E+02 0.  0.
         12    1    1    2    0    0 -0.23014532396E+02 -0.17723962061E+01  0.36753408471E+02  0.43400727228E+02  0.00000000000E+00 0. -1.
         11    1    3    3    0    0  0.34050916034E+00 -0.31908062588E+01 -0.12521449304E+01  0.34445693863E+01  0.51100000000E-03 0. -1.
        -11    1    3    3    0    0  0.46744118901E+00 -0.21982221185E+01 -0.54144331041E+00  0.23116753377E+01  0.51100000000E-03 0.  1.
         12    1    3    3    0    0  0.22206582047E+02  0.71614245834E+01 -0.34959820230E+02  0.42031028048E+02  0.00000000000E+00 0. -1.
</event>
<event>
 7    1  0.2580704E-010  0.4778727E+02  0.7816164E-02  0.1312668E+00
        -11   -1    0    0    0    0  0.00000000000E+00  0.00000000000E+00  0.45593999997E+02  0.45594000000E+02  0.51100000000E-03 0.  1.
         11   -1    0    0    0    0 -0.00000000000E+00 -0.00000000000E+00 -0.45593999997E+02  0.45594000000E+02  0.51100000000E-03 0. -1.
    9900012    2    1    2    0    0  0.32324075238E+02  0.19897772810E+02  0.21044146377E+02  0.47787270749E+02  0.19999998654E+02 0.  0.
         12    1    1    2    0    0 -0.32324075238E+02 -0.19897772810E+02 -0.21044146377E+02  0.43400729251E+02  0.00000000000E+00 0. -1.
         11    1    3    3    0    0  0.14131285998E+02  0.37984588065E+01  0.14625956181E+02  0.20689130666E+02  0.51100000000E-03 0. -1.
        -11    1    3    3    0    0  0.14573533101E+02  0.10277057228E+02  0.87410658309E+01  0.19859808772E+02  0.51100000000E-03 0.  1.
         12    1    3    3    0    0  0.36192561386E+01  0.58222567751E+01 -0.23228756353E+01  0.72383313110E+01  0.00000000000E+00 0. -1.
</event>
<event>
 7    1  0.2580704E-010  0.4778727E+02  0.7816164E-02  0.1312668E+00
        -11   -1    0    0    0    0  0.00000000000E+00  0.00000000000E+00  0.45593999997E+02  0.45594000000E+02  0.51100000000E-03 0. -1.
         11   -1    0    0    0    0 -0.00000000000E+00 -0.00000000000E+00 -0.45593999997E+02  0.45594000000E+02  0.51100000000E-03 0.  1.
    9900012    2    1    2    0    0 -0.42077253271E+02  0.95933719845E+01 -0.45929479787E+01  0.47787271895E+02  0.20000003878E+02 0.  0.
         12    1    1    2    0    0  0.42077253271E+02 -0.95933719845E+01  0.45929479787E+01  0.43400728105E+02  0.00000000000E+00 0. -1.
         11    1    3    3    0    0 -0.59222938720E+00  0.27628687959E+01  0.79147940842E+00  0.29343857186E+01  0.51100000000E-03 0. -1.
        -11    1    3    3    0    0 -0.64557213543E+01 -0.22580963236E+01 -0.53182624315E+01  0.86636743223E+01  0.51100000000E-03 0.  1.
        -12    1    3    3    0    0 -0.35029302530E+02  0.90885995122E+01 -0.66164955561E-01  0.36189211854E+02  0.00000000000E+00 0.  1.
</event>
<event>
 7    1  0.3864254E-010  0.4778729E+02  0.7816164E-02  0.1312668E+00
        -11   -1    0    0    0    0  0.00000000000E+00  0.00000000000E+00  0.45593999997E+02  0.45594000000E+02  0.51100000000E-03 0. -1.
         11   -1    0    0    0    0 -0.00000000000E+00 -0.00000000000E+00 -0.45593999997E+02  0.45594000000E+02  0.51100000000E-03 0.  1.
    9900012    2    1    2    0    0 -0.40665497230E+02 -0.62027171876E+01 -0.13837085933E+02  0.47787293639E+02  0.20000103018E+02 0.  0.
         12    1    1    2    0    0  0.40665497230E+02  0.62027171876E+01  0.13837085933E+02  0.43400706361E+02  0.00000000000E+00 0. -1.
         11    1    3    3    0    0 -0.39072505022E+01  0.73785401484E-01  0.19085923156E+01  0.43491120543E+01  0.51100000000E-03 0. -1.
        -11    1    3    3    0    0 -0.29095233151E+02 -0.11205892792E+02 -0.10364167045E+02  0.32856058561E+02  0.51100000000E-03 0.  1.
        -12    1    3    3    0    0 -0.76630135776E+01  0.49293902026E+01 -0.53815112039E+01  0.10582123024E+02  0.00000000000E+00 0.  1.
</event>
<event>
 7    1  0.2580704E-010  0.4778727E+02  0.7816164E-02  0.1312668E+00
        -11   -1    0    0    0    0  0.00000000000E+00  0.00000000000E+00  0.45593999997E+02  0.45594000000E+02  0.51100000000E-03 0. -1.
         11   -1    0    0    0    0 -0.00000000000E+00 -0.00000000000E+00 -0.45593999997E+02  0.45594000000E+02  0.51100000000E-03 0.  1.
    9900012    2    1    2    0    0  0.16089419545E+01  0.24878268554E+02 -0.35526142599E+02  0.47787265578E+02  0.19999975075E+02 0.  0.
         12    1    1    2    0    0 -0.16089419545E+01 -0.24878268554E+02  0.35526142599E+02  0.43400734422E+02  0.00000000000E+00 0. -1.
         11    1    3    3    0    0  0.13303970101E+01 -0.55195549962E+00  0.11288428717E+01  0.18299993355E+01  0.51100000000E-03 0. -1.
        -11    1    3    3    0    0  0.26699359355E+01  0.69148078758E+01 -0.18440883622E+02  0.19874841254E+02  0.51100000000E-03 0.  1.
        -12    1    3    3    0    0 -0.23913909910E+01  0.18515416178E+02 -0.18214101848E+02  0.26082424988E+02  0.00000000000E+00 0.  1.
</event>
<event>
 7    1  0.2580704E-010  0.4778727E+02  0.7816164E-02  0.1312668E+00
        -11   -1    0    0    0    0  0.00000000000E+00  0.00000000000E+00  0.45593999997E+02  0.45594000000E+02  0.51100000000E-03 0. -1.
         11   -1    0    0    0    0 -0.00000000000E+00 -0.00000000000E+00 -0.45593999997E+02  0.45594000000E+02  0.51100000000E-03 0.  1.
    9900012    2    1    2    0    0  0.31308093666E+02 -0.29678364182E+02 -0.47561636750E+01  0.47787272789E+02  0.20000007955E+02 0.  0.
         12    1    1    2    0    0 -0.31308093666E+02  0.29678364182E+02  0.47561636750E+01  0.43400727211E+02  0.00000000000E+00 0. -1.
         11    1    3    3    0    0  0.23541824868E+01  0.16490166713E+01 -0.25056848425E+01  0.38131205009E+01  0.51100000000E-03 0. -1.
        -11    1    3    3    0    0  0.57000587753E+01 -0.57694465332E+01 -0.46298086443E+01  0.93387532190E+01  0.51100000000E-03 0.  1.
         12    1    3    3    0    0  0.23253852404E+02 -0.25557934320E+02  0.23793298118E+01  0.34635399069E+02  0.00000000000E+00 0. -1.
</event>
<event>
 7    1  0.2580704E-010  0.4778727E+02  0.7816164E-02  0.1312668E+00
        -11   -1    0    0    0    0  0.00000000000E+00  0.00000000000E+00  0.45593999997E+02  0.45594000000E+02  0.51100000000E-03 0. -1.
         11   -1    0    0    0    0 -0.00000000000E+00 -0.00000000000E+00 -0.45593999997E+02  0.45594000000E+02  0.51100000000E-03 0.  1.
    9900012    2    1    2    0    0  0.27899942896E+02 -0.27316766402E+02 -0.18947574886E+02  0.47787272652E+02  0.20000007331E+02 0.  0.
         12    1    1    2    0    0 -0.27899942896E+02  0.27316766402E+02  0.18947574886E+02  0.43400727348E+02  0.00000000000E+00 0. -1.
         11    1    3    3    0    0 -0.73312891436E+00  0.11703867451E+01  0.18555476396E+00  0.13934539712E+01  0.51100000000E-03 0. -1.
        -11    1    3    3    0    0  0.17280635975E+02 -0.91559232919E+01 -0.11630823494E+02  0.22753623150E+02  0.51100000000E-03 0.  1.
         12    1    3    3    0    0  0.11352435835E+02 -0.19331229855E+02 -0.75023061564E+01  0.23640195531E+02  0.00000000000E+00 0. -1.
</event>
<event>
 7    1  0.2580704E-010  0.4778727E+02  0.7816164E-02  0.1312668E+00
        -11   -1    0    0    0    0  0.00000000000E+00  0.00000000000E+00  0.45593999997E+02  0.45594000000E+02  0.51100000000E-03 0.  1.
         11   -1    0    0    0    0 -0.00000000000E+00 -0.00000000000E+00 -0.45593999997E+02  0.45594000000E+02  0.51100000000E-03 0. -1.
    9900012    2    1    2    0    0  0.16933461797E+02  0.13494114822E+01  0.39938204731E+02  0.47787271470E+02  0.20000001942E+02 0.  0.
         12    1    1    2    0    0 -0.16933461797E+02 -0.13494114822E+01 -0.39938204731E+02  0.43400728530E+02  0.00000000000E+00 0. -1.
         11    1    3    3    0    0  0.34936739011E+01 -0.53752008348E+01  0.10377148023E+02  0.12197694155E+02  0.51100000000E-03 0. -1.
        -11    1    3    3    0    0  0.10925459541E+02 -0.18959796490E+00  0.23989120346E+02  0.26360567308E+02  0.51100000000E-03 0.  1.
        -12    1    3    3    0    0  0.25143283549E+01  0.69142102819E+01  0.55719363622E+01  0.92290100077E+01  0.00000000000E+00 0.  1.
</event>
<event>
 7    1  0.2580704E-010  0.4778727E+02  0.7816164E-02  0.1312668E+00
        -11   -1    0    0    0    0  0.00000000000E+00  0.00000000000E+00  0.45593999997E+02  0.45594000000E+02  0.51100000000E-03 0. -1.
         11   -1    0    0    0    0 -0.00000000000E+00 -0.00000000000E+00 -0.45593999997E+02  0.45594000000E+02  0.51100000000E-03 0.  1.
    9900012    2    1    2    0    0  0.54427050111E+01 -0.79346891326E+00 -0.43050792538E+02  0.47787269950E+02  0.19999995009E+02 0.  0.
         12    1    1    2    0    0 -0.54427050111E+01  0.79346891326E+00  0.43050792538E+02  0.43400730050E+02  0.00000000000E+00 0. -1.
         11    1    3    3    0    0  0.35575272734E+01  0.28834763030E+01 -0.22014705363E+01  0.50810342131E+01  0.51100000000E-03 0. -1.
        -11    1    3    3    0    0 -0.45041298392E+01  0.35872734024E+00 -0.10514134856E+02  0.11443902436E+02  0.51100000000E-03 0.  1.
         12    1    3    3    0    0  0.63893075769E+01 -0.40356725566E+01 -0.30335187145E+02  0.31262333301E+02  0.00000000000E+00 0. -1.
</event>
<event>
 7    1  0.2580704E-010  0.4778727E+02  0.7816164E-02  0.1312668E+00
        -11   -1    0    0    0    0  0.00000000000E+00  0.00000000000E+00  0.45593999997E+02  0.45594000000E+02  0.51100000000E-03 0.  1.
         11   -1    0    0    0    0 -0.00000000000E+00 -0.00000000000E+00 -0.45593999997E+02  0.45594000000E+02  0.51100000000E-03 0. -1.
    9900012    2    1    2    0    0  0.88500335148E+01 -0.42234828904E+02 -0.46388884330E+01  0.47787272452E+02  0.20000006419E+02 0.  0.
         12    1    1    2    0    0 -0.88500335148E+01  0.42234828904E+02  0.46388884330E+01  0.43400727548E+02  0.00000000000E+00 0. -1.
         11    1    3    3    0    0 -0.30237999533E+01 -0.16113799806E+01  0.11396404453E+01  0.36109129323E+01  0.51100000000E-03 0. -1.
        -11    1    3    3    0    0 -0.31204121077E+00 -0.83664083146E+01 -0.48631222191E+01  0.96821545011E+01  0.51100000000E-03 0.  1.
         12    1    3    3    0    0  0.12185874679E+02 -0.32257040609E+02 -0.91540665921E+00  0.34494205019E+02  0.00000000000E+00 0. -1.
</event>
<event>
 7    1  0.2580704E-010  0.4778727E+02  0.7816164E-02  0.1312668E+00
        -11   -1    0    0    0    0  0.00000000000E+00  0.00000000000E+00  0.45593999997E+02  0.45594000000E+02  0.51100000000E-03 0.  1.
         11   -1    0    0    0    0 -0.00000000000E+00 -0.00000000000E+00 -0.45593999997E+02  0.45594000000E+02  0.51100000000E-03 0. -1.
    9900012    2    1    2    0    0 -0.40013751718E+02 -0.27086043093E+00  0.16806233880E+02  0.47787272020E+02  0.20000004449E+02 0.  0.
         12    1    1    2    0    0  0.40013751718E+02  0.27086043093E+00 -0.16806233880E+02  0.43400727980E+02  0.00000000000E+00 0. -1.
         11    1    3    3    0    0 -0.17471877585E+02 -0.31193425070E+01 -0.15147209997E+01  0.17812669199E+02  0.51100000000E-03 0. -1.
        -11    1    3    3    0    0 -0.13568495507E+02  0.19074395069E-02  0.70547762535E+01  0.15292937658E+02  0.51100000000E-03 0.  1.
         12    1    3    3    0    0 -0.89733786263E+01  0.28465746366E+01  0.11266178627E+02  0.14681665164E+02  0.00000000000E+00 0. -1.
</event>
<event>
 7    1  0.2580704E-010  0.4778727E+02  0.7816164E-02  0.1312668E+00
        -11   -1    0    0    0    0  0.00000000000E+00  0.00000000000E+00  0.45593999997E+02  0.45594000000E+02  0.51100000000E-03 0. -1.
         11   -1    0    0    0    0 -0.00000000000E+00 -0.00000000000E+00 -0.45593999997E+02  0.45594000000E+02  0.51100000000E-03 0.  1.
    9900012    2    1    2    0    0  0.42023412760E+00 -0.16159360391E+02 -0.40278053787E+02  0.47787272566E+02  0.20000006937E+02 0.  0.
         12    1    1    2    0    0 -0.42023412760E+00  0.16159360391E+02  0.40278053787E+02  0.43400727434E+02  0.00000000000E+00 0. -1.
         11    1    3    3    0    0 -0.68900220485E+00  0.16240445655E+01 -0.53794486654E+01  0.56613349127E+01  0.51100000000E-03 0. -1.
        -11    1    3    3    0    0  0.69727713978E+01 -0.83479489323E+01 -0.24932240733E+02  0.27201551804E+02  0.51100000000E-03 0.  1.
         12    1    3    3    0    0 -0.58635350654E+01 -0.94354560243E+01 -0.99663643883E+01  0.14924385849E+02  0.00000000000E+00 0. -1.
</event>
<event>
 7    1  0.2580704E-010  0.4778727E+02  0.7816164E-02  0.1312668E+00
        -11   -1    0    0    0    0  0.00000000000E+00  0.00000000000E+00  0.45593999997E+02  0.45594000000E+02  0.51100000000E-03 0.  1.
         11   -1    0    0    0    0 -0.00000000000E+00 -0.00000000000E+00 -0.45593999997E+02  0.45594000000E+02  0.51100000000E-03 0. -1.
    9900012    2    1    2    0    0  0.35245449261E+01 -0.32430460174E+02  0.28626321962E+02  0.47787268749E+02  0.19999989534E+02 0.  0.
         12    1    1    2    0    0 -0.35245449261E+01  0.32430460174E+02 -0.28626321962E+02  0.43400731251E+02  0.00000000000E+00 0. -1.
         11    1    3    3    0    0 -0.17216449146E+01 -0.14845206017E+02  0.63455424806E+01  0.16236074419E+02  0.51100000000E-03 0. -1.
        -11    1    3    3    0    0  0.25201767299E+01 -0.18876556298E+02  0.20764416217E+02  0.28175106912E+02  0.51100000000E-03 0.  1.
        -12    1    3    3    0    0  0.27260131108E+01  0.12913021415E+01  0.15163632644E+01  0.33760874175E+01  0.00000000000E+00 0.  1.
</event>
<event>
 7    1  0.2953033E-010  0.4778728E+02  0.7816164E-02  0.1312668E+00
        -11   -1    0    0    0    0  0.00000000000E+00  0.00000000000E+00  0.45593999997E+02  0.45594000000E+02  0.51100000000E-03 0. -1.
         11   -1    0    0    0    0 -0.00000000000E+00 -0.00000000000E+00 -0.45593999997E+02  0.45594000000E+02  0.51100000000E-03 0.  1.
    9900012    2    1    2    0    0 -0.36874109117E+01 -0.36250444454E+02 -0.23578188013E+02  0.47787277975E+02  0.20000031599E+02 0.  0.
         12    1    1    2    0    0  0.36874109117E+01  0.36250444454E+02  0.23578188013E+02  0.43400722025E+02  0.00000000000E+00 0. -1.
         11    1    3    3    0    0  0.30645699668E+01 -0.76357849245E+01 -0.79241742678E+00  0.82658772150E+01  0.51100000000E-03 0. -1.
        -11    1    3    3    0    0  0.12700823509E+01  0.88950482864E+00 -0.20815634342E+01  0.25956183483E+01  0.51100000000E-03 0.  1.
        -12    1    3    3    0    0 -0.80220632294E+01 -0.29504164358E+02 -0.20704207152E+02  0.36925782412E+02  0.00000000000E+00 0.  1.
</event>
<event>
 7    1  0.2580704E-010  0.4778727E+02  0.7816164E-02  0.1312668E+00
        -11   -1    0    0    0    0  0.00000000000E+00  0.00000000000E+00  0.45593999997E+02  0.45594000000E+02  0.51100000000E-03 0.  1.
         11   -1    0    0    0    0 -0.00000000000E+00 -0.00000000000E+00 -0.45593999997E+02  0.45594000000E+02  0.51100000000E-03 0. -1.
    9900012    2    1    2    0    0  0.36206858288E+02 -0.36137479840E+01  0.23656448055E+02  0.47787270788E+02  0.19999998831E+02 0.  0.
         12    1    1    2    0    0 -0.36206858288E+02  0.36137479840E+01 -0.23656448055E+02  0.43400729212E+02  0.00000000000E+00 0. -1.
         11    1    3    3    0    0  0.17550227441E+02 -0.35735994346E+01  0.83468414973E+01  0.19759829437E+02  0.51100000000E-03 0. -1.
        -11    1    3    3    0    0  0.71164542317E+01 -0.99040656837E+00 -0.17633197823E+01  0.73982513419E+01  0.51100000000E-03 0.  1.
        -12    1    3    3    0    0  0.11540176615E+02  0.95025801902E+00  0.17072926340E+02  0.20629190009E+02  0.00000000000E+00 0.  1.
</event>
<event>
 7    1  0.2580704E-010  0.4778727E+02  0.7816164E-02  0.1312668E+00
        -11   -1    0    0    0    0  0.00000000000E+00  0.00000000000E+00  0.45593999997E+02  0.45594000000E+02  0.51100000000E-03 0.  1.
         11   -1    0    0    0    0 -0.00000000000E+00 -0.00000000000E+00 -0.45593999997E+02  0.45594000000E+02  0.51100000000E-03 0. -1.
    9900012    2    1    2    0    0 -0.23279105619E+02  0.25284438909E+02  0.26502900086E+02  0.47787270487E+02  0.19999997456E+02 0.  0.
         12    1    1    2    0    0  0.23279105619E+02 -0.25284438909E+02 -0.26502900086E+02  0.43400729513E+02  0.00000000000E+00 0. -1.
         11    1    3    3    0    0 -0.97979094041E+01  0.42543855996E+01  0.95018527005E+01  0.14296294293E+02  0.51100000000E-03 0. -1.
        -11    1    3    3    0    0 -0.44873148377E+01  0.83433876126E+01  0.15097505477E+02  0.17823657963E+02  0.51100000000E-03 0.  1.
         12    1    3    3    0    0 -0.89938813773E+01  0.12686665697E+02  0.19035419085E+01  0.15667318230E+02  0.00000000000E+00 0. -1.
</event>
<event>
 7    1  0.2580704E-010  0.4778727E+02  0.7816164E-02  0.1312668E+00
        -11   -1    0    0    0    0  0.00000000000E+00  0.00000000000E+00  0.45593999997E+02  0.45594000000E+02  0.51100000000E-03 0. -1.
         11   -1    0    0    0    0 -0.00000000000E+00 -0.00000000000E+00 -0.45593999997E+02  0.45594000000E+02  0.51100000000E-03 0.  1.
    9900012    2    1    2    0    0  0.43212918541E+02 -0.39998806385E+01 -0.51784618883E+00  0.47787267994E+02  0.19999986092E+02 0.  0.
         12    1    1    2    0    0 -0.43212918541E+02  0.39998806385E+01  0.51784618883E+00  0.43400732006E+02  0.00000000000E+00 0. -1.
         11    1    3    3    0    0  0.95044053973E+01  0.27027088071E+01 -0.47413023270E+01  0.10959849674E+02  0.51100000000E-03 0. -1.
        -11    1    3    3    0    0  0.21839717798E+02  0.18951881656E+01  0.28822399083E+01  0.22110457228E+02  0.51100000000E-03 0.  1.
         12    1    3    3    0    0  0.11868795346E+02 -0.85977776112E+01  0.13412162299E+01  0.14716961092E+02  0.00000000000E+00 0. -1.
</event>
<event>
 7    1  0.2580704E-010  0.4778727E+02  0.7816164E-02  0.1312668E+00
        -11   -1    0    0    0    0  0.00000000000E+00  0.00000000000E+00  0.45593999997E+02  0.45594000000E+02  0.51100000000E-03 0.  1.
         11   -1    0    0    0    0 -0.00000000000E+00 -0.00000000000E+00 -0.45593999997E+02  0.45594000000E+02  0.51100000000E-03 0. -1.
    9900012    2    1    2    0    0 -0.84867072249E+01  0.13940535713E+02  0.40215178283E+02  0.47787270745E+02  0.19999998635E+02 0.  0.
         12    1    1    2    0    0  0.84867072249E+01 -0.13940535713E+02 -0.40215178283E+02  0.43400729255E+02  0.00000000000E+00 0. -1.
         11    1    3    3    0    0 -0.11473560374E+02  0.28703121904E+01  0.28221825323E+02  0.30599880793E+02  0.51100000000E-03 0. -1.
        -11    1    3    3    0    0 -0.61307366889E+00  0.36487315064E+01  0.57707566088E+01  0.68549787037E+01  0.51100000000E-03 0.  1.
         12    1    3    3    0    0  0.35999268182E+01  0.74214920166E+01  0.62225963518E+01  0.10332411248E+02  0.00000000000E+00 0. -1.
</event>
<event>
 7    1  0.2607799E-010  0.4778728E+02  0.7816164E-02  0.1312668E+00
        -11   -1    0    0    0    0  0.00000000000E+00  0.00000000000E+00  0.45593999997E+02  0.45594000000E+02  0.51100000000E-03 0.  1.
         11   -1    0    0    0    0 -0.00000000000E+00 -0.00000000000E+00 -0.45593999997E+02  0.45594000000E+02  0.51100000000E-03 0. -1.
    9900012    2    1    2    0    0 -0.31939195981E+02  0.20534790979E+02  0.21019814450E+02  0.47787280190E+02  0.20000041700E+02 0.  0.
         12    1    1    2    0    0  0.31939195981E+02 -0.20534790979E+02 -0.21019814450E+02  0.43400719810E+02  0.00000000000E+00 0. -1.
         11    1    3    3    0    0 -0.25994233602E+01  0.63133290496E+01  0.70924046540E+01  0.98446599500E+01  0.51100000000E-03 0. -1.
        -11    1    3    3    0    0 -0.38233756675E+01  0.32253661377E+01 -0.25755454157E+01  0.56262440995E+01  0.51100000000E-03 0.  1.
        -12    1    3    3    0    0 -0.25516396954E+02  0.10996095792E+02  0.16502955212E+02  0.32316376141E+02  0.00000000000E+00 0.  1.
</event>
<event>
 7    1  0.2580704E-010  0.4778727E+02  0.7816164E-02  0.1312668E+00
        -11   -1    0    0    0    0  0.00000000000E+00  0.00000000000E+00  0.45593999997E+02  0.45594000000E+02  0.51100000000E-03 0.  1.
         11   -1    0    0    0    0 -0.00000000000E+00 -0.00000000000E+00 -0.45593999997E+02  0.45594000000E+02  0.51100000000E-03 0. -1.
    9900012    2    1    2    0    0  0.11864209387E+02  0.34953824496E+02  0.22827485833E+02  0.47787269353E+02  0.19999992286E+02 0.  0.
         12    1    1    2    0    0 -0.11864209387E+02 -0.34953824496E+02 -0.22827485833E+02  0.43400730647E+02  0.00000000000E+00 0. -1.
         11    1    3    3    0    0  0.71845958092E+00  0.21388398587E+02  0.14879279865E+02  0.26064779835E+02  0.51100000000E-03 0. -1.
        -11    1    3    3    0    0  0.30472851347E+00  0.53899759272E+01 -0.95958482065E+00  0.54832019160E+01  0.51100000000E-03 0.  1.
        -12    1    3    3    0    0  0.10841021292E+02  0.81754499818E+01  0.89077907886E+01  0.16239287601E+02  0.00000000000E+00 0.  1.
</event>
<event>
 7    1  0.2580704E-010  0.4778727E+02  0.7816164E-02  0.1312668E+00
        -11   -1    0    0    0    0  0.00000000000E+00  0.00000000000E+00  0.45593999997E+02  0.45594000000E+02  0.51100000000E-03 0.  1.
         11   -1    0    0    0    0 -0.00000000000E+00 -0.00000000000E+00 -0.45593999997E+02  0.45594000000E+02  0.51100000000E-03 0. -1.
    9900012    2    1    2    0    0  0.14388220364E+02  0.97485485874E+01  0.39768934210E+02  0.47787271746E+02  0.20000003197E+02 0.  0.
         12    1    1    2    0    0 -0.14388220364E+02 -0.97485485874E+01 -0.39768934210E+02  0.43400728254E+02  0.00000000000E+00 0. -1.
         11    1    3    3    0    0  0.61596855454E+01 -0.65467925109E+00  0.82752849218E+01  0.10336859859E+02  0.51100000000E-03 0. -1.
        -11    1    3    3    0    0  0.96239543771E+01  0.99573340176E+01  0.32726469272E+02  0.35535767754E+02  0.51100000000E-03 0.  1.
         12    1    3    3    0    0 -0.13954195590E+01  0.44589382085E+00 -0.12328199833E+01  0.19146441331E+01  0.00000000000E+00 0. -1.
</event>
<event>
 7    1  0.2580704E-010  0.4778727E+02  0.7816164E-02  0.1312668E+00
        -11   -1    0    0    0    0  0.00000000000E+00  0.00000000000E+00  0.45593999997E+02  0.45594000000E+02  0.51100000000E-03 0.  1.
         11   -1    0    0    0    0 -0.00000000000E+00 -0.00000000000E+00 -0.45593999997E+02  0.45594000000E+02  0.51100000000E-03 0. -1.
    9900012    2    1    2    0    0  0.14118866267E+02  0.29377944185E+02  0.28656890135E+02  0.47787270266E+02  0.19999996450E+02 0.  0.
         12    1    1    2    0    0 -0.14118866267E+02 -0.29377944185E+02 -0.28656890135E+02  0.43400729734E+02  0.00000000000E+00 0. -1.
         11    1    3    3    0    0  0.38271940910E+01  0.62520585961E+01  0.80133782346E+01  0.10860473392E+02  0.51100000000E-03 0. -1.
        -11    1    3    3    0    0  0.11619266792E+02  0.19181873596E+02  0.23016900694E+02  0.32136106691E+02  0.51100000000E-03 0.  1.
         12    1    3    3    0    0 -0.13275946156E+01  0.39440119934E+01 -0.23733887934E+01  0.47906901833E+01  0.00000000000E+00 0. -1.
</event>
<event>
 7    1  0.2580704E-010  0.4778727E+02  0.7816164E-02  0.1312668E+00
        -11   -1    0    0    0    0  0.00000000000E+00  0.00000000000E+00  0.45593999997E+02  0.45594000000E+02  0.51100000000E-03 0.  1.
         11   -1    0    0    0    0 -0.00000000000E+00 -0.00000000000E+00 -0.45593999997E+02  0.45594000000E+02  0.51100000000E-03 0. -1.
    9900012    2    1    2    0    0  0.34102300045E+02 -0.24136163633E+02  0.11751701157E+02  0.47787265636E+02  0.19999975339E+02 0.  0.
         12    1    1    2    0    0 -0.34102300045E+02  0.24136163633E+02 -0.11751701157E+02  0.43400734364E+02  0.00000000000E+00 0. -1.
         11    1    3    3    0    0  0.33355753534E+01 -0.24526084664E+01 -0.37490842475E+01  0.55854260521E+01  0.51100000000E-03 0. -1.
        -11    1    3    3    0    0  0.20217276534E+01 -0.29380368467E+01  0.53227667756E+01  0.64071280326E+01  0.51100000000E-03 0.  1.
        -12    1    3    3    0    0  0.28744997038E+02 -0.18745518320E+02  0.10178018629E+02  0.35794711551E+02  0.00000000000E+00 0.  1.
</event>
<event>
 7    1  0.2580704E-010  0.4778727E+02  0.7816164E-02  0.1312668E+00
        -11   -1    0    0    0    0  0.00000000000E+00  0.00000000000E+00  0.45593999997E+02  0.45594000000E+02  0.51100000000E-03 0.  1.
         11   -1    0    0    0    0 -0.00000000000E+00 -0.00000000000E+00 -0.45593999997E+02  0.45594000000E+02  0.51100000000E-03 0. -1.
    9900012    2    1    2    0    0  0.39583114817E+02  0.19648850393E+01  0.17690097153E+02  0.47787270869E+02  0.19999999199E+02 0.  0.
         12    1    1    2    0    0 -0.39583114817E+02 -0.19648850393E+01 -0.17690097153E+02  0.43400729131E+02  0.00000000000E+00 0. -1.
         11    1    3    3    0    0  0.75333313225E+00 -0.17161285677E+01 -0.90488076357E-01  0.18763785391E+01  0.51100000000E-03 0. -1.
        -11    1    3    3    0    0  0.98149121980E+01  0.26047898569E+01  0.12982655600E+02  0.16482317141E+02  0.51100000000E-03 0.  1.
         12    1    3    3    0    0  0.29014869487E+02  0.10762237501E+01  0.47979296298E+01  0.29428575189E+02  0.00000000000E+00 0. -1.
</event>
<event>
 7    1  0.2580704E-010  0.4778727E+02  0.7816164E-02  0.1312668E+00
        -11   -1    0    0    0    0  0.00000000000E+00  0.00000000000E+00  0.45593999997E+02  0.45594000000E+02  0.51100000000E-03 0. -1.
         11   -1    0    0    0    0 -0.00000000000E+00 -0.00000000000E+00 -0.45593999997E+02  0.45594000000E+02  0.51100000000E-03 0.  1.
    9900012    2    1    2    0    0  0.24592624167E+02 -0.33115715016E+02 -0.13497231243E+02  0.47787274250E+02  0.20000014615E+02 0.  0.
         12    1    1    2    0    0 -0.24592624167E+02  0.33115715016E+02  0.13497231243E+02  0.43400725750E+02  0.00000000000E+00 0. -1.
         11    1    3    3    0    0 -0.59206886165E-01 -0.27512550885E+00  0.21507279906E+01  0.21690621595E+01  0.51100000000E-03 0. -1.
        -11    1    3    3    0    0  0.19220662694E+01 -0.34093269010E+01  0.20687466578E+01  0.44269133329E+01  0.51100000000E-03 0.  1.
        -12    1    3    3    0    0  0.22729764783E+02 -0.29431262606E+02 -0.17716705891E+02  0.41191298757E+02  0.00000000000E+00 0.  1.
</event>
<event>
 7    1  0.2580704E-010  0.4778727E+02  0.7816164E-02  0.1312668E+00
        -11   -1    0    0    0    0  0.00000000000E+00  0.00000000000E+00  0.45593999997E+02  0.45594000000E+02  0.51100000000E-03 0.  1.
         11   -1    0    0    0    0 -0.00000000000E+00 -0.00000000000E+00 -0.45593999997E+02  0.45594000000E+02  0.51100000000E-03 0. -1.
    9900012    2    1    2    0    0 -0.18077536307E+02  0.28585005274E+02  0.27197855099E+02  0.47787272271E+02  0.20000005591E+02 0.  0.
         12    1    1    2    0    0  0.18077536307E+02 -0.28585005274E+02 -0.27197855099E+02  0.43400727729E+02  0.00000000000E+00 0. -1.
         11    1    3    3    0    0  0.32550895941E+01  0.33908353594E+01  0.27680799360E+00  0.47085024824E+01  0.51100000000E-03 0. -1.
        -11    1    3    3    0    0 -0.83225813587E+00  0.41535696654E+01  0.38768806702E+01  0.57423861384E+01  0.51100000000E-03 0.  1.
        -12    1    3    3    0    0 -0.20500367765E+02  0.21040600250E+02  0.23044166435E+02  0.37336383650E+02  0.00000000000E+00 0.  1.
</event>
<event>
 7    1  0.2580704E-010  0.4778727E+02  0.7816164E-02  0.1312668E+00
        -11   -1    0    0    0    0  0.00000000000E+00  0.00000000000E+00  0.45593999997E+02  0.45594000000E+02  0.51100000000E-03 0.  1.
         11   -1    0    0    0    0 -0.00000000000E+00 -0.00000000000E+00 -0.45593999997E+02  0.45594000000E+02  0.51100000000E-03 0. -1.
    9900012    2    1    2    0    0  0.10260142820E+02  0.38688790985E+02  0.16778859032E+02  0.47787272023E+02  0.20000004460E+02 0.  0.
         12    1    1    2    0    0 -0.10260142820E+02 -0.38688790985E+02 -0.16778859032E+02  0.43400727977E+02  0.00000000000E+00 0. -1.
         11    1    3    3    0    0  0.41336934919E+01  0.15363981021E+02  0.78444202990E-01  0.15910546454E+02  0.51100000000E-03 0. -1.
        -11    1    3    3    0    0 -0.25184448913E+01  0.13317950797E+02  0.58143886956E+01  0.14748474303E+02  0.51100000000E-03 0.  1.
         12    1    3    3    0    0  0.86448942192E+01  0.10006859167E+02  0.10886026133E+02  0.17128251266E+02  0.00000000000E+00 0. -1.
</event>
<event>
 7    1  0.2580704E-010  0.4778727E+02  0.7816164E-02  0.1312668E+00
        -11   -1    0    0    0    0  0.00000000000E+00  0.00000000000E+00  0.45593999997E+02  0.45594000000E+02  0.51100000000E-03 0.  1.
         11   -1    0    0    0    0 -0.00000000000E+00 -0.00000000000E+00 -0.45593999997E+02  0.45594000000E+02  0.51100000000E-03 0. -1.
    9900012    2    1    2    0    0 -0.84041008084E+01 -0.38499497675E+02  0.18187455157E+02  0.47787265482E+02  0.19999974637E+02 0.  0.
         12    1    1    2    0    0  0.84041008084E+01  0.38499497675E+02 -0.18187455157E+02  0.43400734518E+02  0.00000000000E+00 0. -1.
         11    1    3    3    0    0  0.20421633440E+01 -0.80211929422E+01 -0.28699925677E+01  0.87605265218E+01  0.51100000000E-03 0. -1.
        -11    1    3    3    0    0 -0.90013494429E+00 -0.85337586600E+00  0.24964144314E+01  0.27875757498E+01  0.51100000000E-03 0.  1.
        -12    1    3    3    0    0 -0.95461292081E+01 -0.29624928867E+02  0.18561033293E+02  0.36239163210E+02  0.00000000000E+00 0.  1.
</event>
<event>
 7    1  0.2580704E-010  0.4778727E+02  0.7816164E-02  0.1312668E+00
        -11   -1    0    0    0    0  0.00000000000E+00  0.00000000000E+00  0.45593999997E+02  0.45594000000E+02  0.51100000000E-03 0.  1.
         11   -1    0    0    0    0 -0.00000000000E+00 -0.00000000000E+00 -0.45593999997E+02  0.45594000000E+02  0.51100000000E-03 0. -1.
    9900012    2    1    2    0    0 -0.41244112577E+00 -0.31481082106E+02  0.29872973805E+02  0.47787271870E+02  0.20000003765E+02 0.  0.
         12    1    1    2    0    0  0.41244112577E+00  0.31481082106E+02 -0.29872973805E+02  0.43400728130E+02  0.00000000000E+00 0. -1.
         11    1    3    3    0    0  0.74098431504E+01 -0.53123150679E+01  0.87277663917E+01  0.12621425171E+02  0.51100000000E-03 0. -1.
        -11    1    3    3    0    0 -0.15234096225E+01 -0.56157867952E+00  0.57902262224E+00  0.17237792635E+01  0.51100000000E-03 0.  1.
        -12    1    3    3    0    0 -0.62988746537E+01 -0.25607188358E+02  0.20566184791E+02  0.33442067436E+02  0.00000000000E+00 0.  1.
</event>
<event>
 7    1  0.2580704E-010  0.4778728E+02  0.7816164E-02  0.1312668E+00
        -11   -1    0    0    0    0  0.00000000000E+00  0.00000000000E+00  0.45593999997E+02  0.45594000000E+02  0.51100000000E-03 0.  1.
         11   -1    0    0    0    0 -0.00000000000E+00 -0.00000000000E+00 -0.45593999997E+02  0.45594000000E+02  0.51100000000E-03 0. -1.
    9900012    2    1    2    0    0  0.37009321470E+02  0.20713691090E+02  0.92128175324E+01  0.47787275569E+02  0.20000020629E+02 0.  0.
         12    1    1    2    0    0 -0.37009321470E+02 -0.20713691090E+02 -0.92128175324E+01  0.43400724431E+02  0.00000000000E+00 0. -1.
         11    1    3    3    0    0  0.37122606677E+01  0.61041755048E+01  0.52623210966E+01  0.88732103234E+01  0.51100000000E-03 0. -1.
        -11    1    3    3    0    0  0.22792609431E+02  0.16093214037E+02  0.46324133851E+01  0.28283455177E+02  0.51100000000E-03 0.  1.
         12    1    3    3    0    0  0.10504451371E+02 -0.14836984513E+01 -0.68191694923E+00  0.10630610068E+02  0.00000000000E+00 0. -1.
</event>
<event>
 7    1  0.2580704E-010  0.4778727E+02  0.7816164E-02  0.1312668E+00
        -11   -1    0    0    0    0  0.00000000000E+00  0.00000000000E+00  0.45593999997E+02  0.45594000000E+02  0.51100000000E-03 0.  1.
         11   -1    0    0    0    0 -0.00000000000E+00 -0.00000000000E+00 -0.45593999997E+02  0.45594000000E+02  0.51100000000E-03 0. -1.
    9900012    2    1    2    0    0 -0.27462120852E+02 -0.12013716676E+02  0.31386714789E+02  0.47787270337E+02  0.19999996774E+02 0.  0.
         12    1    1    2    0    0  0.27462120852E+02  0.12013716676E+02 -0.31386714789E+02  0.43400729663E+02  0.00000000000E+00 0. -1.
         11    1    3    3    0    0 -0.23077858305E+01 -0.22076603057E+01 -0.26616460444E+01  0.41574029624E+01  0.51100000000E-03 0. -1.
        -11    1    3    3    0    0 -0.48421736376E+01 -0.43245473566E+00  0.51130314085E+01  0.70552642105E+01  0.51100000000E-03 0.  1.
        -12    1    3    3    0    0 -0.20312161383E+02 -0.93736016347E+01  0.28935329425E+02  0.36574603164E+02  0.00000000000E+00 0.  1.
</event>
<event>
 7    1  0.2580704E-010  0.4778727E+02  0.7816164E-02  0.1312668E+00
        -11   -1    0    0    0    0  0.00000000000E+00  0.00000000000E+00  0.45593999997E+02  0.45594000000E+02  0.51100000000E-03 0.  1.
         11   -1    0    0    0    0 -0.00000000000E+00 -0.00000000000E+00 -0.45593999997E+02  0.45594000000E+02  0.51100000000E-03 0. -1.
    9900012    2    1    2    0    0 -0.62187708750E+01  0.42727363253E+02  0.43957121383E+01  0.47787274580E+02  0.20000016122E+02 0.  0.
         12    1    1    2    0    0  0.62187708750E+01 -0.42727363253E+02 -0.43957121383E+01  0.43400725420E+02  0.00000000000E+00 0. -1.
         11    1    3    3    0    0  0.70241453024E+00  0.17126768698E+02 -0.39732431697E+01  0.17595631667E+02  0.51100000000E-03 0. -1.
        -11    1    3    3    0    0 -0.44675061619E+00  0.72157331729E+01 -0.27696504504E+01  0.77419219329E+01  0.51100000000E-03 0.  1.
        -12    1    3    3    0    0 -0.64744347891E+01  0.18384861382E+02  0.11138605758E+02  0.22449720981E+02  0.00000000000E+00 0.  1.
</event>
<event>
 7    1  0.2580704E-010  0.4778726E+02  0.7816164E-02  0.1312668E+00
        -11   -1    0    0    0    0  0.00000000000E+00  0.00000000000E+00  0.45593999997E+02  0.45594000000E+02  0.51100000000E-03 0.  1.
         11   -1    0    0    0    0 -0.00000000000E+00 -0.00000000000E+00 -0.45593999997E+02  0.45594000000E+02  0.51100000000E-03 0. -1.
    9900012    2    1    2    0    0 -0.39315801906E+02 -0.98543330481E+01  0.15517215738E+02  0.47787261025E+02  0.19999954316E+02 0.  0.
         12    1    1    2    0    0  0.39315801906E+02  0.98543330481E+01 -0.15517215738E+02  0.43400738975E+02  0.00000000000E+00 0. -1.
         11    1    3    3    0    0 -0.12022361359E+01  0.23684733635E+01 -0.79909183082E+00  0.27737313885E+01  0.51100000000E-03 0. -1.
        -11    1    3    3    0    0 -0.15530238623E+02 -0.37913857389E+00  0.17168067537E+01  0.15629442839E+02  0.51100000000E-03 0.  1.
        -12    1    3    3    0    0 -0.22583327147E+02 -0.11843667838E+02  0.14599500815E+02  0.29384086797E+02  0.00000000000E+00 0.  1.
</event>
<event>
 7    1  0.2580704E-010  0.4778727E+02  0.7816164E-02  0.1312668E+00
        -11   -1    0    0    0    0  0.00000000000E+00  0.00000000000E+00  0.45593999997E+02  0.45594000000E+02  0.51100000000E-03 0.  1.
         11   -1    0    0    0    0 -0.00000000000E+00 -0.00000000000E+00 -0.45593999997E+02  0.45594000000E+02  0.51100000000E-03 0. -1.
    9900012    2    1    2    0    0 -0.11864320956E+02  0.39425759011E+02  0.13728462450E+02  0.47787271128E+02  0.20000000383E+02 0.  0.
         12    1    1    2    0    0  0.11864320956E+02 -0.39425759011E+02 -0.13728462450E+02  0.43400728872E+02  0.00000000000E+00 0. -1.
         11    1    3    3    0    0 -0.68150580134E+01  0.83487709468E+01 -0.19206029558E+01  0.10946949713E+02  0.51100000000E-03 0. -1.
        -11    1    3    3    0    0 -0.81400675854E+01  0.22632202673E+02  0.90992794478E+01  0.25715251989E+02  0.51100000000E-03 0.  1.
         12    1    3    3    0    0  0.30908046430E+01  0.84447853912E+01  0.65497859580E+01  0.11125069426E+02  0.00000000000E+00 0. -1.
</event>
<event>
 7    1  0.2580704E-010  0.4778727E+02  0.7816164E-02  0.1312668E+00
        -11   -1    0    0    0    0  0.00000000000E+00  0.00000000000E+00  0.45593999997E+02  0.45594000000E+02  0.51100000000E-03 0.  1.
         11   -1    0    0    0    0 -0.00000000000E+00 -0.00000000000E+00 -0.45593999997E+02  0.45594000000E+02  0.51100000000E-03 0. -1.
    9900012    2    1    2    0    0  0.12216191286E+02 -0.40698019891E+02 -0.88351179368E+01  0.47787268882E+02  0.19999990143E+02 0.  0.
         12    1    1    2    0    0 -0.12216191286E+02  0.40698019891E+02  0.88351179368E+01  0.43400731118E+02  0.00000000000E+00 0. -1.
         11    1    3    3    0    0  0.34199000992E+01 -0.34590757846E+01  0.28607309131E+01  0.56431111623E+01  0.51100000000E-03 0. -1.
        -11    1    3    3    0    0  0.11185065465E+02 -0.18727173012E+02 -0.67771737715E+01  0.22841689584E+02  0.51100000000E-03 0.  1.
        -12    1    3    3    0    0 -0.23887742785E+01 -0.18511771095E+02 -0.49186750783E+01  0.19302468136E+02  0.00000000000E+00 0.  1.
</event>
<event>
 7    1  0.2580704E-010  0.4778727E+02  0.7816164E-02  0.1312668E+00
        -11   -1    0    0    0    0  0.00000000000E+00  0.00000000000E+00  0.45593999997E+02  0.45594000000E+02  0.51100000000E-03 0.  1.
         11   -1    0    0    0    0 -0.00000000000E+00 -0.00000000000E+00 -0.45593999997E+02  0.45594000000E+02  0.51100000000E-03 0. -1.
    9900012    2    1    2    0    0 -0.11199143642E+02 -0.22264888387E+02  0.35531352596E+02  0.47787273157E+02  0.20000009631E+02 0.  0.
         12    1    1    2    0    0  0.11199143642E+02  0.22264888387E+02 -0.35531352596E+02  0.43400726843E+02  0.00000000000E+00 0. -1.
         11    1    3    3    0    0 -0.49017786615E+01 -0.11525832159E+02  0.22391907299E+02  0.25656768186E+02  0.51100000000E-03 0.  1.
        -11    1    3    3    0    0  0.14865884565E+00  0.16022987283E+01  0.65164442968E+01  0.67121909390E+01  0.51100000000E-03 0. -1.
         12    1    3    3    0    0 -0.64460238264E+01 -0.12341354957E+02  0.66230010002E+01  0.15418314032E+02  0.00000000000E+00 0. -1.
</event>
<event>
 7    1  0.2580704E-010  0.4778726E+02  0.7816164E-02  0.1312668E+00
        -11   -1    0    0    0    0  0.00000000000E+00  0.00000000000E+00  0.45593999997E+02  0.45594000000E+02  0.51100000000E-03 0.  1.
         11   -1    0    0    0    0 -0.00000000000E+00 -0.00000000000E+00 -0.45593999997E+02  0.45594000000E+02  0.51100000000E-03 0. -1.
    9900012    2    1    2    0    0 -0.35655126627E+02  0.20604804233E+02  0.13703220210E+02  0.47787259725E+02  0.19999948391E+02 0.  0.
         12    1    1    2    0    0  0.35655126627E+02 -0.20604804233E+02 -0.13703220210E+02  0.43400740275E+02  0.00000000000E+00 0. -1.
         11    1    3    3    0    0 -0.10446104454E+02  0.50741363706E+01  0.48339922253E+00  0.11623322814E+02  0.51100000000E-03 0. -1.
        -11    1    3    3    0    0 -0.20205440297E+02  0.17625434436E+02  0.14650447956E+02  0.30554073088E+02  0.51100000000E-03 0.  1.
         12    1    3    3    0    0 -0.50035818762E+01 -0.20947665742E+01 -0.14306269693E+01  0.56098638234E+01  0.00000000000E+00 0. -1.
</event>
<event>
 7    1  0.2580704E-010  0.4778732E+02  0.7816164E-02  0.1312668E+00
        -11   -1    0    0    0    0  0.00000000000E+00  0.00000000000E+00  0.45593999997E+02  0.45594000000E+02  0.51100000000E-03 0.  1.
         11   -1    0    0    0    0 -0.00000000000E+00 -0.00000000000E+00 -0.45593999997E+02  0.45594000000E+02  0.51100000000E-03 0. -1.
    9900012    2    1    2    0    0 -0.12164796384E+02 -0.32341442564E+02  0.26261520565E+02  0.47787324422E+02  0.20000243370E+02 0.  0.
         12    1    1    2    0    0  0.12164796384E+02  0.32341442564E+02 -0.26261520565E+02  0.43400675578E+02  0.00000000000E+00 0. -1.
         11    1    3    3    0    0  0.99775401236E+00  0.15159090082E+01  0.15155963553E+01  0.23644292680E+01  0.51100000000E-03 0. -1.
        -11    1    3    3    0    0 -0.38982667747E+01 -0.28065652559E+01  0.26386072141E+00  0.48107083806E+01  0.51100000000E-03 0.  1.
        -12    1    3    3    0    0 -0.92642836219E+01 -0.31050786317E+02  0.24482063488E+02  0.40612186774E+02  0.00000000000E+00 0.  1.
</event>
<event>
 7    1  0.2580704E-010  0.4778727E+02  0.7816164E-02  0.1312668E+00
        -11   -1    0    0    0    0  0.00000000000E+00  0.00000000000E+00  0.45593999997E+02  0.45594000000E+02  0.51100000000E-03 0. -1.
         11   -1    0    0    0    0 -0.00000000000E+00 -0.00000000000E+00 -0.45593999997E+02  0.45594000000E+02  0.51100000000E-03 0.  1.
    9900012    2    1    2    0    0  0.11404750892E+02  0.40004477386E+02 -0.12377257975E+02  0.47787273407E+02  0.20000010771E+02 0.  0.
         12    1    1    2    0    0 -0.11404750892E+02 -0.40004477386E+02  0.12377257975E+02  0.43400726593E+02  0.00000000000E+00 0. -1.
         11    1    3    3    0    0  0.91480380225E+01  0.41240646212E+02 -0.10243609569E+02  0.43467332986E+02  0.51100000000E-03 0. -1.
        -11    1    3    3    0    0  0.13835142095E+01  0.63664917470E+00 -0.15493559551E+01  0.21725418008E+01  0.51100000000E-03 0.  1.
         12    1    3    3    0    0  0.87319866019E+00 -0.18728180008E+01 -0.58429245034E+00  0.21473986197E+01  0.00000000000E+00 0. -1.
</event>
<event>
 7    1  0.2580704E-010  0.4778727E+02  0.7816164E-02  0.1312668E+00
        -11   -1    0    0    0    0  0.00000000000E+00  0.00000000000E+00  0.45593999997E+02  0.45594000000E+02  0.51100000000E-03 0.  1.
         11   -1    0    0    0    0 -0.00000000000E+00 -0.00000000000E+00 -0.45593999997E+02  0.45594000000E+02  0.51100000000E-03 0. -1.
    9900012    2    1    2    0    0  0.30492220112E+02  0.73970573361E+01  0.29985514118E+02  0.47787274182E+02  0.20000014307E+02 0.  0.
         12    1    1    2    0    0 -0.30492220112E+02 -0.73970573361E+01 -0.29985514118E+02  0.43400725818E+02  0.00000000000E+00 0. -1.
         11    1    3    3    0    0  0.50666900001E+01  0.12974374409E+00 -0.53924183028E+00  0.50969562495E+01  0.51100000000E-03 0. -1.
        -11    1    3    3    0    0  0.77953765570E+01  0.47017679800E+01  0.24289113773E+01  0.94220023638E+01  0.51100000000E-03 0.  1.
         12    1    3    3    0    0  0.17630153555E+02  0.25655456120E+01  0.28095844571E+02  0.33268315569E+02  0.00000000000E+00 0. -1.
</event>
<event>
 7    1  0.2580704E-010  0.4778730E+02  0.7816164E-02  0.1312668E+00
        -11   -1    0    0    0    0  0.00000000000E+00  0.00000000000E+00  0.45593999997E+02  0.45594000000E+02  0.51100000000E-03 0.  1.
         11   -1    0    0    0    0 -0.00000000000E+00 -0.00000000000E+00 -0.45593999997E+02  0.45594000000E+02  0.51100000000E-03 0. -1.
    9900012    2    1    2    0    0 -0.32834165363E+02  0.12299055160E+02  0.25578727014E+02  0.47787303594E+02  0.20000148404E+02 0.  0.
         12    1    1    2    0    0  0.32834165363E+02 -0.12299055160E+02 -0.25578727014E+02  0.43400696406E+02  0.00000000000E+00 0. -1.
         11    1    3    3    0    0  0.65618314611E+00  0.42475164521E+01  0.24989290407E+01  0.49715811311E+01  0.51100000000E-03 0. -1.
        -11    1    3    3    0    0 -0.62618979405E+01 -0.90651851815E+00  0.86704035485E+01  0.10733547391E+02  0.51100000000E-03 0.  1.
         12    1    3    3    0    0 -0.27228450568E+02  0.89580572262E+01  0.14409394425E+02  0.32082175071E+02  0.00000000000E+00 0. -1.
</event>
<event>
 7    1  0.2580704E-010  0.4778727E+02  0.7816164E-02  0.1312668E+00
        -11   -1    0    0    0    0  0.00000000000E+00  0.00000000000E+00  0.45593999997E+02  0.45594000000E+02  0.51100000000E-03 0.  1.
         11   -1    0    0    0    0 -0.00000000000E+00 -0.00000000000E+00 -0.45593999997E+02  0.45594000000E+02  0.51100000000E-03 0. -1.
    9900012    2    1    2    0    0 -0.24571573110E+02 -0.33010577684E+02  0.13789949549E+02  0.47787272440E+02  0.20000006364E+02 0.  0.
         12    1    1    2    0    0  0.24571573110E+02  0.33010577684E+02 -0.13789949549E+02  0.43400727560E+02  0.00000000000E+00 0. -1.
         11    1    3    3    0    0 -0.15803430016E+00 -0.18894545050E+01  0.43640848573E+01  0.47581771793E+01  0.51100000000E-03 0. -1.
        -11    1    3    3    0    0 -0.48210026066E+01 -0.15609255050E+02  0.74680440373E+01  0.17962811343E+02  0.51100000000E-03 0.  1.
        -12    1    3    3    0    0 -0.19592536203E+02 -0.15511868130E+02  0.19578206546E+01  0.25066283918E+02  0.00000000000E+00 0.  1.
</event>
<event>
 7    1  0.2580704E-010  0.4778727E+02  0.7816164E-02  0.1312668E+00
        -11   -1    0    0    0    0  0.00000000000E+00  0.00000000000E+00  0.45593999997E+02  0.45594000000E+02  0.51100000000E-03 0.  1.
         11   -1    0    0    0    0 -0.00000000000E+00 -0.00000000000E+00 -0.45593999997E+02  0.45594000000E+02  0.51100000000E-03 0. -1.
    9900012    2    1    2    0    0 -0.17921563456E+01 -0.39247688804E+02  0.18439913708E+02  0.47787270532E+02  0.19999997663E+02 0.  0.
         12    1    1    2    0    0  0.17921563456E+01  0.39247688804E+02 -0.18439913708E+02  0.43400729468E+02  0.00000000000E+00 0. -1.
         11    1    3    3    0    0  0.50166632425E+01 -0.27149468476E+01  0.60874750880E+01  0.83423737438E+01  0.51100000000E-03 0.  1.
        -11    1    3    3    0    0 -0.19994754041E+01 -0.44573102567E+01  0.49023757356E+00  0.49097708456E+01  0.51100000000E-03 0. -1.
        -12    1    3    3    0    0 -0.48093441840E+01 -0.32075431700E+02  0.11862201046E+02  0.34535125942E+02  0.00000000000E+00 0.  1.
</event>
<event>
 7    1  0.2580704E-010  0.4778726E+02  0.7816164E-02  0.1312668E+00
        -11   -1    0    0    0    0  0.00000000000E+00  0.00000000000E+00  0.45593999997E+02  0.45594000000E+02  0.51100000000E-03 0.  1.
         11   -1    0    0    0    0 -0.00000000000E+00 -0.00000000000E+00 -0.45593999997E+02  0.45594000000E+02  0.51100000000E-03 0. -1.
    9900012    2    1    2    0    0 -0.35873279402E+02  0.18790033434E+02  0.15609815380E+02  0.47787264203E+02  0.19999968807E+02 0.  0.
         12    1    1    2    0    0  0.35873279402E+02 -0.18790033434E+02 -0.15609815380E+02  0.43400735797E+02  0.00000000000E+00 0. -1.
         11    1    3    3    0    0 -0.15232023784E+02  0.13520570578E+02  0.45803690129E+01  0.20875827118E+02  0.51100000000E-03 0. -1.
        -11    1    3    3    0    0 -0.18506244408E+02  0.87367769334E+01  0.89014324313E+01  0.22316985748E+02  0.51100000000E-03 0.  1.
         12    1    3    3    0    0 -0.21350112098E+01 -0.34673140771E+01  0.21280139356E+01  0.45944513367E+01  0.00000000000E+00 0. -1.
</event>
<event>
 7    1  0.2580704E-010  0.4778727E+02  0.7816164E-02  0.1312668E+00
        -11   -1    0    0    0    0  0.00000000000E+00  0.00000000000E+00  0.45593999997E+02  0.45594000000E+02  0.51100000000E-03 0. -1.
         11   -1    0    0    0    0 -0.00000000000E+00 -0.00000000000E+00 -0.45593999997E+02  0.45594000000E+02  0.51100000000E-03 0.  1.
    9900012    2    1    2    0    0  0.47953190809E+01  0.29201222909E+01 -0.43036045662E+02  0.47787269297E+02  0.19999992035E+02 0.  0.
         12    1    1    2    0    0 -0.47953190809E+01 -0.29201222909E+01  0.43036045662E+02  0.43400730703E+02  0.00000000000E+00 0. -1.
         11    1    3    3    0    0  0.14403284557E+01  0.28958577366E+01 -0.11999276734E+02  0.12427517069E+02  0.51100000000E-03 0. -1.
        -11    1    3    3    0    0  0.33708992309E+01  0.51234515912E+01 -0.29357336451E+02  0.29991097372E+02  0.51100000000E-03 0.  1.
         12    1    3    3    0    0 -0.15908605631E-01 -0.50991870369E+01 -0.16794324767E+01  0.53686548561E+01  0.00000000000E+00 0. -1.
</event>
<event>
 7    1  0.2580704E-010  0.4778724E+02  0.7816164E-02  0.1312668E+00
        -11   -1    0    0    0    0  0.00000000000E+00  0.00000000000E+00  0.45593999997E+02  0.45594000000E+02  0.51100000000E-03 0.  1.
         11   -1    0    0    0    0 -0.00000000000E+00 -0.00000000000E+00 -0.45593999997E+02  0.45594000000E+02  0.51100000000E-03 0. -1.
    9900012    2    1    2    0    0 -0.28927158669E+02  0.21517140910E+02  0.24163160490E+02  0.47787237490E+02  0.19999847012E+02 0.  0.
         12    1    1    2    0    0  0.28927158669E+02 -0.21517140910E+02 -0.24163160490E+02  0.43400762510E+02  0.00000000000E+00 0. -1.
         11    1    3    3    0    0 -0.34929846966E+01 -0.21184795585E+01 -0.67327637826E-01  0.40857595380E+01  0.51100000000E-03 0. -1.
        -11    1    3    3    0    0 -0.91760188277E+01  0.36321205030E+01  0.10819622495E+02  0.14644311253E+02  0.51100000000E-03 0.  1.
        -12    1    3    3    0    0 -0.16258155144E+02  0.20003499966E+02  0.13410865633E+02  0.29057166699E+02  0.00000000000E+00 0.  1.
</event>
<event>
 7    1  0.2580704E-010  0.4778727E+02  0.7816164E-02  0.1312668E+00
        -11   -1    0    0    0    0  0.00000000000E+00  0.00000000000E+00  0.45593999997E+02  0.45594000000E+02  0.51100000000E-03 0.  1.
         11   -1    0    0    0    0 -0.00000000000E+00 -0.00000000000E+00 -0.45593999997E+02  0.45594000000E+02  0.51100000000E-03 0. -1.
    9900012    2    1    2    0    0 -0.10151601482E+02  0.15790738706E+01  0.42167223506E+02  0.47787271606E+02  0.20000002561E+02 0.  0.
         12    1    1    2    0    0  0.10151601482E+02 -0.15790738706E+01 -0.42167223506E+02  0.43400728394E+02  0.00000000000E+00 0. -1.
         11    1    3    3    0    0 -0.46999451041E+01 -0.68844777625E+00  0.50474136158E+01  0.69310770297E+01  0.51100000000E-03 0. -1.
        -11    1    3    3    0    0  0.47619525416E+01 -0.10918334177E+01  0.50258127448E+01  0.70090717094E+01  0.51100000000E-03 0.  1.
        -12    1    3    3    0    0 -0.10213608920E+02  0.33593550646E+01  0.32093997145E+02  0.33847122867E+02  0.00000000000E+00 0.  1.
</event>
<event>
 7    1  0.2580704E-010  0.4778727E+02  0.7816164E-02  0.1312668E+00
        -11   -1    0    0    0    0  0.00000000000E+00  0.00000000000E+00  0.45593999997E+02  0.45594000000E+02  0.51100000000E-03 0.  1.
         11   -1    0    0    0    0 -0.00000000000E+00 -0.00000000000E+00 -0.45593999997E+02  0.45594000000E+02  0.51100000000E-03 0. -1.
    9900012    2    1    2    0    0 -0.93245588281E+01 -0.91200789495E+01  0.41394442915E+02  0.47787272568E+02  0.20000006946E+02 0.  0.
         12    1    1    2    0    0  0.93245588281E+01  0.91200789495E+01 -0.41394442915E+02  0.43400727432E+02  0.00000000000E+00 0. -1.
         11    1    3    3    0    0 -0.52668654716E+01 -0.26921890958E+01  0.48925779158E+01  0.76762668627E+01  0.51100000000E-03 0. -1.
        -11    1    3    3    0    0 -0.40029481122E+01 -0.11173709928E+02  0.26786196892E+02  0.29298049958E+02  0.51100000000E-03 0.  1.
         12    1    3    3    0    0 -0.54745244224E-01  0.47458200744E+01  0.97156681073E+01  0.10812955747E+02  0.00000000000E+00 0. -1.
</event>
<event>
 7    1  0.2580704E-010  0.4778727E+02  0.7816164E-02  0.1312668E+00
        -11   -1    0    0    0    0  0.00000000000E+00  0.00000000000E+00  0.45593999997E+02  0.45594000000E+02  0.51100000000E-03 0.  1.
         11   -1    0    0    0    0 -0.00000000000E+00 -0.00000000000E+00 -0.45593999997E+02  0.45594000000E+02  0.51100000000E-03 0. -1.
    9900012    2    1    2    0    0 -0.25764084046E+01  0.31858652811E+02  0.29360033936E+02  0.47787271527E+02  0.20000002202E+02 0.  0.
         12    1    1    2    0    0  0.25764084046E+01 -0.31858652811E+02 -0.29360033936E+02  0.43400728473E+02  0.00000000000E+00 0. -1.
         11    1    3    3    0    0 -0.26918489723E+01  0.10660408385E+02  0.14265499860E+01  0.11087172901E+02  0.51100000000E-03 0. -1.
        -11    1    3    3    0    0  0.14585072920E+01 -0.78674929189E+00  0.30305438926E+01  0.34540432127E+01  0.51100000000E-03 0.  1.
        -12    1    3    3    0    0 -0.13430667242E+01  0.21984993718E+02  0.24902940058E+02  0.33246055413E+02  0.00000000000E+00 0.  1.
</event>
<event>
 7    1  0.2580704E-010  0.4778725E+02  0.7816164E-02  0.1312668E+00
        -11   -1    0    0    0    0  0.00000000000E+00  0.00000000000E+00  0.45593999997E+02  0.45594000000E+02  0.51100000000E-03 0.  1.
         11   -1    0    0    0    0 -0.00000000000E+00 -0.00000000000E+00 -0.45593999997E+02  0.45594000000E+02  0.51100000000E-03 0. -1.
    9900012    2    1    2    0    0 -0.33306944030E+02 -0.20860832028E+01  0.27747454982E+02  0.47787245148E+02  0.19999881927E+02 0.  0.
         12    1    1    2    0    0  0.33306944030E+02  0.20860832028E+01 -0.27747454982E+02  0.43400754852E+02  0.00000000000E+00 0. -1.
         11    1    3    3    0    0 -0.21495462280E+02 -0.78719838358E+01  0.12895967359E+02  0.26274112783E+02  0.51100000000E-03 0. -1.
        -11    1    3    3    0    0  0.10646566356E+01  0.15063166157E+01  0.28696441990E+01  0.34113548025E+01  0.51100000000E-03 0.  1.
        -12    1    3    3    0    0 -0.12876138385E+02  0.42795840173E+01  0.11981843424E+02  0.18101777562E+02  0.00000000000E+00 0.  1.
</event>
<event>
 7    1  0.2580704E-010  0.4778727E+02  0.7816164E-02  0.1312668E+00
        -11   -1    0    0    0    0  0.00000000000E+00  0.00000000000E+00  0.45593999997E+02  0.45594000000E+02  0.51100000000E-03 0. -1.
         11   -1    0    0    0    0 -0.00000000000E+00 -0.00000000000E+00 -0.45593999997E+02  0.45594000000E+02  0.51100000000E-03 0.  1.
    9900012    2    1    2    0    0 -0.26574627854E+01 -0.15278309281E+02 -0.40535593737E+02  0.47787271866E+02  0.20000003748E+02 0.  0.
         12    1    1    2    0    0  0.26574627854E+01  0.15278309281E+02  0.40535593737E+02  0.43400728134E+02  0.00000000000E+00 0. -1.
         11    1    3    3    0    0 -0.72837264130E+00 -0.11580928572E+02 -0.28068654385E+02  0.30372648758E+02  0.51100000000E-03 0. -1.
        -11    1    3    3    0    0 -0.28670757310E+01  0.15773605102E+00 -0.13087505699E+02  0.13398798812E+02  0.51100000000E-03 0.  1.
         12    1    3    3    0    0  0.93798558688E+00 -0.38551167600E+01  0.62056634774E+00  0.40158242973E+01  0.00000000000E+00 0. -1.
</event>
<event>
 7    1  0.2580704E-010  0.4778727E+02  0.7816164E-02  0.1312668E+00
        -11   -1    0    0    0    0  0.00000000000E+00  0.00000000000E+00  0.45593999997E+02  0.45594000000E+02  0.51100000000E-03 0.  1.
         11   -1    0    0    0    0 -0.00000000000E+00 -0.00000000000E+00 -0.45593999997E+02  0.45594000000E+02  0.51100000000E-03 0. -1.
    9900012    2    1    2    0    0 -0.51638258660E+01  0.31029567162E+02  0.29901905782E+02  0.47787272988E+02  0.20000008861E+02 0.  0.
         12    1    1    2    0    0  0.51638258660E+01 -0.31029567162E+02 -0.29901905782E+02  0.43400727012E+02  0.00000000000E+00 0. -1.
         11    1    3    3    0    0 -0.36673063546E+01  0.14972477769E+02  0.71990253858E+01  0.17013235824E+02  0.51100000000E-03 0.  1.
        -11    1    3    3    0    0  0.16126344839E+00  0.84150664078E+01  0.20105354750E+01  0.86534156091E+01  0.51100000000E-03 0. -1.
        -12    1    3    3    0    0 -0.16577829598E+01  0.76420229846E+01  0.20692344921E+02  0.22120621554E+02  0.00000000000E+00 0.  1.
</event>
<event>
 7    1  0.2580704E-010  0.4778727E+02  0.7816164E-02  0.1312668E+00
        -11   -1    0    0    0    0  0.00000000000E+00  0.00000000000E+00  0.45593999997E+02  0.45594000000E+02  0.51100000000E-03 0.  1.
         11   -1    0    0    0    0 -0.00000000000E+00 -0.00000000000E+00 -0.45593999997E+02  0.45594000000E+02  0.51100000000E-03 0. -1.
    9900012    2    1    2    0    0 -0.16892774788E+02  0.27126718249E+01  0.39886072359E+02  0.47787271933E+02  0.20000004051E+02 0.  0.
         12    1    1    2    0    0  0.16892774788E+02 -0.27126718249E+01 -0.39886072359E+02  0.43400728067E+02  0.00000000000E+00 0. -1.
         11    1    3    3    0    0 -0.16846016684E+01  0.19118241825E+01 -0.79472714313E+00  0.26691845157E+01  0.51100000000E-03 0. -1.
        -11    1    3    3    0    0 -0.13654585737E+02 -0.25170308492E+00  0.19234067542E+02  0.23589413315E+02  0.51100000000E-03 0.  1.
         12    1    3    3    0    0 -0.15535873828E+01  0.10525507273E+01  0.21446731961E+02  0.21528674102E+02  0.00000000000E+00 0. -1.
</event>
<event>
 7    1  0.2580704E-010  0.4778727E+02  0.7816164E-02  0.1312668E+00
        -11   -1    0    0    0    0  0.00000000000E+00  0.00000000000E+00  0.45593999997E+02  0.45594000000E+02  0.51100000000E-03 0.  1.
         11   -1    0    0    0    0 -0.00000000000E+00 -0.00000000000E+00 -0.45593999997E+02  0.45594000000E+02  0.51100000000E-03 0. -1.
    9900012    2    1    2    0    0  0.16281052523E+02 -0.28076315628E+02 -0.28814428139E+02  0.47787269137E+02  0.19999991303E+02 0.  0.
         12    1    1    2    0    0 -0.16281052523E+02  0.28076315628E+02  0.28814428139E+02  0.43400730863E+02  0.00000000000E+00 0. -1.
         11    1    3    3    0    0  0.43819321099E+01 -0.56366118939E+01 -0.84078306267E+01  0.11030155881E+02  0.51100000000E-03 0. -1.
        -11    1    3    3    0    0  0.35452313253E+01 -0.12811147886E+02 -0.73062349410E+00  0.13312700186E+02  0.51100000000E-03 0.  1.
         12    1    3    3    0    0  0.83538890878E+01 -0.96285558478E+01 -0.19675974018E+02  0.23444413069E+02  0.00000000000E+00 0. -1.
</event>
<event>
 7    1  0.2580704E-010  0.4778727E+02  0.7816164E-02  0.1312668E+00
        -11   -1    0    0    0    0  0.00000000000E+00  0.00000000000E+00  0.45593999997E+02  0.45594000000E+02  0.51100000000E-03 0.  1.
         11   -1    0    0    0    0 -0.00000000000E+00 -0.00000000000E+00 -0.45593999997E+02  0.45594000000E+02  0.51100000000E-03 0. -1.
    9900012    2    1    2    0    0 -0.61828625714E+01 -0.41681544183E+02  0.10394432204E+02  0.47787272634E+02  0.20000007249E+02 0.  0.
         12    1    1    2    0    0  0.61828625714E+01  0.41681544183E+02 -0.10394432204E+02  0.43400727366E+02  0.00000000000E+00 0. -1.
         11    1    3    3    0    0  0.42074058104E+01 -0.10245967681E+01  0.69786047212E+00  0.43862366204E+01  0.51100000000E-03 0. -1.
        -11    1    3    3    0    0 -0.63138883542E+00 -0.12252980371E+02  0.26721168468E+01  0.12556846281E+02  0.51100000000E-03 0.  1.
         12    1    3    3    0    0 -0.97588795464E+01 -0.28403967044E+02  0.70244548850E+01  0.30844189733E+02  0.00000000000E+00 0. -1.
</event>
<event>
 7    1  0.2580704E-010  0.4778727E+02  0.7816164E-02  0.1312668E+00
        -11   -1    0    0    0    0  0.00000000000E+00  0.00000000000E+00  0.45593999997E+02  0.45594000000E+02  0.51100000000E-03 0.  1.
         11   -1    0    0    0    0 -0.00000000000E+00 -0.00000000000E+00 -0.45593999997E+02  0.45594000000E+02  0.51100000000E-03 0. -1.
    9900012    2    1    2    0    0 -0.82200041871E+01 -0.77654574924E+00  0.42608115006E+02  0.47787274701E+02  0.20000016671E+02 0.  0.
         12    1    1    2    0    0  0.82200041871E+01  0.77654574924E+00 -0.42608115006E+02  0.43400725299E+02  0.00000000000E+00 0. -1.
         11    1    3    3    0    0 -0.78632385936E+01 -0.22387638890E+01  0.77713461725E+01  0.11279911636E+02  0.51100000000E-03 0. -1.
        -11    1    3    3    0    0 -0.47960880423E+01 -0.19935174039E+01  0.19168637667E+02  0.19859839939E+02  0.51100000000E-03 0.  1.
         12    1    3    3    0    0  0.44393224488E+01  0.34557355437E+01  0.15668131166E+02  0.16647523125E+02  0.00000000000E+00 0. -1.
</event>
<event>
 7    1  0.2580704E-010  0.4778727E+02  0.7816164E-02  0.1312668E+00
        -11   -1    0    0    0    0  0.00000000000E+00  0.00000000000E+00  0.45593999997E+02  0.45594000000E+02  0.51100000000E-03 0.  1.
         11   -1    0    0    0    0 -0.00000000000E+00 -0.00000000000E+00 -0.45593999997E+02  0.45594000000E+02  0.51100000000E-03 0. -1.
    9900012    2    1    2    0    0  0.11120418489E+02 -0.41929876842E+01  0.41741808855E+02  0.47787268905E+02  0.19999990245E+02 0.  0.
         12    1    1    2    0    0 -0.11120418489E+02  0.41929876842E+01 -0.41741808855E+02  0.43400731095E+02  0.00000000000E+00 0. -1.
         11    1    3    3    0    0  0.33473362971E+01  0.23875974285E+01  0.49214490858E+01  0.64129512030E+01  0.51100000000E-03 0. -1.
        -11    1    3    3    0    0  0.11698448727E+02 -0.32930619887E+01  0.16961500810E+02  0.20866012313E+02  0.51100000000E-03 0.  1.
         12    1    3    3    0    0 -0.39253665354E+01 -0.32875231240E+01  0.19858858960E+02  0.20508305389E+02  0.00000000000E+00 0. -1.
</event>
<event>
 7    1  0.2580704E-010  0.4778730E+02  0.7816164E-02  0.1312668E+00
        -11   -1    0    0    0    0  0.00000000000E+00  0.00000000000E+00  0.45593999997E+02  0.45594000000E+02  0.51100000000E-03 0.  1.
         11   -1    0    0    0    0 -0.00000000000E+00 -0.00000000000E+00 -0.45593999997E+02  0.45594000000E+02  0.51100000000E-03 0. -1.
    9900012    2    1    2    0    0  0.19128887416E+02 -0.34374180344E+02 -0.18333639716E+02  0.47787297779E+02  0.20000121891E+02 0.  0.
         12    1    1    2    0    0 -0.19128887416E+02  0.34374180344E+02  0.18333639716E+02  0.43400702221E+02  0.00000000000E+00 0. -1.
         11    1    3    3    0    0  0.12360827731E+02 -0.13896101435E+02 -0.13182442541E+02  0.22796238481E+02  0.51100000000E-03 0. -1.
        -11    1    3    3    0    0  0.43113907704E+01 -0.61118853771E+00 -0.17151368270E+01  0.46801000417E+01  0.51100000000E-03 0.  1.
        -12    1    3    3    0    0  0.24566689143E+01 -0.19866890371E+02 -0.34360603482E+01  0.20310959256E+02  0.00000000000E+00 0.  1.
</event>
<event>
 7    1  0.2580704E-010  0.4778727E+02  0.7816164E-02  0.1312668E+00
        -11   -1    0    0    0    0  0.00000000000E+00  0.00000000000E+00  0.45593999997E+02  0.45594000000E+02  0.51100000000E-03 0.  1.
         11   -1    0    0    0    0 -0.00000000000E+00 -0.00000000000E+00 -0.45593999997E+02  0.45594000000E+02  0.51100000000E-03 0. -1.
    9900012    2    1    2    0    0 -0.57918054489E+01  0.18339270160E+02  0.38906931110E+02  0.47787272717E+02  0.20000007624E+02 0.  0.
         12    1    1    2    0    0  0.57918054489E+01 -0.18339270160E+02 -0.38906931110E+02  0.43400727283E+02  0.00000000000E+00 0. -1.
         11    1    3    3    0    0  0.32090114695E+01  0.25521847682E+01  0.99290516490E+01  0.10742321379E+02  0.51100000000E-03 0. -1.
        -11    1    3    3    0    0  0.32581660772E+01  0.48282132440E+01  0.37367336608E+01  0.69202939265E+01  0.51100000000E-03 0.  1.
        -12    1    3    3    0    0 -0.12258982996E+02  0.10958872148E+02  0.25241145800E+02  0.30124657411E+02  0.00000000000E+00 0.  1.
</event>
<event>
 7    1  0.2580704E-010  0.4778728E+02  0.7816164E-02  0.1312668E+00
        -11   -1    0    0    0    0  0.00000000000E+00  0.00000000000E+00  0.45593999997E+02  0.45594000000E+02  0.51100000000E-03 0.  1.
         11   -1    0    0    0    0 -0.00000000000E+00 -0.00000000000E+00 -0.45593999997E+02  0.45594000000E+02  0.51100000000E-03 0. -1.
    9900012    2    1    2    0    0 -0.14029183823E+02 -0.10973951385E+02  0.39577482946E+02  0.47787276917E+02  0.20000026776E+02 0.  0.
         12    1    1    2    0    0  0.14029183823E+02  0.10973951385E+02 -0.39577482946E+02  0.43400723083E+02  0.00000000000E+00 0. -1.
         11    1    3    3    0    0 -0.69671732079E+01 -0.43839512276E+01  0.16981898540E+02  0.18871815206E+02  0.51100000000E-03 0. -1.
        -11    1    3    3    0    0 -0.35796849281E+01 -0.82364349726E+01  0.23325811895E+02  0.24994929607E+02  0.51100000000E-03 0.  1.
         12    1    3    3    0    0 -0.34823256875E+01  0.16464348152E+01 -0.73022748894E+00  0.39205321042E+01  0.00000000000E+00 0. -1.
</event>
<event>
 7    1  0.2580704E-010  0.4778727E+02  0.7816164E-02  0.1312668E+00
        -11   -1    0    0    0    0  0.00000000000E+00  0.00000000000E+00  0.45593999997E+02  0.45594000000E+02  0.51100000000E-03 0.  1.
         11   -1    0    0    0    0 -0.00000000000E+00 -0.00000000000E+00 -0.45593999997E+02  0.45594000000E+02  0.51100000000E-03 0. -1.
    9900012    2    1    2    0    0 -0.39704748163E+01  0.42805822169E+02 -0.59598790903E+01  0.47787271428E+02  0.20000001748E+02 0.  0.
         12    1    1    2    0    0  0.39704748163E+01 -0.42805822169E+02  0.59598790903E+01  0.43400728572E+02  0.00000000000E+00 0. -1.
         11    1    3    3    0    0 -0.28180972561E+01  0.21002059985E+02  0.47500210418E-01  0.21190338655E+02  0.51100000000E-03 0. -1.
        -11    1    3    3    0    0 -0.29197237930E+00  0.23044078224E+02 -0.30110004730E+01  0.23241792383E+02  0.51100000000E-03 0.  1.
        -12    1    3    3    0    0 -0.86040518088E+00 -0.12403160408E+01 -0.29963788277E+01  0.33551403898E+01  0.00000000000E+00 0.  1.
</event>
<event>
 7    1  0.2580704E-010  0.4778727E+02  0.7816164E-02  0.1312668E+00
        -11   -1    0    0    0    0  0.00000000000E+00  0.00000000000E+00  0.45593999997E+02  0.45594000000E+02  0.51100000000E-03 0.  1.
         11   -1    0    0    0    0 -0.00000000000E+00 -0.00000000000E+00 -0.45593999997E+02  0.45594000000E+02  0.51100000000E-03 0. -1.
    9900012    2    1    2    0    0  0.40805985023E+02  0.11221414188E+02 -0.96215915406E+01  0.47787267589E+02  0.19999984245E+02 0.  0.
         12    1    1    2    0    0 -0.40805985023E+02 -0.11221414188E+02  0.96215915406E+01  0.43400732411E+02  0.00000000000E+00 0. -1.
         11    1    3    3    0    0  0.64358761903E+01 -0.25730042152E+01  0.66622836964E+00  0.69630965475E+01  0.51100000000E-03 0. -1.
        -11    1    3    3    0    0  0.16655742234E+02 -0.84025379088E-01 -0.17190405421E+01  0.16744429231E+02  0.51100000000E-03 0.  1.
        -12    1    3    3    0    0  0.17714366598E+02  0.13878443782E+02 -0.85687793681E+01  0.24079741810E+02  0.00000000000E+00 0.  1.
</event>
<event>
 7    1  0.2580704E-010  0.4778727E+02  0.7816164E-02  0.1312668E+00
        -11   -1    0    0    0    0  0.00000000000E+00  0.00000000000E+00  0.45593999997E+02  0.45594000000E+02  0.51100000000E-03 0.  1.
         11   -1    0    0    0    0 -0.00000000000E+00 -0.00000000000E+00 -0.45593999997E+02  0.45594000000E+02  0.51100000000E-03 0. -1.
    9900012    2    1    2    0    0  0.22948989862E+02  0.16911022729E+02  0.32725900025E+02  0.47787270077E+02  0.19999995589E+02 0.  0.
         12    1    1    2    0    0 -0.22948989862E+02 -0.16911022729E+02 -0.32725900025E+02  0.43400729923E+02  0.00000000000E+00 0. -1.
         11    1    3    3    0    0  0.57031225082E+01  0.80858420178E+01  0.60032048191E+01  0.11573457385E+02  0.51100000000E-03 0.  1.
        -11    1    3    3    0    0  0.84019432658E+01  0.94752951685E+01  0.67263708681E+01  0.14339384034E+02  0.51100000000E-03 0. -1.
         12    1    3    3    0    0  0.88439240878E+01 -0.65011445744E+00  0.19996324338E+02  0.21874428658E+02  0.00000000000E+00 0. -1.
</event>
<event>
 7    1  0.2580704E-010  0.4778727E+02  0.7816164E-02  0.1312668E+00
        -11   -1    0    0    0    0  0.00000000000E+00  0.00000000000E+00  0.45593999997E+02  0.45594000000E+02  0.51100000000E-03 0.  1.
         11   -1    0    0    0    0 -0.00000000000E+00 -0.00000000000E+00 -0.45593999997E+02  0.45594000000E+02  0.51100000000E-03 0. -1.
    9900012    2    1    2    0    0 -0.16401075224E+02  0.59284171908E+01  0.39742695239E+02  0.47787271621E+02  0.20000002631E+02 0.  0.
         12    1    1    2    0    0  0.16401075224E+02 -0.59284171908E+01 -0.39742695239E+02  0.43400728379E+02  0.00000000000E+00 0. -1.
         11    1    3    3    0    0 -0.11754638982E+01  0.32718023077E+01  0.77557262124E+00  0.35620105093E+01  0.51100000000E-03 0. -1.
        -11    1    3    3    0    0 -0.70331397823E+01  0.75365683807E+01  0.27146386887E+02  0.29037755414E+02  0.51100000000E-03 0.  1.
        -12    1    3    3    0    0 -0.81924715436E+01 -0.48799534976E+01  0.11820735731E+02  0.15187505699E+02  0.00000000000E+00 0.  1.
</event>
<event>
 7    1  0.2580704E-010  0.4778728E+02  0.7816164E-02  0.1312668E+00
        -11   -1    0    0    0    0  0.00000000000E+00  0.00000000000E+00  0.45593999997E+02  0.45594000000E+02  0.51100000000E-03 0. -1.
         11   -1    0    0    0    0 -0.00000000000E+00 -0.00000000000E+00 -0.45593999997E+02  0.45594000000E+02  0.51100000000E-03 0.  1.
    9900012    2    1    2    0    0 -0.31925796601E+01  0.33484343398E+02 -0.27426789350E+02  0.47787278903E+02  0.20000035830E+02 0.  0.
         12    1    1    2    0    0  0.31925796601E+01 -0.33484343398E+02  0.27426789350E+02  0.43400721097E+02  0.00000000000E+00 0. -1.
         11    1    3    3    0    0 -0.89200853311E+00  0.18720965273E-01  0.14093835259E+01  0.16680503235E+01  0.51100000000E-03 0. -1.
        -11    1    3    3    0    0  0.50292898995E+01  0.12753059283E+02 -0.81869132569E+01  0.15967461504E+02  0.51100000000E-03 0.  1.
         12    1    3    3    0    0 -0.73298610265E+01  0.20712563150E+02 -0.20649259619E+02  0.30151767075E+02  0.00000000000E+00 0. -1.
</event>
<event>
 7    1  0.2580704E-010  0.4778727E+02  0.7816164E-02  0.1312668E+00
        -11   -1    0    0    0    0  0.00000000000E+00  0.00000000000E+00  0.45593999997E+02  0.45594000000E+02  0.51100000000E-03 0.  1.
         11   -1    0    0    0    0 -0.00000000000E+00 -0.00000000000E+00 -0.45593999997E+02  0.45594000000E+02  0.51100000000E-03 0. -1.
    9900012    2    1    2    0    0  0.17326002177E+02 -0.35462322611E+02  0.18051505607E+02  0.47787268081E+02  0.19999986488E+02 0.  0.
         12    1    1    2    0    0 -0.17326002177E+02  0.35462322611E+02 -0.18051505607E+02  0.43400731919E+02  0.00000000000E+00 0. -1.
         11    1    3    3    0    0  0.54395904197E+01 -0.40644199179E+01 -0.48446335110E+00  0.68075956257E+01  0.51100000000E-03 0. -1.
        -11    1    3    3    0    0  0.10056195195E+02 -0.87233143196E+01  0.10128094893E+02  0.16727270577E+02  0.51100000000E-03 0.  1.
        -12    1    3    3    0    0  0.18302165622E+01 -0.22674588374E+02  0.84078740649E+01  0.24252401878E+02  0.00000000000E+00 0.  1.
</event>
<event>
 7    1  0.2580704E-010  0.4778727E+02  0.7816164E-02  0.1312668E+00
        -11   -1    0    0    0    0  0.00000000000E+00  0.00000000000E+00  0.45593999997E+02  0.45594000000E+02  0.51100000000E-03 0. -1.
         11   -1    0    0    0    0 -0.00000000000E+00 -0.00000000000E+00 -0.45593999997E+02  0.45594000000E+02  0.51100000000E-03 0.  1.
    9900012    2    1    2    0    0 -0.43244516576E+02  0.36761105841E+01  0.14733843380E+00  0.47787266002E+02  0.19999977012E+02 0.  0.
         12    1    1    2    0    0  0.43244516576E+02 -0.36761105841E+01 -0.14733843380E+00  0.43400733998E+02  0.00000000000E+00 0. -1.
         11    1    3    3    0    0 -0.60222372517E+01  0.52796380429E+01 -0.39861842550E+00  0.80187789775E+01  0.51100000000E-03 0. -1.
        -11    1    3    3    0    0 -0.18221413554E+02  0.21650616685E+01 -0.60248958251E+01  0.19313383284E+02  0.51100000000E-03 0.  1.
         12    1    3    3    0    0 -0.19000865771E+02 -0.37685891273E+01  0.65708526844E+01  0.20455103741E+02  0.00000000000E+00 0. -1.
</event>
<event>
 7    1  0.2580704E-010  0.4778727E+02  0.7816164E-02  0.1312668E+00
        -11   -1    0    0    0    0  0.00000000000E+00  0.00000000000E+00  0.45593999997E+02  0.45594000000E+02  0.51100000000E-03 0.  1.
         11   -1    0    0    0    0 -0.00000000000E+00 -0.00000000000E+00 -0.45593999997E+02  0.45594000000E+02  0.51100000000E-03 0. -1.
    9900012    2    1    2    0    0  0.11236674966E+02 -0.41269807000E+02  0.73595753426E+01  0.47787272088E+02  0.20000004757E+02 0.  0.
         12    1    1    2    0    0 -0.11236674966E+02  0.41269807000E+02 -0.73595753426E+01  0.43400727912E+02  0.00000000000E+00 0. -1.
         11    1    3    3    0    0 -0.19456159634E+01 -0.15820332036E+02  0.32483893624E+01  0.16267155895E+02  0.51100000000E-03 0. -1.
        -11    1    3    3    0    0  0.46184088569E+01 -0.20476120241E+02  0.55537621147E+00  0.20997848544E+02  0.51100000000E-03 0.  1.
        -12    1    3    3    0    0  0.85638820729E+01 -0.49733547232E+01  0.35558097687E+01  0.10522267649E+02  0.00000000000E+00 0.  1.
</event>
<event>
 7    1  0.2580704E-010  0.4778727E+02  0.7816164E-02  0.1312668E+00
        -11   -1    0    0    0    0  0.00000000000E+00  0.00000000000E+00  0.45593999997E+02  0.45594000000E+02  0.51100000000E-03 0. -1.
         11   -1    0    0    0    0 -0.00000000000E+00 -0.00000000000E+00 -0.45593999997E+02  0.45594000000E+02  0.51100000000E-03 0.  1.
    9900012    2    1    2    0    0 -0.33916989843E+02  0.70548952982E+00 -0.27069598376E+02  0.47787273374E+02  0.20000010621E+02 0.  0.
         12    1    1    2    0    0  0.33916989843E+02 -0.70548952982E+00  0.27069598376E+02  0.43400726626E+02  0.00000000000E+00 0. -1.
         11    1    3    3    0    0 -0.59714168022E+01  0.14586890195E+01  0.87310997747E+00  0.62086966084E+01  0.51100000000E-03 0. -1.
        -11    1    3    3    0    0 -0.17111894829E+02 -0.83734271788E+00 -0.80552842464E+01  0.18931605637E+02  0.51100000000E-03 0.  1.
         12    1    3    3    0    0 -0.10833678212E+02  0.84143228232E-01 -0.19887424107E+02  0.22646971128E+02  0.00000000000E+00 0. -1.
</event>
<event>
 7    1  0.2580704E-010  0.4778727E+02  0.7816164E-02  0.1312668E+00
        -11   -1    0    0    0    0  0.00000000000E+00  0.00000000000E+00  0.45593999997E+02  0.45594000000E+02  0.51100000000E-03 0.  1.
         11   -1    0    0    0    0 -0.00000000000E+00 -0.00000000000E+00 -0.45593999997E+02  0.45594000000E+02  0.51100000000E-03 0. -1.
    9900012    2    1    2    0    0 -0.39780391571E+02 -0.14883193823E+00  0.17352851800E+02  0.47787272241E+02  0.20000005454E+02 0.  0.
         12    1    1    2    0    0  0.39780391571E+02  0.14883193823E+00 -0.17352851800E+02  0.43400727759E+02  0.00000000000E+00 0. -1.
         11    1    3    3    0    0 -0.20456187111E+02  0.24289172265E+01  0.27230138781E+01  0.20779076852E+02  0.51100000000E-03 0. -1.
        -11    1    3    3    0    0 -0.18406778623E+02 -0.45871726399E+01  0.90719105679E+01  0.21027391986E+02  0.51100000000E-03 0.  1.
         12    1    3    3    0    0 -0.91742583675E+00  0.20094234752E+01  0.55579273538E+01  0.59808034024E+01  0.00000000000E+00 0. -1.
</event>
<event>
 7    1  0.2580704E-010  0.4778727E+02  0.7816164E-02  0.1312668E+00
        -11   -1    0    0    0    0  0.00000000000E+00  0.00000000000E+00  0.45593999997E+02  0.45594000000E+02  0.51100000000E-03 0. -1.
         11   -1    0    0    0    0 -0.00000000000E+00 -0.00000000000E+00 -0.45593999997E+02  0.45594000000E+02  0.51100000000E-03 0.  1.
    9900012    2    1    2    0    0 -0.37291002058E+02 -0.72162190411E+01 -0.20998348721E+02  0.47787270735E+02  0.19999998587E+02 0.  0.
         12    1    1    2    0    0  0.37291002058E+02  0.72162190411E+01  0.20998348721E+02  0.43400729265E+02  0.00000000000E+00 0. -1.
         11    1    3    3    0    0 -0.13089748163E+02 -0.59471459514E+01 -0.13163213423E+02  0.19493081845E+02  0.51100000000E-03 0. -1.
        -11    1    3    3    0    0 -0.34701698446E+00 -0.11360876728E+01 -0.39506459250E+01  0.41253750707E+01  0.51100000000E-03 0.  1.
        -12    1    3    3    0    0 -0.23854236911E+02 -0.13298541684E+00 -0.38844893734E+01  0.24168813819E+02  0.00000000000E+00 0.  1.
</event>
<event>
 7    1  0.2580704E-010  0.4778727E+02  0.7816164E-02  0.1312668E+00
        -11   -1    0    0    0    0  0.00000000000E+00  0.00000000000E+00  0.45593999997E+02  0.45594000000E+02  0.51100000000E-03 0.  1.
         11   -1    0    0    0    0 -0.00000000000E+00 -0.00000000000E+00 -0.45593999997E+02  0.45594000000E+02  0.51100000000E-03 0. -1.
    9900012    2    1    2    0    0  0.41249594173E+01  0.41408590705E+02 -0.12326252103E+02  0.47787272295E+02  0.20000005703E+02 0.  0.
         12    1    1    2    0    0 -0.41249594173E+01 -0.41408590705E+02  0.12326252103E+02  0.43400727705E+02  0.00000000000E+00 0. -1.
         11    1    3    3    0    0  0.30237202037E+01  0.19694261329E+02 -0.82796423293E+01  0.21576822995E+02  0.51100000000E-03 0.  1.
        -11    1    3    3    0    0  0.69830771283E+01  0.66182795249E+01 -0.24660713027E+01  0.99320943401E+01  0.51100000000E-03 0. -1.
        -12    1    3    3    0    0 -0.58818379146E+01  0.15096049851E+02 -0.15805384710E+01  0.16278354960E+02  0.00000000000E+00 0.  1.
</event>
<event>
 7    1  0.3826880E-010  0.4778728E+02  0.7816164E-02  0.1312668E+00
        -11   -1    0    0    0    0  0.00000000000E+00  0.00000000000E+00  0.45593999997E+02  0.45594000000E+02  0.51100000000E-03 0. -1.
         11   -1    0    0    0    0 -0.00000000000E+00 -0.00000000000E+00 -0.45593999997E+02  0.45594000000E+02  0.51100000000E-03 0.  1.
    9900012    2    1    2    0    0  0.32533019051E+02  0.70937523477E+01 -0.27837095932E+02  0.47787279259E+02  0.20000037454E+02 0.  0.
         12    1    1    2    0    0 -0.32533019051E+02 -0.70937523477E+01  0.27837095932E+02  0.43400720741E+02  0.00000000000E+00 0. -1.
         11    1    3    3    0    0  0.18039173679E+01  0.15577675244E+01  0.19826505416E+01  0.31002678855E+01  0.51100000000E-03 0. -1.
        -11    1    3    3    0    0  0.13699859526E+02 -0.28902249287E+01 -0.98251373846E+01  0.17104761795E+02  0.51100000000E-03 0.  1.
        -12    1    3    3    0    0  0.17029242157E+02  0.84262097520E+01 -0.19994609089E+02  0.27582249579E+02  0.00000000000E+00 0.  1.
</event>
<event>
 7    1  0.2580704E-010  0.4778727E+02  0.7816164E-02  0.1312668E+00
        -11   -1    0    0    0    0  0.00000000000E+00  0.00000000000E+00  0.45593999997E+02  0.45594000000E+02  0.51100000000E-03 0.  1.
         11   -1    0    0    0    0 -0.00000000000E+00 -0.00000000000E+00 -0.45593999997E+02  0.45594000000E+02  0.51100000000E-03 0. -1.
    9900012    2    1    2    0    0  0.22413411947E+02 -0.36235592125E+02  0.82609803017E+01  0.47787274577E+02  0.20000016105E+02 0.  0.
         12    1    1    2    0    0 -0.22413411947E+02  0.36235592125E+02 -0.82609803017E+01  0.43400725423E+02  0.00000000000E+00 0. -1.
         11    1    3    3    0    0 -0.10378727832E+01 -0.57355345598E+01  0.12073106930E+01  0.59524058977E+01  0.51100000000E-03 0. -1.
        -11    1    3    3    0    0  0.99472301564E+01 -0.18546688509E+02  0.10427626578E+02  0.23487495370E+02  0.51100000000E-03 0.  1.
         12    1    3    3    0    0  0.13504054574E+02 -0.11953369056E+02 -0.33739569696E+01  0.18347373309E+02  0.00000000000E+00 0. -1.
</event>
<event>
 7    1  0.2580704E-010  0.4778727E+02  0.7816164E-02  0.1312668E+00
        -11   -1    0    0    0    0  0.00000000000E+00  0.00000000000E+00  0.45593999997E+02  0.45594000000E+02  0.51100000000E-03 0.  1.
         11   -1    0    0    0    0 -0.00000000000E+00 -0.00000000000E+00 -0.45593999997E+02  0.45594000000E+02  0.51100000000E-03 0. -1.
    9900012    2    1    2    0    0  0.23944788246E+02  0.19910775717E+01  0.36142856568E+02  0.47787270111E+02  0.19999995742E+02 0.  0.
         12    1    1    2    0    0 -0.23944788246E+02 -0.19910775717E+01 -0.36142856568E+02  0.43400729889E+02  0.00000000000E+00 0. -1.
         11    1    3    3    0    0  0.12700589047E+02  0.84522440728E+01  0.13206781986E+02  0.20178317142E+02  0.51100000000E-03 0. -1.
        -11    1    3    3    0    0  0.85476677838E+01 -0.14172001976E+01  0.87531276344E+01  0.12316181413E+02  0.51100000000E-03 0.  1.
         12    1    3    3    0    0  0.26965314158E+01 -0.50439663036E+01  0.14182946948E+02  0.15292771556E+02  0.00000000000E+00 0. -1.
</event>
<event>
 7    1  0.2580704E-010  0.4778727E+02  0.7816164E-02  0.1312668E+00
        -11   -1    0    0    0    0  0.00000000000E+00  0.00000000000E+00  0.45593999997E+02  0.45594000000E+02  0.51100000000E-03 0. -1.
         11   -1    0    0    0    0 -0.00000000000E+00 -0.00000000000E+00 -0.45593999997E+02  0.45594000000E+02  0.51100000000E-03 0.  1.
    9900012    2    1    2    0    0  0.88828312167E+01 -0.35735192209E+02 -0.22972043460E+02  0.47787269207E+02  0.19999991621E+02 0.  0.
         12    1    1    2    0    0 -0.88828312167E+01  0.35735192209E+02  0.22972043460E+02  0.43400730793E+02  0.00000000000E+00 0. -1.
         11    1    3    3    0    0  0.13571555211E+02 -0.16985642767E+02 -0.82161189386E+01  0.23242284348E+02  0.51100000000E-03 0. -1.
        -11    1    3    3    0    0 -0.14153897992E+01 -0.79633176047E+01 -0.81389757493E+01  0.11474348873E+02  0.51100000000E-03 0.  1.
         12    1    3    3    0    0 -0.32733341950E+01 -0.10786231837E+02 -0.66169487721E+01  0.13070635985E+02  0.00000000000E+00 0. -1.
</event>
<event>
 7    1  0.2580704E-010  0.4778727E+02  0.7816164E-02  0.1312668E+00
        -11   -1    0    0    0    0  0.00000000000E+00  0.00000000000E+00  0.45593999997E+02  0.45594000000E+02  0.51100000000E-03 0. -1.
         11   -1    0    0    0    0 -0.00000000000E+00 -0.00000000000E+00 -0.45593999997E+02  0.45594000000E+02  0.51100000000E-03 0.  1.
    9900012    2    1    2    0    0 -0.28489472190E+02  0.99279135662E+01 -0.31199513172E+02  0.47787272868E+02  0.20000008313E+02 0.  0.
         12    1    1    2    0    0  0.28489472190E+02 -0.99279135662E+01  0.31199513172E+02  0.43400727132E+02  0.00000000000E+00 0. -1.
         11    1    3    3    0    0 -0.25345233653E+01  0.26358147474E+01  0.35727823721E+00  0.36740952726E+01  0.51100000000E-03 0. -1.
        -11    1    3    3    0    0 -0.51837592669E+01 -0.43657458036E+00  0.40665073011E+00  0.52179806993E+01  0.51100000000E-03 0.  1.
        -12    1    3    3    0    0 -0.20771189558E+02  0.77286733992E+01 -0.31963442139E+02  0.38895196896E+02  0.00000000000E+00 0.  1.
</event>
<event>
 7    1  0.2580704E-010  0.4778727E+02  0.7816164E-02  0.1312668E+00
        -11   -1    0    0    0    0  0.00000000000E+00  0.00000000000E+00  0.45593999997E+02  0.45594000000E+02  0.51100000000E-03 0.  1.
         11   -1    0    0    0    0 -0.00000000000E+00 -0.00000000000E+00 -0.45593999997E+02  0.45594000000E+02  0.51100000000E-03 0. -1.
    9900012    2    1    2    0    0  0.72467678700E+01 -0.12776592185E+02  0.40839521452E+02  0.47787268845E+02  0.19999989970E+02 0.  0.
         12    1    1    2    0    0 -0.72467678700E+01  0.12776592185E+02 -0.40839521452E+02  0.43400731155E+02  0.00000000000E+00 0. -1.
         11    1    3    3    0    0 -0.86285428955E+00 -0.50098862836E+00  0.66442197250E+01  0.67187173736E+01  0.51100000000E-03 0. -1.
        -11    1    3    3    0    0  0.93263739574E+01 -0.12485187872E+00  0.85007741828E+01  0.12619825718E+02  0.51100000000E-03 0.  1.
        -12    1    3    3    0    0 -0.12167517979E+01 -0.12150751678E+02  0.25694527544E+02  0.28448725753E+02  0.00000000000E+00 0.  1.
</event>
<event>
 7    1  0.2580704E-010  0.4778730E+02  0.7816164E-02  0.1312668E+00
        -11   -1    0    0    0    0  0.00000000000E+00  0.00000000000E+00  0.45593999997E+02  0.45594000000E+02  0.51100000000E-03 0. -1.
         11   -1    0    0    0    0 -0.00000000000E+00 -0.00000000000E+00 -0.45593999997E+02  0.45594000000E+02  0.51100000000E-03 0.  1.
    9900012    2    1    2    0    0  0.25587566162E+02  0.43753733507E+01 -0.34781506028E+02  0.47787301900E+02  0.20000140680E+02 0.  0.
         12    1    1    2    0    0 -0.25587566162E+02 -0.43753733507E+01  0.34781506028E+02  0.43400698100E+02  0.00000000000E+00 0. -1.
         11    1    3    3    0    0  0.11912471647E+02  0.32408307133E+01 -0.11118258920E+02  0.16614019565E+02  0.51100000000E-03 0. -1.
        -11    1    3    3    0    0  0.16595022008E+02 -0.25279319733E+00 -0.16951983865E+02  0.23724005081E+02  0.51100000000E-03 0.  1.
         12    1    3    3    0    0 -0.29199274931E+01  0.13873358348E+01 -0.67112632431E+01  0.74492772536E+01  0.00000000000E+00 0. -1.
</event>
<event>
 7    1  0.2580704E-010  0.4778729E+02  0.7816164E-02  0.1312668E+00
        -11   -1    0    0    0    0  0.00000000000E+00  0.00000000000E+00  0.45593999997E+02  0.45594000000E+02  0.51100000000E-03 0. -1.
         11   -1    0    0    0    0 -0.00000000000E+00 -0.00000000000E+00 -0.45593999997E+02  0.45594000000E+02  0.51100000000E-03 0.  1.
    9900012    2    1    2    0    0 -0.23591538056E+02 -0.35589885920E+02 -0.77730973609E+01  0.47787289289E+02  0.20000083182E+02 0.  0.
         12    1    1    2    0    0  0.23591538056E+02  0.35589885920E+02  0.77730973609E+01  0.43400710711E+02  0.00000000000E+00 0. -1.
         11    1    3    3    0    0 -0.82100711171E+01 -0.12965274749E+02  0.29083251092E+01  0.15619282067E+02  0.51100000000E-03 0. -1.
        -11    1    3    3    0    0 -0.15240519460E+02 -0.23048578030E+02 -0.70603126367E+01  0.28519438939E+02  0.51100000000E-03 0.  1.
        -12    1    3    3    0    0 -0.14094747933E+00  0.42396685923E+00 -0.36211098334E+01  0.36485682829E+01  0.00000000000E+00 0.  1.
</event>
<event>
 7    1  0.2580704E-010  0.4778731E+02  0.7816164E-02  0.1312668E+00
        -11   -1    0    0    0    0  0.00000000000E+00  0.00000000000E+00  0.45593999997E+02  0.45594000000E+02  0.51100000000E-03 0.  1.
         11   -1    0    0    0    0 -0.00000000000E+00 -0.00000000000E+00 -0.45593999997E+02  0.45594000000E+02  0.51100000000E-03 0. -1.
    9900012    2    1    2    0    0 -0.38156821974E+01 -0.20608147289E+02  0.38004793306E+02  0.47787314757E+02  0.20000199304E+02 0.  0.
         12    1    1    2    0    0  0.38156821974E+01  0.20608147289E+02 -0.38004793306E+02  0.43400685243E+02  0.00000000000E+00 0. -1.
         11    1    3    3    0    0 -0.24140503955E+01 -0.23153806114E+01  0.26864956101E+01  0.42902081082E+01  0.51100000000E-03 0. -1.
        -11    1    3    3    0    0  0.12004459741E+00 -0.11337291832E+02  0.34517906993E+02  0.36332279040E+02  0.51100000000E-03 0.  1.
        -12    1    3    3    0    0 -0.15216763993E+01 -0.69554748456E+01  0.80039070238E+00  0.71648276091E+01  0.00000000000E+00 0.  1.
</event>
<event>
 7    1  0.2580704E-010  0.4778730E+02  0.7816164E-02  0.1312668E+00
        -11   -1    0    0    0    0  0.00000000000E+00  0.00000000000E+00  0.45593999997E+02  0.45594000000E+02  0.51100000000E-03 0.  1.
         11   -1    0    0    0    0 -0.00000000000E+00 -0.00000000000E+00 -0.45593999997E+02  0.45594000000E+02  0.51100000000E-03 0. -1.
    9900012    2    1    2    0    0 -0.31984745504E+02 -0.28844690682E+02 -0.53460491389E+01  0.47787304535E+02  0.20000152697E+02 0.  0.
         12    1    1    2    0    0  0.31984745504E+02  0.28844690682E+02  0.53460491389E+01  0.43400695465E+02  0.00000000000E+00 0. -1.
         11    1    3    3    0    0 -0.46236175454E+01 -0.82611863458E+01 -0.17340538928E+01  0.96245510134E+01  0.51100000000E-03 0. -1.
        -11    1    3    3    0    0 -0.23157189095E+02 -0.22428875259E+02 -0.62920769834E+01  0.32846614516E+02  0.51100000000E-03 0.  1.
         12    1    3    3    0    0 -0.42039388632E+01  0.18453709227E+01  0.26800817373E+01  0.53161390056E+01  0.00000000000E+00 0. -1.
</event>
<event>
 7    1  0.2580704E-010  0.4778727E+02  0.7816164E-02  0.1312668E+00
        -11   -1    0    0    0    0  0.00000000000E+00  0.00000000000E+00  0.45593999997E+02  0.45594000000E+02  0.51100000000E-03 0. -1.
         11   -1    0    0    0    0 -0.00000000000E+00 -0.00000000000E+00 -0.45593999997E+02  0.45594000000E+02  0.51100000000E-03 0.  1.
    9900012    2    1    2    0    0 -0.11423201302E+02 -0.41866521383E+02 -0.57271888789E+00  0.47787272499E+02  0.20000006634E+02 0.  0.
         12    1    1    2    0    0  0.11423201302E+02  0.41866521383E+02  0.57271888789E+00  0.43400727501E+02  0.00000000000E+00 0. -1.
         11    1    3    3    0    0 -0.46342973716E+01 -0.95382735261E+00 -0.84541181551E+00  0.48063728679E+01  0.51100000000E-03 0. -1.
        -11    1    3    3    0    0 -0.37936364054E+01 -0.48588789552E+01 -0.25971887002E+01  0.66892280036E+01  0.51100000000E-03 0.  1.
         12    1    3    3    0    0 -0.29952675247E+01 -0.36053815075E+02  0.28698816279E+01  0.36291671628E+02  0.00000000000E+00 0. -1.
</event>
<event>
 7    1  0.2580704E-010  0.4778727E+02  0.7816164E-02  0.1312668E+00
        -11   -1    0    0    0    0  0.00000000000E+00  0.00000000000E+00  0.45593999997E+02  0.45594000000E+02  0.51100000000E-03 0. -1.
         11   -1    0    0    0    0 -0.00000000000E+00 -0.00000000000E+00 -0.45593999997E+02  0.45594000000E+02  0.51100000000E-03 0.  1.
    9900012    2    1    2    0    0  0.25470859929E+02 -0.25936943350E+02 -0.23709352975E+02  0.47787272422E+02  0.20000006279E+02 0.  0.
         12    1    1    2    0    0 -0.25470859929E+02  0.25936943350E+02  0.23709352975E+02  0.43400727578E+02  0.00000000000E+00 0. -1.
         11    1    3    3    0    0  0.74797877005E+01 -0.16791301847E+02 -0.18658401462E+02  0.26192193248E+02  0.51100000000E-03 0. -1.
        -11    1    3    3    0    0  0.68425737206E+01 -0.65072021754E+01 -0.33159128068E+01  0.10007985475E+02  0.51100000000E-03 0.  1.
        -12    1    3    3    0    0  0.11148498508E+02 -0.26384393277E+01 -0.17350387059E+01  0.11587093698E+02  0.00000000000E+00 0.  1.
</event>
<event>
 7    1  0.2580704E-010  0.4778727E+02  0.7816164E-02  0.1312668E+00
        -11   -1    0    0    0    0  0.00000000000E+00  0.00000000000E+00  0.45593999997E+02  0.45594000000E+02  0.51100000000E-03 0. -1.
         11   -1    0    0    0    0 -0.00000000000E+00 -0.00000000000E+00 -0.45593999997E+02  0.45594000000E+02  0.51100000000E-03 0.  1.
    9900012    2    1    2    0    0 -0.33359787067E+01 -0.42572958982E+02 -0.77484065162E+01  0.47787269661E+02  0.19999993693E+02 0.  0.
         12    1    1    2    0    0  0.33359787067E+01  0.42572958982E+02  0.77484065162E+01  0.43400730339E+02  0.00000000000E+00 0. -1.
         11    1    3    3    0    0  0.35192984287E+01 -0.10292115557E+02 -0.41309472527E+01  0.11635197873E+02  0.51100000000E-03 0. -1.
        -11    1    3    3    0    0 -0.29800941188E+01 -0.15545296926E+02 -0.89266220255E+01  0.18172005903E+02  0.51100000000E-03 0.  1.
        -12    1    3    3    0    0 -0.38751830166E+01 -0.16735546498E+02  0.53091627620E+01  0.17980065885E+02  0.00000000000E+00 0.  1.
</event>
<event>
 7    1  0.2580704E-010  0.4778727E+02  0.7816164E-02  0.1312668E+00
        -11   -1    0    0    0    0  0.00000000000E+00  0.00000000000E+00  0.45593999997E+02  0.45594000000E+02  0.51100000000E-03 0.  1.
         11   -1    0    0    0    0 -0.00000000000E+00 -0.00000000000E+00 -0.45593999997E+02  0.45594000000E+02  0.51100000000E-03 0. -1.
    9900012    2    1    2    0    0  0.19612867020E+02  0.37816246960E+02  0.83000030635E+01  0.47787272613E+02  0.20000007153E+02 0.  0.
         12    1    1    2    0    0 -0.19612867020E+02 -0.37816246960E+02 -0.83000030635E+01  0.43400727387E+02  0.00000000000E+00 0. -1.
         11    1    3    3    0    0  0.57017666589E+01  0.17613403366E+02 -0.15844736228E+01  0.18580976241E+02  0.51100000000E-03 0. -1.
        -11    1    3    3    0    0 -0.19578085001E+01  0.23734429881E+01  0.31557801285E+01  0.44074022078E+01  0.51100000000E-03 0.  1.
        -12    1    3    3    0    0  0.15868908861E+02  0.17829400606E+02  0.67286965578E+01  0.24798894164E+02  0.00000000000E+00 0.  1.
</event>
<event>
 7    1  0.2580704E-010  0.4778727E+02  0.7816164E-02  0.1312668E+00
        -11   -1    0    0    0    0  0.00000000000E+00  0.00000000000E+00  0.45593999997E+02  0.45594000000E+02  0.51100000000E-03 0.  1.
         11   -1    0    0    0    0 -0.00000000000E+00 -0.00000000000E+00 -0.45593999997E+02  0.45594000000E+02  0.51100000000E-03 0. -1.
    9900012    2    1    2    0    0 -0.20373823411E+01 -0.25926918667E+02  0.34745750676E+02  0.47787271569E+02  0.20000002389E+02 0.  0.
         12    1    1    2    0    0  0.20373823411E+01  0.25926918667E+02 -0.34745750676E+02  0.43400728431E+02  0.00000000000E+00 0. -1.
         11    1    3    3    0    0  0.22074830703E+01 -0.71287983989E+01  0.90219997063E+01  0.11708510882E+02  0.51100000000E-03 0. -1.
        -11    1    3    3    0    0 -0.41475465779E+01 -0.21111492398E+02  0.25999290499E+02  0.33747005210E+02  0.51100000000E-03 0.  1.
         12    1    3    3    0    0 -0.97318833471E-01  0.23133721307E+01 -0.27553952949E+00  0.23317554766E+01  0.00000000000E+00 0. -1.
</event>
<event>
 7    1  0.2580704E-010  0.4778727E+02  0.7816164E-02  0.1312668E+00
        -11   -1    0    0    0    0  0.00000000000E+00  0.00000000000E+00  0.45593999997E+02  0.45594000000E+02  0.51100000000E-03 0.  1.
         11   -1    0    0    0    0 -0.00000000000E+00 -0.00000000000E+00 -0.45593999997E+02  0.45594000000E+02  0.51100000000E-03 0. -1.
    9900012    2    1    2    0    0 -0.37328830992E+01  0.27112413737E+02  0.33683910439E+02  0.47787271696E+02  0.20000002970E+02 0.  0.
         12    1    1    2    0    0  0.37328830992E+01 -0.27112413737E+02 -0.33683910439E+02  0.43400728304E+02  0.00000000000E+00 0. -1.
         11    1    3    3    0    0 -0.34818186293E+01  0.33053540729E+01  0.68488289788E+01  0.83639037032E+01  0.51100000000E-03 0. -1.
        -11    1    3    3    0    0 -0.52981772121E+01  0.41006890366E+01  0.13582175253E+02  0.15144696010E+02  0.51100000000E-03 0.  1.
        -12    1    3    3    0    0  0.50471127422E+01  0.19706370627E+02  0.13252906207E+02  0.24278671983E+02  0.00000000000E+00 0.  1.
</event>
<event>
 7    1  0.2580704E-010  0.4778727E+02  0.7816164E-02  0.1312668E+00
        -11   -1    0    0    0    0  0.00000000000E+00  0.00000000000E+00  0.45593999997E+02  0.45594000000E+02  0.51100000000E-03 0.  1.
         11   -1    0    0    0    0 -0.00000000000E+00 -0.00000000000E+00 -0.45593999997E+02  0.45594000000E+02  0.51100000000E-03 0. -1.
    9900012    2    1    2    0    0 -0.11599257343E+02  0.41759280779E+02  0.22897547110E+01  0.47787270988E+02  0.19999999745E+02 0.  0.
         12    1    1    2    0    0  0.11599257343E+02 -0.41759280779E+02 -0.22897547110E+01  0.43400729012E+02  0.00000000000E+00 0. -1.
         11    1    3    3    0    0 -0.20840246154E+01  0.11450334791E+02  0.69216833904E+01  0.13541160461E+02  0.51100000000E-03 0. -1.
        -11    1    3    3    0    0  0.53980657591E+00  0.14547900187E+02  0.13417620914E+01  0.14619614111E+02  0.51100000000E-03 0.  1.
         12    1    3    3    0    0 -0.10055039303E+02  0.15761045801E+02 -0.59736907708E+01  0.19626496416E+02  0.00000000000E+00 0. -1.
</event>
<event>
 7    1  0.2580704E-010  0.4778728E+02  0.7816164E-02  0.1312668E+00
        -11   -1    0    0    0    0  0.00000000000E+00  0.00000000000E+00  0.45593999997E+02  0.45594000000E+02  0.51100000000E-03 0. -1.
         11   -1    0    0    0    0 -0.00000000000E+00 -0.00000000000E+00 -0.45593999997E+02  0.45594000000E+02  0.51100000000E-03 0.  1.
    9900012    2    1    2    0    0  0.12804382704E+02  0.45491501135E+01 -0.41218628411E+02  0.47787282134E+02  0.20000050563E+02 0.  0.
         12    1    1    2    0    0 -0.12804382704E+02 -0.45491501135E+01  0.41218628411E+02  0.43400717866E+02  0.00000000000E+00 0. -1.
         11    1    3    3    0    0  0.40411524723E+01  0.40961191896E+01 -0.27079659945E+01  0.63594170966E+01  0.51100000000E-03 0. -1.
        -11    1    3    3    0    0  0.63928228202E+01  0.60543889299E+01 -0.27142512089E+02  0.28534886923E+02  0.51100000000E-03 0.  1.
         12    1    3    3    0    0  0.23704074119E+01 -0.56013580060E+01 -0.11368150327E+02  0.12892978115E+02  0.00000000000E+00 0. -1.
</event>
<event>
 7    1  0.2580704E-010  0.4778727E+02  0.7816164E-02  0.1312668E+00
        -11   -1    0    0    0    0  0.00000000000E+00  0.00000000000E+00  0.45593999997E+02  0.45594000000E+02  0.51100000000E-03 0. -1.
         11   -1    0    0    0    0 -0.00000000000E+00 -0.00000000000E+00 -0.45593999997E+02  0.45594000000E+02  0.51100000000E-03 0.  1.
    9900012    2    1    2    0    0 -0.32035411679E+02  0.26479373327E+02 -0.12497938210E+02  0.47787271057E+02  0.20000000058E+02 0.  0.
         12    1    1    2    0    0  0.32035411679E+02 -0.26479373327E+02  0.12497938210E+02  0.43400728943E+02  0.00000000000E+00 0. -1.
         11    1    3    3    0    0 -0.13593136735E+02  0.16274343276E+02  0.23279429615E+01  0.21331829131E+02  0.51100000000E-03 0. -1.
        -11    1    3    3    0    0 -0.45645545736E+01  0.14819148912E+01 -0.76571086065E+00  0.48597884299E+01  0.51100000000E-03 0.  1.
        -12    1    3    3    0    0 -0.13877720370E+02  0.87231151601E+01 -0.14060170310E+02  0.21595653496E+02  0.00000000000E+00 0.  1.
</event>
<event>
 7    1  0.2580704E-010  0.4778727E+02  0.7816164E-02  0.1312668E+00
        -11   -1    0    0    0    0  0.00000000000E+00  0.00000000000E+00  0.45593999997E+02  0.45594000000E+02  0.51100000000E-03 0.  1.
         11   -1    0    0    0    0 -0.00000000000E+00 -0.00000000000E+00 -0.45593999997E+02  0.45594000000E+02  0.51100000000E-03 0. -1.
    9900012    2    1    2    0    0  0.35254782200E+02 -0.20058412220E+02  0.15439673052E+02  0.47787273362E+02  0.20000010567E+02 0.  0.
         12    1    1    2    0    0 -0.35254782200E+02  0.20058412220E+02 -0.15439673052E+02  0.43400726638E+02  0.00000000000E+00 0. -1.
         11    1    3    3    0    0  0.58598337393E+01 -0.65210921473E+01  0.46373800118E+01  0.99180435511E+01  0.51100000000E-03 0. -1.
        -11    1    3    3    0    0  0.85326851886E+01 -0.12633226435E+02  0.63700557120E+01  0.16522189223E+02  0.51100000000E-03 0.  1.
         12    1    3    3    0    0  0.20862263272E+02 -0.90409363812E+00  0.44322373284E+01  0.21347040588E+02  0.00000000000E+00 0. -1.
</event>
<event>
 7    1  0.2580704E-010  0.4778727E+02  0.7816164E-02  0.1312668E+00
        -11   -1    0    0    0    0  0.00000000000E+00  0.00000000000E+00  0.45593999997E+02  0.45594000000E+02  0.51100000000E-03 0.  1.
         11   -1    0    0    0    0 -0.00000000000E+00 -0.00000000000E+00 -0.45593999997E+02  0.45594000000E+02  0.51100000000E-03 0. -1.
    9900012    2    1    2    0    0 -0.28168025666E+02 -0.23199241027E+00 -0.33017141706E+02  0.47787272623E+02  0.20000007197E+02 0.  0.
         12    1    1    2    0    0  0.28168025666E+02  0.23199241027E+00  0.33017141706E+02  0.43400727377E+02  0.00000000000E+00 0. -1.
         11    1    3    3    0    0 -0.48727979827E+01  0.57774605784E+01 -0.61433944268E+01  0.97398411825E+01  0.51100000000E-03 0. -1.
        -11    1    3    3    0    0 -0.15248195547E+01 -0.53121399184E+00 -0.95651598907E+01  0.97004920997E+01  0.51100000000E-03 0.  1.
        -12    1    3    3    0    0 -0.21770408129E+02 -0.54782389969E+01 -0.17308587389E+02  0.28346939341E+02  0.00000000000E+00 0.  1.
</event>
<event>
 7    1  0.2580704E-010  0.4778727E+02  0.7816164E-02  0.1312668E+00
        -11   -1    0    0    0    0  0.00000000000E+00  0.00000000000E+00  0.45593999997E+02  0.45594000000E+02  0.51100000000E-03 0.  1.
         11   -1    0    0    0    0 -0.00000000000E+00 -0.00000000000E+00 -0.45593999997E+02  0.45594000000E+02  0.51100000000E-03 0. -1.
    9900012    2    1    2    0    0 -0.19339188864E+02 -0.29665338955E+02  0.25091575227E+02  0.47787266036E+02  0.19999977165E+02 0.  0.
         12    1    1    2    0    0  0.19339188864E+02  0.29665338955E+02 -0.25091575227E+02  0.43400733964E+02  0.00000000000E+00 0. -1.
         11    1    3    3    0    0 -0.11804001240E+02 -0.11267799908E+02  0.13866262650E+02  0.21414270947E+02  0.51100000000E-03 0. -1.
        -11    1    3    3    0    0 -0.10259651840E+02 -0.18152631131E+02  0.11129985637E+02  0.23635884866E+02  0.51100000000E-03 0.  1.
         12    1    3    3    0    0  0.27244642157E+01 -0.24490791691E+00  0.95326939279E-01  0.27371102235E+01  0.00000000000E+00 0. -1.
</event>
<event>
 7    1  0.2580704E-010  0.4778726E+02  0.7816164E-02  0.1312668E+00
        -11   -1    0    0    0    0  0.00000000000E+00  0.00000000000E+00  0.45593999997E+02  0.45594000000E+02  0.51100000000E-03 0.  1.
         11   -1    0    0    0    0 -0.00000000000E+00 -0.00000000000E+00 -0.45593999997E+02  0.45594000000E+02  0.51100000000E-03 0. -1.
    9900012    2    1    2    0    0  0.41611010753E+02 -0.77005470250E+01  0.96358482023E+01  0.47787260248E+02  0.19999950776E+02 0.  0.
         12    1    1    2    0    0 -0.41611010753E+02  0.77005470250E+01 -0.96358482023E+01  0.43400739752E+02  0.00000000000E+00 0. -1.
         11    1    3    3    0    0  0.20187524506E+02 -0.69005962580E+01 -0.45176287150E+01  0.21807414882E+02  0.51100000000E-03 0. -1.
        -11    1    3    3    0    0  0.40745367380E+01 -0.10024202933E+01  0.13185820590E+01  0.43983354785E+01  0.51100000000E-03 0.  1.
         12    1    3    3    0    0  0.17348949510E+02  0.20246952633E+00  0.12834894858E+02  0.21581509888E+02  0.00000000000E+00 0. -1.
</event>
<event>
 7    1  0.2719910E-010  0.4778727E+02  0.7816164E-02  0.1312668E+00
        -11   -1    0    0    0    0  0.00000000000E+00  0.00000000000E+00  0.45593999997E+02  0.45594000000E+02  0.51100000000E-03 0. -1.
         11   -1    0    0    0    0 -0.00000000000E+00 -0.00000000000E+00 -0.45593999997E+02  0.45594000000E+02  0.51100000000E-03 0.  1.
    9900012    2    1    2    0    0  0.32546745225E+02  0.40772859743E+00 -0.28708296990E+02  0.47787272087E+02  0.20000004751E+02 0.  0.
         12    1    1    2    0    0 -0.32546745225E+02 -0.40772859743E+00  0.28708296990E+02  0.43400727913E+02  0.00000000000E+00 0. -1.
         11    1    3    3    0    0 -0.10354851958E+01 -0.98726816433E+00  0.11022294298E+01  0.18060559228E+01  0.51100000000E-03 0. -1.
        -11    1    3    3    0    0  0.13003666905E+02 -0.16929960134E+01 -0.61868284941E+01  0.14499601220E+02  0.51100000000E-03 0.  1.
        -12    1    3    3    0    0  0.20578563516E+02  0.30879927752E+01 -0.23623697926E+02  0.31481614944E+02  0.00000000000E+00 0.  1.
</event>
<event>
 7    1  0.2580704E-010  0.4778727E+02  0.7816164E-02  0.1312668E+00
        -11   -1    0    0    0    0  0.00000000000E+00  0.00000000000E+00  0.45593999997E+02  0.45594000000E+02  0.51100000000E-03 0.  1.
         11   -1    0    0    0    0 -0.00000000000E+00 -0.00000000000E+00 -0.45593999997E+02  0.45594000000E+02  0.51100000000E-03 0. -1.
    9900012    2    1    2    0    0 -0.24232096011E+01 -0.11257145521E+02  0.41845291886E+02  0.47787265869E+02  0.19999976403E+02 0.  0.
         12    1    1    2    0    0  0.24232096011E+01  0.11257145521E+02 -0.41845291886E+02  0.43400734131E+02  0.00000000000E+00 0. -1.
         11    1    3    3    0    0  0.29047265371E+00 -0.90687124391E+01  0.21652992212E+02  0.23477180232E+02  0.51100000000E-03 0.  1.
        -11    1    3    3    0    0 -0.89223669327E+00  0.53026372233E+01  0.11477926487E+02  0.12675048108E+02  0.51100000000E-03 0. -1.
         12    1    3    3    0    0 -0.18214455615E+01 -0.74910703050E+01  0.87143731878E+01  0.11635037529E+02  0.00000000000E+00 0. -1.
</event>
<event>
 7    1  0.2580704E-010  0.4778727E+02  0.7816164E-02  0.1312668E+00
        -11   -1    0    0    0    0  0.00000000000E+00  0.00000000000E+00  0.45593999997E+02  0.45594000000E+02  0.51100000000E-03 0.  1.
         11   -1    0    0    0    0 -0.00000000000E+00 -0.00000000000E+00 -0.45593999997E+02  0.45594000000E+02  0.51100000000E-03 0. -1.
    9900012    2    1    2    0    0  0.30816335774E+02  0.15182736415E+02  0.26522843510E+02  0.47787271164E+02  0.20000000547E+02 0.  0.
         12    1    1    2    0    0 -0.30816335774E+02 -0.15182736415E+02 -0.26522843510E+02  0.43400728836E+02  0.00000000000E+00 0. -1.
         11    1    3    3    0    0 -0.96735333176E+00  0.26847793808E+01  0.50508365918E+00  0.28980894665E+01  0.51100000000E-03 0. -1.
        -11    1    3    3    0    0  0.14507615079E+01  0.94463005174E+00  0.71254811355E+01  0.73327700469E+01  0.51100000000E-03 0.  1.
        -12    1    3    3    0    0  0.30332927598E+02  0.11553326982E+02  0.18892278716E+02  0.37556411651E+02  0.00000000000E+00 0.  1.
</event>
<event>
 7    1  0.2780982E-010  0.4778727E+02  0.7816164E-02  0.1312668E+00
        -11   -1    0    0    0    0  0.00000000000E+00  0.00000000000E+00  0.45593999997E+02  0.45594000000E+02  0.51100000000E-03 0. -1.
         11   -1    0    0    0    0 -0.00000000000E+00 -0.00000000000E+00 -0.45593999997E+02  0.45594000000E+02  0.51100000000E-03 0.  1.
    9900012    2    1    2    0    0  0.75632247002E+01 -0.19367835193E+02 -0.38096035312E+02  0.47787270578E+02  0.19999997872E+02 0.  0.
         12    1    1    2    0    0 -0.75632247002E+01  0.19367835193E+02  0.38096035312E+02  0.43400729422E+02  0.00000000000E+00 0. -1.
         11    1    3    3    0    0  0.87683597296E+00 -0.85982705175E+00  0.15441919697E+01  0.19729858040E+01  0.51100000000E-03 0. -1.
        -11    1    3    3    0    0  0.49889643399E+01 -0.21020867616E+01 -0.46698965729E+01  0.71495781835E+01  0.51100000000E-03 0.  1.
        -12    1    3    3    0    0  0.16974243873E+01 -0.16405921379E+02 -0.34970330708E+02  0.38664706590E+02  0.00000000000E+00 0.  1.
</event>
<event>
 7    1  0.2580704E-010  0.4778727E+02  0.7816164E-02  0.1312668E+00
        -11   -1    0    0    0    0  0.00000000000E+00  0.00000000000E+00  0.45593999997E+02  0.45594000000E+02  0.51100000000E-03 0. -1.
         11   -1    0    0    0    0 -0.00000000000E+00 -0.00000000000E+00 -0.45593999997E+02  0.45594000000E+02  0.51100000000E-03 0.  1.
    9900012    2    1    2    0    0  0.22847389313E+02 -0.92068064076E+01 -0.35733106814E+02  0.47787269531E+02  0.19999993099E+02 0.  0.
         12    1    1    2    0    0 -0.22847389313E+02  0.92068064076E+01  0.35733106814E+02  0.43400730469E+02  0.00000000000E+00 0. -1.
         11    1    3    3    0    0  0.50771159403E+01  0.10495309139E+01 -0.11545740863E+02  0.12656332555E+02  0.51100000000E-03 0. -1.
        -11    1    3    3    0    0  0.75635630602E+01 -0.80705146959E+01 -0.21766726688E+02  0.24415795801E+02  0.51100000000E-03 0.  1.
         12    1    3    3    0    0  0.10206710313E+02 -0.21858226256E+01 -0.24206392636E+01  0.10715141175E+02  0.00000000000E+00 0. -1.
</event>
<event>
 7    1  0.2580704E-010  0.4778725E+02  0.7816164E-02  0.1312668E+00
        -11   -1    0    0    0    0  0.00000000000E+00  0.00000000000E+00  0.45593999997E+02  0.45594000000E+02  0.51100000000E-03 0. -1.
         11   -1    0    0    0    0 -0.00000000000E+00 -0.00000000000E+00 -0.45593999997E+02  0.45594000000E+02  0.51100000000E-03 0.  1.
    9900012    2    1    2    0    0 -0.28704650281E+02  0.31878037367E+02 -0.65923203749E+01  0.47787252287E+02  0.19999914477E+02 0.  0.
         12    1    1    2    0    0  0.28704650281E+02 -0.31878037367E+02  0.65923203749E+01  0.43400747713E+02  0.00000000000E+00 0. -1.
         11    1    3    3    0    0 -0.13811610580E+02  0.12801077148E+02 -0.90301088334E+00  0.18853211713E+02  0.51100000000E-03 0.  1.
        -11    1    3    3    0    0 -0.16290891712E+02  0.12140331608E+02 -0.79933966867E+00  0.20332726047E+02  0.51100000000E-03 0. -1.
         12    1    3    3    0    0  0.13978520110E+01  0.69366286108E+01 -0.48899698229E+01  0.86013145273E+01  0.00000000000E+00 0. -1.
</event>
<event>
 7    1  0.2580704E-010  0.4778727E+02  0.7816164E-02  0.1312668E+00
        -11   -1    0    0    0    0  0.00000000000E+00  0.00000000000E+00  0.45593999997E+02  0.45594000000E+02  0.51100000000E-03 0.  1.
         11   -1    0    0    0    0 -0.00000000000E+00 -0.00000000000E+00 -0.45593999997E+02  0.45594000000E+02  0.51100000000E-03 0. -1.
    9900012    2    1    2    0    0 -0.34078076038E+02 -0.51236945517E+00  0.26870901541E+02  0.47787272604E+02  0.20000007109E+02 0.  0.
         12    1    1    2    0    0  0.34078076038E+02  0.51236945517E+00 -0.26870901541E+02  0.43400727396E+02  0.00000000000E+00 0. -1.
         11    1    3    3    0    0 -0.54779776634E+01  0.38275146001E+01  0.54495036837E+01  0.86229460137E+01  0.51100000000E-03 0. -1.
        -11    1    3    3    0    0 -0.17259420984E+02 -0.13903599450E+01  0.21294231299E+02  0.27445673618E+02  0.51100000000E-03 0.  1.
         12    1    3    3    0    0 -0.11340677390E+02 -0.29495241103E+01  0.12716655861E+00  0.11718652972E+02  0.00000000000E+00 0. -1.
</event>
<event>
 7    1  0.2580704E-010  0.4778724E+02  0.7816164E-02  0.1312668E+00
        -11   -1    0    0    0    0  0.00000000000E+00  0.00000000000E+00  0.45593999997E+02  0.45594000000E+02  0.51100000000E-03 0.  1.
         11   -1    0    0    0    0 -0.00000000000E+00 -0.00000000000E+00 -0.45593999997E+02  0.45594000000E+02  0.51100000000E-03 0. -1.
    9900012    2    1    2    0    0 -0.31867648714E+00  0.37903503611E+02  0.21138805113E+02  0.47787237077E+02  0.19999845127E+02 0.  0.
         12    1    1    2    0    0  0.31867648714E+00 -0.37903503611E+02 -0.21138805113E+02  0.43400762923E+02  0.00000000000E+00 0. -1.
         11    1    3    3    0    0 -0.58324159090E+01  0.82204383151E+01  0.73425636817E+01  0.12470201406E+02  0.51100000000E-03 0. -1.
        -11    1    3    3    0    0  0.16341576302E+00  0.59619209952E+01  0.85759567447E+01  0.10445967692E+02  0.51100000000E-03 0.  1.
         12    1    3    3    0    0  0.53503236589E+01  0.23721144301E+02  0.52202846869E+01  0.24871067979E+02  0.00000000000E+00 0. -1.
</event>
<event>
 7    1  0.2580704E-010  0.4778727E+02  0.7816164E-02  0.1312668E+00
        -11   -1    0    0    0    0  0.00000000000E+00  0.00000000000E+00  0.45593999997E+02  0.45594000000E+02  0.51100000000E-03 0.  1.
         11   -1    0    0    0    0 -0.00000000000E+00 -0.00000000000E+00 -0.45593999997E+02  0.45594000000E+02  0.51100000000E-03 0. -1.
    9900012    2    1    2    0    0  0.25211045913E+01  0.41120191283E+02  0.13652730079E+02  0.47787272609E+02  0.20000007131E+02 0.  0.
         12    1    1    2    0    0 -0.25211045913E+01 -0.41120191283E+02 -0.13652730079E+02  0.43400727391E+02  0.00000000000E+00 0. -1.
         11    1    3    3    0    0  0.76207126716E+00  0.11733809180E+02  0.11097414330E+02  0.16168352902E+02  0.51100000000E-03 0. -1.
        -11    1    3    3    0    0  0.13631256982E+01 -0.57771279180E+00  0.57029296133E+00  0.15865364987E+01  0.51100000000E-03 0.  1.
        -12    1    3    3    0    0  0.39590762593E+00  0.29964094895E+02  0.19850227886E+01  0.30032383208E+02  0.00000000000E+00 0.  1.
</event>
<event>
 7    1  0.2580704E-010  0.4778727E+02  0.7816164E-02  0.1312668E+00
        -11   -1    0    0    0    0  0.00000000000E+00  0.00000000000E+00  0.45593999997E+02  0.45594000000E+02  0.51100000000E-03 0.  1.
         11   -1    0    0    0    0 -0.00000000000E+00 -0.00000000000E+00 -0.45593999997E+02  0.45594000000E+02  0.51100000000E-03 0. -1.
    9900012    2    1    2    0    0  0.12848303077E+02 -0.97230842796E+01  0.40298958503E+02  0.47787270556E+02  0.19999997772E+02 0.  0.
         12    1    1    2    0    0 -0.12848303077E+02  0.97230842796E+01 -0.40298958503E+02  0.43400729444E+02  0.00000000000E+00 0. -1.
         11    1    3    3    0    0 -0.13102852668E+01  0.79670950667E-01  0.15469247136E+02  0.15524844674E+02  0.51100000000E-03 0.  1.
        -11    1    3    3    0    0  0.41914741968E+01 -0.66436817159E+00  0.14881870345E+02  0.15475138327E+02  0.51100000000E-03 0. -1.
        -12    1    3    3    0    0  0.99671141466E+01 -0.91383870587E+01  0.99478410227E+01  0.16787287555E+02  0.00000000000E+00 0.  1.
</event>
<event>
 7    1  0.2580704E-010  0.4778727E+02  0.7816164E-02  0.1312668E+00
        -11   -1    0    0    0    0  0.00000000000E+00  0.00000000000E+00  0.45593999997E+02  0.45594000000E+02  0.51100000000E-03 0. -1.
         11   -1    0    0    0    0 -0.00000000000E+00 -0.00000000000E+00 -0.45593999997E+02  0.45594000000E+02  0.51100000000E-03 0.  1.
    9900012    2    1    2    0    0  0.11851485917E+02 -0.41255129965E+02 -0.64171492468E+01  0.47787271073E+02  0.20000000132E+02 0.  0.
         12    1    1    2    0    0 -0.11851485917E+02  0.41255129965E+02  0.64171492468E+01  0.43400728927E+02  0.00000000000E+00 0. -1.
         11    1    3    3    0    0  0.13188994580E+01 -0.82084452315E+01  0.56391038861E+01  0.10045773330E+02  0.51100000000E-03 0. -1.
        -11    1    3    3    0    0 -0.60886936808E+00 -0.11304633160E+02 -0.33542964720E+01  0.11807487365E+02  0.51100000000E-03 0.  1.
         12    1    3    3    0    0  0.11141455827E+02 -0.21742051574E+02 -0.87019566609E+01  0.25934010379E+02  0.00000000000E+00 0. -1.
</event>
<event>
 7    1  0.2580704E-010  0.4778727E+02  0.7816164E-02  0.1312668E+00
        -11   -1    0    0    0    0  0.00000000000E+00  0.00000000000E+00  0.45593999997E+02  0.45594000000E+02  0.51100000000E-03 0.  1.
         11   -1    0    0    0    0 -0.00000000000E+00 -0.00000000000E+00 -0.45593999997E+02  0.45594000000E+02  0.51100000000E-03 0. -1.
    9900012    2    1    2    0    0 -0.41563420410E+02 -0.78967790799E+01  0.96822584611E+01  0.47787272300E+02  0.20000005724E+02 0.  0.
         12    1    1    2    0    0  0.41563420410E+02  0.78967790799E+01 -0.96822584611E+01  0.43400727700E+02  0.00000000000E+00 0. -1.
         11    1    3    3    0    0 -0.25179657784E+02  0.20648237843E+01  0.81884731588E+01  0.26558045039E+02  0.51100000000E-03 0.  1.
        -11    1    3    3    0    0  0.96106523585E+00 -0.25390321977E+00  0.90426678308E+00  0.13438050114E+01  0.51100000000E-03 0. -1.
        -12    1    3    3    0    0 -0.17344827862E+02 -0.97076996444E+01  0.58951851923E+00  0.19885422249E+02  0.00000000000E+00 0.  1.
</event>
<event>
 7    1  0.3010706E-010  0.4778727E+02  0.7816164E-02  0.1312668E+00
        -11   -1    0    0    0    0  0.00000000000E+00  0.00000000000E+00  0.45593999997E+02  0.45594000000E+02  0.51100000000E-03 0. -1.
         11   -1    0    0    0    0 -0.00000000000E+00 -0.00000000000E+00 -0.45593999997E+02  0.45594000000E+02  0.51100000000E-03 0.  1.
    9900012    2    1    2    0    0  0.64119772824E+01  0.64064324115E+01 -0.42443697205E+02  0.47787271188E+02  0.20000000657E+02 0.  0.
         12    1    1    2    0    0 -0.64119772824E+01 -0.64064324115E+01  0.42443697205E+02  0.43400728812E+02  0.00000000000E+00 0. -1.
         11    1    3    3    0    0  0.29522734961E+01 -0.88137755781E+00 -0.64676001292E-01  0.30817086886E+01  0.51100000000E-03 0. -1.
        -11    1    3    3    0    0 -0.21327242687E+01  0.30064677290E+01 -0.31481825702E+01  0.48475163505E+01  0.51100000000E-03 0.  1.
        -12    1    3    3    0    0  0.55924280550E+01  0.42813422403E+01 -0.39230838634E+02  0.39858046149E+02  0.00000000000E+00 0.  1.
</event>
<event>
 7    1  0.2580704E-010  0.4778727E+02  0.7816164E-02  0.1312668E+00
        -11   -1    0    0    0    0  0.00000000000E+00  0.00000000000E+00  0.45593999997E+02  0.45594000000E+02  0.51100000000E-03 0.  1.
         11   -1    0    0    0    0 -0.00000000000E+00 -0.00000000000E+00 -0.45593999997E+02  0.45594000000E+02  0.51100000000E-03 0. -1.
    9900012    2    1    2    0    0  0.25185580373E+02  0.16044152672E+02  0.31494365329E+02  0.47787270269E+02  0.19999996465E+02 0.  0.
         12    1    1    2    0    0 -0.25185580373E+02 -0.16044152672E+02 -0.31494365329E+02  0.43400729731E+02  0.00000000000E+00 0. -1.
         11    1    3    3    0    0  0.16442251088E+01 -0.11645153425E+01  0.72549357665E+00  0.21414745812E+01  0.51100000000E-03 0. -1.
        -11    1    3    3    0    0  0.24419518847E+02  0.10436950999E+02  0.26887827531E+02  0.37791508523E+02  0.51100000000E-03 0.  1.
        -12    1    3    3    0    0 -0.87816358277E+00  0.67717170158E+01  0.38810442219E+01  0.78542871652E+01  0.00000000000E+00 0.  1.
</event>
<event>
 7    1  0.2580704E-010  0.4778727E+02  0.7816164E-02  0.1312668E+00
        -11   -1    0    0    0    0  0.00000000000E+00  0.00000000000E+00  0.45593999997E+02  0.45594000000E+02  0.51100000000E-03 0.  1.
         11   -1    0    0    0    0 -0.00000000000E+00 -0.00000000000E+00 -0.45593999997E+02  0.45594000000E+02  0.51100000000E-03 0. -1.
    9900012    2    1    2    0    0  0.19475050386E+02  0.31760521067E+02  0.22262416934E+02  0.47787268512E+02  0.19999988453E+02 0.  0.
         12    1    1    2    0    0 -0.19475050386E+02 -0.31760521067E+02 -0.22262416934E+02  0.43400731488E+02  0.00000000000E+00 0. -1.
         11    1    3    3    0    0 -0.48499986333E+00  0.24138309571E+00  0.47999787116E+01  0.48304540739E+01  0.51100000000E-03 0. -1.
        -11    1    3    3    0    0  0.28497556205E+01  0.46047876142E+01 -0.17902064203E+01  0.57035090389E+01  0.51100000000E-03 0.  1.
        -12    1    3    3    0    0  0.17110294629E+02  0.26914350357E+02  0.19252644642E+02  0.37253305399E+02  0.00000000000E+00 0.  1.
</event>
<event>
 7    1  0.2580704E-010  0.4778727E+02  0.7816164E-02  0.1312668E+00
        -11   -1    0    0    0    0  0.00000000000E+00  0.00000000000E+00  0.45593999997E+02  0.45594000000E+02  0.51100000000E-03 0.  1.
         11   -1    0    0    0    0 -0.00000000000E+00 -0.00000000000E+00 -0.45593999997E+02  0.45594000000E+02  0.51100000000E-03 0. -1.
    9900012    2    1    2    0    0 -0.24736489582E+02 -0.59250975651E+01  0.35165647115E+02  0.47787269188E+02  0.19999991535E+02 0.  0.
         12    1    1    2    0    0  0.24736489582E+02  0.59250975651E+01 -0.35165647115E+02  0.43400730812E+02  0.00000000000E+00 0. -1.
         11    1    3    3    0    0 -0.53910232195E+01 -0.39342945803E+01  0.15577577880E+02  0.16947056914E+02  0.51100000000E-03 0. -1.
        -11    1    3    3    0    0 -0.10648020608E+02 -0.74050754501E+01  0.14319020585E+02  0.19319674844E+02  0.51100000000E-03 0.  1.
         12    1    3    3    0    0 -0.86974457546E+01  0.54142724654E+01  0.52690486497E+01  0.11520537429E+02  0.00000000000E+00 0. -1.
</event>
<event>
 7    1  0.2580704E-010  0.4778727E+02  0.7816164E-02  0.1312668E+00
        -11   -1    0    0    0    0  0.00000000000E+00  0.00000000000E+00  0.45593999997E+02  0.45594000000E+02  0.51100000000E-03 0.  1.
         11   -1    0    0    0    0 -0.00000000000E+00 -0.00000000000E+00 -0.45593999997E+02  0.45594000000E+02  0.51100000000E-03 0. -1.
    9900012    2    1    2    0    0  0.10779831957E+02  0.11790775239E+02  0.40353392929E+02  0.47787268686E+02  0.19999989246E+02 0.  0.
         12    1    1    2    0    0 -0.10779831957E+02 -0.11790775239E+02 -0.40353392929E+02  0.43400731314E+02  0.00000000000E+00 0. -1.
         11    1    3    3    0    0 -0.29096921790E+01 -0.88632075577E+00  0.32561547941E+01  0.44558295931E+01  0.51100000000E-03 0.  1.
        -11    1    3    3    0    0 -0.15621799401E+01 -0.92136899104E+00  0.18576989245E+01  0.25962227443E+01  0.51100000000E-03 0. -1.
        -12    1    3    3    0    0  0.15251704077E+02  0.13598464986E+02  0.35239539210E+02  0.40735216348E+02  0.00000000000E+00 0.  1.
</event>
<event>
 7    1  0.2580704E-010  0.4778725E+02  0.7816164E-02  0.1312668E+00
        -11   -1    0    0    0    0  0.00000000000E+00  0.00000000000E+00  0.45593999997E+02  0.45594000000E+02  0.51100000000E-03 0.  1.
         11   -1    0    0    0    0 -0.00000000000E+00 -0.00000000000E+00 -0.45593999997E+02  0.45594000000E+02  0.51100000000E-03 0. -1.
    9900012    2    1    2    0    0 -0.94761805759E+01 -0.62893612672E+01  0.41884021852E+02  0.47787247127E+02  0.19999890949E+02 0.  0.
         12    1    1    2    0    0  0.94761805759E+01  0.62893612672E+01 -0.41884021852E+02  0.43400752873E+02  0.00000000000E+00 0. -1.
         11    1    3    3    0    0 -0.61479591472E+01 -0.10300493464E+01  0.13299073601E+01  0.63739357684E+01  0.51100000000E-03 0. -1.
        -11    1    3    3    0    0 -0.30062180603E+01 -0.35836575372E+00  0.94306217654E+01  0.99046655765E+01  0.51100000000E-03 0.  1.
        -12    1    3    3    0    0 -0.32200336840E+00 -0.49009461671E+01  0.31123492727E+02  0.31508645782E+02  0.00000000000E+00 0.  1.
</event>
<event>
 7    1  0.2580704E-010  0.4778727E+02  0.7816164E-02  0.1312668E+00
        -11   -1    0    0    0    0  0.00000000000E+00  0.00000000000E+00  0.45593999997E+02  0.45594000000E+02  0.51100000000E-03 0. -1.
         11   -1    0    0    0    0 -0.00000000000E+00 -0.00000000000E+00 -0.45593999997E+02  0.45594000000E+02  0.51100000000E-03 0.  1.
    9900012    2    1    2    0    0 -0.37357920551E+02 -0.50886998488E+00 -0.22085065886E+02  0.47787270608E+02  0.19999998010E+02 0.  0.
         12    1    1    2    0    0  0.37357920551E+02  0.50886998488E+00  0.22085065886E+02  0.43400729392E+02  0.00000000000E+00 0. -1.
         11    1    3    3    0    0 -0.12352840828E+02 -0.10497936676E+01 -0.18489739189E+02  0.22261293736E+02  0.51100000000E-03 0. -1.
        -11    1    3    3    0    0 -0.81330951039E+01 -0.54405619716E+00  0.37251484900E+00  0.81597794510E+01  0.51100000000E-03 0.  1.
        -12    1    3    3    0    0 -0.16871984619E+02  0.10849798799E+01 -0.39678415459E+01  0.17366197421E+02  0.00000000000E+00 0.  1.
</event>
<event>
 7    1  0.2580704E-010  0.4778726E+02  0.7816164E-02  0.1312668E+00
        -11   -1    0    0    0    0  0.00000000000E+00  0.00000000000E+00  0.45593999997E+02  0.45594000000E+02  0.51100000000E-03 0.  1.
         11   -1    0    0    0    0 -0.00000000000E+00 -0.00000000000E+00 -0.45593999997E+02  0.45594000000E+02  0.51100000000E-03 0. -1.
    9900012    2    1    2    0    0 -0.15104493794E+02  0.16639493425E+01  0.40653528307E+02  0.47787264707E+02  0.19999971103E+02 0.  0.
         12    1    1    2    0    0  0.15104493794E+02 -0.16639493425E+01 -0.40653528307E+02  0.43400735293E+02  0.00000000000E+00 0. -1.
         11    1    3    3    0    0  0.30893555280E+00 -0.77711552127E+00  0.56907667697E+00  0.10115326167E+01  0.51100000000E-03 0. -1.
        -11    1    3    3    0    0 -0.10987903456E+02 -0.67734295556E+01  0.28737885192E+02  0.31503641312E+02  0.51100000000E-03 0.  1.
        -12    1    3    3    0    0 -0.44255258899E+01  0.92144944193E+01  0.11346566438E+02  0.15272090778E+02  0.00000000000E+00 0.  1.
</event>
<event>
 7    1  0.2580704E-010  0.4778726E+02  0.7816164E-02  0.1312668E+00
        -11   -1    0    0    0    0  0.00000000000E+00  0.00000000000E+00  0.45593999997E+02  0.45594000000E+02  0.51100000000E-03 0.  1.
         11   -1    0    0    0    0 -0.00000000000E+00 -0.00000000000E+00 -0.45593999997E+02  0.45594000000E+02  0.51100000000E-03 0. -1.
    9900012    2    1    2    0    0 -0.12582422970E+02 -0.34024877845E+02  0.23824663475E+02  0.47787259570E+02  0.19999947683E+02 0.  0.
         12    1    1    2    0    0  0.12582422970E+02  0.34024877845E+02 -0.23824663475E+02  0.43400740430E+02  0.00000000000E+00 0. -1.
         11    1    3    3    0    0  0.79121985974E-01 -0.32795045073E+00  0.11152375921E+01  0.11651467438E+01  0.51100000000E-03 0. -1.
        -11    1    3    3    0    0 -0.12337965980E+02 -0.34223977043E+02  0.25070195768E+02  0.44181678615E+02  0.51100000000E-03 0.  1.
        -12    1    3    3    0    0 -0.32357897612E+00  0.52704964828E+00 -0.23607698853E+01  0.24404342107E+01  0.00000000000E+00 0.  1.
</event>
<event>
 7    1  0.2580704E-010  0.4778727E+02  0.7816164E-02  0.1312668E+00
        -11   -1    0    0    0    0  0.00000000000E+00  0.00000000000E+00  0.45593999997E+02  0.45594000000E+02  0.51100000000E-03 0.  1.
         11   -1    0    0    0    0 -0.00000000000E+00 -0.00000000000E+00 -0.45593999997E+02  0.45594000000E+02  0.51100000000E-03 0. -1.
    9900012    2    1    2    0    0 -0.36955935780E+02  0.18228739077E+02  0.13623320527E+02  0.47787274432E+02  0.20000015443E+02 0.  0.
         12    1    1    2    0    0  0.36955935780E+02 -0.18228739077E+02 -0.13623320527E+02  0.43400725568E+02  0.00000000000E+00 0. -1.
         11    1    3    3    0    0 -0.93309061482E+01 -0.97594298967E-01 -0.11160194740E+01  0.93979164670E+01  0.51100000000E-03 0. -1.
        -11    1    3    3    0    0 -0.60096599252E+00  0.51573645050E+01  0.36519952750E+01  0.63479633357E+01  0.51100000000E-03 0.  1.
        -12    1    3    3    0    0 -0.27024063639E+02  0.13168968871E+02  0.11087344726E+02  0.32041394629E+02  0.00000000000E+00 0.  1.
</event>
<event>
 7    1  0.2580704E-010  0.4778727E+02  0.7816164E-02  0.1312668E+00
        -11   -1    0    0    0    0  0.00000000000E+00  0.00000000000E+00  0.45593999997E+02  0.45594000000E+02  0.51100000000E-03 0.  1.
         11   -1    0    0    0    0 -0.00000000000E+00 -0.00000000000E+00 -0.45593999997E+02  0.45594000000E+02  0.51100000000E-03 0. -1.
    9900012    2    1    2    0    0  0.31903228294E+02  0.20042234383E+02  0.21543354323E+02  0.47787271318E+02  0.20000001248E+02 0.  0.
         12    1    1    2    0    0 -0.31903228294E+02 -0.20042234383E+02 -0.21543354323E+02  0.43400728682E+02  0.00000000000E+00 0. -1.
         11    1    3    3    0    0  0.20988131294E+02  0.41301829000E+01  0.80653589577E+01  0.22860666687E+02  0.51100000000E-03 0. -1.
        -11    1    3    3    0    0  0.43491256794E+01  0.76988995503E+00  0.21790632780E+01  0.49250321571E+01  0.51100000000E-03 0.  1.
        -12    1    3    3    0    0  0.65659713209E+01  0.15142161528E+02  0.11298932087E+02  0.20001572474E+02  0.00000000000E+00 0.  1.
</event>
<event>
 7    1  0.2580704E-010  0.4778726E+02  0.7816164E-02  0.1312668E+00
        -11   -1    0    0    0    0  0.00000000000E+00  0.00000000000E+00  0.45593999997E+02  0.45594000000E+02  0.51100000000E-03 0.  1.
         11   -1    0    0    0    0 -0.00000000000E+00 -0.00000000000E+00 -0.45593999997E+02  0.45594000000E+02  0.51100000000E-03 0. -1.
    9900012    2    1    2    0    0 -0.22826529866E+02  0.79922464380E+01  0.36037446101E+02  0.47787262790E+02  0.19999962366E+02 0.  0.
         12    1    1    2    0    0  0.22826529866E+02 -0.79922464380E+01 -0.36037446101E+02  0.43400737210E+02  0.00000000000E+00 0. -1.
         11    1    3    3    0    0 -0.75863943366E+00  0.66817692697E+01  0.16041908445E+02  0.17394378436E+02  0.51100000000E-03 0. -1.
        -11    1    3    3    0    0 -0.72593551586E+01  0.23804969711E+01  0.95967341342E+01  0.12266307898E+02  0.51100000000E-03 0.  1.
        -12    1    3    3    0    0 -0.14808535273E+02 -0.10700198027E+01  0.10398803522E+02  0.18126576456E+02  0.00000000000E+00 0.  1.
</event>
<event>
 7    1  0.2580704E-010  0.4778729E+02  0.7816164E-02  0.1312668E+00
        -11   -1    0    0    0    0  0.00000000000E+00  0.00000000000E+00  0.45593999997E+02  0.45594000000E+02  0.51100000000E-03 0.  1.
         11   -1    0    0    0    0 -0.00000000000E+00 -0.00000000000E+00 -0.45593999997E+02  0.45594000000E+02  0.51100000000E-03 0. -1.
    9900012    2    1    2    0    0  0.13141105028E+02 -0.32188926429E+02  0.25977027063E+02  0.47787290777E+02  0.20000089970E+02 0.  0.
         12    1    1    2    0    0 -0.13141105028E+02  0.32188926429E+02 -0.25977027063E+02  0.43400709223E+02  0.00000000000E+00 0. -1.
         11    1    3    3    0    0 -0.50307589937E+00 -0.45816874852E+01  0.67891261303E+01  0.82059234366E+01  0.51100000000E-03 0. -1.
        -11    1    3    3    0    0  0.22672113813E+01 -0.20530473693E+02  0.80877682773E+01  0.22182258529E+02  0.51100000000E-03 0.  1.
         12    1    3    3    0    0  0.11376969546E+02 -0.70767652510E+01  0.11100132655E+02  0.17399108811E+02  0.00000000000E+00 0. -1.
</event>
<event>
 7    1  0.2580704E-010  0.4778728E+02  0.7816164E-02  0.1312668E+00
        -11   -1    0    0    0    0  0.00000000000E+00  0.00000000000E+00  0.45593999997E+02  0.45594000000E+02  0.51100000000E-03 0.  1.
         11   -1    0    0    0    0 -0.00000000000E+00 -0.00000000000E+00 -0.45593999997E+02  0.45594000000E+02  0.51100000000E-03 0. -1.
    9900012    2    1    2    0    0 -0.20363824314E+02  0.36312895664E+02 -0.12260145556E+02  0.47787275338E+02  0.20000019575E+02 0.  0.
         12    1    1    2    0    0  0.20363824314E+02 -0.36312895664E+02  0.12260145556E+02  0.43400724662E+02  0.00000000000E+00 0. -1.
         11    1    3    3    0    0 -0.16528296174E+01  0.33241672661E+01  0.11686439999E+01  0.38919998480E+01  0.51100000000E-03 0. -1.
        -11    1    3    3    0    0 -0.12520354516E+02  0.62347239616E+01 -0.72236124063E+01  0.15742034066E+02  0.51100000000E-03 0.  1.
         12    1    3    3    0    0 -0.61906401809E+01  0.26754004436E+02 -0.62051771491E+01  0.28153241424E+02  0.00000000000E+00 0. -1.
</event>
<event>
 7    1  0.2580704E-010  0.4778727E+02  0.7816164E-02  0.1312668E+00
        -11   -1    0    0    0    0  0.00000000000E+00  0.00000000000E+00  0.45593999997E+02  0.45594000000E+02  0.51100000000E-03 0.  1.
         11   -1    0    0    0    0 -0.00000000000E+00 -0.00000000000E+00 -0.45593999997E+02  0.45594000000E+02  0.51100000000E-03 0. -1.
    9900012    2    1    2    0    0 -0.20931277659E+02  0.31270176585E+02  0.21625937207E+02  0.47787268575E+02  0.19999988742E+02 0.  0.
         12    1    1    2    0    0  0.20931277659E+02 -0.31270176585E+02 -0.21625937207E+02  0.43400731425E+02  0.00000000000E+00 0. -1.
         11    1    3    3    0    0 -0.27470422737E+01  0.66638391792E+01  0.19949010417E+01  0.74788116895E+01  0.51100000000E-03 0.  1.
        -11    1    3    3    0    0  0.10795161753E+01  0.33617327134E+00  0.65961828925E+01  0.66923834807E+01  0.51100000000E-03 0. -1.
         12    1    3    3    0    0 -0.19263751560E+02  0.24270164135E+02  0.13034853273E+02  0.33616073405E+02  0.00000000000E+00 0. -1.
</event>
<event>
 7    1  0.2580704E-010  0.4778726E+02  0.7816164E-02  0.1312668E+00
        -11   -1    0    0    0    0  0.00000000000E+00  0.00000000000E+00  0.45593999997E+02  0.45594000000E+02  0.51100000000E-03 0.  1.
         11   -1    0    0    0    0 -0.00000000000E+00 -0.00000000000E+00 -0.45593999997E+02  0.45594000000E+02  0.51100000000E-03 0. -1.
    9900012    2    1    2    0    0  0.40193735911E+02  0.63571973002E+01  0.15088870370E+02  0.47787258381E+02  0.19999942264E+02 0.  0.
         12    1    1    2    0    0 -0.40193735911E+02 -0.63571973002E+01 -0.15088870370E+02  0.43400741619E+02  0.00000000000E+00 0. -1.
         11    1    3    3    0    0  0.30580827044E+01  0.33505516686E+01 -0.46259026168E+00  0.45598307339E+01  0.51100000000E-03 0. -1.
        -11    1    3    3    0    0  0.88963781901E+01  0.84317505882E+00 -0.29351741023E+01  0.94059415453E+01  0.51100000000E-03 0.  1.
        -12    1    3    3    0    0  0.28239275017E+02  0.21634705727E+01  0.18486634734E+02  0.33821486102E+02  0.00000000000E+00 0.  1.
</event>
<event>
 7    1  0.2580704E-010  0.4778727E+02  0.7816164E-02  0.1312668E+00
        -11   -1    0    0    0    0  0.00000000000E+00  0.00000000000E+00  0.45593999997E+02  0.45594000000E+02  0.51100000000E-03 0. -1.
         11   -1    0    0    0    0 -0.00000000000E+00 -0.00000000000E+00 -0.45593999997E+02  0.45594000000E+02  0.51100000000E-03 0.  1.
    9900012    2    1    2    0    0  0.39419504489E+02  0.70691788399E+01 -0.16725814585E+02  0.47787268473E+02  0.19999988274E+02 0.  0.
         12    1    1    2    0    0 -0.39419504489E+02 -0.70691788399E+01  0.16725814585E+02  0.43400731527E+02  0.00000000000E+00 0. -1.
         11    1    3    3    0    0  0.21520548817E+02 -0.88604767209E+00 -0.21147604676E+01  0.21642350010E+02  0.51100000000E-03 0. -1.
        -11    1    3    3    0    0  0.33765362556E+01  0.45106344702E+00  0.99088042522E+00  0.35477175193E+01  0.51100000000E-03 0.  1.
        -12    1    3    3    0    0  0.14522419416E+02  0.75041630650E+01 -0.15601934542E+02  0.22597200943E+02  0.00000000000E+00 0.  1.
</event>
<event>
 7    1  0.2580704E-010  0.4778727E+02  0.7816164E-02  0.1312668E+00
        -11   -1    0    0    0    0  0.00000000000E+00  0.00000000000E+00  0.45593999997E+02  0.45594000000E+02  0.51100000000E-03 0.  1.
         11   -1    0    0    0    0 -0.00000000000E+00 -0.00000000000E+00 -0.45593999997E+02  0.45594000000E+02  0.51100000000E-03 0. -1.
    9900012    2    1    2    0    0 -0.30900931597E+02  0.39372028584E+01  0.30220095803E+02  0.47787270395E+02  0.19999997040E+02 0.  0.
         12    1    1    2    0    0  0.30900931597E+02 -0.39372028584E+01 -0.30220095803E+02  0.43400729605E+02  0.00000000000E+00 0. -1.
         11    1    3    3    0    0 -0.43058654674E+01 -0.36588432615E+01  0.12026258727E+02  0.13287532151E+02  0.51100000000E-03 0. -1.
        -11    1    3    3    0    0 -0.11833423412E+02  0.44319266093E+00  0.12289096202E+02  0.17065995873E+02  0.51100000000E-03 0.  1.
        -12    1    3    3    0    0 -0.14761642717E+02  0.71528534590E+01  0.59047408743E+01  0.17433742372E+02  0.00000000000E+00 0.  1.
</event>
<event>
 7    1  0.2580704E-010  0.4778727E+02  0.7816164E-02  0.1312668E+00
        -11   -1    0    0    0    0  0.00000000000E+00  0.00000000000E+00  0.45593999997E+02  0.45594000000E+02  0.51100000000E-03 0.  1.
         11   -1    0    0    0    0 -0.00000000000E+00 -0.00000000000E+00 -0.45593999997E+02  0.45594000000E+02  0.51100000000E-03 0. -1.
    9900012    2    1    2    0    0 -0.28463039012E+02  0.14486712195E+02  0.29387308498E+02  0.47787270504E+02  0.19999997536E+02 0.  0.
         12    1    1    2    0    0  0.28463039012E+02 -0.14486712195E+02 -0.29387308498E+02  0.43400729496E+02  0.00000000000E+00 0. -1.
         11    1    3    3    0    0 -0.55764090556E+01  0.83023910185E+01  0.63020920982E+01  0.11821268953E+02  0.51100000000E-03 0. -1.
        -11    1    3    3    0    0 -0.12944881334E+02  0.96673576110E+01  0.93861282392E+01  0.18684944729E+02  0.51100000000E-03 0.  1.
         12    1    3    3    0    0 -0.99417486222E+01 -0.34830364344E+01  0.13699088160E+02  0.17281056822E+02  0.00000000000E+00 0. -1.
</event>
<event>
 7    1  0.2580704E-010  0.4778727E+02  0.7816164E-02  0.1312668E+00
        -11   -1    0    0    0    0  0.00000000000E+00  0.00000000000E+00  0.45593999997E+02  0.45594000000E+02  0.51100000000E-03 0. -1.
         11   -1    0    0    0    0 -0.00000000000E+00 -0.00000000000E+00 -0.45593999997E+02  0.45594000000E+02  0.51100000000E-03 0.  1.
    9900012    2    1    2    0    0  0.27195817108E+02  0.29808516968E+02 -0.15983203258E+02  0.47787274910E+02  0.20000017623E+02 0.  0.
         12    1    1    2    0    0 -0.27195817108E+02 -0.29808516968E+02  0.15983203258E+02  0.43400725090E+02  0.00000000000E+00 0. -1.
         11    1    3    3    0    0  0.14440174562E+02  0.76707242984E+01 -0.25783383783E+01  0.16553141143E+02  0.51100000000E-03 0. -1.
        -11    1    3    3    0    0  0.75193964171E+01  0.97314159516E+01 -0.92235361912E-01  0.12298385525E+02  0.51100000000E-03 0.  1.
         12    1    3    3    0    0  0.52362461289E+01  0.12406376718E+02 -0.13312629518E+02  0.18935748242E+02  0.00000000000E+00 0. -1.
</event>
<event>
 7    1  0.2580704E-010  0.4778727E+02  0.7816164E-02  0.1312668E+00
        -11   -1    0    0    0    0  0.00000000000E+00  0.00000000000E+00  0.45593999997E+02  0.45594000000E+02  0.51100000000E-03 0.  1.
         11   -1    0    0    0    0 -0.00000000000E+00 -0.00000000000E+00 -0.45593999997E+02  0.45594000000E+02  0.51100000000E-03 0. -1.
    9900012    2    1    2    0    0 -0.45938354970E+00 -0.38358357288E+01  0.43228449551E+02  0.47787268213E+02  0.19999987093E+02 0.  0.
         12    1    1    2    0    0  0.45938354970E+00  0.38358357288E+01 -0.43228449551E+02  0.43400731787E+02  0.00000000000E+00 0. -1.
         11    1    3    3    0    0 -0.25860926458E+01 -0.79636295118E+01  0.16794790034E+02  0.18766252762E+02  0.51100000000E-03 0. -1.
        -11    1    3    3    0    0  0.48057429014E+01 -0.19996403615E+01  0.98736950790E+01  0.11161701536E+02  0.51100000000E-03 0.  1.
         12    1    3    3    0    0 -0.26790338053E+01  0.61274341446E+01  0.16559964438E+02  0.17859313915E+02  0.00000000000E+00 0. -1.
</event>
<event>
 7    1  0.2580704E-010  0.4778727E+02  0.7816164E-02  0.1312668E+00
        -11   -1    0    0    0    0  0.00000000000E+00  0.00000000000E+00  0.45593999997E+02  0.45594000000E+02  0.51100000000E-03 0.  1.
         11   -1    0    0    0    0 -0.00000000000E+00 -0.00000000000E+00 -0.45593999997E+02  0.45594000000E+02  0.51100000000E-03 0. -1.
    9900012    2    1    2    0    0 -0.25323310642E+02  0.69921442281E+01  0.34546534693E+02  0.47787271871E+02  0.20000003771E+02 0.  0.
         12    1    1    2    0    0  0.25323310642E+02 -0.69921442281E+01 -0.34546534693E+02  0.43400728129E+02  0.00000000000E+00 0. -1.
         11    1    3    3    0    0 -0.78310061157E+01  0.58786292699E+01  0.17859322837E+02  0.20367580890E+02  0.51100000000E-03 0.  1.
        -11    1    3    3    0    0 -0.17854541529E+01  0.50651460433E+01  0.57977782413E+01  0.79030237105E+01  0.51100000000E-03 0. -1.
        -12    1    3    3    0    0 -0.15706850374E+02 -0.39516310851E+01  0.10889433615E+02  0.19516667271E+02  0.00000000000E+00 0.  1.
</event>
<event>
 7    1  0.2580704E-010  0.4778727E+02  0.7816164E-02  0.1312668E+00
        -11   -1    0    0    0    0  0.00000000000E+00  0.00000000000E+00  0.45593999997E+02  0.45594000000E+02  0.51100000000E-03 0.  1.
         11   -1    0    0    0    0 -0.00000000000E+00 -0.00000000000E+00 -0.45593999997E+02  0.45594000000E+02  0.51100000000E-03 0. -1.
    9900012    2    1    2    0    0  0.26650663762E+02  0.11160243465E+02  0.32385404398E+02  0.47787270385E+02  0.19999996991E+02 0.  0.
         12    1    1    2    0    0 -0.26650663762E+02 -0.11160243465E+02 -0.32385404398E+02  0.43400729615E+02  0.00000000000E+00 0. -1.
         11    1    3    3    0    0  0.11803540913E+02  0.14340457258E+01  0.10325784579E+02  0.15748075840E+02  0.51100000000E-03 0. -1.
        -11    1    3    3    0    0  0.80288391896E+01  0.41459536596E+01  0.21369604764E+02  0.23201534400E+02  0.51100000000E-03 0.  1.
         12    1    3    3    0    0  0.68182836595E+01  0.55802440798E+01  0.69001505398E+00  0.88376601443E+01  0.00000000000E+00 0. -1.
</event>
<event>
 7    1  0.2580704E-010  0.4778726E+02  0.7816164E-02  0.1312668E+00
        -11   -1    0    0    0    0  0.00000000000E+00  0.00000000000E+00  0.45593999997E+02  0.45594000000E+02  0.51100000000E-03 0.  1.
         11   -1    0    0    0    0 -0.00000000000E+00 -0.00000000000E+00 -0.45593999997E+02  0.45594000000E+02  0.51100000000E-03 0. -1.
    9900012    2    1    2    0    0  0.21216960217E+02 -0.35384822777E+02  0.13467695633E+02  0.47787263722E+02  0.19999966612E+02 0.  0.
         12    1    1    2    0    0 -0.21216960217E+02  0.35384822777E+02 -0.13467695633E+02  0.43400736278E+02  0.00000000000E+00 0. -1.
         11    1    3    3    0    0  0.44394880402E+01 -0.34576213541E+01  0.71845279890E+00  0.56727748213E+01  0.51100000000E-03 0. -1.
        -11    1    3    3    0    0  0.20078549949E+02 -0.26422804105E+02  0.13120060718E+02  0.35685413523E+02  0.51100000000E-03 0.  1.
         12    1    3    3    0    0 -0.33010777722E+01 -0.55043973185E+01 -0.37081788411E+00  0.64290753769E+01  0.00000000000E+00 0. -1.
</event>
<event>
 7    1  0.2580704E-010  0.4778727E+02  0.7816164E-02  0.1312668E+00
        -11   -1    0    0    0    0  0.00000000000E+00  0.00000000000E+00  0.45593999997E+02  0.45594000000E+02  0.51100000000E-03 0. -1.
         11   -1    0    0    0    0 -0.00000000000E+00 -0.00000000000E+00 -0.45593999997E+02  0.45594000000E+02  0.51100000000E-03 0.  1.
    9900012    2    1    2    0    0  0.29553142257E+02  0.47752997187E+01 -0.31423421567E+02  0.47787272729E+02  0.20000007682E+02 0.  0.
         12    1    1    2    0    0 -0.29553142257E+02 -0.47752997187E+01  0.31423421567E+02  0.43400727271E+02  0.00000000000E+00 0. -1.
         11    1    3    3    0    0  0.11143339406E+02 -0.29098656573E+01 -0.12024998683E+02  0.16650583319E+02  0.51100000000E-03 0. -1.
        -11    1    3    3    0    0  0.14371251602E+02  0.44219626658E+01 -0.20886211510E+02  0.25735587383E+02  0.51100000000E-03 0.  1.
         12    1    3    3    0    0  0.40385512480E+01  0.32632027101E+01  0.14877886265E+01  0.54011020271E+01  0.00000000000E+00 0. -1.
</event>
<event>
 7    1  0.2580704E-010  0.4778727E+02  0.7816164E-02  0.1312668E+00
        -11   -1    0    0    0    0  0.00000000000E+00  0.00000000000E+00  0.45593999997E+02  0.45594000000E+02  0.51100000000E-03 0.  1.
         11   -1    0    0    0    0 -0.00000000000E+00 -0.00000000000E+00 -0.45593999997E+02  0.45594000000E+02  0.51100000000E-03 0. -1.
    9900012    2    1    2    0    0  0.24705471680E+01  0.35343636499E+02  0.25066855726E+02  0.47787268436E+02  0.19999988109E+02 0.  0.
         12    1    1    2    0    0 -0.24705471680E+01 -0.35343636499E+02 -0.25066855726E+02  0.43400731564E+02  0.00000000000E+00 0. -1.
         11    1    3    3    0    0  0.33297912419E+01  0.28131049062E+01  0.41910284104E+01  0.60469652162E+01  0.51100000000E-03 0. -1.
        -11    1    3    3    0    0  0.51179751496E+01  0.23420692720E+02  0.19204798515E+02  0.30717206959E+02  0.51100000000E-03 0.  1.
         12    1    3    3    0    0 -0.59772192235E+01  0.91098388721E+01  0.16710288009E+01  0.11023096261E+02  0.00000000000E+00 0. -1.
</event>
<event>
 7    1  0.2580704E-010  0.4778726E+02  0.7816164E-02  0.1312668E+00
        -11   -1    0    0    0    0  0.00000000000E+00  0.00000000000E+00  0.45593999997E+02  0.45594000000E+02  0.51100000000E-03 0. -1.
         11   -1    0    0    0    0 -0.00000000000E+00 -0.00000000000E+00 -0.45593999997E+02  0.45594000000E+02  0.51100000000E-03 0.  1.
    9900012    2    1    2    0    0  0.13634677244E+02  0.11717442680E+02 -0.39502172430E+02  0.47787256767E+02  0.19999934905E+02 0.  0.
         12    1    1    2    0    0 -0.13634677244E+02 -0.11717442680E+02  0.39502172430E+02  0.43400743233E+02  0.00000000000E+00 0. -1.
         11    1    3    3    0    0  0.19311331919E+00  0.42355108784E+01 -0.13036642162E+02  0.13708788578E+02  0.51100000000E-03 0. -1.
        -11    1    3    3    0    0  0.65318318482E+01  0.10973173321E+02 -0.21085230060E+02  0.24650807025E+02  0.51100000000E-03 0.  1.
        -12    1    3    3    0    0  0.69097320762E+01 -0.34912415196E+01 -0.53803002076E+01  0.94276611647E+01  0.00000000000E+00 0.  1.
</event>
<event>
 7    1  0.2580704E-010  0.4778727E+02  0.7816164E-02  0.1312668E+00
        -11   -1    0    0    0    0  0.00000000000E+00  0.00000000000E+00  0.45593999997E+02  0.45594000000E+02  0.51100000000E-03 0.  1.
         11   -1    0    0    0    0 -0.00000000000E+00 -0.00000000000E+00 -0.45593999997E+02  0.45594000000E+02  0.51100000000E-03 0. -1.
    9900012    2    1    2    0    0  0.17015993084E+02 -0.10410111615E+02  0.38544895002E+02  0.47787269878E+02  0.19999994680E+02 0.  0.
         12    1    1    2    0    0 -0.17015993084E+02  0.10410111615E+02 -0.38544895002E+02  0.43400730122E+02  0.00000000000E+00 0. -1.
         11    1    3    3    0    0  0.20128875784E+00  0.16786797831E+01  0.33306107425E+01  0.37351641406E+01  0.51100000000E-03 0. -1.
        -11    1    3    3    0    0  0.19387287293E+02 -0.71098965590E+01  0.29832887039E+02  0.36282484576E+02  0.51100000000E-03 0.  1.
         12    1    3    3    0    0 -0.25725829677E+01 -0.49788948390E+01  0.53813972206E+01  0.77696211613E+01  0.00000000000E+00 0. -1.
</event>
<event>
 7    1  0.2580704E-010  0.4778726E+02  0.7816164E-02  0.1312668E+00
        -11   -1    0    0    0    0  0.00000000000E+00  0.00000000000E+00  0.45593999997E+02  0.45594000000E+02  0.51100000000E-03 0. -1.
         11   -1    0    0    0    0 -0.00000000000E+00 -0.00000000000E+00 -0.45593999997E+02  0.45594000000E+02  0.51100000000E-03 0.  1.
    9900012    2    1    2    0    0  0.34469917886E+00 -0.37674369824E+02 -0.21544070126E+02  0.47787263639E+02  0.19999966234E+02 0.  0.
         12    1    1    2    0    0 -0.34469917886E+00  0.37674369824E+02  0.21544070126E+02  0.43400736361E+02  0.00000000000E+00 0. -1.
         11    1    3    3    0    0  0.56676353641E+01 -0.10942529046E+02 -0.15606353319E+01  0.12421618874E+02  0.51100000000E-03 0. -1.
        -11    1    3    3    0    0 -0.37153539908E+00 -0.56806640080E+00 -0.45250841468E+01  0.45757103039E+01  0.51100000000E-03 0.  1.
        -12    1    3    3    0    0 -0.49514007861E+01 -0.26163774377E+02 -0.15458350647E+02  0.30789934461E+02  0.00000000000E+00 0.  1.
</event>
<event>
 7    1  0.2580704E-010  0.4778727E+02  0.7816164E-02  0.1312668E+00
        -11   -1    0    0    0    0  0.00000000000E+00  0.00000000000E+00  0.45593999997E+02  0.45594000000E+02  0.51100000000E-03 0. -1.
         11   -1    0    0    0    0 -0.00000000000E+00 -0.00000000000E+00 -0.45593999997E+02  0.45594000000E+02  0.51100000000E-03 0.  1.
    9900012    2    1    2    0    0 -0.16346313933E+02  0.38415146891E+02  0.11861614781E+02  0.47787269648E+02  0.19999993634E+02 0.  0.
         12    1    1    2    0    0  0.16346313933E+02 -0.38415146891E+02 -0.11861614781E+02  0.43400730352E+02  0.00000000000E+00 0. -1.
         11    1    3    3    0    0 -0.20175637562E+01  0.16907550162E+01 -0.15829250800E+01  0.30716230409E+01  0.51100000000E-03 0. -1.
        -11    1    3    3    0    0 -0.17292234778E+02  0.24280186905E+02  0.10352217209E+02  0.31554987897E+02  0.51100000000E-03 0.  1.
        -12    1    3    3    0    0  0.29634846011E+01  0.12444204970E+02  0.30923226516E+01  0.13160658710E+02  0.00000000000E+00 0.  1.
</event>
<event>
 7    1  0.2580704E-010  0.4778727E+02  0.7816164E-02  0.1312668E+00
        -11   -1    0    0    0    0  0.00000000000E+00  0.00000000000E+00  0.45593999997E+02  0.45594000000E+02  0.51100000000E-03 0. -1.
         11   -1    0    0    0    0 -0.00000000000E+00 -0.00000000000E+00 -0.45593999997E+02  0.45594000000E+02  0.51100000000E-03 0.  1.
    9900012    2    1    2    0    0 -0.16105615010E+02  0.10491310593E+02 -0.38912273032E+02  0.47787269300E+02  0.19999992044E+02 0.  0.
         12    1    1    2    0    0  0.16105615010E+02 -0.10491310593E+02  0.38912273032E+02  0.43400730700E+02  0.00000000000E+00 0. -1.
         11    1    3    3    0    0 -0.35308153593E+00  0.19433716162E+01 -0.65840130810E+01  0.68739063364E+01  0.51100000000E-03 0.  1.
        -11    1    3    3    0    0 -0.12098934156E+02  0.21677300709E+01 -0.61929171486E+01  0.13763556388E+02  0.51100000000E-03 0. -1.
         12    1    3    3    0    0 -0.36535993178E+01  0.63802089055E+01 -0.26135342803E+02  0.27149806575E+02  0.00000000000E+00 0. -1.
</event>
<event>
 7    1  0.2580704E-010  0.4778728E+02  0.7816164E-02  0.1312668E+00
        -11   -1    0    0    0    0  0.00000000000E+00  0.00000000000E+00  0.45593999997E+02  0.45594000000E+02  0.51100000000E-03 0.  1.
         11   -1    0    0    0    0 -0.00000000000E+00 -0.00000000000E+00 -0.45593999997E+02  0.45594000000E+02  0.51100000000E-03 0. -1.
    9900012    2    1    2    0    0  0.26504210713E+02 -0.16228893678E+02  0.30294756496E+02  0.47787280574E+02  0.20000043447E+02 0.  0.
         12    1    1    2    0    0 -0.26504210713E+02  0.16228893678E+02 -0.30294756496E+02  0.43400719426E+02  0.00000000000E+00 0. -1.
         11    1    3    3    0    0 -0.12471604594E+01 -0.12438736676E+00  0.50275014518E-01  0.12543561163E+01  0.51100000000E-03 0. -1.
        -11    1    3    3    0    0  0.93853538792E+01 -0.13699409897E+02  0.16980690287E+02  0.23750842971E+02  0.51100000000E-03 0.  1.
        -12    1    3    3    0    0  0.18366017293E+02 -0.24050964150E+01  0.13263791195E+02  0.22782081486E+02  0.00000000000E+00 0.  1.
</event>
<event>
 7    1  0.2580704E-010  0.4778728E+02  0.7816164E-02  0.1312668E+00
        -11   -1    0    0    0    0  0.00000000000E+00  0.00000000000E+00  0.45593999997E+02  0.45594000000E+02  0.51100000000E-03 0.  1.
         11   -1    0    0    0    0 -0.00000000000E+00 -0.00000000000E+00 -0.45593999997E+02  0.45594000000E+02  0.51100000000E-03 0. -1.
    9900012    2    1    2    0    0 -0.11386940482E+02  0.22954632397E+02  0.35029199053E+02  0.47787281707E+02  0.20000048615E+02 0.  0.
         12    1    1    2    0    0  0.11386940482E+02 -0.22954632397E+02 -0.35029199053E+02  0.43400718293E+02  0.00000000000E+00 0. -1.
         11    1    3    3    0    0 -0.35015259355E+01  0.28235102225E+01 -0.58774455056E+00  0.45363352798E+01  0.51100000000E-03 0. -1.
        -11    1    3    3    0    0 -0.90806117677E+01  0.11989921646E+02  0.15903888575E+02  0.21889481566E+02  0.51100000000E-03 0.  1.
        -12    1    3    3    0    0  0.11951972214E+01  0.81412005288E+01  0.19713055029E+02  0.21361464862E+02  0.00000000000E+00 0.  1.
</event>
<event>
 7    1  0.2580704E-010  0.4778726E+02  0.7816164E-02  0.1312668E+00
        -11   -1    0    0    0    0  0.00000000000E+00  0.00000000000E+00  0.45593999997E+02  0.45594000000E+02  0.51100000000E-03 0. -1.
         11   -1    0    0    0    0 -0.00000000000E+00 -0.00000000000E+00 -0.45593999997E+02  0.45594000000E+02  0.51100000000E-03 0.  1.
    9900012    2    1    2    0    0  0.23164474459E+02 -0.30378846648E+02  0.20595070291E+02  0.47787261286E+02  0.19999955507E+02 0.  0.
         12    1    1    2    0    0 -0.23164474459E+02  0.30378846648E+02 -0.20595070291E+02  0.43400738714E+02  0.00000000000E+00 0. -1.
         11    1    3    3    0    0  0.59148202901E+00 -0.36175781152E+01  0.23406553076E+01  0.43491826750E+01  0.51100000000E-03 0. -1.
        -11    1    3    3    0    0  0.16373033919E+02 -0.19992179927E+02  0.35220911090E+01  0.26080042638E+02  0.51100000000E-03 0.  1.
         12    1    3    3    0    0  0.61999585109E+01 -0.67690886058E+01  0.14732323875E+02  0.17358035973E+02  0.00000000000E+00 0. -1.
</event>
<event>
 7    1  0.2580704E-010  0.4778727E+02  0.7816164E-02  0.1312668E+00
        -11   -1    0    0    0    0  0.00000000000E+00  0.00000000000E+00  0.45593999997E+02  0.45594000000E+02  0.51100000000E-03 0. -1.
         11   -1    0    0    0    0 -0.00000000000E+00 -0.00000000000E+00 -0.45593999997E+02  0.45594000000E+02  0.51100000000E-03 0.  1.
    9900012    2    1    2    0    0 -0.33960353034E+02  0.90364736777E+01 -0.25468807854E+02  0.47787267192E+02  0.19999982436E+02 0.  0.
         12    1    1    2    0    0  0.33960353034E+02 -0.90364736777E+01  0.25468807854E+02  0.43400732808E+02  0.00000000000E+00 0. -1.
         11    1    3    3    0    0 -0.10985502931E+02 -0.25957865472E+01 -0.83409937811E+01  0.14035368180E+02  0.51100000000E-03 0. -1.
        -11    1    3    3    0    0 -0.24296100918E+02  0.86796375175E+01 -0.15811655462E+02  0.30259627823E+02  0.51100000000E-03 0.  1.
        -12    1    3    3    0    0  0.13212508148E+01  0.29526227073E+01 -0.13161586108E+01  0.34922711888E+01  0.00000000000E+00 0.  1.
</event>
<event>
 7    1  0.2580704E-010  0.4778727E+02  0.7816164E-02  0.1312668E+00
        -11   -1    0    0    0    0  0.00000000000E+00  0.00000000000E+00  0.45593999997E+02  0.45594000000E+02  0.51100000000E-03 0.  1.
         11   -1    0    0    0    0 -0.00000000000E+00 -0.00000000000E+00 -0.45593999997E+02  0.45594000000E+02  0.51100000000E-03 0. -1.
    9900012    2    1    2    0    0  0.22959228944E+02  0.15071697391E+02  0.33605669132E+02  0.47787271276E+02  0.20000001056E+02 0.  0.
         12    1    1    2    0    0 -0.22959228944E+02 -0.15071697391E+02 -0.33605669132E+02  0.43400728724E+02  0.00000000000E+00 0. -1.
         11    1    3    3    0    0  0.48856973155E+01  0.50318933019E+01  0.14268964954E+02  0.15899476394E+02  0.51100000000E-03 0. -1.
        -11    1    3    3    0    0  0.17132515731E+02  0.12160582380E+02  0.20445855167E+02  0.29316136391E+02  0.51100000000E-03 0.  1.
         12    1    3    3    0    0  0.94101589770E+00 -0.21207782914E+01 -0.11091509895E+01  0.25716584918E+01  0.00000000000E+00 0. -1.
</event>
<event>
 7    1  0.2580704E-010  0.4778728E+02  0.7816164E-02  0.1312668E+00
        -11   -1    0    0    0    0  0.00000000000E+00  0.00000000000E+00  0.45593999997E+02  0.45594000000E+02  0.51100000000E-03 0.  1.
         11   -1    0    0    0    0 -0.00000000000E+00 -0.00000000000E+00 -0.45593999997E+02  0.45594000000E+02  0.51100000000E-03 0. -1.
    9900012    2    1    2    0    0 -0.39713520430E+01  0.32237908180E+02  0.28784861556E+02  0.47787278627E+02  0.20000034572E+02 0.  0.
         12    1    1    2    0    0  0.39713520430E+01 -0.32237908180E+02 -0.28784861556E+02  0.43400721373E+02  0.00000000000E+00 0. -1.
         11    1    3    3    0    0 -0.56500819429E+01  0.11175155444E+02  0.17271828603E+02  0.21333625775E+02  0.51100000000E-03 0. -1.
        -11    1    3    3    0    0 -0.45928227584E+01  0.99166114374E+01  0.41077451674E+01  0.11675049204E+02  0.51100000000E-03 0.  1.
         12    1    3    3    0    0  0.62715526582E+01  0.11146141299E+02  0.74052877857E+01  0.14778603648E+02  0.00000000000E+00 0. -1.
</event>
<event>
 7    1  0.2580704E-010  0.4778727E+02  0.7816164E-02  0.1312668E+00
        -11   -1    0    0    0    0  0.00000000000E+00  0.00000000000E+00  0.45593999997E+02  0.45594000000E+02  0.51100000000E-03 0.  1.
         11   -1    0    0    0    0 -0.00000000000E+00 -0.00000000000E+00 -0.45593999997E+02  0.45594000000E+02  0.51100000000E-03 0. -1.
    9900012    2    1    2    0    0  0.51784178470E+01  0.11566012087E+01  0.43075160696E+02  0.47787271818E+02  0.20000003526E+02 0.  0.
         12    1    1    2    0    0 -0.51784178470E+01 -0.11566012087E+01 -0.43075160696E+02  0.43400728182E+02  0.00000000000E+00 0. -1.
         11    1    3    3    0    0  0.45789151938E+01  0.49955075000E+01  0.69985624629E+01  0.97417368237E+01  0.51100000000E-03 0. -1.
        -11    1    3    3    0    0 -0.39757315141E+01  0.11440602486E+01  0.22497124055E+02  0.22874350394E+02  0.51100000000E-03 0.  1.
         12    1    3    3    0    0  0.45752341673E+01 -0.49829665398E+01  0.13579474178E+02  0.15171184600E+02  0.00000000000E+00 0. -1.
</event>
<event>
 7    1  0.2580704E-010  0.4778727E+02  0.7816164E-02  0.1312668E+00
        -11   -1    0    0    0    0  0.00000000000E+00  0.00000000000E+00  0.45593999997E+02  0.45594000000E+02  0.51100000000E-03 0.  1.
         11   -1    0    0    0    0 -0.00000000000E+00 -0.00000000000E+00 -0.45593999997E+02  0.45594000000E+02  0.51100000000E-03 0. -1.
    9900012    2    1    2    0    0  0.10579634325E+02 -0.29468481317E+02  0.30055010930E+02  0.47787265725E+02  0.19999975745E+02 0.  0.
         12    1    1    2    0    0 -0.10579634325E+02  0.29468481317E+02 -0.30055010930E+02  0.43400734275E+02  0.00000000000E+00 0. -1.
         11    1    3    3    0    0  0.24270169965E+01 -0.21833210829E+02  0.11327211605E+02  0.24716092523E+02  0.51100000000E-03 0. -1.
        -11    1    3    3    0    0 -0.81161723024E+00  0.32673172793E+00  0.50019074771E-01  0.87634372219E+00  0.51100000000E-03 0.  1.
        -12    1    3    3    0    0  0.89642345591E+01 -0.79620022165E+01  0.18677780251E+02  0.22194829480E+02  0.00000000000E+00 0.  1.
</event>
<event>
 7    1  0.2580704E-010  0.4778727E+02  0.7816164E-02  0.1312668E+00
        -11   -1    0    0    0    0  0.00000000000E+00  0.00000000000E+00  0.45593999997E+02  0.45594000000E+02  0.51100000000E-03 0.  1.
         11   -1    0    0    0    0 -0.00000000000E+00 -0.00000000000E+00 -0.45593999997E+02  0.45594000000E+02  0.51100000000E-03 0. -1.
    9900012    2    1    2    0    0 -0.26643455477E+01  0.40787433295E+02  0.14591419200E+02  0.47787274588E+02  0.20000016157E+02 0.  0.
         12    1    1    2    0    0  0.26643455477E+01 -0.40787433295E+02 -0.14591419200E+02  0.43400725412E+02  0.00000000000E+00 0. -1.
         11    1    3    3    0    0 -0.21065109077E+01  0.15759648277E+02  0.72841561261E+00  0.15916484900E+02  0.51100000000E-03 0. -1.
        -11    1    3    3    0    0 -0.28024302653E+01  0.13699256087E+02  0.20478441939E+00  0.13984461722E+02  0.51100000000E-03 0.  1.
         12    1    3    3    0    0  0.22445956254E+01  0.11328528932E+02  0.13658219168E+02  0.17886327966E+02  0.00000000000E+00 0. -1.
</event>
<event>
 7    1  0.2580704E-010  0.4778727E+02  0.7816164E-02  0.1312668E+00
        -11   -1    0    0    0    0  0.00000000000E+00  0.00000000000E+00  0.45593999997E+02  0.45594000000E+02  0.51100000000E-03 0.  1.
         11   -1    0    0    0    0 -0.00000000000E+00 -0.00000000000E+00 -0.45593999997E+02  0.45594000000E+02  0.51100000000E-03 0. -1.
    9900012    2    1    2    0    0 -0.12878057082E+02  0.29911809971E+02  0.28689069227E+02  0.47787269326E+02  0.19999992164E+02 0.  0.
         12    1    1    2    0    0  0.12878057082E+02 -0.29911809971E+02 -0.28689069227E+02  0.43400730674E+02  0.00000000000E+00 0. -1.
         11    1    3    3    0    0 -0.36200069638E+01  0.16343121444E+02  0.21844259848E+02  0.27520424370E+02  0.51100000000E-03 0. -1.
        -11    1    3    3    0    0 -0.82436615386E+01  0.87439183271E+01  0.88706422703E+01  0.14936611323E+02  0.51100000000E-03 0.  1.
         12    1    3    3    0    0 -0.10143885797E+01  0.48247701999E+01 -0.20258328910E+01  0.53302336323E+01  0.00000000000E+00 0. -1.
</event>
<event>
 7    1  0.2580704E-010  0.4778727E+02  0.7816164E-02  0.1312668E+00
        -11   -1    0    0    0    0  0.00000000000E+00  0.00000000000E+00  0.45593999997E+02  0.45594000000E+02  0.51100000000E-03 0.  1.
         11   -1    0    0    0    0 -0.00000000000E+00 -0.00000000000E+00 -0.45593999997E+02  0.45594000000E+02  0.51100000000E-03 0. -1.
    9900012    2    1    2    0    0  0.16110138842E+02  0.38542535159E+01  0.40115226272E+02  0.47787271636E+02  0.20000002695E+02 0.  0.
         12    1    1    2    0    0 -0.16110138842E+02 -0.38542535159E+01 -0.40115226272E+02  0.43400728364E+02  0.00000000000E+00 0. -1.
         11    1    3    3    0    0  0.10349059247E+01  0.11737417584E+01  0.83780751474E+00  0.17749990652E+01  0.51100000000E-03 0. -1.
        -11    1    3    3    0    0  0.34411267068E+00  0.19237341694E+01  0.26279445930E+02  0.26352010271E+02  0.51100000000E-03 0.  1.
         12    1    3    3    0    0  0.14731120247E+02  0.75677758802E+00  0.12997972827E+02  0.19660262299E+02  0.00000000000E+00 0. -1.
</event>
<event>
 7    1  0.2580704E-010  0.4778726E+02  0.7816164E-02  0.1312668E+00
        -11   -1    0    0    0    0  0.00000000000E+00  0.00000000000E+00  0.45593999997E+02  0.45594000000E+02  0.51100000000E-03 0.  1.
         11   -1    0    0    0    0 -0.00000000000E+00 -0.00000000000E+00 -0.45593999997E+02  0.45594000000E+02  0.51100000000E-03 0. -1.
    9900012    2    1    2    0    0 -0.10323935861E+02  0.89527271189E+01  0.41193310669E+02  0.47787264771E+02  0.19999971399E+02 0.  0.
         12    1    1    2    0    0  0.10323935861E+02 -0.89527271189E+01 -0.41193310669E+02  0.43400735229E+02  0.00000000000E+00 0. -1.
         11    1    3    3    0    0 -0.68820836899E+01  0.31655854055E+01  0.17018873380E+02  0.18628635438E+02  0.51100000000E-03 0.  1.
        -11    1    3    3    0    0 -0.86206288487E+01  0.18362863239E+01  0.87709299347E+01  0.12434484364E+02  0.51100000000E-03 0. -1.
        -12    1    3    3    0    0  0.51787766773E+01  0.39508553895E+01  0.15403507354E+02  0.16724144970E+02  0.00000000000E+00 0.  1.
</event>
<event>
 7    1  0.2580704E-010  0.4778728E+02  0.7816164E-02  0.1312668E+00
        -11   -1    0    0    0    0  0.00000000000E+00  0.00000000000E+00  0.45593999997E+02  0.45594000000E+02  0.51100000000E-03 0. -1.
         11   -1    0    0    0    0 -0.00000000000E+00 -0.00000000000E+00 -0.45593999997E+02  0.45594000000E+02  0.51100000000E-03 0.  1.
    9900012    2    1    2    0    0 -0.39756450317E+02 -0.15464427175E+02 -0.79936710200E+01  0.47787278507E+02  0.20000034027E+02 0.  0.
         12    1    1    2    0    0  0.39756450317E+02  0.15464427175E+02  0.79936710200E+01  0.43400721493E+02  0.00000000000E+00 0. -1.
         11    1    3    3    0    0 -0.48112945352E+01 -0.83333712694E+00 -0.52936937251E+01  0.72018191721E+01  0.51100000000E-03 0. -1.
        -11    1    3    3    0    0 -0.15172886888E+02 -0.65062262681E+01 -0.83135851885E+01  0.18484133080E+02  0.51100000000E-03 0.  1.
        -12    1    3    3    0    0 -0.19772268894E+02 -0.81248637801E+01  0.56136078936E+01  0.22101326255E+02  0.00000000000E+00 0.  1.
</event>
<event>
 7    1  0.2580704E-010  0.4778727E+02  0.7816164E-02  0.1312668E+00
        -11   -1    0    0    0    0  0.00000000000E+00  0.00000000000E+00  0.45593999997E+02  0.45594000000E+02  0.51100000000E-03 0.  1.
         11   -1    0    0    0    0 -0.00000000000E+00 -0.00000000000E+00 -0.45593999997E+02  0.45594000000E+02  0.51100000000E-03 0. -1.
    9900012    2    1    2    0    0 -0.38108454712E+02 -0.15893639794E+02  0.13370149235E+02  0.47787274234E+02  0.20000014543E+02 0.  0.
         12    1    1    2    0    0  0.38108454712E+02  0.15893639794E+02 -0.13370149235E+02  0.43400725766E+02  0.00000000000E+00 0. -1.
         11    1    3    3    0    0 -0.19056327426E+01 -0.42148110952E+01  0.77068993163E+01  0.89884573788E+01  0.51100000000E-03 0. -1.
        -11    1    3    3    0    0 -0.64354333086E+01 -0.10646598922E+01 -0.70352804211E+00  0.65607358217E+01  0.51100000000E-03 0.  1.
         12    1    3    3    0    0 -0.29767388661E+02 -0.10614168806E+02  0.63667779611E+01  0.32238081034E+02  0.00000000000E+00 0. -1.
</event>
<event>
 7    1  0.2580704E-010  0.4778727E+02  0.7816164E-02  0.1312668E+00
        -11   -1    0    0    0    0  0.00000000000E+00  0.00000000000E+00  0.45593999997E+02  0.45594000000E+02  0.51100000000E-03 0.  1.
         11   -1    0    0    0    0 -0.00000000000E+00 -0.00000000000E+00 -0.45593999997E+02  0.45594000000E+02  0.51100000000E-03 0. -1.
    9900012    2    1    2    0    0 -0.31393838279E+02  0.28161664293E+02  0.10245534870E+02  0.47787269563E+02  0.19999993247E+02 0.  0.
         12    1    1    2    0    0  0.31393838279E+02 -0.28161664293E+02 -0.10245534870E+02  0.43400730437E+02  0.00000000000E+00 0. -1.
         11    1    3    3    0    0 -0.16607867384E+02  0.17775896728E+02  0.37388869589E+01  0.24612660146E+02  0.51100000000E-03 0. -1.
        -11    1    3    3    0    0 -0.14034263543E+02  0.13196101900E+02  0.50180702744E+01  0.19906749812E+02  0.51100000000E-03 0.  1.
         12    1    3    3    0    0 -0.75170735315E+00 -0.28103343348E+01  0.14885776366E+01  0.32678596051E+01  0.00000000000E+00 0. -1.
</event>
<event>
 7    1  0.2580704E-010  0.4778727E+02  0.7816164E-02  0.1312668E+00
        -11   -1    0    0    0    0  0.00000000000E+00  0.00000000000E+00  0.45593999997E+02  0.45594000000E+02  0.51100000000E-03 0.  1.
         11   -1    0    0    0    0 -0.00000000000E+00 -0.00000000000E+00 -0.45593999997E+02  0.45594000000E+02  0.51100000000E-03 0. -1.
    9900012    2    1    2    0    0  0.10135408752E+02  0.41882137257E+02 -0.51752886905E+01  0.47787267923E+02  0.19999985770E+02 0.  0.
         12    1    1    2    0    0 -0.10135408752E+02 -0.41882137257E+02  0.51752886905E+01  0.43400732077E+02  0.00000000000E+00 0. -1.
         11    1    3    3    0    0 -0.29431677737E+01  0.41065586738E+01 -0.17202830372E+01  0.53371747840E+01  0.51100000000E-03 0. -1.
        -11    1    3    3    0    0 -0.18232467777E+01  0.13221925158E+02 -0.32079923367E+01  0.13727153703E+02  0.51100000000E-03 0.  1.
        -12    1    3    3    0    0  0.14901823304E+02  0.24553653425E+02 -0.24701331656E+00  0.28722939436E+02  0.00000000000E+00 0.  1.
</event>
<event>
 7    1  0.2580704E-010  0.4778727E+02  0.7816164E-02  0.1312668E+00
        -11   -1    0    0    0    0  0.00000000000E+00  0.00000000000E+00  0.45593999997E+02  0.45594000000E+02  0.51100000000E-03 0.  1.
         11   -1    0    0    0    0 -0.00000000000E+00 -0.00000000000E+00 -0.45593999997E+02  0.45594000000E+02  0.51100000000E-03 0. -1.
    9900012    2    1    2    0    0 -0.33864442916E+02  0.17823470263E+02  0.20473070655E+02  0.47787271800E+02  0.20000003446E+02 0.  0.
         12    1    1    2    0    0  0.33864442916E+02 -0.17823470263E+02 -0.20473070655E+02  0.43400728200E+02  0.00000000000E+00 0. -1.
         11    1    3    3    0    0 -0.19057364993E+01  0.44973515033E+01  0.53425789537E+01  0.72388640191E+01  0.51100000000E-03 0. -1.
        -11    1    3    3    0    0 -0.17028951476E+02  0.14228638397E+02  0.12142561189E+02  0.25295871827E+02  0.51100000000E-03 0.  1.
         12    1    3    3    0    0 -0.14929754940E+02 -0.90251963726E+00  0.29879305119E+01  0.15252535954E+02  0.00000000000E+00 0. -1.
</event>
<event>
 7    1  0.2661493E-010  0.4778727E+02  0.7816164E-02  0.1312668E+00
        -11   -1    0    0    0    0  0.00000000000E+00  0.00000000000E+00  0.45593999997E+02  0.45594000000E+02  0.51100000000E-03 0.  1.
         11   -1    0    0    0    0 -0.00000000000E+00 -0.00000000000E+00 -0.45593999997E+02  0.45594000000E+02  0.51100000000E-03 0. -1.
    9900012    2    1    2    0    0 -0.33427810517E+02 -0.15308610934E+02  0.23061900347E+02  0.47787270371E+02  0.19999996928E+02 0.  0.
         12    1    1    2    0    0  0.33427810517E+02  0.15308610934E+02 -0.23061900347E+02  0.43400729629E+02  0.00000000000E+00 0. -1.
         11    1    3    3    0    0 -0.12766138003E+02 -0.76083390693E+01  0.25654580752E+01  0.15081202813E+02  0.51100000000E-03 0.  1.
        -11    1    3    3    0    0  0.15464361802E+01 -0.31937667095E+00 -0.26670592272E-01  0.15792966469E+01  0.51100000000E-03 0. -1.
        -12    1    3    3    0    0 -0.22208108695E+02 -0.73808951938E+01  0.20523112864E+02  0.31126770911E+02  0.00000000000E+00 0.  1.
</event>
<event>
 7    1  0.2580704E-010  0.4778727E+02  0.7816164E-02  0.1312668E+00
        -11   -1    0    0    0    0  0.00000000000E+00  0.00000000000E+00  0.45593999997E+02  0.45594000000E+02  0.51100000000E-03 0. -1.
         11   -1    0    0    0    0 -0.00000000000E+00 -0.00000000000E+00 -0.45593999997E+02  0.45594000000E+02  0.51100000000E-03 0.  1.
    9900012    2    1    2    0    0  0.43259649783E+02 -0.16310972498E+01  0.30928050536E+01  0.47787271657E+02  0.20000002792E+02 0.  0.
         12    1    1    2    0    0 -0.43259649783E+02  0.16310972498E+01 -0.30928050536E+01  0.43400728343E+02  0.00000000000E+00 0. -1.
         11    1    3    3    0    0  0.82961166757E+01  0.26332905651E+01  0.27958036451E+01  0.91420068573E+01  0.51100000000E-03 0. -1.
        -11    1    3    3    0    0  0.18395417300E+02 -0.53037110673E+00 -0.76059473883E+01  0.19912887964E+02  0.51100000000E-03 0.  1.
         12    1    3    3    0    0  0.16568115808E+02 -0.37340167081E+01  0.79029487969E+01  0.18732376835E+02  0.00000000000E+00 0. -1.
</event>
<event>
 7    1  0.2580704E-010  0.4778728E+02  0.7816164E-02  0.1312668E+00
        -11   -1    0    0    0    0  0.00000000000E+00  0.00000000000E+00  0.45593999997E+02  0.45594000000E+02  0.51100000000E-03 0. -1.
         11   -1    0    0    0    0 -0.00000000000E+00 -0.00000000000E+00 -0.45593999997E+02  0.45594000000E+02  0.51100000000E-03 0.  1.
    9900012    2    1    2    0    0  0.26726493174E+02 -0.63844017373E+01 -0.33593997996E+02  0.47787277376E+02  0.20000028866E+02 0.  0.
         12    1    1    2    0    0 -0.26726493174E+02  0.63844017373E+01  0.33593997996E+02  0.43400722624E+02  0.00000000000E+00 0. -1.
         11    1    3    3    0    0  0.10299767775E+01  0.16879609741E+01 -0.45016435636E+01  0.49167936144E+01  0.51100000000E-03 0. -1.
        -11    1    3    3    0    0  0.79399773124E+01 -0.10447284628E+02 -0.87889604430E+01  0.15793505683E+02  0.51100000000E-03 0.  1.
         12    1    3    3    0    0  0.17756539085E+02  0.23749219164E+01 -0.20303393990E+02  0.27076978079E+02  0.00000000000E+00 0. -1.
</event>
<event>
 7    1  0.2580704E-010  0.4778727E+02  0.7816164E-02  0.1312668E+00
        -11   -1    0    0    0    0  0.00000000000E+00  0.00000000000E+00  0.45593999997E+02  0.45594000000E+02  0.51100000000E-03 0.  1.
         11   -1    0    0    0    0 -0.00000000000E+00 -0.00000000000E+00 -0.45593999997E+02  0.45594000000E+02  0.51100000000E-03 0. -1.
    9900012    2    1    2    0    0 -0.15844443567E+01  0.36589073765E+02  0.23288461905E+02  0.47787271425E+02  0.20000001737E+02 0.  0.
         12    1    1    2    0    0  0.15844443567E+01 -0.36589073765E+02 -0.23288461905E+02  0.43400728575E+02  0.00000000000E+00 0. -1.
         11    1    3    3    0    0  0.38617493968E+01  0.84408012345E+01  0.39689938794E+01  0.10095204137E+02  0.51100000000E-03 0. -1.
        -11    1    3    3    0    0 -0.23130033668E+01  0.26952139859E+02  0.11906180407E+02  0.29555455668E+02  0.51100000000E-03 0.  1.
        -12    1    3    3    0    0 -0.31331903867E+01  0.11961326717E+01  0.74132876180E+01  0.81366116212E+01  0.00000000000E+00 0.  1.
</event>
<event>
 7    1  0.2580704E-010  0.4778727E+02  0.7816164E-02  0.1312668E+00
        -11   -1    0    0    0    0  0.00000000000E+00  0.00000000000E+00  0.45593999997E+02  0.45594000000E+02  0.51100000000E-03 0.  1.
         11   -1    0    0    0    0 -0.00000000000E+00 -0.00000000000E+00 -0.45593999997E+02  0.45594000000E+02  0.51100000000E-03 0. -1.
    9900012    2    1    2    0    0 -0.26147018512E+02 -0.30945299617E+02  0.15567441614E+02  0.47787269778E+02  0.19999994224E+02 0.  0.
         12    1    1    2    0    0  0.26147018512E+02  0.30945299617E+02 -0.15567441614E+02  0.43400730222E+02  0.00000000000E+00 0. -1.
         11    1    3    3    0    0 -0.33485081466E+01 -0.73034321674E+00  0.27973208699E+01  0.44239023873E+01  0.51100000000E-03 0. -1.
        -11    1    3    3    0    0 -0.21605013279E+02 -0.18950403505E+02  0.14003865410E+02  0.31968775993E+02  0.51100000000E-03 0.  1.
         12    1    3    3    0    0 -0.11934970860E+01 -0.11264552895E+02 -0.12337446658E+01  0.11394591397E+02  0.00000000000E+00 0. -1.
</event>
<event>
 7    1  0.2580704E-010  0.4778727E+02  0.7816164E-02  0.1312668E+00
        -11   -1    0    0    0    0  0.00000000000E+00  0.00000000000E+00  0.45593999997E+02  0.45594000000E+02  0.51100000000E-03 0. -1.
         11   -1    0    0    0    0 -0.00000000000E+00 -0.00000000000E+00 -0.45593999997E+02  0.45594000000E+02  0.51100000000E-03 0.  1.
    9900012    2    1    2    0    0 -0.13881703642E+02 -0.15021684919E+02 -0.38278852630E+02  0.47787271060E+02  0.20000000073E+02 0.  0.
         12    1    1    2    0    0  0.13881703642E+02  0.15021684919E+02  0.38278852630E+02  0.43400728940E+02  0.00000000000E+00 0. -1.
         11    1    3    3    0    0 -0.37659832565E+00 -0.35281600973E+00 -0.79121526055E+01  0.79289636491E+01  0.51100000000E-03 0. -1.
        -11    1    3    3    0    0 -0.14120592958E+02 -0.42633039162E+01 -0.13304372860E+02  0.19863867781E+02  0.51100000000E-03 0.  1.
         12    1    3    3    0    0  0.61548764156E+00 -0.10405564993E+02 -0.17062327164E+02  0.19994439630E+02  0.00000000000E+00 0. -1.
</event>
<event>
 7    1  0.2580704E-010  0.4778727E+02  0.7816164E-02  0.1312668E+00
        -11   -1    0    0    0    0  0.00000000000E+00  0.00000000000E+00  0.45593999997E+02  0.45594000000E+02  0.51100000000E-03 0. -1.
         11   -1    0    0    0    0 -0.00000000000E+00 -0.00000000000E+00 -0.45593999997E+02  0.45594000000E+02  0.51100000000E-03 0.  1.
    9900012    2    1    2    0    0  0.16911505299E+02  0.30102220120E+02 -0.26296015583E+02  0.47787273011E+02  0.20000008968E+02 0.  0.
         12    1    1    2    0    0 -0.16911505299E+02 -0.30102220120E+02  0.26296015583E+02  0.43400726989E+02  0.00000000000E+00 0. -1.
         11    1    3    3    0    0  0.94626165119E+01  0.28269084950E+01 -0.10967289689E+02  0.14758521819E+02  0.51100000000E-03 0. -1.
        -11    1    3    3    0    0  0.59268471767E+01  0.83211514406E+01 -0.60117255112E+01  0.11853688145E+02  0.51100000000E-03 0.  1.
        -12    1    3    3    0    0  0.15220416103E+01  0.18954160184E+02 -0.93170003820E+01  0.21175063048E+02  0.00000000000E+00 0.  1.
</event>
<event>
 7    1  0.2580704E-010  0.4778728E+02  0.7816164E-02  0.1312668E+00
        -11   -1    0    0    0    0  0.00000000000E+00  0.00000000000E+00  0.45593999997E+02  0.45594000000E+02  0.51100000000E-03 0.  1.
         11   -1    0    0    0    0 -0.00000000000E+00 -0.00000000000E+00 -0.45593999997E+02  0.45594000000E+02  0.51100000000E-03 0. -1.
    9900012    2    1    2    0    0 -0.92512273787E+01 -0.10146895368E+02  0.41171319105E+02  0.47787283295E+02  0.20000055856E+02 0.  0.
         12    1    1    2    0    0  0.92512273787E+01  0.10146895368E+02 -0.41171319105E+02  0.43400716705E+02  0.00000000000E+00 0. -1.
         11    1    3    3    0    0 -0.50336442795E+00  0.38591395975E+01  0.23267245996E+01  0.45343116130E+01  0.51100000000E-03 0. -1.
        -11    1    3    3    0    0  0.15707370271E+01 -0.36466498117E+00  0.16149249821E+01  0.22821433601E+01  0.51100000000E-03 0.  1.
        -12    1    3    3    0    0 -0.10318599978E+02 -0.13641369984E+02  0.37229669524E+02  0.40970828322E+02  0.00000000000E+00 0.  1.
</event>
<event>
 7    1  0.2580704E-010  0.4778727E+02  0.7816164E-02  0.1312668E+00
        -11   -1    0    0    0    0  0.00000000000E+00  0.00000000000E+00  0.45593999997E+02  0.45594000000E+02  0.51100000000E-03 0.  1.
         11   -1    0    0    0    0 -0.00000000000E+00 -0.00000000000E+00 -0.45593999997E+02  0.45594000000E+02  0.51100000000E-03 0. -1.
    9900012    2    1    2    0    0  0.13166970391E+02 -0.40597847302E+02  0.78783797159E+01  0.47787272106E+02  0.20000004838E+02 0.  0.
         12    1    1    2    0    0 -0.13166970391E+02  0.40597847302E+02 -0.78783797159E+01  0.43400727894E+02  0.00000000000E+00 0. -1.
         11    1    3    3    0    0  0.41017807824E+01 -0.13333030970E+02  0.91560587404E+00  0.13979722987E+02  0.51100000000E-03 0. -1.
        -11    1    3    3    0    0  0.11072528060E+02 -0.92345200089E+01  0.12054620114E+00  0.14418452382E+02  0.51100000000E-03 0.  1.
        -12    1    3    3    0    0 -0.20073384516E+01 -0.18030296323E+02  0.68422276407E+01  0.19389096737E+02  0.00000000000E+00 0.  1.
</event>
<event>
 7    1  0.2580704E-010  0.4778727E+02  0.7816164E-02  0.1312668E+00
        -11   -1    0    0    0    0  0.00000000000E+00  0.00000000000E+00  0.45593999997E+02  0.45594000000E+02  0.51100000000E-03 0. -1.
         11   -1    0    0    0    0 -0.00000000000E+00 -0.00000000000E+00 -0.45593999997E+02  0.45594000000E+02  0.51100000000E-03 0.  1.
    9900012    2    1    2    0    0 -0.36054151995E+02 -0.54249505889E+01 -0.23543391931E+02  0.47787271105E+02  0.20000000278E+02 0.  0.
         12    1    1    2    0    0  0.36054151995E+02  0.54249505889E+01  0.23543391931E+02  0.43400728895E+02  0.00000000000E+00 0. -1.
         11    1    3    3    0    0 -0.20104417980E+02  0.19631912870E+01 -0.87312853323E+01  0.22006296512E+02  0.51100000000E-03 0. -1.
        -11    1    3    3    0    0 -0.61565632455E+01 -0.16467261698E+01  0.85852439631E+00  0.64305553783E+01  0.51100000000E-03 0.  1.
        -12    1    3    3    0    0 -0.97931707694E+01 -0.57414157061E+01 -0.15670630995E+02  0.19350419215E+02  0.00000000000E+00 0.  1.
</event>
<event>
 7    1  0.2580704E-010  0.4778727E+02  0.7816164E-02  0.1312668E+00
        -11   -1    0    0    0    0  0.00000000000E+00  0.00000000000E+00  0.45593999997E+02  0.45594000000E+02  0.51100000000E-03 0.  1.
         11   -1    0    0    0    0 -0.00000000000E+00 -0.00000000000E+00 -0.45593999997E+02  0.45594000000E+02  0.51100000000E-03 0. -1.
    9900012    2    1    2    0    0  0.10727480365E+02  0.34399342219E+02  0.24191517788E+02  0.47787272898E+02  0.20000008453E+02 0.  0.
         12    1    1    2    0    0 -0.10727480365E+02 -0.34399342219E+02 -0.24191517788E+02  0.43400727102E+02  0.00000000000E+00 0. -1.
         11    1    3    3    0    0  0.28815991103E+01  0.67283535599E+01  0.76173832138E+00  0.73589809479E+01  0.51100000000E-03 0. -1.
        -11    1    3    3    0    0  0.11475625615E+02  0.11816394221E+02  0.14068327880E+02  0.21661832915E+02  0.51100000000E-03 0.  1.
         12    1    3    3    0    0 -0.36297443607E+01  0.15854594438E+02  0.93614515864E+01  0.18766459035E+02  0.00000000000E+00 0. -1.
</event>
<event>
 7    1  0.2580704E-010  0.4778727E+02  0.7816164E-02  0.1312668E+00
        -11   -1    0    0    0    0  0.00000000000E+00  0.00000000000E+00  0.45593999997E+02  0.45594000000E+02  0.51100000000E-03 0.  1.
         11   -1    0    0    0    0 -0.00000000000E+00 -0.00000000000E+00 -0.45593999997E+02  0.45594000000E+02  0.51100000000E-03 0. -1.
    9900012    2    1    2    0    0  0.33381074971E+02  0.24580294506E+02  0.12850532979E+02  0.47787271411E+02  0.20000001671E+02 0.  0.
         12    1    1    2    0    0 -0.33381074971E+02 -0.24580294506E+02 -0.12850532979E+02  0.43400728589E+02  0.00000000000E+00 0. -1.
         11    1    3    3    0    0  0.16777205683E+02  0.16574004455E+02  0.91201509342E+01  0.25285359549E+02  0.51100000000E-03 0. -1.
        -11    1    3    3    0    0  0.16836418384E+02  0.49758017968E+01  0.61653847274E+01  0.18607405962E+02  0.51100000000E-03 0.  1.
         12    1    3    3    0    0 -0.23254909660E+00  0.30304882541E+01 -0.24350026824E+01  0.38945058998E+01  0.00000000000E+00 0. -1.
</event>
<event>
 7    1  0.2580704E-010  0.4778727E+02  0.7816164E-02  0.1312668E+00
        -11   -1    0    0    0    0  0.00000000000E+00  0.00000000000E+00  0.45593999997E+02  0.45594000000E+02  0.51100000000E-03 0.  1.
         11   -1    0    0    0    0 -0.00000000000E+00 -0.00000000000E+00 -0.45593999997E+02  0.45594000000E+02  0.51100000000E-03 0. -1.
    9900012    2    1    2    0    0  0.40266314225E+02 -0.13100385194E+02  0.95198228496E+01  0.47787272119E+02  0.20000004899E+02 0.  0.
         12    1    1    2    0    0 -0.40266314225E+02  0.13100385194E+02 -0.95198228496E+01  0.43400727881E+02  0.00000000000E+00 0. -1.
         11    1    3    3    0    0  0.50405530235E+01 -0.90562774992E+01  0.79870720086E+00  0.10395252300E+02  0.51100000000E-03 0. -1.
        -11    1    3    3    0    0  0.14880763411E+02 -0.50260880616E+01  0.14871206338E+01  0.15776888443E+02  0.51100000000E-03 0.  1.
        -12    1    3    3    0    0  0.20344997790E+02  0.98198036632E+00  0.72339950149E+01  0.21615131376E+02  0.00000000000E+00 0.  1.
</event>
<event>
 7    1  0.3325351E-010  0.4778728E+02  0.7816164E-02  0.1312668E+00
        -11   -1    0    0    0    0  0.00000000000E+00  0.00000000000E+00  0.45593999997E+02  0.45594000000E+02  0.51100000000E-03 0. -1.
         11   -1    0    0    0    0 -0.00000000000E+00 -0.00000000000E+00 -0.45593999997E+02  0.45594000000E+02  0.51100000000E-03 0.  1.
    9900012    2    1    2    0    0 -0.78859567138E+01 -0.33064889793E+02 -0.26984210672E+02  0.47787275629E+02  0.20000020903E+02 0.  0.
         12    1    1    2    0    0  0.78859567138E+01  0.33064889793E+02  0.26984210672E+02  0.43400724371E+02  0.00000000000E+00 0. -1.
         11    1    3    3    0    0 -0.17881729409E+01  0.12738534969E+01 -0.23932928844E+01  0.32477863676E+01  0.51100000000E-03 0. -1.
        -11    1    3    3    0    0  0.27327728022E+01 -0.13968095114E+02 -0.13911050782E+02  0.19902086887E+02  0.51100000000E-03 0.  1.
        -12    1    3    3    0    0 -0.88305565751E+01 -0.20370648176E+02 -0.10679867005E+02  0.24637402375E+02  0.00000000000E+00 0.  1.
</event>
<event>
 7    1  0.2580704E-010  0.4778727E+02  0.7816164E-02  0.1312668E+00
        -11   -1    0    0    0    0  0.00000000000E+00  0.00000000000E+00  0.45593999997E+02  0.45594000000E+02  0.51100000000E-03 0.  1.
         11   -1    0    0    0    0 -0.00000000000E+00 -0.00000000000E+00 -0.45593999997E+02  0.45594000000E+02  0.51100000000E-03 0. -1.
    9900012    2    1    2    0    0  0.11519174928E+02  0.26500047368E+02  0.32383315266E+02  0.47787274094E+02  0.20000013906E+02 0.  0.
         12    1    1    2    0    0 -0.11519174928E+02 -0.26500047368E+02 -0.32383315266E+02  0.43400725906E+02  0.00000000000E+00 0. -1.
         11    1    3    3    0    0  0.58856332445E+01  0.16431114474E+02  0.20469658087E+02  0.26900355091E+02  0.51100000000E-03 0. -1.
        -11    1    3    3    0    0 -0.27401050714E+01  0.59896947075E+01  0.89498300556E+01  0.11112338943E+02  0.51100000000E-03 0.  1.
         12    1    3    3    0    0  0.83736467544E+01  0.40792381865E+01  0.29638271230E+01  0.97745800608E+01  0.00000000000E+00 0. -1.
</event>
<event>
 7    1  0.2580704E-010  0.4778727E+02  0.7816164E-02  0.1312668E+00
        -11   -1    0    0    0    0  0.00000000000E+00  0.00000000000E+00  0.45593999997E+02  0.45594000000E+02  0.51100000000E-03 0. -1.
         11   -1    0    0    0    0 -0.00000000000E+00 -0.00000000000E+00 -0.45593999997E+02  0.45594000000E+02  0.51100000000E-03 0.  1.
    9900012    2    1    2    0    0 -0.21628003919E+02 -0.27753543548E+02 -0.25408532671E+02  0.47787271141E+02  0.20000000441E+02 0.  0.
         12    1    1    2    0    0  0.21628003919E+02  0.27753543548E+02  0.25408532671E+02  0.43400728859E+02  0.00000000000E+00 0. -1.
         11    1    3    3    0    0 -0.39454008545E+01  0.71661882799E+00 -0.42687150685E+01  0.58567618224E+01  0.51100000000E-03 0. -1.
        -11    1    3    3    0    0 -0.60661338109E+01 -0.11647334266E+02 -0.16281046786E+02  0.20917238336E+02  0.51100000000E-03 0.  1.
        -12    1    3    3    0    0 -0.11616469253E+02 -0.16822828110E+02 -0.48587708167E+01  0.21013270982E+02  0.00000000000E+00 0.  1.
</event>
<event>
 7    1  0.2580704E-010  0.4778724E+02  0.7816164E-02  0.1312668E+00
        -11   -1    0    0    0    0  0.00000000000E+00  0.00000000000E+00  0.45593999997E+02  0.45594000000E+02  0.51100000000E-03 0.  1.
         11   -1    0    0    0    0 -0.00000000000E+00 -0.00000000000E+00 -0.45593999997E+02  0.45594000000E+02  0.51100000000E-03 0. -1.
    9900012    2    1    2    0    0  0.18401298462E+02  0.36224496476E+02  0.15257921081E+02  0.47787238650E+02  0.19999852301E+02 0.  0.
         12    1    1    2    0    0 -0.18401298462E+02 -0.36224496476E+02 -0.15257921081E+02  0.43400761350E+02  0.00000000000E+00 0. -1.
         11    1    3    3    0    0  0.40568364805E+01  0.22504144767E+01  0.73125525053E+00  0.46964903970E+01  0.51100000000E-03 0. -1.
        -11    1    3    3    0    0 -0.32173285105E+01  0.85537174224E+01  0.63562928093E+01  0.11131924498E+02  0.51100000000E-03 0.  1.
        -12    1    3    3    0    0  0.17561790492E+02  0.25420364577E+02  0.81703730210E+01  0.31958823755E+02  0.00000000000E+00 0.  1.
</event>
<event>
 7    1  0.2580704E-010  0.4778727E+02  0.7816164E-02  0.1312668E+00
        -11   -1    0    0    0    0  0.00000000000E+00  0.00000000000E+00  0.45593999997E+02  0.45594000000E+02  0.51100000000E-03 0. -1.
         11   -1    0    0    0    0 -0.00000000000E+00 -0.00000000000E+00 -0.45593999997E+02  0.45594000000E+02  0.51100000000E-03 0.  1.
    9900012    2    1    2    0    0  0.29606005182E+02 -0.31083636825E+02  0.63964910951E+01  0.47787272824E+02  0.20000008113E+02 0.  0.
         12    1    1    2    0    0 -0.29606005182E+02  0.31083636825E+02 -0.63964910951E+01  0.43400727176E+02  0.00000000000E+00 0. -1.
         11    1    3    3    0    0  0.19640016640E+02 -0.22630723059E+02 -0.23310387826E+01  0.30055176291E+02  0.51100000000E-03 0. -1.
        -11    1    3    3    0    0  0.80747115053E+01 -0.95882568832E+01  0.51989083227E+01  0.13570714202E+02  0.51100000000E-03 0.  1.
         12    1    3    3    0    0  0.18912770363E+01  0.11353431173E+01  0.35286215551E+01  0.41613823306E+01  0.00000000000E+00 0. -1.
</event>
<event>
 7    1  0.2580704E-010  0.4778728E+02  0.7816164E-02  0.1312668E+00
        -11   -1    0    0    0    0  0.00000000000E+00  0.00000000000E+00  0.45593999997E+02  0.45594000000E+02  0.51100000000E-03 0.  1.
         11   -1    0    0    0    0 -0.00000000000E+00 -0.00000000000E+00 -0.45593999997E+02  0.45594000000E+02  0.51100000000E-03 0. -1.
    9900012    2    1    2    0    0 -0.25626277627E+02 -0.13549652094E+02  0.32300517686E+02  0.47787278581E+02  0.20000034361E+02 0.  0.
         12    1    1    2    0    0  0.25626277627E+02  0.13549652094E+02 -0.32300517686E+02  0.43400721419E+02  0.00000000000E+00 0. -1.
         11    1    3    3    0    0 -0.71269781503E+01 -0.98101644842E+01  0.56206544312E+01  0.13365062711E+02  0.51100000000E-03 0. -1.
        -11    1    3    3    0    0 -0.41498504498E+01 -0.39269197153E+01  0.23549205407E+01  0.61796123034E+01  0.51100000000E-03 0.  1.
         12    1    3    3    0    0 -0.14349449027E+02  0.18743210545E+00  0.24324942714E+02  0.28242603567E+02  0.00000000000E+00 0. -1.
</event>
<event>
 7    1  0.2580704E-010  0.4778727E+02  0.7816164E-02  0.1312668E+00
        -11   -1    0    0    0    0  0.00000000000E+00  0.00000000000E+00  0.45593999997E+02  0.45594000000E+02  0.51100000000E-03 0.  1.
         11   -1    0    0    0    0 -0.00000000000E+00 -0.00000000000E+00 -0.45593999997E+02  0.45594000000E+02  0.51100000000E-03 0. -1.
    9900012    2    1    2    0    0 -0.28799006382E+02 -0.20383011923E+02  0.25273966877E+02  0.47787270221E+02  0.19999996245E+02 0.  0.
         12    1    1    2    0    0  0.28799006382E+02  0.20383011923E+02 -0.25273966877E+02  0.43400729779E+02  0.00000000000E+00 0. -1.
         11    1    3    3    0    0 -0.11738573801E+02 -0.66343380086E+01  0.59300909208E+01  0.14730055475E+02  0.51100000000E-03 0.  1.
        -11    1    3    3    0    0 -0.65442219101E+01 -0.14834074179E+02  0.11065446647E+02  0.19629587538E+02  0.51100000000E-03 0. -1.
         12    1    3    3    0    0 -0.10516210671E+02  0.10854002647E+01  0.82784293094E+01  0.13427627208E+02  0.00000000000E+00 0. -1.
</event>
<event>
 7    1  0.2580704E-010  0.4778728E+02  0.7816164E-02  0.1312668E+00
        -11   -1    0    0    0    0  0.00000000000E+00  0.00000000000E+00  0.45593999997E+02  0.45594000000E+02  0.51100000000E-03 0.  1.
         11   -1    0    0    0    0 -0.00000000000E+00 -0.00000000000E+00 -0.45593999997E+02  0.45594000000E+02  0.51100000000E-03 0. -1.
    9900012    2    1    2    0    0 -0.38154458149E+02  0.15105481731E+02  0.14130972178E+02  0.47787278466E+02  0.20000033839E+02 0.  0.
         12    1    1    2    0    0  0.38154458149E+02 -0.15105481731E+02 -0.14130972178E+02  0.43400721534E+02  0.00000000000E+00 0. -1.
         11    1    3    3    0    0 -0.10540553394E+02  0.72204345949E+00  0.27362496267E+01  0.10913829525E+02  0.51100000000E-03 0. -1.
        -11    1    3    3    0    0 -0.26834621351E+02  0.76863508195E+01  0.11344582722E+02  0.30130988191E+02  0.51100000000E-03 0.  1.
         12    1    3    3    0    0 -0.77928340313E+00  0.66970874520E+01  0.50139829574E-01  0.67424607499E+01  0.00000000000E+00 0. -1.
</event>
<event>
 7    1  0.2580704E-010  0.4778725E+02  0.7816164E-02  0.1312668E+00
        -11   -1    0    0    0    0  0.00000000000E+00  0.00000000000E+00  0.45593999997E+02  0.45594000000E+02  0.51100000000E-03 0.  1.
         11   -1    0    0    0    0 -0.00000000000E+00 -0.00000000000E+00 -0.45593999997E+02  0.45594000000E+02  0.51100000000E-03 0. -1.
    9900012    2    1    2    0    0 -0.10760939167E+02  0.40759946683E+02  0.10317645491E+02  0.47787252612E+02  0.19999915958E+02 0.  0.
         12    1    1    2    0    0  0.10760939167E+02 -0.40759946683E+02 -0.10317645491E+02  0.43400747388E+02  0.00000000000E+00 0. -1.
         11    1    3    3    0    0 -0.54580929786E+01  0.13821087978E+02 -0.16707247342E+00  0.14860725599E+02  0.51100000000E-03 0. -1.
        -11    1    3    3    0    0 -0.10597322136E+01  0.23803451140E+02  0.33625675284E+01  0.24063129039E+02  0.51100000000E-03 0.  1.
        -12    1    3    3    0    0 -0.42431139744E+01  0.31354075657E+01  0.71221504360E+01  0.88633979734E+01  0.00000000000E+00 0.  1.
</event>
<event>
 7    1  0.2580704E-010  0.4778727E+02  0.7816164E-02  0.1312668E+00
        -11   -1    0    0    0    0  0.00000000000E+00  0.00000000000E+00  0.45593999997E+02  0.45594000000E+02  0.51100000000E-03 0.  1.
         11   -1    0    0    0    0 -0.00000000000E+00 -0.00000000000E+00 -0.45593999997E+02  0.45594000000E+02  0.51100000000E-03 0. -1.
    9900012    2    1    2    0    0 -0.13452341289E+02 -0.41260957577E+02  0.43691493044E+00  0.47787274188E+02  0.20000014335E+02 0.  0.
         12    1    1    2    0    0  0.13452341289E+02  0.41260957577E+02 -0.43691493044E+00  0.43400725812E+02  0.00000000000E+00 0. -1.
         11    1    3    3    0    0 -0.84009274850E+01 -0.21671760841E+02 -0.66329079714E+01  0.24170979893E+02  0.51100000000E-03 0. -1.
        -11    1    3    3    0    0 -0.27726636225E+01 -0.39882161050E+01 -0.21937852776E+01  0.53297490906E+01  0.51100000000E-03 0.  1.
        -12    1    3    3    0    0 -0.22787501814E+01 -0.15600980631E+02  0.92636081795E+01  0.18286545205E+02  0.00000000000E+00 0.  1.
</event>
<event>
 7    1  0.2580704E-010  0.4778726E+02  0.7816164E-02  0.1312668E+00
        -11   -1    0    0    0    0  0.00000000000E+00  0.00000000000E+00  0.45593999997E+02  0.45594000000E+02  0.51100000000E-03 0.  1.
         11   -1    0    0    0    0 -0.00000000000E+00 -0.00000000000E+00 -0.45593999997E+02  0.45594000000E+02  0.51100000000E-03 0. -1.
    9900012    2    1    2    0    0 -0.19064577483E+02  0.31745947072E+02  0.22635392524E+02  0.47787259628E+02  0.19999947948E+02 0.  0.
         12    1    1    2    0    0  0.19064577483E+02 -0.31745947072E+02 -0.22635392524E+02  0.43400740372E+02  0.00000000000E+00 0. -1.
         11    1    3    3    0    0 -0.33779573535E+00  0.71009190712E-01 -0.15819704737E+01  0.16191908796E+01  0.51100000000E-03 0. -1.
        -11    1    3    3    0    0 -0.11420859624E+02  0.96443023456E+01  0.42233759407E+01  0.15533367532E+02  0.51100000000E-03 0.  1.
        -12    1    3    3    0    0 -0.73059221237E+01  0.22030635536E+02  0.19993987057E+02  0.30634701217E+02  0.00000000000E+00 0.  1.
</event>
<event>
 7    1  0.2580704E-010  0.4778727E+02  0.7816164E-02  0.1312668E+00
        -11   -1    0    0    0    0  0.00000000000E+00  0.00000000000E+00  0.45593999997E+02  0.45594000000E+02  0.51100000000E-03 0. -1.
         11   -1    0    0    0    0 -0.00000000000E+00 -0.00000000000E+00 -0.45593999997E+02  0.45594000000E+02  0.51100000000E-03 0.  1.
    9900012    2    1    2    0    0  0.35608887599E+02 -0.22930240074E+02  0.94781305145E+01  0.47787265629E+02  0.19999975311E+02 0.  0.
         12    1    1    2    0    0 -0.35608887599E+02  0.22930240074E+02 -0.94781305145E+01  0.43400734371E+02  0.00000000000E+00 0. -1.
         11    1    3    3    0    0  0.37567240851E+01 -0.16655125266E+01  0.46953643491E+01  0.62396598032E+01  0.51100000000E-03 0. -1.
        -11    1    3    3    0    0  0.98406371388E+01 -0.15761906638E+02  0.20202611742E+01  0.18691102044E+02  0.51100000000E-03 0.  1.
         12    1    3    3    0    0  0.22011526375E+02 -0.55028209096E+01  0.27625049912E+01  0.22856503782E+02  0.00000000000E+00 0. -1.
</event>
<event>
 7    1  0.2580704E-010  0.4778727E+02  0.7816164E-02  0.1312668E+00
        -11   -1    0    0    0    0  0.00000000000E+00  0.00000000000E+00  0.45593999997E+02  0.45594000000E+02  0.51100000000E-03 0.  1.
         11   -1    0    0    0    0 -0.00000000000E+00 -0.00000000000E+00 -0.45593999997E+02  0.45594000000E+02  0.51100000000E-03 0. -1.
    9900012    2    1    2    0    0  0.15095543737E+02  0.37791178926E+02  0.15085566724E+02  0.47787274560E+02  0.20000016028E+02 0.  0.
         12    1    1    2    0    0 -0.15095543737E+02 -0.37791178926E+02 -0.15085566724E+02  0.43400725440E+02  0.00000000000E+00 0. -1.
         11    1    3    3    0    0  0.16578474146E+01 -0.22840394541E+01  0.10647876675E+01  0.30164660310E+01  0.51100000000E-03 0. -1.
        -11    1    3    3    0    0  0.80411592443E+01  0.20172614047E+02  0.92542170715E+01  0.23605828377E+02  0.51100000000E-03 0.  1.
        -12    1    3    3    0    0  0.53965370779E+01  0.19902604334E+02  0.47665619849E+01  0.21164980152E+02  0.00000000000E+00 0.  1.
</event>
<event>
 7    1  0.2580704E-010  0.4778727E+02  0.7816164E-02  0.1312668E+00
        -11   -1    0    0    0    0  0.00000000000E+00  0.00000000000E+00  0.45593999997E+02  0.45594000000E+02  0.51100000000E-03 0.  1.
         11   -1    0    0    0    0 -0.00000000000E+00 -0.00000000000E+00 -0.45593999997E+02  0.45594000000E+02  0.51100000000E-03 0. -1.
    9900012    2    1    2    0    0 -0.16867624075E+02 -0.96507246190E+01  0.38806835614E+02  0.47787265928E+02  0.19999976672E+02 0.  0.
         12    1    1    2    0    0  0.16867624075E+02  0.96507246190E+01 -0.38806835614E+02  0.43400734072E+02  0.00000000000E+00 0. -1.
         11    1    3    3    0    0 -0.13092286355E+01  0.43666720803E+01  0.68618773566E+01  0.82381591266E+01  0.51100000000E-03 0. -1.
        -11    1    3    3    0    0 -0.10244302851E+02 -0.25800587278E+01  0.16737885930E+02  0.19792909579E+02  0.51100000000E-03 0.  1.
        -12    1    3    3    0    0 -0.53140925886E+01 -0.11437337971E+02  0.15207072327E+02  0.19756197222E+02  0.00000000000E+00 0.  1.
</event>
<event>
 7    1  0.2580704E-010  0.4778727E+02  0.7816164E-02  0.1312668E+00
        -11   -1    0    0    0    0  0.00000000000E+00  0.00000000000E+00  0.45593999997E+02  0.45594000000E+02  0.51100000000E-03 0. -1.
         11   -1    0    0    0    0 -0.00000000000E+00 -0.00000000000E+00 -0.45593999997E+02  0.45594000000E+02  0.51100000000E-03 0.  1.
    9900012    2    1    2    0    0  0.41209531531E+02 -0.85214712827E+01 -0.10619894439E+02  0.47787272821E+02  0.20000008099E+02 0.  0.
         12    1    1    2    0    0 -0.41209531531E+02  0.85214712827E+01  0.10619894439E+02  0.43400727179E+02  0.00000000000E+00 0. -1.
         11    1    3    3    0    0  0.19816877339E+02 -0.88433247667E+00 -0.37409025732E+01  0.20186258289E+02  0.51100000000E-03 0. -1.
        -11    1    3    3    0    0  0.11822598011E+02 -0.32112971550E+01 -0.10819671890E+02  0.16344771434E+02  0.51100000000E-03 0.  1.
         12    1    3    3    0    0  0.95700561804E+01 -0.44258416510E+01  0.39406800248E+01  0.11256243098E+02  0.00000000000E+00 0. -1.
</event>
<event>
 7    1  0.2580704E-010  0.4778727E+02  0.7816164E-02  0.1312668E+00
        -11   -1    0    0    0    0  0.00000000000E+00  0.00000000000E+00  0.45593999997E+02  0.45594000000E+02  0.51100000000E-03 0. -1.
         11   -1    0    0    0    0 -0.00000000000E+00 -0.00000000000E+00 -0.45593999997E+02  0.45594000000E+02  0.51100000000E-03 0.  1.
    9900012    2    1    2    0    0 -0.15805042042E+02  0.85757286004E+01 -0.39500392676E+02  0.47787268479E+02  0.19999988303E+02 0.  0.
         12    1    1    2    0    0  0.15805042042E+02 -0.85757286004E+01  0.39500392676E+02  0.43400731521E+02  0.00000000000E+00 0. -1.
         11    1    3    3    0    0  0.34976865693E+00  0.13302435074E+01  0.11861454417E+01  0.18162673736E+01  0.51100000000E-03 0. -1.
        -11    1    3    3    0    0 -0.90949381645E+01  0.10253820919E+02 -0.25137546526E+02  0.28631363734E+02  0.51100000000E-03 0.  1.
        -12    1    3    3    0    0 -0.70598725346E+01 -0.30083358258E+01 -0.15548991592E+02  0.17339637371E+02  0.00000000000E+00 0.  1.
</event>
<event>
 7    1  0.2580704E-010  0.4778727E+02  0.7816164E-02  0.1312668E+00
        -11   -1    0    0    0    0  0.00000000000E+00  0.00000000000E+00  0.45593999997E+02  0.45594000000E+02  0.51100000000E-03 0.  1.
         11   -1    0    0    0    0 -0.00000000000E+00 -0.00000000000E+00 -0.45593999997E+02  0.45594000000E+02  0.51100000000E-03 0. -1.
    9900012    2    1    2    0    0 -0.26802448861E+02 -0.16403094240E+02  0.29936440420E+02  0.47787271543E+02  0.20000002271E+02 0.  0.
         12    1    1    2    0    0  0.26802448861E+02  0.16403094240E+02 -0.29936440420E+02  0.43400728457E+02  0.00000000000E+00 0. -1.
         11    1    3    3    0    0 -0.59625629797E+01 -0.11084499059E+02  0.53180680512E+01  0.13663825406E+02  0.51100000000E-03 0. -1.
        -11    1    3    3    0    0 -0.13244099804E+02 -0.78485922765E+01  0.13873965978E+02  0.20724225259E+02  0.51100000000E-03 0.  1.
         12    1    3    3    0    0 -0.75957860771E+01  0.25299970954E+01  0.10744406390E+02  0.13399220877E+02  0.00000000000E+00 0. -1.
</event>
<event>
 7    1  0.2580704E-010  0.4778727E+02  0.7816164E-02  0.1312668E+00
        -11   -1    0    0    0    0  0.00000000000E+00  0.00000000000E+00  0.45593999997E+02  0.45594000000E+02  0.51100000000E-03 0.  1.
         11   -1    0    0    0    0 -0.00000000000E+00 -0.00000000000E+00 -0.45593999997E+02  0.45594000000E+02  0.51100000000E-03 0. -1.
    9900012    2    1    2    0    0 -0.37325656921E+02  0.50760814466E+01  0.21555789501E+02  0.47787270416E+02  0.19999997134E+02 0.  0.
         12    1    1    2    0    0  0.37325656921E+02 -0.50760814466E+01 -0.21555789501E+02  0.43400729584E+02  0.00000000000E+00 0. -1.
         11    1    3    3    0    0 -0.20220414040E+02  0.11381536092E+02  0.12803582037E+02  0.26501626761E+02  0.51100000000E-03 0. -1.
        -11    1    3    3    0    0 -0.43752751805E+01  0.10175986239E+01  0.34785821583E+01  0.56814675884E+01  0.51100000000E-03 0.  1.
        -12    1    3    3    0    0 -0.12729967700E+02 -0.73230532691E+01  0.52736253065E+01  0.15604176066E+02  0.00000000000E+00 0.  1.
</event>
<event>
 7    1  0.2580704E-010  0.4778727E+02  0.7816164E-02  0.1312668E+00
        -11   -1    0    0    0    0  0.00000000000E+00  0.00000000000E+00  0.45593999997E+02  0.45594000000E+02  0.51100000000E-03 0.  1.
         11   -1    0    0    0    0 -0.00000000000E+00 -0.00000000000E+00 -0.45593999997E+02  0.45594000000E+02  0.51100000000E-03 0. -1.
    9900012    2    1    2    0    0  0.26425605555E+02 -0.79360934233E+01  0.33501178429E+02  0.47787272311E+02  0.20000005775E+02 0.  0.
         12    1    1    2    0    0 -0.26425605555E+02  0.79360934233E+01 -0.33501178429E+02  0.43400727689E+02  0.00000000000E+00 0. -1.
         11    1    3    3    0    0 -0.96715140305E+00 -0.18415240327E+01  0.71428717167E+00  0.21992723852E+01  0.51100000000E-03 0. -1.
        -11    1    3    3    0    0  0.79455042095E+01  0.48921676507E+01  0.92059739324E+01  0.13107795306E+02  0.51100000000E-03 0.  1.
        -12    1    3    3    0    0  0.19447252748E+02 -0.10986737041E+02  0.23580917325E+02  0.32480204620E+02  0.00000000000E+00 0.  1.
</event>
<event>
 7    1  0.2580704E-010  0.4778727E+02  0.7816164E-02  0.1312668E+00
        -11   -1    0    0    0    0  0.00000000000E+00  0.00000000000E+00  0.45593999997E+02  0.45594000000E+02  0.51100000000E-03 0.  1.
         11   -1    0    0    0    0 -0.00000000000E+00 -0.00000000000E+00 -0.45593999997E+02  0.45594000000E+02  0.51100000000E-03 0. -1.
    9900012    2    1    2    0    0 -0.93391160369E+01  0.62720453347E+01  0.41917371819E+02  0.47787266121E+02  0.19999977553E+02 0.  0.
         12    1    1    2    0    0  0.93391160369E+01 -0.62720453347E+01 -0.41917371819E+02  0.43400733879E+02  0.00000000000E+00 0. -1.
         11    1    3    3    0    0 -0.65554001501E+01  0.23227842953E+01  0.31135251571E+02  0.31902546742E+02  0.51100000000E-03 0. -1.
        -11    1    3    3    0    0  0.19198573695E+00  0.46135425870E+01  0.11799247930E+02  0.12670591371E+02  0.51100000000E-03 0.  1.
         12    1    3    3    0    0 -0.29757016238E+01 -0.66428154769E+00 -0.10171276820E+01  0.32141280077E+01  0.00000000000E+00 0. -1.
</event>
<event>
 7    1  0.2580704E-010  0.4778727E+02  0.7816164E-02  0.1312668E+00
        -11   -1    0    0    0    0  0.00000000000E+00  0.00000000000E+00  0.45593999997E+02  0.45594000000E+02  0.51100000000E-03 0.  1.
         11   -1    0    0    0    0 -0.00000000000E+00 -0.00000000000E+00 -0.45593999997E+02  0.45594000000E+02  0.51100000000E-03 0. -1.
    9900012    2    1    2    0    0 -0.29154575395E+02 -0.20146183530E+02  0.25055244043E+02  0.47787271534E+02  0.20000002234E+02 0.  0.
         12    1    1    2    0    0  0.29154575395E+02  0.20146183530E+02 -0.25055244043E+02  0.43400728466E+02  0.00000000000E+00 0. -1.
         11    1    3    3    0    0 -0.15348128140E+01 -0.34473896765E+01 -0.10746141495E+01  0.39236388452E+01  0.51100000000E-03 0. -1.
        -11    1    3    3    0    0 -0.12874425345E+02 -0.14497921810E+02  0.97079901377E+01  0.21683764377E+02  0.51100000000E-03 0.  1.
        -12    1    3    3    0    0 -0.14745337236E+02 -0.22008720438E+01  0.16421868055E+02  0.22179868312E+02  0.00000000000E+00 0.  1.
</event>
<event>
 7    1  0.2580704E-010  0.4778726E+02  0.7816164E-02  0.1312668E+00
        -11   -1    0    0    0    0  0.00000000000E+00  0.00000000000E+00  0.45593999997E+02  0.45594000000E+02  0.51100000000E-03 0.  1.
         11   -1    0    0    0    0 -0.00000000000E+00 -0.00000000000E+00 -0.45593999997E+02  0.45594000000E+02  0.51100000000E-03 0. -1.
    9900012    2    1    2    0    0 -0.30227454353E+02  0.67568830822E+01  0.30401804680E+02  0.47787260450E+02  0.19999951698E+02 0.  0.
         12    1    1    2    0    0  0.30227454353E+02 -0.67568830822E+01 -0.30401804680E+02  0.43400739550E+02  0.00000000000E+00 0. -1.
         11    1    3    3    0    0  0.62543001833E+00  0.30103644123E+01  0.33277788134E+01  0.45307359993E+01  0.51100000000E-03 0. -1.
        -11    1    3    3    0    0 -0.26879756312E+02  0.27988615787E+01  0.15890992950E+02  0.31350894449E+02  0.51100000000E-03 0.  1.
        -12    1    3    3    0    0 -0.39731280586E+01  0.94765709117E+00  0.11183032917E+02  0.11905630002E+02  0.00000000000E+00 0.  1.
</event>
<event>
 7    1  0.2580704E-010  0.4778729E+02  0.7816164E-02  0.1312668E+00
        -11   -1    0    0    0    0  0.00000000000E+00  0.00000000000E+00  0.45593999997E+02  0.45594000000E+02  0.51100000000E-03 0.  1.
         11   -1    0    0    0    0 -0.00000000000E+00 -0.00000000000E+00 -0.45593999997E+02  0.45594000000E+02  0.51100000000E-03 0. -1.
    9900012    2    1    2    0    0  0.17891655393E+02 -0.39500911049E+02  0.17856739208E+01  0.47787286438E+02  0.20000070184E+02 0.  0.
         12    1    1    2    0    0 -0.17891655393E+02  0.39500911049E+02 -0.17856739208E+01  0.43400713562E+02  0.00000000000E+00 0. -1.
         11    1    3    3    0    0  0.98113354126E+01 -0.95813498456E+01  0.47223548712E+00  0.13721791941E+02  0.51100000000E-03 0. -1.
        -11    1    3    3    0    0  0.54252303456E+01 -0.14283192869E+02  0.75261500554E+01  0.17031901179E+02  0.51100000000E-03 0.  1.
        -12    1    3    3    0    0  0.26550896343E+01 -0.15636368334E+02 -0.62127116217E+01  0.17033593318E+02  0.00000000000E+00 0.  1.
</event>
<event>
 7    1  0.2580704E-010  0.4778727E+02  0.7816164E-02  0.1312668E+00
        -11   -1    0    0    0    0  0.00000000000E+00  0.00000000000E+00  0.45593999997E+02  0.45594000000E+02  0.51100000000E-03 0.  1.
         11   -1    0    0    0    0 -0.00000000000E+00 -0.00000000000E+00 -0.45593999997E+02  0.45594000000E+02  0.51100000000E-03 0. -1.
    9900012    2    1    2    0    0 -0.38732991559E+02  0.19497888085E+02  0.17918575303E+01  0.47787273874E+02  0.20000012901E+02 0.  0.
         12    1    1    2    0    0  0.38732991559E+02 -0.19497888085E+02 -0.17918575303E+01  0.43400726126E+02  0.00000000000E+00 0. -1.
         11    1    3    3    0    0 -0.12191431336E+02  0.18896030718E+01  0.19588559824E+01  0.12491545734E+02  0.51100000000E-03 0. -1.
        -11    1    3    3    0    0 -0.89087540944E+01  0.86485896794E+00  0.52598346908E+01  0.10381702259E+02  0.51100000000E-03 0.  1.
         12    1    3    3    0    0 -0.17632806128E+02  0.16743426045E+02 -0.54268331430E+01  0.24914025882E+02  0.00000000000E+00 0. -1.
</event>
<event>
 7    1  0.2580704E-010  0.4778731E+02  0.7816164E-02  0.1312668E+00
        -11   -1    0    0    0    0  0.00000000000E+00  0.00000000000E+00  0.45593999997E+02  0.45594000000E+02  0.51100000000E-03 0. -1.
         11   -1    0    0    0    0 -0.00000000000E+00 -0.00000000000E+00 -0.45593999997E+02  0.45594000000E+02  0.51100000000E-03 0.  1.
    9900012    2    1    2    0    0 -0.28729022106E+02  0.15497269771E+02 -0.28602414357E+02  0.47787306589E+02  0.20000162059E+02 0.  0.
         12    1    1    2    0    0  0.28729022106E+02 -0.15497269771E+02  0.28602414357E+02  0.43400693411E+02  0.00000000000E+00 0. -1.
         11    1    3    3    0    0 -0.13015312244E+01 -0.17618299709E+01  0.10785614309E+01  0.24415821501E+01  0.51100000000E-03 0. -1.
        -11    1    3    3    0    0 -0.13200775600E+02  0.19314221354E+01 -0.12464716521E+02  0.18258149580E+02  0.51100000000E-03 0.  1.
         12    1    3    3    0    0 -0.14226715282E+02  0.15327677606E+02 -0.17216259267E+02  0.27087574858E+02  0.00000000000E+00 0. -1.
</event>
<event>
 7    1  0.2580704E-010  0.4778727E+02  0.7816164E-02  0.1312668E+00
        -11   -1    0    0    0    0  0.00000000000E+00  0.00000000000E+00  0.45593999997E+02  0.45594000000E+02  0.51100000000E-03 0.  1.
         11   -1    0    0    0    0 -0.00000000000E+00 -0.00000000000E+00 -0.45593999997E+02  0.45594000000E+02  0.51100000000E-03 0. -1.
    9900012    2    1    2    0    0 -0.22623766973E+02 -0.23191968463E+02  0.28877687373E+02  0.47787273494E+02  0.20000011167E+02 0.  0.
         12    1    1    2    0    0  0.22623766973E+02  0.23191968463E+02 -0.28877687373E+02  0.43400726506E+02  0.00000000000E+00 0. -1.
         11    1    3    3    0    0  0.12388158320E+01  0.11041038113E+01  0.11240346485E+01  0.20042864176E+01  0.51100000000E-03 0. -1.
        -11    1    3    3    0    0 -0.39219918271E+01  0.15262858543E+00  0.69820542837E+01  0.80096440407E+01  0.51100000000E-03 0.  1.
        -12    1    3    3    0    0 -0.19940590978E+02 -0.24448700860E+02  0.20771598441E+02  0.37773343036E+02  0.00000000000E+00 0.  1.
</event>
<event>
 7    1  0.2580704E-010  0.4778728E+02  0.7816164E-02  0.1312668E+00
        -11   -1    0    0    0    0  0.00000000000E+00  0.00000000000E+00  0.45593999997E+02  0.45594000000E+02  0.51100000000E-03 0. -1.
         11   -1    0    0    0    0 -0.00000000000E+00 -0.00000000000E+00 -0.45593999997E+02  0.45594000000E+02  0.51100000000E-03 0.  1.
    9900012    2    1    2    0    0  0.16344650026E+01  0.38577185558E+02  0.19817973304E+02  0.47787276650E+02  0.20000025560E+02 0.  0.
         12    1    1    2    0    0 -0.16344650026E+01 -0.38577185558E+02 -0.19817973304E+02  0.43400723350E+02  0.00000000000E+00 0. -1.
         11    1    3    3    0    0 -0.50478578978E+01  0.11277568929E+02 -0.21306088441E+00  0.12357581701E+02  0.51100000000E-03 0. -1.
        -11    1    3    3    0    0  0.30529798177E+01  0.25467083442E+01  0.13204791899E+01  0.41892809299E+01  0.51100000000E-03 0.  1.
         12    1    3    3    0    0  0.36293430827E+01  0.24752908284E+02  0.18710554998E+02  0.31240414019E+02  0.00000000000E+00 0. -1.
</event>
<event>
 7    1  0.2580704E-010  0.4778727E+02  0.7816164E-02  0.1312668E+00
        -11   -1    0    0    0    0  0.00000000000E+00  0.00000000000E+00  0.45593999997E+02  0.45594000000E+02  0.51100000000E-03 0.  1.
         11   -1    0    0    0    0 -0.00000000000E+00 -0.00000000000E+00 -0.45593999997E+02  0.45594000000E+02  0.51100000000E-03 0. -1.
    9900012    2    1    2    0    0  0.15407415689E+02  0.31123921376E+02  0.26029527725E+02  0.47787271278E+02  0.20000001064E+02 0.  0.
         12    1    1    2    0    0 -0.15407415689E+02 -0.31123921376E+02 -0.26029527725E+02  0.43400728722E+02  0.00000000000E+00 0. -1.
         11    1    3    3    0    0  0.31735335475E+01  0.13312613500E+02  0.11036173193E+02  0.17581072561E+02  0.51100000000E-03 0. -1.
        -11    1    3    3    0    0 -0.19492393045E+01  0.96584777105E+01  0.60371637848E+01  0.11555651101E+02  0.51100000000E-03 0.  1.
        -12    1    3    3    0    0  0.14183121447E+02  0.81528301655E+01  0.89561907472E+01  0.18650547616E+02  0.00000000000E+00 0.  1.
</event>
<event>
 7    1  0.2580704E-010  0.4778728E+02  0.7816164E-02  0.1312668E+00
        -11   -1    0    0    0    0  0.00000000000E+00  0.00000000000E+00  0.45593999997E+02  0.45594000000E+02  0.51100000000E-03 0. -1.
         11   -1    0    0    0    0 -0.00000000000E+00 -0.00000000000E+00 -0.45593999997E+02  0.45594000000E+02  0.51100000000E-03 0.  1.
    9900012    2    1    2    0    0  0.32149939808E+02 -0.21718236580E+02 -0.19450512643E+02  0.47787275676E+02  0.20000021116E+02 0.  0.
         12    1    1    2    0    0 -0.32149939808E+02  0.21718236580E+02  0.19450512643E+02  0.43400724324E+02  0.00000000000E+00 0. -1.
         11    1    3    3    0    0  0.78984335886E+01 -0.49964525631E+01 -0.31926128557E+01  0.98763641324E+01  0.51100000000E-03 0. -1.
        -11    1    3    3    0    0  0.16110526024E+02 -0.19165722643E+02 -0.86091653251E+01  0.26476247866E+02  0.51100000000E-03 0.  1.
         12    1    3    3    0    0  0.81409801945E+01  0.24439386259E+01 -0.76487344625E+01  0.11434663677E+02  0.00000000000E+00 0. -1.
</event>
<event>
 7    1  0.2580704E-010  0.4778727E+02  0.7816164E-02  0.1312668E+00
        -11   -1    0    0    0    0  0.00000000000E+00  0.00000000000E+00  0.45593999997E+02  0.45594000000E+02  0.51100000000E-03 0.  1.
         11   -1    0    0    0    0 -0.00000000000E+00 -0.00000000000E+00 -0.45593999997E+02  0.45594000000E+02  0.51100000000E-03 0. -1.
    9900012    2    1    2    0    0  0.37039757558E+02  0.85117803560E+01 -0.20957795812E+02  0.47787271319E+02  0.20000001251E+02 0.  0.
         12    1    1    2    0    0 -0.37039757558E+02 -0.85117803560E+01  0.20957795812E+02  0.43400728681E+02  0.00000000000E+00 0. -1.
         11    1    3    3    0    0 -0.42717969506E+00 -0.15811029086E+01 -0.11451180583E+01  0.19984155043E+01  0.51100000000E-03 0. -1.
        -11    1    3    3    0    0 -0.82336056149E+00  0.19468607370E+01 -0.13337789726E+01  0.24994311257E+01  0.51100000000E-03 0.  1.
        -12    1    3    3    0    0  0.38290297814E+02  0.81460225275E+01 -0.18478898781E+02  0.43289424689E+02  0.00000000000E+00 0.  1.
</event>
<event>
 7    1  0.2580704E-010  0.4778727E+02  0.7816164E-02  0.1312668E+00
        -11   -1    0    0    0    0  0.00000000000E+00  0.00000000000E+00  0.45593999997E+02  0.45594000000E+02  0.51100000000E-03 0. -1.
         11   -1    0    0    0    0 -0.00000000000E+00 -0.00000000000E+00 -0.45593999997E+02  0.45594000000E+02  0.51100000000E-03 0.  1.
    9900012    2    1    2    0    0 -0.41283327306E+02  0.87679464226E+01 -0.10120936630E+02  0.47787270097E+02  0.19999995678E+02 0.  0.
         12    1    1    2    0    0  0.41283327306E+02 -0.87679464226E+01  0.10120936630E+02  0.43400729903E+02  0.00000000000E+00 0. -1.
         11    1    3    3    0    0  0.75482487426E-02  0.13510198023E+01  0.66104125145E+00  0.15040901833E+01  0.51100000000E-03 0. -1.
        -11    1    3    3    0    0 -0.12912825638E+02 -0.38909039735E+01 -0.78259378371E+01  0.15592482259E+02  0.51100000000E-03 0.  1.
        -12    1    3    3    0    0 -0.28378049916E+02  0.11307830594E+02 -0.29560400438E+01  0.30690697654E+02  0.00000000000E+00 0.  1.
</event>
<event>
 7    1  0.2580704E-010  0.4778727E+02  0.7816164E-02  0.1312668E+00
        -11   -1    0    0    0    0  0.00000000000E+00  0.00000000000E+00  0.45593999997E+02  0.45594000000E+02  0.51100000000E-03 0. -1.
         11   -1    0    0    0    0 -0.00000000000E+00 -0.00000000000E+00 -0.45593999997E+02  0.45594000000E+02  0.51100000000E-03 0.  1.
    9900012    2    1    2    0    0 -0.21315371250E+02 -0.37232083336E+02 -0.65612658147E+01  0.47787270857E+02  0.19999999146E+02 0.  0.
         12    1    1    2    0    0  0.21315371250E+02  0.37232083336E+02  0.65612658147E+01  0.43400729143E+02  0.00000000000E+00 0. -1.
         11    1    3    3    0    0 -0.37238498452E+01 -0.68576997178E-02 -0.11419722041E+01  0.38950231673E+01  0.51100000000E-03 0. -1.
        -11    1    3    3    0    0 -0.10587101709E+02 -0.74889686754E+01 -0.77559039309E+00  0.12991263031E+02  0.51100000000E-03 0.  1.
        -12    1    3    3    0    0 -0.70044196954E+01 -0.29736256961E+02 -0.46437032176E+01  0.30900984659E+02  0.00000000000E+00 0.  1.
</event>
<event>
 7    1  0.2580704E-010  0.4778727E+02  0.7816164E-02  0.1312668E+00
        -11   -1    0    0    0    0  0.00000000000E+00  0.00000000000E+00  0.45593999997E+02  0.45594000000E+02  0.51100000000E-03 0.  1.
         11   -1    0    0    0    0 -0.00000000000E+00 -0.00000000000E+00 -0.45593999997E+02  0.45594000000E+02  0.51100000000E-03 0. -1.
    9900012    2    1    2    0    0  0.31199390065E+02  0.82301878160E+00  0.30158648971E+02  0.47787269498E+02  0.19999992948E+02 0.  0.
         12    1    1    2    0    0 -0.31199390065E+02 -0.82301878160E+00 -0.30158648971E+02  0.43400730502E+02  0.00000000000E+00 0. -1.
         11    1    3    3    0    0  0.38004383735E+00 -0.33421022517E+01  0.23913880428E+01  0.41270834510E+01  0.51100000000E-03 0. -1.
        -11    1    3    3    0    0  0.15920159681E+02  0.80363556713E+01  0.11269544800E+02  0.21095903323E+02  0.51100000000E-03 0.  1.
         12    1    3    3    0    0  0.14899186546E+02 -0.38712346380E+01  0.16497716129E+02  0.22564282724E+02  0.00000000000E+00 0. -1.
</event>
<event>
 7    1  0.2580704E-010  0.4778727E+02  0.7816164E-02  0.1312668E+00
        -11   -1    0    0    0    0  0.00000000000E+00  0.00000000000E+00  0.45593999997E+02  0.45594000000E+02  0.51100000000E-03 0. -1.
         11   -1    0    0    0    0 -0.00000000000E+00 -0.00000000000E+00 -0.45593999997E+02  0.45594000000E+02  0.51100000000E-03 0.  1.
    9900012    2    1    2    0    0 -0.23175578467E+02  0.31336827872E+02 -0.19092386441E+02  0.47787269150E+02  0.19999991362E+02 0.  0.
         12    1    1    2    0    0  0.23175578467E+02 -0.31336827872E+02  0.19092386441E+02  0.43400730850E+02  0.00000000000E+00 0. -1.
         11    1    3    3    0    0 -0.27742503609E+01  0.43233647101E+01  0.40151230523E+00  0.51525876871E+01  0.51100000000E-03 0. -1.
        -11    1    3    3    0    0 -0.22053973391E+02  0.21739132936E+02 -0.11751843249E+02  0.33122099317E+02  0.51100000000E-03 0.  1.
         12    1    3    3    0    0  0.16526452850E+01  0.52743302257E+01 -0.77420554971E+01  0.95125821462E+01  0.00000000000E+00 0. -1.
</event>
<event>
 7    1  0.2580704E-010  0.4778727E+02  0.7816164E-02  0.1312668E+00
        -11   -1    0    0    0    0  0.00000000000E+00  0.00000000000E+00  0.45593999997E+02  0.45594000000E+02  0.51100000000E-03 0.  1.
         11   -1    0    0    0    0 -0.00000000000E+00 -0.00000000000E+00 -0.45593999997E+02  0.45594000000E+02  0.51100000000E-03 0. -1.
    9900012    2    1    2    0    0 -0.11432407585E+02  0.40589641410E+02  0.10266656256E+02  0.47787272314E+02  0.20000005790E+02 0.  0.
         12    1    1    2    0    0  0.11432407585E+02 -0.40589641410E+02 -0.10266656256E+02  0.43400727686E+02  0.00000000000E+00 0. -1.
         11    1    3    3    0    0  0.54757203627E+00  0.32705846207E+01 -0.42023089398E+01  0.53531261504E+01  0.51100000000E-03 0. -1.
        -11    1    3    3    0    0 -0.57148423712E+01  0.76440131652E+01  0.40083896330E+01  0.10351693016E+02  0.51100000000E-03 0.  1.
         12    1    3    3    0    0 -0.62651372501E+01  0.29675043624E+02  0.10460575562E+02  0.32082453147E+02  0.00000000000E+00 0. -1.
</event>
<event>
 7    1  0.2580704E-010  0.4778727E+02  0.7816164E-02  0.1312668E+00
        -11   -1    0    0    0    0  0.00000000000E+00  0.00000000000E+00  0.45593999997E+02  0.45594000000E+02  0.51100000000E-03 0.  1.
         11   -1    0    0    0    0 -0.00000000000E+00 -0.00000000000E+00 -0.45593999997E+02  0.45594000000E+02  0.51100000000E-03 0. -1.
    9900012    2    1    2    0    0 -0.21856457554E+02  0.49664163995E+01  0.37165217231E+02  0.47787269586E+02  0.19999993348E+02 0.  0.
         12    1    1    2    0    0  0.21856457554E+02 -0.49664163995E+01 -0.37165217231E+02  0.43400730414E+02  0.00000000000E+00 0. -1.
         11    1    3    3    0    0  0.10682508757E+01 -0.35729635909E+01  0.36693376803E+01  0.52317557309E+01  0.51100000000E-03 0. -1.
        -11    1    3    3    0    0 -0.12850580733E+01  0.38362258086E+01  0.62509909768E+01  0.74459983320E+01  0.51100000000E-03 0.  1.
        -12    1    3    3    0    0 -0.21639650357E+02  0.47031541817E+01  0.27244888574E+02  0.35109515523E+02  0.00000000000E+00 0.  1.
</event>
<event>
 7    1  0.2580704E-010  0.4778727E+02  0.7816164E-02  0.1312668E+00
        -11   -1    0    0    0    0  0.00000000000E+00  0.00000000000E+00  0.45593999997E+02  0.45594000000E+02  0.51100000000E-03 0. -1.
         11   -1    0    0    0    0 -0.00000000000E+00 -0.00000000000E+00 -0.45593999997E+02  0.45594000000E+02  0.51100000000E-03 0.  1.
    9900012    2    1    2    0    0  0.22773189937E+02 -0.29452684158E+02 -0.22305704972E+02  0.47787271223E+02  0.20000000816E+02 0.  0.
         12    1    1    2    0    0 -0.22773189937E+02  0.29452684158E+02  0.22305704972E+02  0.43400728777E+02  0.00000000000E+00 0. -1.
         11    1    3    3    0    0  0.14174229208E+02 -0.12590727230E+02 -0.15488349212E+02  0.24481097757E+02  0.51100000000E-03 0. -1.
        -11    1    3    3    0    0  0.57409491144E+01 -0.99953757017E+01 -0.99581815352E+01  0.15232577323E+02  0.51100000000E-03 0.  1.
         12    1    3    3    0    0  0.28580116148E+01 -0.68665812267E+01  0.31408257752E+01  0.80735961432E+01  0.00000000000E+00 0. -1.
</event>
<event>
 7    1  0.2580704E-010  0.4778728E+02  0.7816164E-02  0.1312668E+00
        -11   -1    0    0    0    0  0.00000000000E+00  0.00000000000E+00  0.45593999997E+02  0.45594000000E+02  0.51100000000E-03 0.  1.
         11   -1    0    0    0    0 -0.00000000000E+00 -0.00000000000E+00 -0.45593999997E+02  0.45594000000E+02  0.51100000000E-03 0. -1.
    9900012    2    1    2    0    0  0.30400505268E+02  0.29035065251E+02 -0.10788748298E+02  0.47787276221E+02  0.20000023603E+02 0.  0.
         12    1    1    2    0    0 -0.30400505268E+02 -0.29035065251E+02  0.10788748298E+02  0.43400723779E+02  0.00000000000E+00 0. -1.
         11    1    3    3    0    0  0.67482527002E+01  0.58900229115E+01 -0.22527341516E+01  0.92361299159E+01  0.51100000000E-03 0.  1.
        -11    1    3    3    0    0  0.12563722768E+01  0.49652966317E+01 -0.82421220031E+01  0.97038764065E+01  0.51100000000E-03 0. -1.
         12    1    3    3    0    0  0.22395880291E+02  0.18179745708E+02 -0.29389214300E+00  0.28847269899E+02  0.00000000000E+00 0. -1.
</event>
<event>
 7    1  0.2580704E-010  0.4778727E+02  0.7816164E-02  0.1312668E+00
        -11   -1    0    0    0    0  0.00000000000E+00  0.00000000000E+00  0.45593999997E+02  0.45594000000E+02  0.51100000000E-03 0. -1.
         11   -1    0    0    0    0 -0.00000000000E+00 -0.00000000000E+00 -0.45593999997E+02  0.45594000000E+02  0.51100000000E-03 0.  1.
    9900012    2    1    2    0    0  0.28838284667E+02  0.11750686038E+02 -0.30230746177E+02  0.47787270752E+02  0.19999998665E+02 0.  0.
         12    1    1    2    0    0 -0.28838284667E+02 -0.11750686038E+02  0.30230746177E+02  0.43400729248E+02  0.00000000000E+00 0. -1.
         11    1    3    3    0    0  0.25026298071E+01 -0.39331609922E+01 -0.17955490164E+01  0.49956889288E+01  0.51100000000E-03 0. -1.
        -11    1    3    3    0    0  0.11597303946E+02  0.28835337187E+01 -0.72210609832E+01  0.13962662622E+02  0.51100000000E-03 0.  1.
        -12    1    3    3    0    0  0.14738350914E+02  0.12800313311E+02 -0.21214136178E+02  0.28828919201E+02  0.00000000000E+00 0.  1.
</event>
<event>
 7    1  0.2580704E-010  0.4778727E+02  0.7816164E-02  0.1312668E+00
        -11   -1    0    0    0    0  0.00000000000E+00  0.00000000000E+00  0.45593999997E+02  0.45594000000E+02  0.51100000000E-03 0. -1.
         11   -1    0    0    0    0 -0.00000000000E+00 -0.00000000000E+00 -0.45593999997E+02  0.45594000000E+02  0.51100000000E-03 0.  1.
    9900012    2    1    2    0    0  0.40398774706E+02  0.15855887083E+02 -0.39125916906E+00  0.47787271473E+02  0.20000001952E+02 0.  0.
         12    1    1    2    0    0 -0.40398774706E+02 -0.15855887083E+02  0.39125916906E+00  0.43400728527E+02  0.00000000000E+00 0. -1.
         11    1    3    3    0    0  0.12989659845E+02 -0.18197810057E+01 -0.17922996856E+01  0.13238398854E+02  0.51100000000E-03 0. -1.
        -11    1    3    3    0    0  0.12796571556E+02  0.67819312879E+01 -0.48612152726E+01  0.15276722482E+02  0.51100000000E-03 0.  1.
        -12    1    3    3    0    0  0.14612543305E+02  0.10893736801E+02  0.62622557891E+01  0.19272150137E+02  0.00000000000E+00 0.  1.
</event>
<event>
 7    1  0.2580704E-010  0.4778728E+02  0.7816164E-02  0.1312668E+00
        -11   -1    0    0    0    0  0.00000000000E+00  0.00000000000E+00  0.45593999997E+02  0.45594000000E+02  0.51100000000E-03 0.  1.
         11   -1    0    0    0    0 -0.00000000000E+00 -0.00000000000E+00 -0.45593999997E+02  0.45594000000E+02  0.51100000000E-03 0. -1.
    9900012    2    1    2    0    0 -0.72377049700E+00 -0.28233270201E+02  0.32954227859E+02  0.47787279686E+02  0.20000039401E+02 0.  0.
         12    1    1    2    0    0  0.72377049700E+00  0.28233270201E+02 -0.32954227859E+02  0.43400720314E+02  0.00000000000E+00 0. -1.
         11    1    3    3    0    0 -0.29117224196E+01 -0.93638670294E+01  0.72395977446E+01  0.12189007710E+02  0.51100000000E-03 0. -1.
        -11    1    3    3    0    0  0.70320572630E+01 -0.11940258303E+02  0.80775806589E+01  0.16039541990E+02  0.51100000000E-03 0.  1.
        -12    1    3    3    0    0 -0.48441053404E+01 -0.69291448688E+01  0.17637049455E+02  0.19558729986E+02  0.00000000000E+00 0.  1.
</event>
<event>
 7    1  0.2580704E-010  0.4778727E+02  0.7816164E-02  0.1312668E+00
        -11   -1    0    0    0    0  0.00000000000E+00  0.00000000000E+00  0.45593999997E+02  0.45594000000E+02  0.51100000000E-03 0. -1.
         11   -1    0    0    0    0 -0.00000000000E+00 -0.00000000000E+00 -0.45593999997E+02  0.45594000000E+02  0.51100000000E-03 0.  1.
    9900012    2    1    2    0    0  0.47348513738E+01 -0.30985231163E+02 -0.30018659132E+02  0.47787271160E+02  0.20000000529E+02 0.  0.
         12    1    1    2    0    0 -0.47348513738E+01  0.30985231163E+02  0.30018659132E+02  0.43400728840E+02  0.00000000000E+00 0. -1.
         11    1    3    3    0    0  0.30183096285E+01 -0.12853644891E+02 -0.40693705813E+01  0.13816155659E+02  0.51100000000E-03 0. -1.
        -11    1    3    3    0    0 -0.59056249412E+00 -0.10330743753E+02 -0.49888916556E+01  0.11487474516E+02  0.51100000000E-03 0.  1.
         12    1    3    3    0    0  0.23071042394E+01 -0.78008425187E+01 -0.20960396895E+02  0.22483640985E+02  0.00000000000E+00 0. -1.
</event>
<event>
 7    1  0.2580704E-010  0.4778727E+02  0.7816164E-02  0.1312668E+00
        -11   -1    0    0    0    0  0.00000000000E+00  0.00000000000E+00  0.45593999997E+02  0.45594000000E+02  0.51100000000E-03 0.  1.
         11   -1    0    0    0    0 -0.00000000000E+00 -0.00000000000E+00 -0.45593999997E+02  0.45594000000E+02  0.51100000000E-03 0. -1.
    9900012    2    1    2    0    0 -0.32267989639E+02 -0.24970030842E+02 -0.14795198372E+02  0.47787268550E+02  0.19999988625E+02 0.  0.
         12    1    1    2    0    0  0.32267989639E+02  0.24970030842E+02  0.14795198372E+02  0.43400731450E+02  0.00000000000E+00 0. -1.
         11    1    3    3    0    0 -0.13484525152E+02 -0.62352282800E+01 -0.12336443186E+02  0.19310575367E+02  0.51100000000E-03 0. -1.
        -11    1    3    3    0    0  0.84055128655E+00  0.50845529945E-01 -0.94874875823E+00  0.12685567392E+01  0.51100000000E-03 0.  1.
        -12    1    3    3    0    0 -0.19624015773E+02 -0.18785648092E+02 -0.15100064281E+01  0.27208136443E+02  0.00000000000E+00 0.  1.
</event>
<event>
 7    1  0.2580704E-010  0.4778727E+02  0.7816164E-02  0.1312668E+00
        -11   -1    0    0    0    0  0.00000000000E+00  0.00000000000E+00  0.45593999997E+02  0.45594000000E+02  0.51100000000E-03 0. -1.
         11   -1    0    0    0    0 -0.00000000000E+00 -0.00000000000E+00 -0.45593999997E+02  0.45594000000E+02  0.51100000000E-03 0.  1.
    9900012    2    1    2    0    0 -0.42452985598E+02 -0.63287535325E+01  0.64276168719E+01  0.47787269981E+02  0.19999995153E+02 0.  0.
         12    1    1    2    0    0  0.42452985598E+02  0.63287535325E+01 -0.64276168719E+01  0.43400730019E+02  0.00000000000E+00 0. -1.
         11    1    3    3    0    0 -0.37706087344E+01 -0.20950139692E+01 -0.11802647666E+01  0.44720911148E+01  0.51100000000E-03 0. -1.
        -11    1    3    3    0    0 -0.15335199306E+02 -0.34911000974E+01 -0.53378983532E+01  0.16608710869E+02  0.51100000000E-03 0.  1.
         12    1    3    3    0    0 -0.23347177559E+02 -0.74263946595E+00  0.12945779992E+02  0.26706467998E+02  0.00000000000E+00 0. -1.
</event>
<event>
 7    1  0.2580704E-010  0.4778726E+02  0.7816164E-02  0.1312668E+00
        -11   -1    0    0    0    0  0.00000000000E+00  0.00000000000E+00  0.45593999997E+02  0.45594000000E+02  0.51100000000E-03 0.  1.
         11   -1    0    0    0    0 -0.00000000000E+00 -0.00000000000E+00 -0.45593999997E+02  0.45594000000E+02  0.51100000000E-03 0. -1.
    9900012    2    1    2    0    0  0.31080712914E+02 -0.25296020914E+02  0.16665088485E+02  0.47787256187E+02  0.19999932259E+02 0.  0.
         12    1    1    2    0    0 -0.31080712914E+02  0.25296020914E+02 -0.16665088485E+02  0.43400743813E+02  0.00000000000E+00 0. -1.
         11    1    3    3    0    0  0.43553081977E+01 -0.11086053752E+01  0.61894170612E+01  0.76489606610E+01  0.51100000000E-03 0. -1.
        -11    1    3    3    0    0  0.12053988376E+02 -0.24381962796E+01  0.53295719261E+01  0.13403274750E+02  0.51100000000E-03 0.  1.
         12    1    3    3    0    0  0.14671416341E+02 -0.21749219259E+02  0.51460994972E+01  0.26735020776E+02  0.00000000000E+00 0. -1.
</event>
<event>
 7    1  0.2580704E-010  0.4778727E+02  0.7816164E-02  0.1312668E+00
        -11   -1    0    0    0    0  0.00000000000E+00  0.00000000000E+00  0.45593999997E+02  0.45594000000E+02  0.51100000000E-03 0. -1.
         11   -1    0    0    0    0 -0.00000000000E+00 -0.00000000000E+00 -0.45593999997E+02  0.45594000000E+02  0.51100000000E-03 0.  1.
    9900012    2    1    2    0    0 -0.60268411451E+00  0.37842712974E+02 -0.21241215026E+02  0.47787269947E+02  0.19999994997E+02 0.  0.
         12    1    1    2    0    0  0.60268411451E+00 -0.37842712974E+02  0.21241215026E+02  0.43400730053E+02  0.00000000000E+00 0. -1.
         11    1    3    3    0    0 -0.58107465416E+00  0.61590590501E+01 -0.32458910711E+01  0.69862339814E+01  0.51100000000E-03 0. -1.
        -11    1    3    3    0    0 -0.33556490625E+01  0.32769043406E+02 -0.15022934225E+02  0.36204407734E+02  0.51100000000E-03 0.  1.
         12    1    3    3    0    0  0.33340396021E+01 -0.10853894825E+01 -0.29723897293E+01  0.45966282317E+01  0.00000000000E+00 0. -1.
</event>
<event>
 7    1  0.2580704E-010  0.4778727E+02  0.7816164E-02  0.1312668E+00
        -11   -1    0    0    0    0  0.00000000000E+00  0.00000000000E+00  0.45593999997E+02  0.45594000000E+02  0.51100000000E-03 0.  1.
         11   -1    0    0    0    0 -0.00000000000E+00 -0.00000000000E+00 -0.45593999997E+02  0.45594000000E+02  0.51100000000E-03 0. -1.
    9900012    2    1    2    0    0  0.11102381249E+02  0.39958820013E+02  0.12792697189E+02  0.47787271117E+02  0.20000000331E+02 0.  0.
         12    1    1    2    0    0 -0.11102381249E+02 -0.39958820013E+02 -0.12792697189E+02  0.43400728883E+02  0.00000000000E+00 0. -1.
         11    1    3    3    0    0  0.43380644515E+00  0.28370982571E+01 -0.25790999406E+01  0.38586359399E+01  0.51100000000E-03 0. -1.
        -11    1    3    3    0    0  0.64087444124E+01  0.21134373303E+02  0.11557158079E+01  0.22114913953E+02  0.51100000000E-03 0.  1.
         12    1    3    3    0    0  0.42598303918E+01  0.15987348453E+02  0.14216081322E+02  0.21813721224E+02  0.00000000000E+00 0. -1.
</event>
<event>
 7    1  0.2580704E-010  0.4778727E+02  0.7816164E-02  0.1312668E+00
        -11   -1    0    0    0    0  0.00000000000E+00  0.00000000000E+00  0.45593999997E+02  0.45594000000E+02  0.51100000000E-03 0.  1.
         11   -1    0    0    0    0 -0.00000000000E+00 -0.00000000000E+00 -0.45593999997E+02  0.45594000000E+02  0.51100000000E-03 0. -1.
    9900012    2    1    2    0    0  0.22292967421E+02  0.32426522553E+02  0.18307574518E+02  0.47787273669E+02  0.20000011968E+02 0.  0.
         12    1    1    2    0    0 -0.22292967421E+02 -0.32426522553E+02 -0.18307574518E+02  0.43400726331E+02  0.00000000000E+00 0. -1.
         11    1    3    3    0    0  0.14279160656E+02  0.88206832992E+01  0.11888173711E+02  0.20567633732E+02  0.51100000000E-03 0. -1.
        -11    1    3    3    0    0 -0.59406881697E+00 -0.54818762455E+00  0.24625039856E+00  0.84502482267E+00  0.51100000000E-03 0.  1.
        -12    1    3    3    0    0  0.86078755818E+01  0.24154026879E+02  0.61731504085E+01  0.26374615115E+02  0.00000000000E+00 0.  1.
</event>
<event>
 7    1  0.2580704E-010  0.4778727E+02  0.7816164E-02  0.1312668E+00
        -11   -1    0    0    0    0  0.00000000000E+00  0.00000000000E+00  0.45593999997E+02  0.45594000000E+02  0.51100000000E-03 0.  1.
         11   -1    0    0    0    0 -0.00000000000E+00 -0.00000000000E+00 -0.45593999997E+02  0.45594000000E+02  0.51100000000E-03 0. -1.
    9900012    2    1    2    0    0 -0.37243616508E+02 -0.21047957334E+02  0.73157180894E+01  0.47787271784E+02  0.20000003370E+02 0.  0.
         12    1    1    2    0    0  0.37243616508E+02  0.21047957334E+02 -0.73157180894E+01  0.43400728216E+02  0.00000000000E+00 0. -1.
         11    1    3    3    0    0 -0.56415412492E+00 -0.66473736754E-01 -0.25334395083E+01  0.25963444759E+01  0.51100000000E-03 0. -1.
        -11    1    3    3    0    0 -0.13748217754E+02 -0.15813449531E+01  0.98671711779E+00  0.13873995611E+02  0.51100000000E-03 0.  1.
         12    1    3    3    0    0 -0.22931244629E+02 -0.19400138644E+02  0.88624404798E+01  0.31316931697E+02  0.00000000000E+00 0. -1.
</event>
<event>
 7    1  0.2580704E-010  0.4778727E+02  0.7816164E-02  0.1312668E+00
        -11   -1    0    0    0    0  0.00000000000E+00  0.00000000000E+00  0.45593999997E+02  0.45594000000E+02  0.51100000000E-03 0.  1.
         11   -1    0    0    0    0 -0.00000000000E+00 -0.00000000000E+00 -0.45593999997E+02  0.45594000000E+02  0.51100000000E-03 0. -1.
    9900012    2    1    2    0    0  0.23336128863E+01  0.41976579739E+02  0.10777034511E+02  0.47787268802E+02  0.19999989774E+02 0.  0.
         12    1    1    2    0    0 -0.23336128863E+01 -0.41976579739E+02 -0.10777034511E+02  0.43400731198E+02  0.00000000000E+00 0. -1.
         11    1    3    3    0    0 -0.86855333331E+00  0.38735087975E+01  0.54186778435E+01  0.67171813382E+01  0.51100000000E-03 0. -1.
        -11    1    3    3    0    0 -0.40604126433E+01  0.85409026182E+01  0.48421266338E+01  0.10624507469E+02  0.51100000000E-03 0.  1.
         12    1    3    3    0    0  0.72625788630E+01  0.29562168324E+02  0.51623003359E+00  0.30445579994E+02  0.00000000000E+00 0. -1.
</event>
<event>
 7    1  0.2580704E-010  0.4778727E+02  0.7816164E-02  0.1312668E+00
        -11   -1    0    0    0    0  0.00000000000E+00  0.00000000000E+00  0.45593999997E+02  0.45594000000E+02  0.51100000000E-03 0. -1.
         11   -1    0    0    0    0 -0.00000000000E+00 -0.00000000000E+00 -0.45593999997E+02  0.45594000000E+02  0.51100000000E-03 0.  1.
    9900012    2    1    2    0    0  0.52396457736E+01 -0.19432401239E+00 -0.43082851541E+02  0.47787265599E+02  0.19999975171E+02 0.  0.
         12    1    1    2    0    0 -0.52396457736E+01  0.19432401239E+00  0.43082851541E+02  0.43400734401E+02  0.00000000000E+00 0. -1.
         11    1    3    3    0    0  0.20363679507E+01  0.10232391761E+01 -0.96405607868E+00  0.24745135332E+01  0.51100000000E-03 0. -1.
        -11    1    3    3    0    0 -0.66220615656E+01 -0.43528919684E+00 -0.13474494522E+02  0.15020092508E+02  0.51100000000E-03 0.  1.
        -12    1    3    3    0    0  0.98253393885E+01 -0.78227399163E+00 -0.28644300940E+02  0.30292659557E+02  0.00000000000E+00 0.  1.
</event>
<event>
 7    1  0.2580704E-010  0.4778728E+02  0.7816164E-02  0.1312668E+00
        -11   -1    0    0    0    0  0.00000000000E+00  0.00000000000E+00  0.45593999997E+02  0.45594000000E+02  0.51100000000E-03 0.  1.
         11   -1    0    0    0    0 -0.00000000000E+00 -0.00000000000E+00 -0.45593999997E+02  0.45594000000E+02  0.51100000000E-03 0. -1.
    9900012    2    1    2    0    0 -0.12802747770E+02 -0.25840160179E+01  0.41388828842E+02  0.47787278322E+02  0.20000033182E+02 0.  0.
         12    1    1    2    0    0  0.12802747770E+02  0.25840160179E+01 -0.41388828842E+02  0.43400721678E+02  0.00000000000E+00 0. -1.
         11    1    3    3    0    0 -0.21745042156E+01  0.74193194466E+00  0.23173912072E+01  0.32633163902E+01  0.51100000000E-03 0. -1.
        -11    1    3    3    0    0  0.47803545675E+01 -0.17455517707E+01  0.51847955647E+01  0.72650427449E+01  0.51100000000E-03 0.  1.
        -12    1    3    3    0    0 -0.15408598122E+02 -0.15803961919E+01  0.33886642070E+02  0.37258919187E+02  0.00000000000E+00 0.  1.
</event>
<event>
 7    1  0.2580704E-010  0.4778726E+02  0.7816164E-02  0.1312668E+00
        -11   -1    0    0    0    0  0.00000000000E+00  0.00000000000E+00  0.45593999997E+02  0.45594000000E+02  0.51100000000E-03 0.  1.
         11   -1    0    0    0    0 -0.00000000000E+00 -0.00000000000E+00 -0.45593999997E+02  0.45594000000E+02  0.51100000000E-03 0. -1.
    9900012    2    1    2    0    0  0.16275579069E+02  0.29174384955E+02  0.27705317952E+02  0.47787264357E+02  0.19999969510E+02 0.  0.
         12    1    1    2    0    0 -0.16275579069E+02 -0.29174384955E+02 -0.27705317952E+02  0.43400735643E+02  0.00000000000E+00 0. -1.
         11    1    3    3    0    0 -0.16741353418E+01  0.46438810787E+01  0.80463748373E+00  0.50015799861E+01  0.51100000000E-03 0. -1.
        -11    1    3    3    0    0  0.15060399449E+02  0.24433186248E+02  0.27591700615E+02  0.39813291309E+02  0.51100000000E-03 0.  1.
        -12    1    3    3    0    0  0.28893149622E+01  0.97317628364E-01 -0.69102014684E+00  0.29723930620E+01  0.00000000000E+00 0.  1.
</event>
<event>
 7    1  0.2580704E-010  0.4778727E+02  0.7816164E-02  0.1312668E+00
        -11   -1    0    0    0    0  0.00000000000E+00  0.00000000000E+00  0.45593999997E+02  0.45594000000E+02  0.51100000000E-03 0. -1.
         11   -1    0    0    0    0 -0.00000000000E+00 -0.00000000000E+00 -0.45593999997E+02  0.45594000000E+02  0.51100000000E-03 0.  1.
    9900012    2    1    2    0    0  0.25507228014E+02  0.32209924917E+02  0.13983040920E+02  0.47787269851E+02  0.19999994559E+02 0.  0.
         12    1    1    2    0    0 -0.25507228014E+02 -0.32209924917E+02 -0.13983040920E+02  0.43400730149E+02  0.00000000000E+00 0. -1.
         11    1    3    3    0    0  0.31606735111E+01  0.22427057229E+01  0.31389098339E+01  0.49872177824E+01  0.51100000000E-03 0. -1.
        -11    1    3    3    0    0  0.62630447294E+01  0.21293944587E+02  0.14234416399E+01  0.22241492570E+02  0.51100000000E-03 0.  1.
        -12    1    3    3    0    0  0.16083509774E+02  0.86732746067E+01  0.94206894457E+01  0.20558559499E+02  0.00000000000E+00 0.  1.
</event>
<event>
 7    1  0.2580704E-010  0.4778727E+02  0.7816164E-02  0.1312668E+00
        -11   -1    0    0    0    0  0.00000000000E+00  0.00000000000E+00  0.45593999997E+02  0.45594000000E+02  0.51100000000E-03 0.  1.
         11   -1    0    0    0    0 -0.00000000000E+00 -0.00000000000E+00 -0.45593999997E+02  0.45594000000E+02  0.51100000000E-03 0. -1.
    9900012    2    1    2    0    0 -0.38596197169E+02 -0.19658952463E+02 -0.27354046175E+01  0.47787270901E+02  0.19999999348E+02 0.  0.
         12    1    1    2    0    0  0.38596197169E+02  0.19658952463E+02  0.27354046175E+01  0.43400729099E+02  0.00000000000E+00 0. -1.
         11    1    3    3    0    0 -0.10327477736E+02 -0.93533090857E+01  0.16306711164E+01  0.14028552163E+02  0.51100000000E-03 0. -1.
        -11    1    3    3    0    0 -0.19094940740E+02 -0.11147311776E+02  0.25248503593E+01  0.22254307253E+02  0.51100000000E-03 0.  1.
         12    1    3    3    0    0 -0.91737786934E+01  0.84166839889E+00 -0.68909260931E+01  0.11504411486E+02  0.00000000000E+00 0. -1.
</event>
<event>
 7    1  0.2580704E-010  0.4778728E+02  0.7816164E-02  0.1312668E+00
        -11   -1    0    0    0    0  0.00000000000E+00  0.00000000000E+00  0.45593999997E+02  0.45594000000E+02  0.51100000000E-03 0.  1.
         11   -1    0    0    0    0 -0.00000000000E+00 -0.00000000000E+00 -0.45593999997E+02  0.45594000000E+02  0.51100000000E-03 0. -1.
    9900012    2    1    2    0    0  0.27031186435E+02 -0.30934699146E+02  0.13999365459E+02  0.47787275529E+02  0.20000020448E+02 0.  0.
         12    1    1    2    0    0 -0.27031186435E+02  0.30934699146E+02 -0.13999365459E+02  0.43400724471E+02  0.00000000000E+00 0. -1.
         11    1    3    3    0    0  0.14226349225E+02 -0.16637054137E+02  0.87697738897E+01  0.23581550351E+02  0.51100000000E-03 0. -1.
        -11    1    3    3    0    0  0.28040144200E+01 -0.56546639670E+01 -0.45350665448E+01  0.77720364303E+01  0.51100000000E-03 0.  1.
         12    1    3    3    0    0  0.10000822790E+02 -0.86429810424E+01  0.97646581142E+01  0.16433688748E+02  0.00000000000E+00 0. -1.
</event>
<event>
 7    1  0.2580704E-010  0.4778727E+02  0.7816164E-02  0.1312668E+00
        -11   -1    0    0    0    0  0.00000000000E+00  0.00000000000E+00  0.45593999997E+02  0.45594000000E+02  0.51100000000E-03 0. -1.
         11   -1    0    0    0    0 -0.00000000000E+00 -0.00000000000E+00 -0.45593999997E+02  0.45594000000E+02  0.51100000000E-03 0.  1.
    9900012    2    1    2    0    0  0.28551977429E+02  0.32677757520E+02 -0.75623871132E+00  0.47787272487E+02  0.20000006578E+02 0.  0.
         12    1    1    2    0    0 -0.28551977429E+02 -0.32677757520E+02  0.75623871132E+00  0.43400727513E+02  0.00000000000E+00 0. -1.
         11    1    3    3    0    0  0.62969272643E+01 -0.18635165794E+00  0.29611297010E+01  0.69609129631E+01  0.51100000000E-03 0. -1.
        -11    1    3    3    0    0  0.10083112638E+02  0.11194906807E+02  0.23350908997E+01  0.15246237197E+02  0.51100000000E-03 0.  1.
        -12    1    3    3    0    0  0.12171937527E+02  0.21669202371E+02 -0.60524593120E+01  0.25580122327E+02  0.00000000000E+00 0.  1.
</event>
<event>
 7    1  0.2789909E-010  0.4778727E+02  0.7816164E-02  0.1312668E+00
        -11   -1    0    0    0    0  0.00000000000E+00  0.00000000000E+00  0.45593999997E+02  0.45594000000E+02  0.51100000000E-03 0. -1.
         11   -1    0    0    0    0 -0.00000000000E+00 -0.00000000000E+00 -0.45593999997E+02  0.45594000000E+02  0.51100000000E-03 0.  1.
    9900012    2    1    2    0    0  0.29129165206E+02 -0.23401177479E+02 -0.22079399280E+02  0.47787271370E+02  0.20000001486E+02 0.  0.
         12    1    1    2    0    0 -0.29129165206E+02  0.23401177479E+02  0.22079399280E+02  0.43400728630E+02  0.00000000000E+00 0. -1.
         11    1    3    3    0    0 -0.17307144890E+01 -0.83518124216E+00 -0.30740171660E+01  0.36252561493E+01  0.51100000000E-03 0. -1.
        -11    1    3    3    0    0  0.11437908222E+02 -0.14625363934E+02 -0.11691851889E+02  0.21941431483E+02  0.51100000000E-03 0.  1.
        -12    1    3    3    0    0  0.19421971473E+02 -0.79406323029E+01 -0.73135302250E+01  0.22220583738E+02  0.00000000000E+00 0.  1.
</event>
<event>
 7    1  0.2580704E-010  0.4778728E+02  0.7816164E-02  0.1312668E+00
        -11   -1    0    0    0    0  0.00000000000E+00  0.00000000000E+00  0.45593999997E+02  0.45594000000E+02  0.51100000000E-03 0.  1.
         11   -1    0    0    0    0 -0.00000000000E+00 -0.00000000000E+00 -0.45593999997E+02  0.45594000000E+02  0.51100000000E-03 0. -1.
    9900012    2    1    2    0    0  0.40263748977E+02 -0.15543687036E+02  0.45658388327E+01  0.47787279124E+02  0.20000036838E+02 0.  0.
         12    1    1    2    0    0 -0.40263748977E+02  0.15543687036E+02 -0.45658388327E+01  0.43400720876E+02  0.00000000000E+00 0. -1.
         11    1    3    3    0    0 -0.91230670473E+00  0.20877016918E+01 -0.34173453546E+00  0.23038195744E+01  0.51100000000E-03 0. -1.
        -11    1    3    3    0    0  0.48327897587E+01 -0.36567525416E+01  0.22172154718E+01  0.64531961625E+01  0.51100000000E-03 0.  1.
        -12    1    3    3    0    0  0.36343265923E+02 -0.13974636186E+02  0.26903578964E+01  0.39030263387E+02  0.00000000000E+00 0.  1.
</event>
<event>
 7    1  0.2580704E-010  0.4778728E+02  0.7816164E-02  0.1312668E+00
        -11   -1    0    0    0    0  0.00000000000E+00  0.00000000000E+00  0.45593999997E+02  0.45594000000E+02  0.51100000000E-03 0.  1.
         11   -1    0    0    0    0 -0.00000000000E+00 -0.00000000000E+00 -0.45593999997E+02  0.45594000000E+02  0.51100000000E-03 0. -1.
    9900012    2    1    2    0    0 -0.70684563407E+01  0.26176549267E+02  0.33888759623E+02  0.47787276096E+02  0.20000023034E+02 0.  0.
         12    1    1    2    0    0  0.70684563407E+01 -0.26176549267E+02 -0.33888759623E+02  0.43400723904E+02  0.00000000000E+00 0. -1.
         11    1    3    3    0    0  0.25453259712E+01  0.75200605018E+01  0.86587036965E+01  0.11747473950E+02  0.51100000000E-03 0. -1.
        -11    1    3    3    0    0 -0.76186424513E+01  0.16626093944E+02  0.27056465307E+02  0.32657664151E+02  0.51100000000E-03 0.  1.
        -12    1    3    3    0    0 -0.19951398606E+01  0.20303948217E+01 -0.18264093803E+01  0.33821379954E+01  0.00000000000E+00 0.  1.
</event>
<event>
 7    1  0.3268568E-010  0.4778727E+02  0.7816164E-02  0.1312668E+00
        -11   -1    0    0    0    0  0.00000000000E+00  0.00000000000E+00  0.45593999997E+02  0.45594000000E+02  0.51100000000E-03 0. -1.
         11   -1    0    0    0    0 -0.00000000000E+00 -0.00000000000E+00 -0.45593999997E+02  0.45594000000E+02  0.51100000000E-03 0.  1.
    9900012    2    1    2    0    0 -0.19808846841E+02  0.14017399293E+02 -0.35982567296E+02  0.47787273677E+02  0.20000012005E+02 0.  0.
         12    1    1    2    0    0  0.19808846841E+02 -0.14017399293E+02  0.35982567296E+02  0.43400726323E+02  0.00000000000E+00 0. -1.
         11    1    3    3    0    0 -0.65484330176E+01  0.56060137137E+00 -0.26979596025E+01  0.71045925402E+01  0.51100000000E-03 0. -1.
        -11    1    3    3    0    0 -0.12458523617E+02  0.90377183288E+01 -0.13751026355E+02  0.20639425606E+02  0.51100000000E-03 0.  1.
        -12    1    3    3    0    0 -0.80189020702E+00  0.44190795930E+01 -0.19533581339E+02  0.20043255531E+02  0.00000000000E+00 0.  1.
</event>
<event>
 7    1  0.2580704E-010  0.4778728E+02  0.7816164E-02  0.1312668E+00
        -11   -1    0    0    0    0  0.00000000000E+00  0.00000000000E+00  0.45593999997E+02  0.45594000000E+02  0.51100000000E-03 0.  1.
         11   -1    0    0    0    0 -0.00000000000E+00 -0.00000000000E+00 -0.45593999997E+02  0.45594000000E+02  0.51100000000E-03 0. -1.
    9900012    2    1    2    0    0 -0.43391905113E+02  0.87491503612E+00 -0.18242305293E-02  0.47787275248E+02  0.20000019168E+02 0.  0.
         12    1    1    2    0    0  0.43391905113E+02 -0.87491503612E+00  0.18242305293E-02  0.43400724752E+02  0.00000000000E+00 0. -1.
         11    1    3    3    0    0 -0.25534859694E+01 -0.31589316655E+01  0.13305874610E+01  0.42742956280E+01  0.51100000000E-03 0.  1.
        -11    1    3    3    0    0 -0.98869368873E+01 -0.42123828856E+01 -0.37706017702E+01  0.11389167158E+02  0.51100000000E-03 0. -1.
         12    1    3    3    0    0 -0.30951482256E+02  0.82462295872E+01  0.24381900787E+01  0.32123812462E+02  0.00000000000E+00 0. -1.
</event>
<event>
 7    1  0.2580704E-010  0.4778727E+02  0.7816164E-02  0.1312668E+00
        -11   -1    0    0    0    0  0.00000000000E+00  0.00000000000E+00  0.45593999997E+02  0.45594000000E+02  0.51100000000E-03 0. -1.
         11   -1    0    0    0    0 -0.00000000000E+00 -0.00000000000E+00 -0.45593999997E+02  0.45594000000E+02  0.51100000000E-03 0.  1.
    9900012    2    1    2    0    0  0.27344584009E+02 -0.17468968992E+02 -0.28822424336E+02  0.47787270779E+02  0.19999998790E+02 0.  0.
         12    1    1    2    0    0 -0.27344584009E+02  0.17468968992E+02  0.28822424336E+02  0.43400729221E+02  0.00000000000E+00 0. -1.
         11    1    3    3    0    0  0.13988330671E+02 -0.19782208995E+01 -0.12364795630E+02  0.18774315543E+02  0.51100000000E-03 0. -1.
        -11    1    3    3    0    0  0.15453773484E+02 -0.11099053760E+02 -0.13075692526E+02  0.23086399559E+02  0.51100000000E-03 0.  1.
         12    1    3    3    0    0 -0.20975201456E+01 -0.43916943329E+01 -0.33819361798E+01  0.59265556776E+01  0.00000000000E+00 0. -1.
</event>
<event>
 7    1  0.2580704E-010  0.4778727E+02  0.7816164E-02  0.1312668E+00
        -11   -1    0    0    0    0  0.00000000000E+00  0.00000000000E+00  0.45593999997E+02  0.45594000000E+02  0.51100000000E-03 0.  1.
         11   -1    0    0    0    0 -0.00000000000E+00 -0.00000000000E+00 -0.45593999997E+02  0.45594000000E+02  0.51100000000E-03 0. -1.
    9900012    2    1    2    0    0 -0.15877450970E+02  0.35979109472E+02  0.18358469355E+02  0.47787272301E+02  0.20000005729E+02 0.  0.
         12    1    1    2    0    0  0.15877450970E+02 -0.35979109472E+02 -0.18358469355E+02  0.43400727699E+02  0.00000000000E+00 0. -1.
         11    1    3    3    0    0 -0.13725820741E+02  0.12613192027E+02  0.19447967854E+01  0.18742278488E+02  0.51100000000E-03 0. -1.
        -11    1    3    3    0    0 -0.53017801572E+00  0.31907576135E+01  0.45551485657E+01  0.55867165306E+01  0.51100000000E-03 0.  1.
        -12    1    3    3    0    0 -0.16214522138E+01  0.20175159831E+02  0.11858524004E+02  0.23458277283E+02  0.00000000000E+00 0.  1.
</event>
<event>
 7    1  0.2580704E-010  0.4778728E+02  0.7816164E-02  0.1312668E+00
        -11   -1    0    0    0    0  0.00000000000E+00  0.00000000000E+00  0.45593999997E+02  0.45594000000E+02  0.51100000000E-03 0. -1.
         11   -1    0    0    0    0 -0.00000000000E+00 -0.00000000000E+00 -0.45593999997E+02  0.45594000000E+02  0.51100000000E-03 0.  1.
    9900012    2    1    2    0    0 -0.30504714515E+02 -0.15622827148E+02 -0.26627289747E+02  0.47787275409E+02  0.20000019901E+02 0.  0.
         12    1    1    2    0    0  0.30504714515E+02  0.15622827148E+02  0.26627289747E+02  0.43400724591E+02  0.00000000000E+00 0. -1.
         11    1    3    3    0    0 -0.12973577093E+02  0.21041979445E+01 -0.81107033331E+01  0.15444250076E+02  0.51100000000E-03 0.  1.
        -11    1    3    3    0    0 -0.88901437032E+00 -0.62125177517E+01 -0.41164216209E+01  0.75053747800E+01  0.51100000000E-03 0. -1.
        -12    1    3    3    0    0 -0.16642123052E+02 -0.11514507340E+02 -0.14400164793E+02  0.24837650554E+02  0.00000000000E+00 0.  1.
</event>
<event>
 7    1  0.2580704E-010  0.4778727E+02  0.7816164E-02  0.1312668E+00
        -11   -1    0    0    0    0  0.00000000000E+00  0.00000000000E+00  0.45593999997E+02  0.45594000000E+02  0.51100000000E-03 0. -1.
         11   -1    0    0    0    0 -0.00000000000E+00 -0.00000000000E+00 -0.45593999997E+02  0.45594000000E+02  0.51100000000E-03 0.  1.
    9900012    2    1    2    0    0  0.16974364130E+02  0.27493116302E+02 -0.28976248050E+02  0.47787269215E+02  0.19999991659E+02 0.  0.
         12    1    1    2    0    0 -0.16974364130E+02 -0.27493116302E+02  0.28976248050E+02  0.43400730785E+02  0.00000000000E+00 0. -1.
         11    1    3    3    0    0  0.12141697230E+01  0.90094291112E+01 -0.11372223985E+02  0.14559241040E+02  0.51100000000E-03 0. -1.
        -11    1    3    3    0    0 -0.90806509905E+00  0.16487874917E+00  0.16275434947E+01  0.18710064976E+01  0.51100000000E-03 0.  1.
        -12    1    3    3    0    0  0.16668259507E+02  0.18318808442E+02 -0.19231567559E+02  0.31357021678E+02  0.00000000000E+00 0.  1.
</event>
<event>
 7    1  0.2580704E-010  0.4778727E+02  0.7816164E-02  0.1312668E+00
        -11   -1    0    0    0    0  0.00000000000E+00  0.00000000000E+00  0.45593999997E+02  0.45594000000E+02  0.51100000000E-03 0.  1.
         11   -1    0    0    0    0 -0.00000000000E+00 -0.00000000000E+00 -0.45593999997E+02  0.45594000000E+02  0.51100000000E-03 0. -1.
    9900012    2    1    2    0    0  0.22308724321E+02  0.11375068575E+02  0.35447874810E+02  0.47787271959E+02  0.20000004170E+02 0.  0.
         12    1    1    2    0    0 -0.22308724321E+02 -0.11375068575E+02 -0.35447874810E+02  0.43400728041E+02  0.00000000000E+00 0. -1.
         11    1    3    3    0    0  0.39005967914E+01  0.95408280781E+01  0.12108291452E+02  0.15901345160E+02  0.51100000000E-03 0. -1.
        -11    1    3    3    0    0  0.34747247641E+01  0.51027038553E+01  0.90862385782E+01  0.10985036667E+02  0.51100000000E-03 0.  1.
        -12    1    3    3    0    0  0.14933402766E+02 -0.32684633584E+01  0.14253344780E+02  0.20900890132E+02  0.00000000000E+00 0.  1.
</event>
<event>
 7    1  0.2580704E-010  0.4778726E+02  0.7816164E-02  0.1312668E+00
        -11   -1    0    0    0    0  0.00000000000E+00  0.00000000000E+00  0.45593999997E+02  0.45594000000E+02  0.51100000000E-03 0.  1.
         11   -1    0    0    0    0 -0.00000000000E+00 -0.00000000000E+00 -0.45593999997E+02  0.45594000000E+02  0.51100000000E-03 0. -1.
    9900012    2    1    2    0    0 -0.32498453923E+01 -0.15812710843E+02  0.40286735237E+02  0.47787258585E+02  0.19999943192E+02 0.  0.
         12    1    1    2    0    0  0.32498453923E+01  0.15812710843E+02 -0.40286735237E+02  0.43400741415E+02  0.00000000000E+00 0. -1.
         11    1    3    3    0    0  0.13780171538E+01 -0.10652624278E+02  0.87469408491E+01  0.13852303410E+02  0.51100000000E-03 0. -1.
        -11    1    3    3    0    0 -0.49304665445E+01 -0.75805584030E+01  0.17640751674E+02  0.19823483194E+02  0.51100000000E-03 0.  1.
         12    1    3    3    0    0  0.30260399840E+00  0.24204718382E+01  0.13899042714E+02  0.14111471981E+02  0.00000000000E+00 0. -1.
</event>
<event>
 7    1  0.2580704E-010  0.4778727E+02  0.7816164E-02  0.1312668E+00
        -11   -1    0    0    0    0  0.00000000000E+00  0.00000000000E+00  0.45593999997E+02  0.45594000000E+02  0.51100000000E-03 0.  1.
         11   -1    0    0    0    0 -0.00000000000E+00 -0.00000000000E+00 -0.45593999997E+02  0.45594000000E+02  0.51100000000E-03 0. -1.
    9900012    2    1    2    0    0  0.15777601131E+01 -0.32961379289E+02  0.28190092271E+02  0.47787272427E+02  0.20000006304E+02 0.  0.
         12    1    1    2    0    0 -0.15777601131E+01  0.32961379289E+02 -0.28190092271E+02  0.43400727573E+02  0.00000000000E+00 0. -1.
         11    1    3    3    0    0  0.33158222425E+00 -0.15398305096E+02  0.11228970138E+02  0.19060627409E+02  0.51100000000E-03 0. -1.
        -11    1    3    3    0    0  0.38512433682E+01 -0.18881788825E+02  0.11254205973E+02  0.22316164031E+02  0.51100000000E-03 0.  1.
         12    1    3    3    0    0 -0.26050654794E+01  0.13187146318E+01  0.57069161601E+01  0.64104809874E+01  0.00000000000E+00 0. -1.
</event>
<event>
 7    1  0.2580704E-010  0.4778727E+02  0.7816164E-02  0.1312668E+00
        -11   -1    0    0    0    0  0.00000000000E+00  0.00000000000E+00  0.45593999997E+02  0.45594000000E+02  0.51100000000E-03 0. -1.
         11   -1    0    0    0    0 -0.00000000000E+00 -0.00000000000E+00 -0.45593999997E+02  0.45594000000E+02  0.51100000000E-03 0.  1.
    9900012    2    1    2    0    0 -0.23347758416E+02  0.72045265747E+01 -0.35869213318E+02  0.47787268551E+02  0.19999988633E+02 0.  0.
         12    1    1    2    0    0  0.23347758416E+02 -0.72045265747E+01  0.35869213318E+02  0.43400731449E+02  0.00000000000E+00 0. -1.
         11    1    3    3    0    0 -0.39294329279E+01  0.73882653379E+01 -0.79653921961E+01  0.11553111310E+02  0.51100000000E-03 0. -1.
        -11    1    3    3    0    0 -0.16558350164E+02 -0.25025594624E+01 -0.27914274398E+02  0.32552242311E+02  0.51100000000E-03 0.  1.
         12    1    3    3    0    0 -0.28599753231E+01  0.23188206992E+01  0.10453276027E-01  0.36819149304E+01  0.00000000000E+00 0. -1.
</event>
<event>
 7    1  0.2580704E-010  0.4778727E+02  0.7816164E-02  0.1312668E+00
        -11   -1    0    0    0    0  0.00000000000E+00  0.00000000000E+00  0.45593999997E+02  0.45594000000E+02  0.51100000000E-03 0.  1.
         11   -1    0    0    0    0 -0.00000000000E+00 -0.00000000000E+00 -0.45593999997E+02  0.45594000000E+02  0.51100000000E-03 0. -1.
    9900012    2    1    2    0    0 -0.23874853415E+02 -0.10081537330E+02  0.34813464928E+02  0.47787270043E+02  0.19999995436E+02 0.  0.
         12    1    1    2    0    0  0.23874853415E+02  0.10081537330E+02 -0.34813464928E+02  0.43400729957E+02  0.00000000000E+00 0. -1.
         11    1    3    3    0    0 -0.10301388424E+01 -0.60885455773E+01  0.28522244480E+01  0.68019672039E+01  0.51100000000E-03 0. -1.
        -11    1    3    3    0    0 -0.15472117758E+01  0.19259401492E+01  0.47686305026E+00  0.25160501519E+01  0.51100000000E-03 0.  1.
        -12    1    3    3    0    0 -0.21297502797E+02 -0.59189319014E+01  0.31484377429E+02  0.38469252688E+02  0.00000000000E+00 0.  1.
</event>
<event>
 7    1  0.3117829E-010  0.4778726E+02  0.7816164E-02  0.1312668E+00
        -11   -1    0    0    0    0  0.00000000000E+00  0.00000000000E+00  0.45593999997E+02  0.45594000000E+02  0.51100000000E-03 0. -1.
         11   -1    0    0    0    0 -0.00000000000E+00 -0.00000000000E+00 -0.45593999997E+02  0.45594000000E+02  0.51100000000E-03 0.  1.
    9900012    2    1    2    0    0  0.25118130747E+02 -0.22572498581E+01 -0.35321501465E+02  0.47787261125E+02  0.19999954773E+02 0.  0.
         12    1    1    2    0    0 -0.25118130747E+02  0.22572498581E+01  0.35321501465E+02  0.43400738875E+02  0.00000000000E+00 0. -1.
         11    1    3    3    0    0  0.36983969839E+01  0.14436861068E+01 -0.10313592441E+01  0.41019595289E+01  0.51100000000E-03 0. -1.
        -11    1    3    3    0    0  0.24069952272E+02 -0.30057662150E+01 -0.31689859462E+02  0.39907949408E+02  0.51100000000E-03 0.  1.
        -12    1    3    3    0    0 -0.26502185095E+01 -0.69516974979E+00 -0.26002827590E+01  0.37773521885E+01  0.00000000000E+00 0.  1.
</event>
<event>
 7    1  0.2580704E-010  0.4778728E+02  0.7816164E-02  0.1312668E+00
        -11   -1    0    0    0    0  0.00000000000E+00  0.00000000000E+00  0.45593999997E+02  0.45594000000E+02  0.51100000000E-03 0. -1.
         11   -1    0    0    0    0 -0.00000000000E+00 -0.00000000000E+00 -0.45593999997E+02  0.45594000000E+02  0.51100000000E-03 0.  1.
    9900012    2    1    2    0    0  0.38225229324E+02  0.17649697246E+01 -0.20477777208E+02  0.47787278411E+02  0.20000033589E+02 0.  0.
         12    1    1    2    0    0 -0.38225229324E+02 -0.17649697246E+01  0.20477777208E+02  0.43400721589E+02  0.00000000000E+00 0. -1.
         11    1    3    3    0    0  0.14285538958E+02 -0.39350024559E+01 -0.33463226041E+01  0.15190745304E+02  0.51100000000E-03 0. -1.
        -11    1    3    3    0    0  0.12961008748E+02 -0.25088832373E+01 -0.44761489716E+01  0.13939804616E+02  0.51100000000E-03 0.  1.
         12    1    3    3    0    0  0.10978681618E+02  0.82088554178E+01 -0.12655305632E+02  0.18656728491E+02  0.00000000000E+00 0. -1.
</event>
<event>
 7    1  0.2580704E-010  0.4778727E+02  0.7816164E-02  0.1312668E+00
        -11   -1    0    0    0    0  0.00000000000E+00  0.00000000000E+00  0.45593999997E+02  0.45594000000E+02  0.51100000000E-03 0.  1.
         11   -1    0    0    0    0 -0.00000000000E+00 -0.00000000000E+00 -0.45593999997E+02  0.45594000000E+02  0.51100000000E-03 0. -1.
    9900012    2    1    2    0    0  0.15283962604E+02  0.40418161670E+02  0.40492207690E+01  0.47787268503E+02  0.19999988411E+02 0.  0.
         12    1    1    2    0    0 -0.15283962604E+02 -0.40418161670E+02 -0.40492207690E+01  0.43400731497E+02  0.00000000000E+00 0. -1.
         11    1    3    3    0    0 -0.28876413347E+00 -0.95458240904E+00 -0.96053561295E+00  0.13846448011E+01  0.51100000000E-03 0. -1.
        -11    1    3    3    0    0  0.28964656213E+01  0.18600589025E+01 -0.24711297461E+01  0.42374301999E+01  0.51100000000E-03 0.  1.
        -12    1    3    3    0    0  0.12676261116E+02  0.39512685177E+02  0.74808861281E+01  0.42165193502E+02  0.00000000000E+00 0.  1.
</event>
<event>
 7    1  0.2580704E-010  0.4778725E+02  0.7816164E-02  0.1312668E+00
        -11   -1    0    0    0    0  0.00000000000E+00  0.00000000000E+00  0.45593999997E+02  0.45594000000E+02  0.51100000000E-03 0. -1.
         11   -1    0    0    0    0 -0.00000000000E+00 -0.00000000000E+00 -0.45593999997E+02  0.45594000000E+02  0.51100000000E-03 0.  1.
    9900012    2    1    2    0    0  0.27607188261E+02  0.64178549441E+01 -0.32867599308E+02  0.47787253577E+02  0.19999920360E+02 0.  0.
         12    1    1    2    0    0 -0.27607188261E+02 -0.64178549441E+01  0.32867599308E+02  0.43400746423E+02  0.00000000000E+00 0. -1.
         11    1    3    3    0    0  0.49425773369E+01  0.55673336227E+01 -0.27602204507E+01  0.79399679845E+01  0.51100000000E-03 0. -1.
        -11    1    3    3    0    0  0.59704379216E+01  0.54622644914E+01 -0.14133420820E+02  0.16286069099E+02  0.51100000000E-03 0.  1.
        -12    1    3    3    0    0  0.16694173002E+02 -0.46117431700E+01 -0.15973958037E+02  0.23561216494E+02  0.00000000000E+00 0.  1.
</event>
<event>
 7    1  0.2580704E-010  0.4778725E+02  0.7816164E-02  0.1312668E+00
        -11   -1    0    0    0    0  0.00000000000E+00  0.00000000000E+00  0.45593999997E+02  0.45594000000E+02  0.51100000000E-03 0.  1.
         11   -1    0    0    0    0 -0.00000000000E+00 -0.00000000000E+00 -0.45593999997E+02  0.45594000000E+02  0.51100000000E-03 0. -1.
    9900012    2    1    2    0    0  0.16205341884E+02  0.18314442073E+02  0.35855166562E+02  0.47787252734E+02  0.19999916517E+02 0.  0.
         12    1    1    2    0    0 -0.16205341884E+02 -0.18314442073E+02 -0.35855166562E+02  0.43400747266E+02  0.00000000000E+00 0. -1.
         11    1    3    3    0    0  0.37084971689E+01 -0.10048709225E+01 -0.53836840595E+00  0.38797625732E+01  0.51100000000E-03 0.  1.
        -11    1    3    3    0    0  0.13173724781E+01  0.76079154813E+01  0.73727485709E+01  0.10675826430E+02  0.51100000000E-03 0. -1.
        -12    1    3    3    0    0  0.11179472237E+02  0.11711397514E+02  0.29020786397E+02  0.33231663731E+02  0.00000000000E+00 0.  1.
</event>
<event>
 7    1  0.2580704E-010  0.4778727E+02  0.7816164E-02  0.1312668E+00
        -11   -1    0    0    0    0  0.00000000000E+00  0.00000000000E+00  0.45593999997E+02  0.45594000000E+02  0.51100000000E-03 0.  1.
         11   -1    0    0    0    0 -0.00000000000E+00 -0.00000000000E+00 -0.45593999997E+02  0.45594000000E+02  0.51100000000E-03 0. -1.
    9900012    2    1    2    0    0 -0.36831228407E+02 -0.20364072965E+02 -0.10601345002E+02  0.47787269942E+02  0.19999994974E+02 0.  0.
         12    1    1    2    0    0  0.36831228407E+02  0.20364072965E+02  0.10601345002E+02  0.43400730058E+02  0.00000000000E+00 0. -1.
         11    1    3    3    0    0 -0.29771667325E+02 -0.19403353825E+02 -0.10171643450E+02  0.36963558347E+02  0.51100000000E-03 0.  1.
        -11    1    3    3    0    0 -0.29918520869E+01 -0.57421184965E+00 -0.42505646122E+01  0.52295504532E+01  0.51100000000E-03 0. -1.
         12    1    3    3    0    0 -0.40677089952E+01 -0.38650729075E+00  0.38208630600E+01  0.55941611416E+01  0.00000000000E+00 0. -1.
</event>
<event>
 7    1  0.2580704E-010  0.4778727E+02  0.7816164E-02  0.1312668E+00
        -11   -1    0    0    0    0  0.00000000000E+00  0.00000000000E+00  0.45593999997E+02  0.45594000000E+02  0.51100000000E-03 0.  1.
         11   -1    0    0    0    0 -0.00000000000E+00 -0.00000000000E+00 -0.45593999997E+02  0.45594000000E+02  0.51100000000E-03 0. -1.
    9900012    2    1    2    0    0  0.36668721905E+02 -0.10330580711E+02  0.20791994908E+02  0.47787272861E+02  0.20000008281E+02 0.  0.
         12    1    1    2    0    0 -0.36668721905E+02  0.10330580711E+02 -0.20791994908E+02  0.43400727139E+02  0.00000000000E+00 0. -1.
         11    1    3    3    0    0  0.21687041389E+02 -0.51035429522E+01  0.64012330642E+01  0.23180804557E+02  0.51100000000E-03 0. -1.
        -11    1    3    3    0    0  0.15555387409E+02 -0.75156270746E+01  0.13953048175E+02  0.22206807096E+02  0.51100000000E-03 0.  1.
         12    1    3    3    0    0 -0.57370689371E+00  0.22885893159E+01  0.43771366961E+00  0.23996612080E+01  0.00000000000E+00 0. -1.
</event>
<event>
 7    1  0.2580704E-010  0.4778727E+02  0.7816164E-02  0.1312668E+00
        -11   -1    0    0    0    0  0.00000000000E+00  0.00000000000E+00  0.45593999997E+02  0.45594000000E+02  0.51100000000E-03 0. -1.
         11   -1    0    0    0    0 -0.00000000000E+00 -0.00000000000E+00 -0.45593999997E+02  0.45594000000E+02  0.51100000000E-03 0.  1.
    9900012    2    1    2    0    0  0.26279205603E+02  0.21563130575E+02 -0.26982549743E+02  0.47787271458E+02  0.20000001888E+02 0.  0.
         12    1    1    2    0    0 -0.26279205603E+02 -0.21563130575E+02  0.26982549743E+02  0.43400728542E+02  0.00000000000E+00 0. -1.
         11    1    3    3    0    0  0.46515982358E+01  0.94855589195E+01 -0.82035598483E+01  0.13375783663E+02  0.51100000000E-03 0. -1.
        -11    1    3    3    0    0  0.13718558745E+02  0.61153272983E+01 -0.19344274604E+02  0.24490754219E+02  0.51100000000E-03 0.  1.
        -12    1    3    3    0    0  0.79090486221E+01  0.59622443571E+01  0.56528470972E+00  0.99207335759E+01  0.00000000000E+00 0.  1.
</event>
<event>
 7    1  0.2580704E-010  0.4778732E+02  0.7816164E-02  0.1312668E+00
        -11   -1    0    0    0    0  0.00000000000E+00  0.00000000000E+00  0.45593999997E+02  0.45594000000E+02  0.51100000000E-03 0. -1.
         11   -1    0    0    0    0 -0.00000000000E+00 -0.00000000000E+00 -0.45593999997E+02  0.45594000000E+02  0.51100000000E-03 0.  1.
    9900012    2    1    2    0    0 -0.37056849522E+02 -0.22583039774E+02 -0.64455631399E+00  0.47787317577E+02  0.20000212160E+02 0.  0.
         12    1    1    2    0    0  0.37056849522E+02  0.22583039774E+02  0.64455631399E+00  0.43400682423E+02  0.00000000000E+00 0. -1.
         11    1    3    3    0    0 -0.27579038418E+02 -0.16532654466E+02 -0.92346794154E+01  0.33454615944E+02  0.51100000000E-03 0. -1.
        -11    1    3    3    0    0 -0.37259567289E+01 -0.27020131497E+01  0.21816843404E+01  0.50934639911E+01  0.51100000000E-03 0.  1.
         12    1    3    3    0    0 -0.57518543745E+01 -0.33483721588E+01  0.64084387610E+01  0.92392376424E+01  0.00000000000E+00 0. -1.
</event>
<event>
 7    1  0.2580704E-010  0.4778727E+02  0.7816164E-02  0.1312668E+00
        -11   -1    0    0    0    0  0.00000000000E+00  0.00000000000E+00  0.45593999997E+02  0.45594000000E+02  0.51100000000E-03 0. -1.
         11   -1    0    0    0    0 -0.00000000000E+00 -0.00000000000E+00 -0.45593999997E+02  0.45594000000E+02  0.51100000000E-03 0.  1.
    9900012    2    1    2    0    0  0.12827028781E+01 -0.28560143481E+02 -0.32654190877E+02  0.47787270695E+02  0.19999998408E+02 0.  0.
         12    1    1    2    0    0 -0.12827028781E+01  0.28560143481E+02  0.32654190877E+02  0.43400729305E+02  0.00000000000E+00 0. -1.
         11    1    3    3    0    0 -0.16794840223E+01 -0.13917198066E+02 -0.12029860487E+02  0.18472320162E+02  0.51100000000E-03 0. -1.
        -11    1    3    3    0    0 -0.47164056637E+01 -0.69631990666E+01 -0.14721439605E+02  0.16954391995E+02  0.51100000000E-03 0.  1.
        -12    1    3    3    0    0  0.76785925640E+01 -0.76797463490E+01 -0.59028907854E+01  0.12360558538E+02  0.00000000000E+00 0.  1.
</event>
<event>
 7    1  0.2580704E-010  0.4778727E+02  0.7816164E-02  0.1312668E+00
        -11   -1    0    0    0    0  0.00000000000E+00  0.00000000000E+00  0.45593999997E+02  0.45594000000E+02  0.51100000000E-03 0.  1.
         11   -1    0    0    0    0 -0.00000000000E+00 -0.00000000000E+00 -0.45593999997E+02  0.45594000000E+02  0.51100000000E-03 0. -1.
    9900012    2    1    2    0    0 -0.42096017168E+02 -0.10542723031E+02 -0.63217700580E+00  0.47787270535E+02  0.19999997675E+02 0.  0.
         12    1    1    2    0    0  0.42096017168E+02  0.10542723031E+02  0.63217700580E+00  0.43400729465E+02  0.00000000000E+00 0. -1.
         11    1    3    3    0    0 -0.44853236590E+01 -0.18192293595E+01  0.10830259440E+01  0.49599061730E+01  0.51100000000E-03 0. -1.
        -11    1    3    3    0    0 -0.31300209545E+02 -0.12989070478E+02 -0.54837827939E+01  0.34329155880E+02  0.51100000000E-03 0.  1.
         12    1    3    3    0    0 -0.63104839639E+01  0.42655768059E+01  0.37685798441E+01  0.84982084811E+01  0.00000000000E+00 0. -1.
</event>
<event>
 7    1  0.2580704E-010  0.4778727E+02  0.7816164E-02  0.1312668E+00
        -11   -1    0    0    0    0  0.00000000000E+00  0.00000000000E+00  0.45593999997E+02  0.45594000000E+02  0.51100000000E-03 0. -1.
         11   -1    0    0    0    0 -0.00000000000E+00 -0.00000000000E+00 -0.45593999997E+02  0.45594000000E+02  0.51100000000E-03 0.  1.
    9900012    2    1    2    0    0 -0.10199177005E+02  0.36775873536E+02 -0.20667254036E+02  0.47787268724E+02  0.19999989421E+02 0.  0.
         12    1    1    2    0    0  0.10199177005E+02 -0.36775873536E+02  0.20667254036E+02  0.43400731276E+02  0.00000000000E+00 0. -1.
         11    1    3    3    0    0 -0.29655789367E+00  0.32797537425E+01 -0.29248978874E+00  0.33060976593E+01  0.51100000000E-03 0. -1.
        -11    1    3    3    0    0 -0.10463454273E+02  0.22221971358E+02 -0.22125533786E+02  0.33058117489E+02  0.51100000000E-03 0.  1.
        -12    1    3    3    0    0  0.56083516208E+00  0.11274148435E+02  0.17507695386E+01  0.11423053576E+02  0.00000000000E+00 0.  1.
</event>
<event>
 7    1  0.2580704E-010  0.4778727E+02  0.7816164E-02  0.1312668E+00
        -11   -1    0    0    0    0  0.00000000000E+00  0.00000000000E+00  0.45593999997E+02  0.45594000000E+02  0.51100000000E-03 0.  1.
         11   -1    0    0    0    0 -0.00000000000E+00 -0.00000000000E+00 -0.45593999997E+02  0.45594000000E+02  0.51100000000E-03 0. -1.
    9900012    2    1    2    0    0  0.12461300807E+02  0.41433756183E+02  0.34033694696E+01  0.47787273129E+02  0.20000009503E+02 0.  0.
         12    1    1    2    0    0 -0.12461300807E+02 -0.41433756183E+02 -0.34033694696E+01  0.43400726871E+02  0.00000000000E+00 0. -1.
         11    1    3    3    0    0  0.10664881393E+02  0.10260774053E+02  0.73325559013E+00  0.14817585610E+02  0.51100000000E-03 0. -1.
        -11    1    3    3    0    0  0.46657824605E+01  0.16530459483E+02  0.49503442782E+01  0.17875444761E+02  0.51100000000E-03 0.  1.
         12    1    3    3    0    0 -0.28693630462E+01  0.14642522646E+02 -0.22802303988E+01  0.15094242757E+02  0.00000000000E+00 0. -1.
</event>
<event>
 7    1  0.2580704E-010  0.4778727E+02  0.7816164E-02  0.1312668E+00
        -11   -1    0    0    0    0  0.00000000000E+00  0.00000000000E+00  0.45593999997E+02  0.45594000000E+02  0.51100000000E-03 0.  1.
         11   -1    0    0    0    0 -0.00000000000E+00 -0.00000000000E+00 -0.45593999997E+02  0.45594000000E+02  0.51100000000E-03 0. -1.
    9900012    2    1    2    0    0  0.31660384471E+02  0.27453843769E+02 -0.11292924011E+02  0.47787267112E+02  0.19999982070E+02 0.  0.
         12    1    1    2    0    0 -0.31660384471E+02 -0.27453843769E+02  0.11292924011E+02  0.43400732888E+02  0.00000000000E+00 0. -1.
         11    1    3    3    0    0  0.32746298043E+01  0.56937453642E+01 -0.69830189433E+01  0.95866829744E+01  0.51100000000E-03 0. -1.
        -11    1    3    3    0    0  0.18859536833E+02  0.17997719979E+02 -0.80704200262E+01  0.27289773426E+02  0.51100000000E-03 0.  1.
         12    1    3    3    0    0  0.95262178334E+01  0.37623784256E+01  0.37605149583E+01  0.10910810711E+02  0.00000000000E+00 0. -1.
</event>
<event>
 7    1  0.2580704E-010  0.4778727E+02  0.7816164E-02  0.1312668E+00
        -11   -1    0    0    0    0  0.00000000000E+00  0.00000000000E+00  0.45593999997E+02  0.45594000000E+02  0.51100000000E-03 0.  1.
         11   -1    0    0    0    0 -0.00000000000E+00 -0.00000000000E+00 -0.45593999997E+02  0.45594000000E+02  0.51100000000E-03 0. -1.
    9900012    2    1    2    0    0 -0.23928740196E+02  0.31512904640E+01  0.36070879435E+02  0.47787267493E+02  0.19999983808E+02 0.  0.
         12    1    1    2    0    0  0.23928740196E+02 -0.31512904640E+01 -0.36070879435E+02  0.43400732507E+02  0.00000000000E+00 0. -1.
         11    1    3    3    0    0  0.13171727289E+01 -0.35161237995E+01  0.41818011173E+01  0.56201006589E+01  0.51100000000E-03 0. -1.
        -11    1    3    3    0    0 -0.44417280475E+01  0.21783949021E+01  0.12235216564E+02  0.13197532990E+02  0.51100000000E-03 0.  1.
        -12    1    3    3    0    0 -0.20804184877E+02  0.44890193614E+01  0.19653861753E+02  0.28969633844E+02  0.00000000000E+00 0.  1.
</event>
<event>
 7    1  0.2580704E-010  0.4778727E+02  0.7816164E-02  0.1312668E+00
        -11   -1    0    0    0    0  0.00000000000E+00  0.00000000000E+00  0.45593999997E+02  0.45594000000E+02  0.51100000000E-03 0.  1.
         11   -1    0    0    0    0 -0.00000000000E+00 -0.00000000000E+00 -0.45593999997E+02  0.45594000000E+02  0.51100000000E-03 0. -1.
    9900012    2    1    2    0    0 -0.36421294619E+02 -0.22817461331E+02  0.60395380633E+01  0.47787271166E+02  0.20000000555E+02 0.  0.
         12    1    1    2    0    0  0.36421294619E+02  0.22817461331E+02 -0.60395380633E+01  0.43400728834E+02  0.00000000000E+00 0. -1.
         11    1    3    3    0    0 -0.14036784591E+02 -0.30436540058E+01  0.91807018283E+01  0.17046420084E+02  0.51100000000E-03 0. -1.
        -11    1    3    3    0    0 -0.46397746446E+01 -0.15732215295E+01  0.96142621956E+00  0.49926821820E+01  0.51100000000E-03 0.  1.
        -12    1    3    3    0    0 -0.17744735383E+02 -0.18200585795E+02 -0.41025899845E+01  0.25748168900E+02  0.00000000000E+00 0.  1.
</event>
<event>
 7    1  0.2580704E-010  0.4778727E+02  0.7816164E-02  0.1312668E+00
        -11   -1    0    0    0    0  0.00000000000E+00  0.00000000000E+00  0.45593999997E+02  0.45594000000E+02  0.51100000000E-03 0.  1.
         11   -1    0    0    0    0 -0.00000000000E+00 -0.00000000000E+00 -0.45593999997E+02  0.45594000000E+02  0.51100000000E-03 0. -1.
    9900012    2    1    2    0    0 -0.33915289943E+02 -0.16865754156E+02  0.21187797845E+02  0.47787270367E+02  0.19999996911E+02 0.  0.
         12    1    1    2    0    0  0.33915289943E+02  0.16865754156E+02 -0.21187797845E+02  0.43400729633E+02  0.00000000000E+00 0. -1.
         11    1    3    3    0    0 -0.13610988368E+02 -0.11183589270E+01  0.44317853353E+01  0.14357940401E+02  0.51100000000E-03 0. -1.
        -11    1    3    3    0    0 -0.85844419808E+01  0.82797633290E+00  0.48054255173E+01  0.98727049785E+01  0.51100000000E-03 0.  1.
        -12    1    3    3    0    0 -0.11719859594E+02 -0.16575371562E+02  0.11950586993E+02  0.23556624987E+02  0.00000000000E+00 0.  1.
</event>
<event>
 7    1  0.2580704E-010  0.4778727E+02  0.7816164E-02  0.1312668E+00
        -11   -1    0    0    0    0  0.00000000000E+00  0.00000000000E+00  0.45593999997E+02  0.45594000000E+02  0.51100000000E-03 0.  1.
         11   -1    0    0    0    0 -0.00000000000E+00 -0.00000000000E+00 -0.45593999997E+02  0.45594000000E+02  0.51100000000E-03 0. -1.
    9900012    2    1    2    0    0 -0.11556266393E+02  0.39645631664E+02  0.13352888012E+02  0.47787273955E+02  0.20000013270E+02 0.  0.
         12    1    1    2    0    0  0.11556266393E+02 -0.39645631664E+02 -0.13352888012E+02  0.43400726045E+02  0.00000000000E+00 0. -1.
         11    1    3    3    0    0 -0.15006310326E+01 -0.10815502209E+01  0.36442310392E+00  0.18853245970E+01  0.51100000000E-03 0. -1.
        -11    1    3    3    0    0 -0.86987115513E+00  0.11088133518E+02 -0.22261228570E+01  0.11342795246E+02  0.51100000000E-03 0.  1.
        -12    1    3    3    0    0 -0.91857642054E+01  0.29639048366E+02  0.15214587765E+02  0.34559154112E+02  0.00000000000E+00 0.  1.
</event>
<event>
 7    1  0.2580704E-010  0.4778727E+02  0.7816164E-02  0.1312668E+00
        -11   -1    0    0    0    0  0.00000000000E+00  0.00000000000E+00  0.45593999997E+02  0.45594000000E+02  0.51100000000E-03 0.  1.
         11   -1    0    0    0    0 -0.00000000000E+00 -0.00000000000E+00 -0.45593999997E+02  0.45594000000E+02  0.51100000000E-03 0. -1.
    9900012    2    1    2    0    0  0.25589249857E+02 -0.31001844465E+02  0.16361506009E+02  0.47787274806E+02  0.20000017152E+02 0.  0.
         12    1    1    2    0    0 -0.25589249857E+02  0.31001844465E+02 -0.16361506009E+02  0.43400725194E+02  0.00000000000E+00 0. -1.
         11    1    3    3    0    0  0.72421446236E+01 -0.22010985794E+01  0.53165032203E+01  0.92497946171E+01  0.51100000000E-03 0. -1.
        -11    1    3    3    0    0  0.13030266239E+02 -0.15367113842E+02  0.12971031167E+02  0.23962130036E+02  0.51100000000E-03 0.  1.
         12    1    3    3    0    0  0.53168389942E+01 -0.13433632043E+02 -0.19260283776E+01  0.14575350153E+02  0.00000000000E+00 0. -1.
</event>
<event>
 7    1  0.2580704E-010  0.4778727E+02  0.7816164E-02  0.1312668E+00
        -11   -1    0    0    0    0  0.00000000000E+00  0.00000000000E+00  0.45593999997E+02  0.45594000000E+02  0.51100000000E-03 0.  1.
         11   -1    0    0    0    0 -0.00000000000E+00 -0.00000000000E+00 -0.45593999997E+02  0.45594000000E+02  0.51100000000E-03 0. -1.
    9900012    2    1    2    0    0  0.16569938279E+02  0.12175062680E+02  0.38220789122E+02  0.47787265824E+02  0.19999976200E+02 0.  0.
         12    1    1    2    0    0 -0.16569938279E+02 -0.12175062680E+02 -0.38220789122E+02  0.43400734176E+02  0.00000000000E+00 0. -1.
         11    1    3    3    0    0  0.88102343775E+01  0.12970601696E+02  0.17569492578E+02  0.23548753849E+02  0.51100000000E-03 0.  1.
        -11    1    3    3    0    0  0.43634702742E+01  0.45005190459E+01  0.12035665430E+02  0.13570253760E+02  0.51100000000E-03 0. -1.
         12    1    3    3    0    0  0.33962336271E+01 -0.52960580614E+01  0.86156311143E+01  0.10668258215E+02  0.00000000000E+00 0. -1.
</event>
<event>
 7    1  0.2580704E-010  0.4778727E+02  0.7816164E-02  0.1312668E+00
        -11   -1    0    0    0    0  0.00000000000E+00  0.00000000000E+00  0.45593999997E+02  0.45594000000E+02  0.51100000000E-03 0.  1.
         11   -1    0    0    0    0 -0.00000000000E+00 -0.00000000000E+00 -0.45593999997E+02  0.45594000000E+02  0.51100000000E-03 0. -1.
    9900012    2    1    2    0    0  0.38538183611E+02  0.13567778268E+02  0.14640592511E+02  0.47787272446E+02  0.20000006388E+02 0.  0.
         12    1    1    2    0    0 -0.38538183611E+02 -0.13567778268E+02 -0.14640592511E+02  0.43400727554E+02  0.00000000000E+00 0. -1.
         11    1    3    3    0    0  0.30569711421E+01  0.31446406703E+01 -0.23436844991E+01  0.49725943733E+01  0.51100000000E-03 0. -1.
        -11    1    3    3    0    0  0.11321762445E+02  0.25925584937E+01 -0.10559169724E+01  0.11662702316E+02  0.51100000000E-03 0.  1.
         12    1    3    3    0    0  0.24159450024E+02  0.78305791042E+01  0.18040193983E+02  0.31151975756E+02  0.00000000000E+00 0. -1.
</event>
<event>
 7    1  0.2580704E-010  0.4778727E+02  0.7816164E-02  0.1312668E+00
        -11   -1    0    0    0    0  0.00000000000E+00  0.00000000000E+00  0.45593999997E+02  0.45594000000E+02  0.51100000000E-03 0.  1.
         11   -1    0    0    0    0 -0.00000000000E+00 -0.00000000000E+00 -0.45593999997E+02  0.45594000000E+02  0.51100000000E-03 0. -1.
    9900012    2    1    2    0    0  0.82198536835E+01 -0.31410709339E+02  0.28799732757E+02  0.47787271174E+02  0.20000000591E+02 0.  0.
         12    1    1    2    0    0 -0.82198536835E+01  0.31410709339E+02 -0.28799732757E+02  0.43400728826E+02  0.00000000000E+00 0. -1.
         11    1    3    3    0    0 -0.24400996564E+01 -0.61640782032E+01  0.55878962270E+01  0.86703247306E+01  0.51100000000E-03 0. -1.
        -11    1    3    3    0    0  0.14020731620E+01 -0.99411246510E+01  0.17787168105E+02  0.20424865188E+02  0.51100000000E-03 0.  1.
        -12    1    3    3    0    0  0.92578801780E+01 -0.15305506485E+02  0.54246684245E+01  0.18692081255E+02  0.00000000000E+00 0.  1.
</event>
<event>
 7    1  0.2580704E-010  0.4778727E+02  0.7816164E-02  0.1312668E+00
        -11   -1    0    0    0    0  0.00000000000E+00  0.00000000000E+00  0.45593999997E+02  0.45594000000E+02  0.51100000000E-03 0.  1.
         11   -1    0    0    0    0 -0.00000000000E+00 -0.00000000000E+00 -0.45593999997E+02  0.45594000000E+02  0.51100000000E-03 0. -1.
    9900012    2    1    2    0    0 -0.16679023066E+02  0.24060783521E+02  0.32039224322E+02  0.47787274093E+02  0.20000013901E+02 0.  0.
         12    1    1    2    0    0  0.16679023066E+02 -0.24060783521E+02 -0.32039224322E+02  0.43400725907E+02  0.00000000000E+00 0. -1.
         11    1    3    3    0    0 -0.86385711947E+01  0.92741222131E+01  0.41263917672E+01  0.13328967116E+02  0.51100000000E-03 0. -1.
        -11    1    3    3    0    0 -0.26859430539E+01  0.10999376541E+02  0.90722823332E+01  0.14508855275E+02  0.51100000000E-03 0.  1.
        -12    1    3    3    0    0 -0.53545088180E+01  0.37872847663E+01  0.18840550221E+02  0.19949451702E+02  0.00000000000E+00 0.  1.
</event>
<event>
 7    1  0.2580704E-010  0.4778727E+02  0.7816164E-02  0.1312668E+00
        -11   -1    0    0    0    0  0.00000000000E+00  0.00000000000E+00  0.45593999997E+02  0.45594000000E+02  0.51100000000E-03 0.  1.
         11   -1    0    0    0    0 -0.00000000000E+00 -0.00000000000E+00 -0.45593999997E+02  0.45594000000E+02  0.51100000000E-03 0. -1.
    9900012    2    1    2    0    0  0.13414379882E+02  0.38015991282E+02  0.16076752552E+02  0.47787272432E+02  0.20000006327E+02 0.  0.
         12    1    1    2    0    0 -0.13414379882E+02 -0.38015991282E+02 -0.16076752552E+02  0.43400727568E+02  0.00000000000E+00 0. -1.
         11    1    3    3    0    0  0.14002914219E+01  0.11090684089E+01 -0.11323068528E+00  0.17898799544E+01  0.51100000000E-03 0. -1.
        -11    1    3    3    0    0 -0.10604478604E+00  0.66587587209E+01  0.11201630895E+02  0.13031763049E+02  0.51100000000E-03 0.  1.
        -12    1    3    3    0    0  0.12120133246E+02  0.30248164153E+02  0.49883523422E+01  0.32965629428E+02  0.00000000000E+00 0.  1.
</event>
<event>
 7    1  0.2580704E-010  0.4778727E+02  0.7816164E-02  0.1312668E+00
        -11   -1    0    0    0    0  0.00000000000E+00  0.00000000000E+00  0.45593999997E+02  0.45594000000E+02  0.51100000000E-03 0.  1.
         11   -1    0    0    0    0 -0.00000000000E+00 -0.00000000000E+00 -0.45593999997E+02  0.45594000000E+02  0.51100000000E-03 0. -1.
    9900012    2    1    2    0    0  0.31965275631E+02  0.12166126190E+02  0.26717593890E+02  0.47787270790E+02  0.19999998842E+02 0.  0.
         12    1    1    2    0    0 -0.31965275631E+02 -0.12166126190E+02 -0.26717593890E+02  0.43400729210E+02  0.00000000000E+00 0. -1.
         11    1    3    3    0    0  0.10350105042E+02  0.13515832991E+01  0.93426262496E+01  0.14008430223E+02  0.51100000000E-03 0. -1.
        -11    1    3    3    0    0  0.23059062987E+02  0.74028882121E+01  0.17791372291E+02  0.30050891301E+02  0.51100000000E-03 0.  1.
        -12    1    3    3    0    0 -0.14438923980E+01  0.34116546784E+01 -0.41640465107E+00  0.37279492667E+01  0.00000000000E+00 0.  1.
</event>
<event>
 7    1  0.2580704E-010  0.4778727E+02  0.7816164E-02  0.1312668E+00
        -11   -1    0    0    0    0  0.00000000000E+00  0.00000000000E+00  0.45593999997E+02  0.45594000000E+02  0.51100000000E-03 0.  1.
         11   -1    0    0    0    0 -0.00000000000E+00 -0.00000000000E+00 -0.45593999997E+02  0.45594000000E+02  0.51100000000E-03 0. -1.
    9900012    2    1    2    0    0 -0.13378777351E+02 -0.36281193074E+02  0.19705498642E+02  0.47787270386E+02  0.19999996999E+02 0.  0.
         12    1    1    2    0    0  0.13378777351E+02  0.36281193074E+02 -0.19705498642E+02  0.43400729614E+02  0.00000000000E+00 0. -1.
         11    1    3    3    0    0 -0.38557779883E+01 -0.17867684259E+02 -0.80229377526E+00  0.18296580015E+02  0.51100000000E-03 0. -1.
        -11    1    3    3    0    0 -0.34481466807E+01 -0.11363190575E+02  0.11975583770E+02  0.16864946560E+02  0.51100000000E-03 0.  1.
        -12    1    3    3    0    0 -0.60748526822E+01 -0.70503182399E+01  0.85322086479E+01  0.12625743812E+02  0.00000000000E+00 0.  1.
</event>
<event>
 7    1  0.2580704E-010  0.4778727E+02  0.7816164E-02  0.1312668E+00
        -11   -1    0    0    0    0  0.00000000000E+00  0.00000000000E+00  0.45593999997E+02  0.45594000000E+02  0.51100000000E-03 0.  1.
         11   -1    0    0    0    0 -0.00000000000E+00 -0.00000000000E+00 -0.45593999997E+02  0.45594000000E+02  0.51100000000E-03 0. -1.
    9900012    2    1    2    0    0 -0.34591183854E+02  0.19498019023E+02  0.17518571426E+02  0.47787273150E+02  0.20000009602E+02 0.  0.
         12    1    1    2    0    0  0.34591183854E+02 -0.19498019023E+02 -0.17518571426E+02  0.43400726850E+02  0.00000000000E+00 0. -1.
         11    1    3    3    0    0 -0.10047163423E+02  0.93602112475E+01  0.10821426383E+02  0.17483200985E+02  0.51100000000E-03 0. -1.
        -11    1    3    3    0    0 -0.14742796547E+02  0.83458707058E+01  0.10161855363E+02  0.19755174323E+02  0.51100000000E-03 0.  1.
         12    1    3    3    0    0 -0.98012238837E+01  0.17919370696E+01 -0.34647103200E+01  0.10548897842E+02  0.00000000000E+00 0. -1.
</event>
<event>
 7    1  0.2580704E-010  0.4778728E+02  0.7816164E-02  0.1312668E+00
        -11   -1    0    0    0    0  0.00000000000E+00  0.00000000000E+00  0.45593999997E+02  0.45594000000E+02  0.51100000000E-03 0.  1.
         11   -1    0    0    0    0 -0.00000000000E+00 -0.00000000000E+00 -0.45593999997E+02  0.45594000000E+02  0.51100000000E-03 0. -1.
    9900012    2    1    2    0    0  0.16636531377E+02  0.23189061801E+02  0.32697341586E+02  0.47787275233E+02  0.20000019099E+02 0.  0.
         12    1    1    2    0    0 -0.16636531377E+02 -0.23189061801E+02 -0.32697341586E+02  0.43400724767E+02  0.00000000000E+00 0. -1.
         11    1    3    3    0    0  0.69215229669E+01  0.14749734687E+02  0.13693090436E+02  0.21282924598E+02  0.51100000000E-03 0.  1.
        -11    1    3    3    0    0  0.10547218362E+01  0.48348193449E+01 -0.38673213707E+00  0.49636154420E+01  0.51100000000E-03 0. -1.
        -12    1    3    3    0    0  0.86602865735E+01  0.36045077693E+01  0.19390983288E+02  0.21540735193E+02  0.00000000000E+00 0.  1.
</event>
<event>
 7    1  0.2580704E-010  0.4778727E+02  0.7816164E-02  0.1312668E+00
        -11   -1    0    0    0    0  0.00000000000E+00  0.00000000000E+00  0.45593999997E+02  0.45594000000E+02  0.51100000000E-03 0. -1.
         11   -1    0    0    0    0 -0.00000000000E+00 -0.00000000000E+00 -0.45593999997E+02  0.45594000000E+02  0.51100000000E-03 0.  1.
    9900012    2    1    2    0    0 -0.30553864087E+02 -0.30683201624E+02 -0.29370340357E+01  0.47787266810E+02  0.19999980692E+02 0.  0.
         12    1    1    2    0    0  0.30553864087E+02  0.30683201624E+02  0.29370340357E+01  0.43400733190E+02  0.00000000000E+00 0. -1.
         11    1    3    3    0    0 -0.77583234556E+01 -0.11508826425E+02  0.11106734969E+01  0.13924017538E+02  0.51100000000E-03 0.  1.
        -11    1    3    3    0    0 -0.99369155549E+01 -0.17654466089E+02  0.12527669115E+00  0.20259273386E+02  0.51100000000E-03 0. -1.
         12    1    3    3    0    0 -0.12858625076E+02 -0.15199091097E+01 -0.41729842237E+01  0.13603975885E+02  0.00000000000E+00 0. -1.
</event>
<event>
 7    1  0.2580704E-010  0.4778727E+02  0.7816164E-02  0.1312668E+00
        -11   -1    0    0    0    0  0.00000000000E+00  0.00000000000E+00  0.45593999997E+02  0.45594000000E+02  0.51100000000E-03 0. -1.
         11   -1    0    0    0    0 -0.00000000000E+00 -0.00000000000E+00 -0.45593999997E+02  0.45594000000E+02  0.51100000000E-03 0.  1.
    9900012    2    1    2    0    0  0.43840640062E+01 -0.92233826547E+01 -0.42182139083E+02  0.47787266568E+02  0.19999979591E+02 0.  0.
         12    1    1    2    0    0 -0.43840640062E+01  0.92233826547E+01  0.42182139083E+02  0.43400733432E+02  0.00000000000E+00 0. -1.
         11    1    3    3    0    0  0.20733062070E+01  0.24540230836E+01 -0.34963688695E+01  0.47482021287E+01  0.51100000000E-03 0. -1.
        -11    1    3    3    0    0 -0.93943254141E+00 -0.29564031300E+01 -0.30461339242E+02  0.30618883742E+02  0.51100000000E-03 0.  1.
         12    1    3    3    0    0  0.32501903406E+01 -0.87210026082E+01 -0.82244309718E+01  0.12420180697E+02  0.00000000000E+00 0. -1.
</event>
<event>
 7    1  0.2580704E-010  0.4778727E+02  0.7816164E-02  0.1312668E+00
        -11   -1    0    0    0    0  0.00000000000E+00  0.00000000000E+00  0.45593999997E+02  0.45594000000E+02  0.51100000000E-03 0.  1.
         11   -1    0    0    0    0 -0.00000000000E+00 -0.00000000000E+00 -0.45593999997E+02  0.45594000000E+02  0.51100000000E-03 0. -1.
    9900012    2    1    2    0    0  0.36941899777E+01  0.38637970664E+02  0.19418647047E+02  0.47787266484E+02  0.19999979207E+02 0.  0.
         12    1    1    2    0    0 -0.36941899777E+01 -0.38637970664E+02 -0.19418647047E+02  0.43400733516E+02  0.00000000000E+00 0. -1.
         11    1    3    3    0    0 -0.58764097303E+01  0.26328144776E+02  0.13169285177E+02  0.30018885239E+02  0.51100000000E-03 0. -1.
        -11    1    3    3    0    0  0.22883246005E+01  0.62624586867E+01  0.48399889442E+00  0.66849886664E+01  0.51100000000E-03 0.  1.
         12    1    3    3    0    0  0.72822751075E+01  0.60473672009E+01  0.57653629752E+01  0.11083392578E+02  0.00000000000E+00 0. -1.
</event>
<event>
 7    1  0.2580704E-010  0.4778727E+02  0.7816164E-02  0.1312668E+00
        -11   -1    0    0    0    0  0.00000000000E+00  0.00000000000E+00  0.45593999997E+02  0.45594000000E+02  0.51100000000E-03 0. -1.
         11   -1    0    0    0    0 -0.00000000000E+00 -0.00000000000E+00 -0.45593999997E+02  0.45594000000E+02  0.51100000000E-03 0.  1.
    9900012    2    1    2    0    0  0.19217231258E+02  0.38897887040E+02  0.11295688274E+01  0.47787268219E+02  0.19999987120E+02 0.  0.
         12    1    1    2    0    0 -0.19217231258E+02 -0.38897887040E+02 -0.11295688274E+01  0.43400731781E+02  0.00000000000E+00 0. -1.
         11    1    3    3    0    0  0.13558015390E+02  0.16183570902E+02 -0.47406129944E+01  0.21637956472E+02  0.51100000000E-03 0. -1.
        -11    1    3    3    0    0  0.76935937858E+01  0.18982562862E+02  0.23237504327E+01  0.20613803494E+02  0.51100000000E-03 0.  1.
         12    1    3    3    0    0 -0.20343779185E+01  0.37317532754E+01  0.35464313892E+01  0.55355082532E+01  0.00000000000E+00 0. -1.
</event>
<event>
 7    1  0.4312127E-010  0.4778727E+02  0.7816164E-02  0.1312668E+00
        -11   -1    0    0    0    0  0.00000000000E+00  0.00000000000E+00  0.45593999997E+02  0.45594000000E+02  0.51100000000E-03 0. -1.
         11   -1    0    0    0    0 -0.00000000000E+00 -0.00000000000E+00 -0.45593999997E+02  0.45594000000E+02  0.51100000000E-03 0.  1.
    9900012    2    1    2    0    0 -0.16377378839E+02  0.20587325206E+02 -0.34519080922E+02  0.47787269079E+02  0.19999991039E+02 0.  0.
         12    1    1    2    0    0  0.16377378839E+02 -0.20587325206E+02  0.34519080922E+02  0.43400730921E+02  0.00000000000E+00 0. -1.
         11    1    3    3    0    0 -0.21743085954E+01  0.23107498705E+01  0.18901895394E+01  0.36932370067E+01  0.51100000000E-03 0. -1.
        -11    1    3    3    0    0  0.33163419159E+00  0.55277073912E+01 -0.82966966152E+01  0.99750040214E+01  0.51100000000E-03 0.  1.
        -12    1    3    3    0    0 -0.14534704435E+02  0.12748867944E+02 -0.28112573847E+02  0.34119028051E+02  0.00000000000E+00 0.  1.
</event>
<event>
 7    1  0.2580704E-010  0.4778727E+02  0.7816164E-02  0.1312668E+00
        -11   -1    0    0    0    0  0.00000000000E+00  0.00000000000E+00  0.45593999997E+02  0.45594000000E+02  0.51100000000E-03 0. -1.
         11   -1    0    0    0    0 -0.00000000000E+00 -0.00000000000E+00 -0.45593999997E+02  0.45594000000E+02  0.51100000000E-03 0.  1.
    9900012    2    1    2    0    0 -0.32874488662E+02  0.10182053323E+02 -0.26442712489E+02  0.47787271222E+02  0.20000000810E+02 0.  0.
         12    1    1    2    0    0  0.32874488662E+02 -0.10182053323E+02  0.26442712489E+02  0.43400728778E+02  0.00000000000E+00 0. -1.
         11    1    3    3    0    0 -0.97036174853E+01  0.21331150381E+01 -0.14779126831E+02  0.17808227375E+02  0.51100000000E-03 0. -1.
        -11    1    3    3    0    0 -0.18579147937E+02  0.74700078516E+01 -0.14342880611E+02  0.24631361714E+02  0.51100000000E-03 0.  1.
         12    1    3    3    0    0 -0.45917232394E+01  0.57893043353E+00  0.26792949535E+01  0.53476821336E+01  0.00000000000E+00 0. -1.
</event>
<event>
 7    1  0.2580704E-010  0.4778727E+02  0.7816164E-02  0.1312668E+00
        -11   -1    0    0    0    0  0.00000000000E+00  0.00000000000E+00  0.45593999997E+02  0.45594000000E+02  0.51100000000E-03 0.  1.
         11   -1    0    0    0    0 -0.00000000000E+00 -0.00000000000E+00 -0.45593999997E+02  0.45594000000E+02  0.51100000000E-03 0. -1.
    9900012    2    1    2    0    0  0.31810334096E+02 -0.29485130867E+02  0.15340936707E+01  0.47787265664E+02  0.19999975468E+02 0.  0.
         12    1    1    2    0    0 -0.31810334096E+02  0.29485130867E+02 -0.15340936707E+01  0.43400734336E+02  0.00000000000E+00 0. -1.
         11    1    3    3    0    0  0.15300179454E+01 -0.92687342985E+01 -0.15344798951E+01  0.95186668824E+01  0.51100000000E-03 0. -1.
        -11    1    3    3    0    0  0.11631175046E+02 -0.14407316759E+02  0.13672417686E+00  0.18516849162E+02  0.51100000000E-03 0.  1.
        -12    1    3    3    0    0  0.18649141105E+02 -0.58090798093E+01  0.29318493889E+01  0.19751749619E+02  0.00000000000E+00 0.  1.
</event>
<event>
 7    1  0.2580704E-010  0.4778730E+02  0.7816164E-02  0.1312668E+00
        -11   -1    0    0    0    0  0.00000000000E+00  0.00000000000E+00  0.45593999997E+02  0.45594000000E+02  0.51100000000E-03 0.  1.
         11   -1    0    0    0    0 -0.00000000000E+00 -0.00000000000E+00 -0.45593999997E+02  0.45594000000E+02  0.51100000000E-03 0. -1.
    9900012    2    1    2    0    0 -0.47299968299E+01 -0.42388226853E+01  0.42933443198E+02  0.47787296865E+02  0.20000117728E+02 0.  0.
         12    1    1    2    0    0  0.47299968299E+01  0.42388226853E+01 -0.42933443198E+02  0.43400703135E+02  0.00000000000E+00 0. -1.
         11    1    3    3    0    0 -0.94551547536E+00  0.55199533834E+01  0.18368587329E+02  0.19203356102E+02  0.51100000000E-03 0. -1.
        -11    1    3    3    0    0 -0.44710928166E+01 -0.45682270652E+01  0.21686956324E+02  0.22609366297E+02  0.51100000000E-03 0.  1.
        -12    1    3    3    0    0  0.68661146200E+00 -0.51905490036E+01  0.28778995444E+01  0.59745744657E+01  0.00000000000E+00 0.  1.
</event>
<event>
 7    1  0.2580704E-010  0.4778727E+02  0.7816164E-02  0.1312668E+00
        -11   -1    0    0    0    0  0.00000000000E+00  0.00000000000E+00  0.45593999997E+02  0.45594000000E+02  0.51100000000E-03 0.  1.
         11   -1    0    0    0    0 -0.00000000000E+00 -0.00000000000E+00 -0.45593999997E+02  0.45594000000E+02  0.51100000000E-03 0. -1.
    9900012    2    1    2    0    0  0.21544581694E+02 -0.30875275093E+02  0.21591009933E+02  0.47787270486E+02  0.19999997452E+02 0.  0.
         12    1    1    2    0    0 -0.21544581694E+02  0.30875275093E+02 -0.21591009933E+02  0.43400729514E+02  0.00000000000E+00 0. -1.
         11    1    3    3    0    0  0.36359818800E+01 -0.27767001339E+01 -0.17196076765E+01  0.48874818350E+01  0.51100000000E-03 0. -1.
        -11    1    3    3    0    0  0.13843994823E+02 -0.18745790943E+02  0.82692750533E+01  0.24727348845E+02  0.51100000000E-03 0.  1.
        -12    1    3    3    0    0  0.40646049915E+01 -0.93527840166E+01  0.15041342557E+02  0.18172439806E+02  0.00000000000E+00 0.  1.
</event>
<event>
 7    1  0.2580704E-010  0.4778727E+02  0.7816164E-02  0.1312668E+00
        -11   -1    0    0    0    0  0.00000000000E+00  0.00000000000E+00  0.45593999997E+02  0.45594000000E+02  0.51100000000E-03 0. -1.
         11   -1    0    0    0    0 -0.00000000000E+00 -0.00000000000E+00 -0.45593999997E+02  0.45594000000E+02  0.51100000000E-03 0.  1.
    9900012    2    1    2    0    0  0.85308468934E+01  0.34574953335E+02 -0.24807674127E+02  0.47787269103E+02  0.19999991148E+02 0.  0.
         12    1    1    2    0    0 -0.85308468934E+01 -0.34574953335E+02  0.24807674127E+02  0.43400730897E+02  0.00000000000E+00 0. -1.
         11    1    3    3    0    0 -0.17274254271E+01  0.18004285085E+01 -0.28409830208E+01  0.37811011896E+01  0.51100000000E-03 0. -1.
        -11    1    3    3    0    0  0.11066710706E+02  0.34495595922E+02 -0.20982714737E+02  0.41865170988E+02  0.51100000000E-03 0.  1.
        -12    1    3    3    0    0 -0.80843838507E+00 -0.17210710958E+01 -0.98397636891E+00  0.21409969252E+01  0.00000000000E+00 0.  1.
</event>
<event>
 7    1  0.2580704E-010  0.4778726E+02  0.7816164E-02  0.1312668E+00
        -11   -1    0    0    0    0  0.00000000000E+00  0.00000000000E+00  0.45593999997E+02  0.45594000000E+02  0.51100000000E-03 0. -1.
         11   -1    0    0    0    0 -0.00000000000E+00 -0.00000000000E+00 -0.45593999997E+02  0.45594000000E+02  0.51100000000E-03 0.  1.
    9900012    2    1    2    0    0 -0.34221164832E+02 -0.26287789715E+02  0.46355162474E+01  0.47787262432E+02  0.19999960733E+02 0.  0.
         12    1    1    2    0    0  0.34221164832E+02  0.26287789715E+02 -0.46355162474E+01  0.43400737568E+02  0.00000000000E+00 0. -1.
         11    1    3    3    0    0 -0.72080818735E+01 -0.29633920929E+01 -0.51530217405E+01  0.93430064921E+01  0.51100000000E-03 0. -1.
        -11    1    3    3    0    0 -0.15227052363E+02 -0.63450974630E+01  0.38585788306E+01  0.16941428993E+02  0.51100000000E-03 0.  1.
         12    1    3    3    0    0 -0.11786030595E+02 -0.16979300160E+02  0.59299591573E+01  0.21502826947E+02  0.00000000000E+00 0. -1.
</event>
<event>
 7    1  0.2580704E-010  0.4778727E+02  0.7816164E-02  0.1312668E+00
        -11   -1    0    0    0    0  0.00000000000E+00  0.00000000000E+00  0.45593999997E+02  0.45594000000E+02  0.51100000000E-03 0. -1.
         11   -1    0    0    0    0 -0.00000000000E+00 -0.00000000000E+00 -0.45593999997E+02  0.45594000000E+02  0.51100000000E-03 0.  1.
    9900012    2    1    2    0    0  0.30323871441E+02 -0.16893219086E+02 -0.26051971898E+02  0.47787271089E+02  0.20000000202E+02 0.  0.
         12    1    1    2    0    0 -0.30323871441E+02  0.16893219086E+02  0.26051971898E+02  0.43400728911E+02  0.00000000000E+00 0. -1.
         11    1    3    3    0    0  0.17100104290E+01 -0.78859112557E+01 -0.59254926407E+01  0.10011153545E+02  0.51100000000E-03 0. -1.
        -11    1    3    3    0    0  0.14207801180E+02 -0.78246961457E+01 -0.15907111542E+02  0.22718355619E+02  0.51100000000E-03 0.  1.
        -12    1    3    3    0    0  0.14406059832E+02 -0.11826116847E+01 -0.42193677153E+01  0.15057761925E+02  0.00000000000E+00 0.  1.
</event>
<event>
 7    1  0.2580704E-010  0.4778727E+02  0.7816164E-02  0.1312668E+00
        -11   -1    0    0    0    0  0.00000000000E+00  0.00000000000E+00  0.45593999997E+02  0.45594000000E+02  0.51100000000E-03 0.  1.
         11   -1    0    0    0    0 -0.00000000000E+00 -0.00000000000E+00 -0.45593999997E+02  0.45594000000E+02  0.51100000000E-03 0. -1.
    9900012    2    1    2    0    0  0.24894502632E+02 -0.74197376282E-01  0.35551112708E+02  0.47787269807E+02  0.19999994357E+02 0.  0.
         12    1    1    2    0    0 -0.24894502632E+02  0.74197376282E-01 -0.35551112708E+02  0.43400730193E+02  0.00000000000E+00 0. -1.
         11    1    3    3    0    0  0.96565689078E+00  0.24086688208E+01  0.82088461669E+01  0.86092586425E+01  0.51100000000E-03 0. -1.
        -11    1    3    3    0    0  0.15258397806E+02  0.38089984938E+01  0.22426617905E+02  0.27391246121E+02  0.51100000000E-03 0.  1.
         12    1    3    3    0    0  0.86704479348E+01 -0.62918646909E+01  0.49156486362E+01  0.11786765044E+02  0.00000000000E+00 0. -1.
</event>
<event>
 7    1  0.2580704E-010  0.4778729E+02  0.7816164E-02  0.1312668E+00
        -11   -1    0    0    0    0  0.00000000000E+00  0.00000000000E+00  0.45593999997E+02  0.45594000000E+02  0.51100000000E-03 0. -1.
         11   -1    0    0    0    0 -0.00000000000E+00 -0.00000000000E+00 -0.45593999997E+02  0.45594000000E+02  0.51100000000E-03 0.  1.
    9900012    2    1    2    0    0 -0.11873979311E+02  0.18776521003E+02 -0.37283676771E+02  0.47787289416E+02  0.20000083762E+02 0.  0.
         12    1    1    2    0    0  0.11873979311E+02 -0.18776521003E+02  0.37283676771E+02  0.43400710584E+02  0.00000000000E+00 0. -1.
         11    1    3    3    0    0 -0.62366390555E+00 -0.66901014459E+00 -0.11367978684E+02  0.11404712660E+02  0.51100000000E-03 0. -1.
        -11    1    3    3    0    0 -0.35633257154E+01 -0.69723674595E+00 -0.18607703658E+01  0.40799382164E+01  0.51100000000E-03 0.  1.
        -12    1    3    3    0    0 -0.76869896903E+01  0.20142767894E+02 -0.24054927721E+02  0.32302638539E+02  0.00000000000E+00 0.  1.
</event>
<event>
 7    1  0.2580704E-010  0.4778727E+02  0.7816164E-02  0.1312668E+00
        -11   -1    0    0    0    0  0.00000000000E+00  0.00000000000E+00  0.45593999997E+02  0.45594000000E+02  0.51100000000E-03 0.  1.
         11   -1    0    0    0    0 -0.00000000000E+00 -0.00000000000E+00 -0.45593999997E+02  0.45594000000E+02  0.51100000000E-03 0. -1.
    9900012    2    1    2    0    0 -0.21691973555E+02 -0.29574101571E+02  0.23204609798E+02  0.47787272859E+02  0.20000008275E+02 0.  0.
         12    1    1    2    0    0  0.21691973555E+02  0.29574101571E+02 -0.23204609798E+02  0.43400727141E+02  0.00000000000E+00 0. -1.
         11    1    3    3    0    0 -0.53214964241E+01 -0.96949896664E+01 -0.26608944550E-01  0.11059469116E+02  0.51100000000E-03 0. -1.
        -11    1    3    3    0    0  0.15167183031E+01  0.14828401777E+00  0.18890584680E+01  0.24271309642E+01  0.51100000000E-03 0.  1.
        -12    1    3    3    0    0 -0.17887195434E+02 -0.20027395922E+02  0.21342160275E+02  0.34300672779E+02  0.00000000000E+00 0.  1.
</event>
<event>
 7    1  0.2580704E-010  0.4778727E+02  0.7816164E-02  0.1312668E+00
        -11   -1    0    0    0    0  0.00000000000E+00  0.00000000000E+00  0.45593999997E+02  0.45594000000E+02  0.51100000000E-03 0. -1.
         11   -1    0    0    0    0 -0.00000000000E+00 -0.00000000000E+00 -0.45593999997E+02  0.45594000000E+02  0.51100000000E-03 0.  1.
    9900012    2    1    2    0    0  0.21987803470E+00  0.42414996806E+02  0.91947104911E+01  0.47787274183E+02  0.20000014311E+02 0.  0.
         12    1    1    2    0    0 -0.21987803470E+00 -0.42414996806E+02 -0.91947104911E+01  0.43400725817E+02  0.00000000000E+00 0. -1.
         11    1    3    3    0    0 -0.27208510404E+01  0.19063089129E+02  0.38188877492E+01  0.19631309213E+02  0.51100000000E-03 0. -1.
        -11    1    3    3    0    0 -0.51447269675E+01  0.48018656060E+01 -0.58212528565E+00  0.70615153458E+01  0.51100000000E-03 0.  1.
        -12    1    3    3    0    0  0.80854560427E+01  0.18550042071E+02  0.59579480275E+01  0.21094449624E+02  0.00000000000E+00 0.  1.
</event>
<event>
 7    1  0.2580704E-010  0.4778727E+02  0.7816164E-02  0.1312668E+00
        -11   -1    0    0    0    0  0.00000000000E+00  0.00000000000E+00  0.45593999997E+02  0.45594000000E+02  0.51100000000E-03 0.  1.
         11   -1    0    0    0    0 -0.00000000000E+00 -0.00000000000E+00 -0.45593999997E+02  0.45594000000E+02  0.51100000000E-03 0. -1.
    9900012    2    1    2    0    0 -0.39604041532E+02  0.88885545662E+01  0.15366735618E+02  0.47787273376E+02  0.20000010632E+02 0.  0.
         12    1    1    2    0    0  0.39604041532E+02 -0.88885545662E+01 -0.15366735618E+02  0.43400726624E+02  0.00000000000E+00 0. -1.
         11    1    3    3    0    0 -0.12930407897E+02 -0.42873805628E+01  0.45222026301E+01  0.14353654495E+02  0.51100000000E-03 0. -1.
        -11    1    3    3    0    0 -0.38197072884E+01  0.30466419037E+01  0.63865168575E+01  0.80411310455E+01  0.51100000000E-03 0.  1.
        -12    1    3    3    0    0 -0.22853926346E+02  0.10129293225E+02  0.44580161301E+01  0.25392487836E+02  0.00000000000E+00 0.  1.
</event>
<event>
 7    1  0.2580704E-010  0.4778727E+02  0.7816164E-02  0.1312668E+00
        -11   -1    0    0    0    0  0.00000000000E+00  0.00000000000E+00  0.45593999997E+02  0.45594000000E+02  0.51100000000E-03 0.  1.
         11   -1    0    0    0    0 -0.00000000000E+00 -0.00000000000E+00 -0.45593999997E+02  0.45594000000E+02  0.51100000000E-03 0. -1.
    9900012    2    1    2    0    0  0.81363548190E+01 -0.22869406553E+02 -0.35977952676E+02  0.47787272995E+02  0.20000008893E+02 0.  0.
         12    1    1    2    0    0 -0.81363548190E+01  0.22869406553E+02  0.35977952676E+02  0.43400727005E+02  0.00000000000E+00 0. -1.
         11    1    3    3    0    0  0.31702840281E+01  0.13154395694E+01  0.10144027916E+00  0.34338567924E+01  0.51100000000E-03 0. -1.
        -11    1    3    3    0    0  0.19402482614E+01 -0.82046113167E+01 -0.66856301956E+01  0.10760012154E+02  0.51100000000E-03 0.  1.
        -12    1    3    3    0    0  0.30258225296E+01 -0.15980234806E+02 -0.29393762759E+02  0.33593404049E+02  0.00000000000E+00 0.  1.
</event>
<event>
 7    1  0.2580704E-010  0.4778729E+02  0.7816164E-02  0.1312668E+00
        -11   -1    0    0    0    0  0.00000000000E+00  0.00000000000E+00  0.45593999997E+02  0.45594000000E+02  0.51100000000E-03 0.  1.
         11   -1    0    0    0    0 -0.00000000000E+00 -0.00000000000E+00 -0.45593999997E+02  0.45594000000E+02  0.51100000000E-03 0. -1.
    9900012    2    1    2    0    0 -0.18631385057E+02 -0.39196621335E+02 -0.34402870379E+00  0.47787285847E+02  0.20000067490E+02 0.  0.
         12    1    1    2    0    0  0.18631385057E+02  0.39196621335E+02  0.34402870379E+00  0.43400714153E+02  0.00000000000E+00 0. -1.
         11    1    3    3    0    0 -0.13705734641E+01 -0.16465659940E+02  0.50293089731E+00  0.16530256157E+02  0.51100000000E-03 0. -1.
        -11    1    3    3    0    0 -0.30962037541E+01 -0.72776520375E+01  0.51687383545E+01  0.94480978670E+01  0.51100000000E-03 0.  1.
         12    1    3    3    0    0 -0.14164607839E+02 -0.15453309358E+02 -0.60156979556E+01  0.21808931823E+02  0.00000000000E+00 0. -1.
</event>
<event>
 7    1  0.2580704E-010  0.4778727E+02  0.7816164E-02  0.1312668E+00
        -11   -1    0    0    0    0  0.00000000000E+00  0.00000000000E+00  0.45593999997E+02  0.45594000000E+02  0.51100000000E-03 0.  1.
         11   -1    0    0    0    0 -0.00000000000E+00 -0.00000000000E+00 -0.45593999997E+02  0.45594000000E+02  0.51100000000E-03 0. -1.
    9900012    2    1    2    0    0 -0.25588907659E+02  0.27955971098E+02  0.21149348350E+02  0.47787269006E+02  0.19999990705E+02 0.  0.
         12    1    1    2    0    0  0.25588907659E+02 -0.27955971098E+02 -0.21149348350E+02  0.43400730994E+02  0.00000000000E+00 0. -1.
         11    1    3    3    0    0 -0.41272175542E+01  0.13523031348E+02  0.53060790717E+01  0.15101681263E+02  0.51100000000E-03 0. -1.
        -11    1    3    3    0    0 -0.79179468148E+01  0.68016477382E+01  0.13341800211E+02  0.16939891583E+02  0.51100000000E-03 0.  1.
        -12    1    3    3    0    0 -0.13543743290E+02  0.76312920118E+01  0.25014690667E+01  0.15745696160E+02  0.00000000000E+00 0.  1.
</event>
<event>
 7    1  0.2580704E-010  0.4778726E+02  0.7816164E-02  0.1312668E+00
        -11   -1    0    0    0    0  0.00000000000E+00  0.00000000000E+00  0.45593999997E+02  0.45594000000E+02  0.51100000000E-03 0. -1.
         11   -1    0    0    0    0 -0.00000000000E+00 -0.00000000000E+00 -0.45593999997E+02  0.45594000000E+02  0.51100000000E-03 0.  1.
    9900012    2    1    2    0    0 -0.35312164705E+02 -0.23253533679E+02  0.97953159911E+01  0.47787262447E+02  0.19999960802E+02 0.  0.
         12    1    1    2    0    0  0.35312164705E+02  0.23253533679E+02 -0.97953159911E+01  0.43400737553E+02  0.00000000000E+00 0. -1.
         11    1    3    3    0    0 -0.84068331621E+01 -0.31545960441E+00 -0.16173974950E+01  0.85668158318E+01  0.51100000000E-03 0. -1.
        -11    1    3    3    0    0 -0.45414146064E+01 -0.49557885194E+01 -0.26965914394E+01  0.72426440012E+01  0.51100000000E-03 0.  1.
         12    1    3    3    0    0 -0.22363916937E+02 -0.17982285556E+02  0.14109304926E+02  0.31977802614E+02  0.00000000000E+00 0. -1.
</event>
<event>
 7    1  0.2580704E-010  0.4778727E+02  0.7816164E-02  0.1312668E+00
        -11   -1    0    0    0    0  0.00000000000E+00  0.00000000000E+00  0.45593999997E+02  0.45594000000E+02  0.51100000000E-03 0.  1.
         11   -1    0    0    0    0 -0.00000000000E+00 -0.00000000000E+00 -0.45593999997E+02  0.45594000000E+02  0.51100000000E-03 0. -1.
    9900012    2    1    2    0    0  0.22411085489E+02 -0.24265448705E+02  0.28152350025E+02  0.47787267684E+02  0.19999984678E+02 0.  0.
         12    1    1    2    0    0 -0.22411085489E+02  0.24265448705E+02 -0.28152350025E+02  0.43400732316E+02  0.00000000000E+00 0. -1.
         11    1    3    3    0    0  0.47070648617E+01 -0.93558782799E+01  0.27107881049E+01  0.10818377439E+02  0.51100000000E-03 0. -1.
        -11    1    3    3    0    0  0.16479188037E+02 -0.15961843235E+02  0.17472936152E+02  0.28838300502E+02  0.51100000000E-03 0.  1.
         12    1    3    3    0    0  0.12248325909E+01  0.10522728099E+01  0.79686257677E+01  0.81305897429E+01  0.00000000000E+00 0. -1.
</event>
<event>
 7    1  0.2580704E-010  0.4778727E+02  0.7816164E-02  0.1312668E+00
        -11   -1    0    0    0    0  0.00000000000E+00  0.00000000000E+00  0.45593999997E+02  0.45594000000E+02  0.51100000000E-03 0.  1.
         11   -1    0    0    0    0 -0.00000000000E+00 -0.00000000000E+00 -0.45593999997E+02  0.45594000000E+02  0.51100000000E-03 0. -1.
    9900012    2    1    2    0    0 -0.62361059194E+01  0.15121046128E+02  0.40200597368E+02  0.47787273257E+02  0.20000010089E+02 0.  0.
         12    1    1    2    0    0  0.62361059194E+01 -0.15121046128E+02 -0.40200597368E+02  0.43400726743E+02  0.00000000000E+00 0. -1.
         11    1    3    3    0    0  0.52152506113E+01  0.39164745795E+01  0.98678170820E+01  0.11828416052E+02  0.51100000000E-03 0. -1.
        -11    1    3    3    0    0  0.54824544316E+00  0.59798107400E+01  0.12182594279E+02  0.13582132129E+02  0.51100000000E-03 0.  1.
        -12    1    3    3    0    0 -0.11999601974E+02  0.52247608085E+01  0.18150186008E+02  0.22376725076E+02  0.00000000000E+00 0.  1.
</event>
<event>
 7    1  0.2580704E-010  0.4778727E+02  0.7816164E-02  0.1312668E+00
        -11   -1    0    0    0    0  0.00000000000E+00  0.00000000000E+00  0.45593999997E+02  0.45594000000E+02  0.51100000000E-03 0.  1.
         11   -1    0    0    0    0 -0.00000000000E+00 -0.00000000000E+00 -0.45593999997E+02  0.45594000000E+02  0.51100000000E-03 0. -1.
    9900012    2    1    2    0    0  0.46715332015E+01 -0.16924369727E+02  0.39690875652E+02  0.47787272781E+02  0.20000007919E+02 0.  0.
         12    1    1    2    0    0 -0.46715332015E+01  0.16924369727E+02 -0.39690875652E+02  0.43400727219E+02  0.00000000000E+00 0. -1.
         11    1    3    3    0    0  0.88715639235E+01 -0.11795065820E+02  0.29934374150E+02  0.33375065246E+02  0.51100000000E-03 0.  1.
        -11    1    3    3    0    0  0.19953387440E+01  0.67210913028E+00  0.22490202986E+01  0.30807791142E+01  0.51100000000E-03 0. -1.
        -12    1    3    3    0    0 -0.61953694660E+01 -0.58014130368E+01  0.75074812028E+01  0.11331428421E+02  0.00000000000E+00 0.  1.
</event>
<event>
 7    1  0.2580704E-010  0.4778727E+02  0.7816164E-02  0.1312668E+00
        -11   -1    0    0    0    0  0.00000000000E+00  0.00000000000E+00  0.45593999997E+02  0.45594000000E+02  0.51100000000E-03 0. -1.
         11   -1    0    0    0    0 -0.00000000000E+00 -0.00000000000E+00 -0.45593999997E+02  0.45594000000E+02  0.51100000000E-03 0.  1.
    9900012    2    1    2    0    0  0.22884452953E+02 -0.10709120935E+02 -0.35287958854E+02  0.47787268460E+02  0.19999988215E+02 0.  0.
         12    1    1    2    0    0 -0.22884452953E+02  0.10709120935E+02  0.35287958854E+02  0.43400731540E+02  0.00000000000E+00 0. -1.
         11    1    3    3    0    0  0.73076571810E+00  0.44556042139E+01 -0.93360474632E+01  0.10370545306E+02  0.51100000000E-03 0. -1.
        -11    1    3    3    0    0  0.54667834500E+01 -0.32168083763E+01 -0.74528706572E+01  0.97866673957E+01  0.51100000000E-03 0.  1.
        -12    1    3    3    0    0  0.16686903785E+02 -0.11947916772E+02 -0.18499040734E+02  0.27630055758E+02  0.00000000000E+00 0.  1.
</event>
<event>
 7    1  0.2580704E-010  0.4778727E+02  0.7816164E-02  0.1312668E+00
        -11   -1    0    0    0    0  0.00000000000E+00  0.00000000000E+00  0.45593999997E+02  0.45594000000E+02  0.51100000000E-03 0. -1.
         11   -1    0    0    0    0 -0.00000000000E+00 -0.00000000000E+00 -0.45593999997E+02  0.45594000000E+02  0.51100000000E-03 0.  1.
    9900012    2    1    2    0    0  0.37767116556E+02  0.20661595799E+02 -0.55106101738E+01  0.47787268918E+02  0.19999990306E+02 0.  0.
         12    1    1    2    0    0 -0.37767116556E+02 -0.20661595799E+02  0.55106101738E+01  0.43400731082E+02  0.00000000000E+00 0. -1.
         11    1    3    3    0    0  0.31103498147E+01 -0.14958080643E+01  0.28384992420E+01  0.44686458735E+01  0.51100000000E-03 0. -1.
        -11    1    3    3    0    0  0.13283113002E+02  0.28732893575E+01 -0.11132878448E+01  0.13635845880E+02  0.51100000000E-03 0.  1.
        -12    1    3    3    0    0  0.21373653739E+02  0.19284114506E+02 -0.72358215710E+01  0.29682777165E+02  0.00000000000E+00 0.  1.
</event>
<event>
 7    1  0.2580704E-010  0.4778727E+02  0.7816164E-02  0.1312668E+00
        -11   -1    0    0    0    0  0.00000000000E+00  0.00000000000E+00  0.45593999997E+02  0.45594000000E+02  0.51100000000E-03 0. -1.
         11   -1    0    0    0    0 -0.00000000000E+00 -0.00000000000E+00 -0.45593999997E+02  0.45594000000E+02  0.51100000000E-03 0.  1.
    9900012    2    1    2    0    0 -0.17985296885E+02  0.39494944199E+02  0.54946784232E+00  0.47787269175E+02  0.19999991475E+02 0.  0.
         12    1    1    2    0    0  0.17985296885E+02 -0.39494944199E+02 -0.54946784232E+00  0.43400730825E+02  0.00000000000E+00 0. -1.
         11    1    3    3    0    0 -0.13275247351E+02  0.23897582757E+02  0.86017043231E+01  0.28658610772E+02  0.51100000000E-03 0. -1.
        -11    1    3    3    0    0 -0.94730092724E+00  0.76741868684E+01 -0.84938812413E+00  0.77789448889E+01  0.51100000000E-03 0.  1.
         12    1    3    3    0    0 -0.37627486062E+01  0.79231745727E+01 -0.72028483567E+01  0.11349713513E+02  0.00000000000E+00 0. -1.
</event>
<event>
 7    1  0.2580704E-010  0.4778727E+02  0.7816164E-02  0.1312668E+00
        -11   -1    0    0    0    0  0.00000000000E+00  0.00000000000E+00  0.45593999997E+02  0.45594000000E+02  0.51100000000E-03 0. -1.
         11   -1    0    0    0    0 -0.00000000000E+00 -0.00000000000E+00 -0.45593999997E+02  0.45594000000E+02  0.51100000000E-03 0.  1.
    9900012    2    1    2    0    0 -0.60229227073E+01 -0.25078550193E+02 -0.34905789431E+02  0.47787269436E+02  0.19999992665E+02 0.  0.
         12    1    1    2    0    0  0.60229227073E+01  0.25078550193E+02  0.34905789431E+02  0.43400730564E+02  0.00000000000E+00 0. -1.
         11    1    3    3    0    0 -0.26447905768E+01  0.24146410368E+01 -0.19145292188E+01  0.40608904101E+01  0.51100000000E-03 0. -1.
        -11    1    3    3    0    0 -0.64542718875E+00 -0.21717325335E+01 -0.30012314011E+00  0.22854042560E+01  0.51100000000E-03 0.  1.
        -12    1    3    3    0    0 -0.27327049417E+01 -0.25321458696E+02 -0.32691137072E+02  0.41440974770E+02  0.00000000000E+00 0.  1.
</event>
<event>
 7    1  0.2580704E-010  0.4778728E+02  0.7816164E-02  0.1312668E+00
        -11   -1    0    0    0    0  0.00000000000E+00  0.00000000000E+00  0.45593999997E+02  0.45594000000E+02  0.51100000000E-03 0. -1.
         11   -1    0    0    0    0 -0.00000000000E+00 -0.00000000000E+00 -0.45593999997E+02  0.45594000000E+02  0.51100000000E-03 0.  1.
    9900012    2    1    2    0    0  0.39147523483E+02  0.17976687728E+02  0.52851562698E+01  0.47787276812E+02  0.20000026294E+02 0.  0.
         12    1    1    2    0    0 -0.39147523483E+02 -0.17976687728E+02 -0.52851562698E+01  0.43400723188E+02  0.00000000000E+00 0. -1.
         11    1    3    3    0    0  0.27437244822E+01  0.26503668684E+01  0.41792100642E+01  0.56584684847E+01  0.51100000000E-03 0. -1.
        -11    1    3    3    0    0  0.61735540803E+01  0.38819835189E+01  0.59907811402E+01  0.94377976750E+01  0.51100000000E-03 0.  1.
        -12    1    3    3    0    0  0.30230244920E+02  0.11444337341E+02 -0.48848349346E+01  0.32691010652E+02  0.00000000000E+00 0.  1.
</event>
<event>
 7    1  0.2580704E-010  0.4778727E+02  0.7816164E-02  0.1312668E+00
        -11   -1    0    0    0    0  0.00000000000E+00  0.00000000000E+00  0.45593999997E+02  0.45594000000E+02  0.51100000000E-03 0.  1.
         11   -1    0    0    0    0 -0.00000000000E+00 -0.00000000000E+00 -0.45593999997E+02  0.45594000000E+02  0.51100000000E-03 0. -1.
    9900012    2    1    2    0    0 -0.20264929573E+01  0.28239241002E+02  0.32894705122E+02  0.47787273841E+02  0.20000012750E+02 0.  0.
         12    1    1    2    0    0  0.20264929573E+01 -0.28239241002E+02 -0.32894705122E+02  0.43400726159E+02  0.00000000000E+00 0. -1.
         11    1    3    3    0    0  0.55589632346E+01  0.31381624593E+01  0.11876136019E+02  0.13483053915E+02  0.51100000000E-03 0. -1.
        -11    1    3    3    0    0  0.10033058385E+01  0.30809061946E+01  0.11874583952E+01  0.34508931144E+01  0.51100000000E-03 0.  1.
        -12    1    3    3    0    0 -0.85887620303E+01  0.22020172349E+02  0.19831110708E+02  0.30853326812E+02  0.00000000000E+00 0.  1.
</event>
<event>
 7    1  0.2580704E-010  0.4778727E+02  0.7816164E-02  0.1312668E+00
        -11   -1    0    0    0    0  0.00000000000E+00  0.00000000000E+00  0.45593999997E+02  0.45594000000E+02  0.51100000000E-03 0.  1.
         11   -1    0    0    0    0 -0.00000000000E+00 -0.00000000000E+00 -0.45593999997E+02  0.45594000000E+02  0.51100000000E-03 0. -1.
    9900012    2    1    2    0    0  0.25655129941E+02  0.19344858741E+02  0.29175569229E+02  0.47787273142E+02  0.20000009563E+02 0.  0.
         12    1    1    2    0    0 -0.25655129941E+02 -0.19344858741E+02 -0.29175569229E+02  0.43400726858E+02  0.00000000000E+00 0. -1.
         11    1    3    3    0    0  0.63732880462E+00 -0.21620017588E+01 -0.28542967783E+00  0.22719837087E+01  0.51100000000E-03 0. -1.
        -11    1    3    3    0    0  0.19071598882E+02  0.14800760858E+02  0.14754216886E+02  0.28292672586E+02  0.51100000000E-03 0.  1.
         12    1    3    3    0    0  0.59462022542E+01  0.67060996412E+01  0.14706782021E+02  0.17222616847E+02  0.00000000000E+00 0. -1.
</event>
<event>
 7    1  0.2580704E-010  0.4778727E+02  0.7816164E-02  0.1312668E+00
        -11   -1    0    0    0    0  0.00000000000E+00  0.00000000000E+00  0.45593999997E+02  0.45594000000E+02  0.51100000000E-03 0.  1.
         11   -1    0    0    0    0 -0.00000000000E+00 -0.00000000000E+00 -0.45593999997E+02  0.45594000000E+02  0.51100000000E-03 0. -1.
    9900012    2    1    2    0    0  0.36025448926E+02  0.22209426347E+01  0.24100987643E+02  0.47787272335E+02  0.20000005883E+02 0.  0.
         12    1    1    2    0    0 -0.36025448926E+02 -0.22209426347E+01 -0.24100987643E+02  0.43400727665E+02  0.00000000000E+00 0. -1.
         11    1    3    3    0    0  0.24750273641E+02  0.73020374066E+01  0.75484466260E+01  0.26886331887E+02  0.51100000000E-03 0. -1.
        -11    1    3    3    0    0  0.72248108658E+00 -0.39939689982E+00  0.14384674974E+00  0.83796715483E+00  0.51100000000E-03 0.  1.
        -12    1    3    3    0    0  0.10552694198E+02 -0.46816978721E+01  0.16408694267E+02  0.20062973293E+02  0.00000000000E+00 0.  1.
</event>
<event>
 7    1  0.2580704E-010  0.4778727E+02  0.7816164E-02  0.1312668E+00
        -11   -1    0    0    0    0  0.00000000000E+00  0.00000000000E+00  0.45593999997E+02  0.45594000000E+02  0.51100000000E-03 0.  1.
         11   -1    0    0    0    0 -0.00000000000E+00 -0.00000000000E+00 -0.45593999997E+02  0.45594000000E+02  0.51100000000E-03 0. -1.
    9900012    2    1    2    0    0  0.14613683809E+02 -0.64804320308E+01  0.40349318120E+02  0.47787271590E+02  0.20000002485E+02 0.  0.
         12    1    1    2    0    0 -0.14613683809E+02  0.64804320308E+01 -0.40349318120E+02  0.43400728410E+02  0.00000000000E+00 0. -1.
         11    1    3    3    0    0  0.21320562273E+01  0.30422030176E+00  0.21648929261E+02  0.21755788934E+02  0.51100000000E-03 0. -1.
        -11    1    3    3    0    0  0.99432686132E+01 -0.30771907236E+00  0.15395243615E+02  0.18329670154E+02  0.51100000000E-03 0.  1.
         12    1    3    3    0    0  0.25383589690E+01 -0.64769332602E+01  0.33051452443E+01  0.77018125009E+01  0.00000000000E+00 0. -1.
</event>
<event>
 7    1  0.2580704E-010  0.4778727E+02  0.7816164E-02  0.1312668E+00
        -11   -1    0    0    0    0  0.00000000000E+00  0.00000000000E+00  0.45593999997E+02  0.45594000000E+02  0.51100000000E-03 0. -1.
         11   -1    0    0    0    0 -0.00000000000E+00 -0.00000000000E+00 -0.45593999997E+02  0.45594000000E+02  0.51100000000E-03 0.  1.
    9900012    2    1    2    0    0  0.30652392331E+02 -0.44992928207E+01 -0.30394247487E+02  0.47787273372E+02  0.20000010612E+02 0.  0.
         12    1    1    2    0    0 -0.30652392331E+02  0.44992928207E+01  0.30394247487E+02  0.43400726628E+02  0.00000000000E+00 0. -1.
         11    1    3    3    0    0  0.12059696943E+01 -0.68523196445E+00 -0.81970192646E+01  0.83135450221E+01  0.51100000000E-03 0. -1.
        -11    1    3    3    0    0 -0.15817857668E+00  0.23030827489E+01 -0.24457319372E+01  0.33631555986E+01  0.51100000000E-03 0.  1.
         12    1    3    3    0    0  0.29604601214E+02 -0.61171436052E+01 -0.19751496285E+02  0.36110572751E+02  0.00000000000E+00 0. -1.
</event>
<event>
 7    1  0.3726498E-010  0.4778727E+02  0.7816164E-02  0.1312668E+00
        -11   -1    0    0    0    0  0.00000000000E+00  0.00000000000E+00  0.45593999997E+02  0.45594000000E+02  0.51100000000E-03 0.  1.
         11   -1    0    0    0    0 -0.00000000000E+00 -0.00000000000E+00 -0.45593999997E+02  0.45594000000E+02  0.51100000000E-03 0. -1.
    9900012    2    1    2    0    0  0.35974783322E+02  0.24095476802E+02 -0.29742986198E+01  0.47787268558E+02  0.19999988665E+02 0.  0.
         12    1    1    2    0    0 -0.35974783322E+02 -0.24095476802E+02  0.29742986198E+01  0.43400731442E+02  0.00000000000E+00 0. -1.
         11    1    3    3    0    0 -0.44756413985E+00 -0.10361379551E+00  0.24637224566E+01  0.25061879583E+01  0.51100000000E-03 0. -1.
        -11    1    3    3    0    0  0.12675744143E+02  0.36327821286E+01 -0.42127287059E+01  0.13842639884E+02  0.51100000000E-03 0.  1.
        -12    1    3    3    0    0  0.23746603320E+02  0.20566308469E+02 -0.12252923705E+01  0.31438440716E+02  0.00000000000E+00 0.  1.
</event>
<event>
 7    1  0.2580704E-010  0.4778727E+02  0.7816164E-02  0.1312668E+00
        -11   -1    0    0    0    0  0.00000000000E+00  0.00000000000E+00  0.45593999997E+02  0.45594000000E+02  0.51100000000E-03 0.  1.
         11   -1    0    0    0    0 -0.00000000000E+00 -0.00000000000E+00 -0.45593999997E+02  0.45594000000E+02  0.51100000000E-03 0. -1.
    9900012    2    1    2    0    0  0.44438650482E+01  0.96049881715E+01  0.42090615929E+02  0.47787266324E+02  0.19999978478E+02 0.  0.
         12    1    1    2    0    0 -0.44438650482E+01 -0.96049881715E+01 -0.42090615929E+02  0.43400733676E+02  0.00000000000E+00 0. -1.
         11    1    3    3    0    0  0.12505196301E+01  0.22636615814E+01  0.13145953489E+02  0.13397912394E+02  0.51100000000E-03 0. -1.
        -11    1    3    3    0    0 -0.57947440540E+01  0.58454121925E+01  0.19971074690E+02  0.21600734406E+02  0.51100000000E-03 0.  1.
         12    1    3    3    0    0  0.89880894721E+01  0.14959143975E+01  0.89735877491E+01  0.12788619524E+02  0.00000000000E+00 0. -1.
</event>
<event>
 7    1  0.2580704E-010  0.4778728E+02  0.7816164E-02  0.1312668E+00
        -11   -1    0    0    0    0  0.00000000000E+00  0.00000000000E+00  0.45593999997E+02  0.45594000000E+02  0.51100000000E-03 0. -1.
         11   -1    0    0    0    0 -0.00000000000E+00 -0.00000000000E+00 -0.45593999997E+02  0.45594000000E+02  0.51100000000E-03 0.  1.
    9900012    2    1    2    0    0 -0.32118877380E+02 -0.97522594395E+00 -0.29172745318E+02  0.47787280891E+02  0.20000044894E+02 0.  0.
         12    1    1    2    0    0  0.32118877380E+02  0.97522594395E+00  0.29172745318E+02  0.43400719109E+02  0.00000000000E+00 0. -1.
         11    1    3    3    0    0 -0.16874223695E+02  0.30782544416E+01 -0.13627879756E+02  0.21907400179E+02  0.51100000000E-03 0. -1.
        -11    1    3    3    0    0 -0.12411446752E+02 -0.11002139604E-01 -0.16702906716E+02  0.20809402311E+02  0.51100000000E-03 0.  1.
         12    1    3    3    0    0 -0.28332069331E+01 -0.40424782460E+01  0.11580411538E+01  0.50704784004E+01  0.00000000000E+00 0. -1.
</event>
<event>
 7    1  0.2580704E-010  0.4778727E+02  0.7816164E-02  0.1312668E+00
        -11   -1    0    0    0    0  0.00000000000E+00  0.00000000000E+00  0.45593999997E+02  0.45594000000E+02  0.51100000000E-03 0.  1.
         11   -1    0    0    0    0 -0.00000000000E+00 -0.00000000000E+00 -0.45593999997E+02  0.45594000000E+02  0.51100000000E-03 0. -1.
    9900012    2    1    2    0    0 -0.87356044115E+01 -0.15136142085E+02  0.39726684638E+02  0.47787273578E+02  0.20000011551E+02 0.  0.
         12    1    1    2    0    0  0.87356044115E+01  0.15136142085E+02 -0.39726684638E+02  0.43400726422E+02  0.00000000000E+00 0. -1.
         11    1    3    3    0    0 -0.15842245868E+00 -0.53000351544E+01  0.84084495192E+01  0.99406988633E+01  0.51100000000E-03 0. -1.
        -11    1    3    3    0    0 -0.78082187772E+01 -0.10387444686E+02  0.33248017529E+02  0.35697310227E+02  0.51100000000E-03 0.  1.
         12    1    3    3    0    0 -0.76896317554E+00  0.55133775521E+00 -0.19297824103E+01  0.21492644874E+01  0.00000000000E+00 0. -1.
</event>
<event>
 7    1  0.2580704E-010  0.4778727E+02  0.7816164E-02  0.1312668E+00
        -11   -1    0    0    0    0  0.00000000000E+00  0.00000000000E+00  0.45593999997E+02  0.45594000000E+02  0.51100000000E-03 0.  1.
         11   -1    0    0    0    0 -0.00000000000E+00 -0.00000000000E+00 -0.45593999997E+02  0.45594000000E+02  0.51100000000E-03 0. -1.
    9900012    2    1    2    0    0 -0.39486103876E+01  0.25128149905E+02  0.35165433559E+02  0.47787272368E+02  0.20000006033E+02 0.  0.
         12    1    1    2    0    0  0.39486103876E+01 -0.25128149905E+02 -0.35165433559E+02  0.43400727632E+02  0.00000000000E+00 0. -1.
         11    1    3    3    0    0  0.36328549983E+01  0.46868098236E+01  0.33786608506E+01  0.68248934912E+01  0.51100000000E-03 0. -1.
        -11    1    3    3    0    0 -0.66951757003E+00 -0.39240388687E+00  0.10017926086E+02  0.10047938988E+02  0.51100000000E-03 0.  1.
        -12    1    3    3    0    0 -0.69119478159E+01  0.20833743968E+02  0.21768846623E+02  0.30914439888E+02  0.00000000000E+00 0.  1.
</event>
<event>
 7    1  0.2580704E-010  0.4778727E+02  0.7816164E-02  0.1312668E+00
        -11   -1    0    0    0    0  0.00000000000E+00  0.00000000000E+00  0.45593999997E+02  0.45594000000E+02  0.51100000000E-03 0. -1.
         11   -1    0    0    0    0 -0.00000000000E+00 -0.00000000000E+00 -0.45593999997E+02  0.45594000000E+02  0.51100000000E-03 0.  1.
    9900012    2    1    2    0    0 -0.99993184675E+01 -0.30398752998E+02 -0.29318124340E+02  0.47787274563E+02  0.20000016042E+02 0.  0.
         12    1    1    2    0    0  0.99993184675E+01  0.30398752998E+02  0.29318124340E+02  0.43400725437E+02  0.00000000000E+00 0. -1.
         11    1    3    3    0    0 -0.51646229699E+01 -0.13908380927E+02 -0.10227272927E+02  0.18019808607E+02  0.51100000000E-03 0.  1.
        -11    1    3    3    0    0  0.63635327396E+00  0.21796917925E+01 -0.57376029558E+01  0.61705826094E+01  0.51100000000E-03 0. -1.
         12    1    3    3    0    0 -0.54710487715E+01 -0.18670063863E+02 -0.13353248457E+02  0.23596883347E+02  0.00000000000E+00 0. -1.
</event>
<event>
 7    1  0.2580704E-010  0.4778727E+02  0.7816164E-02  0.1312668E+00
        -11   -1    0    0    0    0  0.00000000000E+00  0.00000000000E+00  0.45593999997E+02  0.45594000000E+02  0.51100000000E-03 0.  1.
         11   -1    0    0    0    0 -0.00000000000E+00 -0.00000000000E+00 -0.45593999997E+02  0.45594000000E+02  0.51100000000E-03 0. -1.
    9900012    2    1    2    0    0 -0.43335177738E+02  0.19133856078E+01 -0.14228588407E+01  0.47787271880E+02  0.20000003810E+02 0.  0.
         12    1    1    2    0    0  0.43335177738E+02 -0.19133856078E+01  0.14228588407E+01  0.43400728120E+02  0.00000000000E+00 0. -1.
         11    1    3    3    0    0 -0.19583833889E+02 -0.76054823398E+00  0.84319589571E+01  0.21335484891E+02  0.51100000000E-03 0.  1.
        -11    1    3    3    0    0 -0.37203407703E+01 -0.14478259933E+01 -0.73248934897E+00  0.40587777054E+01  0.51100000000E-03 0. -1.
        -12    1    3    3    0    0 -0.20031003079E+02  0.41217598351E+01 -0.91223284488E+01  0.22393009284E+02  0.00000000000E+00 0.  1.
</event>
<event>
 7    1  0.2580704E-010  0.4778729E+02  0.7816164E-02  0.1312668E+00
        -11   -1    0    0    0    0  0.00000000000E+00  0.00000000000E+00  0.45593999997E+02  0.45594000000E+02  0.51100000000E-03 0. -1.
         11   -1    0    0    0    0 -0.00000000000E+00 -0.00000000000E+00 -0.45593999997E+02  0.45594000000E+02  0.51100000000E-03 0.  1.
    9900012    2    1    2    0    0 -0.39941655662E+02 -0.16290309519E+02  0.47866328641E+01  0.47787286925E+02  0.20000072404E+02 0.  0.
         12    1    1    2    0    0  0.39941655662E+02  0.16290309519E+02 -0.47866328641E+01  0.43400713075E+02  0.00000000000E+00 0. -1.
         11    1    3    3    0    0 -0.19323432593E+02 -0.82803146561E+01  0.11257181472E+02  0.23847070951E+02  0.51100000000E-03 0. -1.
        -11    1    3    3    0    0 -0.11597220566E+02 -0.21333026865E+01 -0.92085987874E+00  0.11827700046E+02  0.51100000000E-03 0.  1.
         12    1    3    3    0    0 -0.90210025035E+01 -0.58766921764E+01 -0.55496887290E+01  0.12112515927E+02  0.00000000000E+00 0. -1.
</event>
<event>
 7    1 -0.6391013E-010  0.4778727E+02  0.7816164E-02  0.1312668E+00
        -11   -1    0    0    0    0  0.00000000000E+00  0.00000000000E+00  0.45593999997E+02  0.45594000000E+02  0.51100000000E-03 0.  1.
         11   -1    0    0    0    0 -0.00000000000E+00 -0.00000000000E+00 -0.45593999997E+02  0.45594000000E+02  0.51100000000E-03 0. -1.
    9900012    2    1    2    0    0  0.32456394309E+02 -0.19793650041E+02  0.20938411277E+02  0.47787272122E+02  0.20000004915E+02 0.  0.
         12    1    1    2    0    0 -0.32456394309E+02  0.19793650041E+02 -0.20938411277E+02  0.43400727878E+02  0.00000000000E+00 0. -1.
         11    1    3    3    0    0  0.19202704920E+01  0.53183325470E-01 -0.63326504303E+00  0.20226942687E+01  0.51100000000E-03 0. -1.
        -11    1    3    3    0    0  0.25526662048E+02 -0.22921847523E+02  0.19864772692E+02  0.39643798551E+02  0.51100000000E-03 0.  1.
        -12    1    3    3    0    0  0.50094617684E+01  0.30750141564E+01  0.17069036281E+01  0.61207793023E+01  0.00000000000E+00 0.  1.
</event>
<event>
 7    1  0.2580704E-010  0.4778727E+02  0.7816164E-02  0.1312668E+00
        -11   -1    0    0    0    0  0.00000000000E+00  0.00000000000E+00  0.45593999997E+02  0.45594000000E+02  0.51100000000E-03 0. -1.
         11   -1    0    0    0    0 -0.00000000000E+00 -0.00000000000E+00 -0.45593999997E+02  0.45594000000E+02  0.51100000000E-03 0.  1.
    9900012    2    1    2    0    0 -0.51764913383E+01 -0.92131692028E+01 -0.42094471483E+02  0.47787273292E+02  0.20000010249E+02 0.  0.
         12    1    1    2    0    0  0.51764913383E+01  0.92131692028E+01  0.42094471483E+02  0.43400726708E+02  0.00000000000E+00 0. -1.
         11    1    3    3    0    0  0.32537556257E+01 -0.84724236979E+01 -0.14734089264E+02  0.17304978350E+02  0.51100000000E-03 0. -1.
        -11    1    3    3    0    0  0.12395672306E+01  0.16449750716E+01 -0.97326522282E+00  0.22780946776E+01  0.51100000000E-03 0.  1.
        -12    1    3    3    0    0 -0.96698141946E+01 -0.23857205765E+01 -0.26387116996E+02  0.28204200265E+02  0.00000000000E+00 0.  1.
</event>
<event>
 7    1  0.2580704E-010  0.4778727E+02  0.7816164E-02  0.1312668E+00
        -11   -1    0    0    0    0  0.00000000000E+00  0.00000000000E+00  0.45593999997E+02  0.45594000000E+02  0.51100000000E-03 0.  1.
         11   -1    0    0    0    0 -0.00000000000E+00 -0.00000000000E+00 -0.45593999997E+02  0.45594000000E+02  0.51100000000E-03 0. -1.
    9900012    2    1    2    0    0  0.19020068027E+02  0.37082433465E+02  0.12114181950E+02  0.47787271161E+02  0.20000000532E+02 0.  0.
         12    1    1    2    0    0 -0.19020068027E+02 -0.37082433465E+02 -0.12114181950E+02  0.43400728839E+02  0.00000000000E+00 0. -1.
         11    1    3    3    0    0  0.13475363111E+02  0.18000003896E+02 -0.19935156962E+01  0.22573428103E+02  0.51100000000E-03 0. -1.
        -11    1    3    3    0    0  0.33490066850E+01  0.11341119986E+02  0.44298794310E+01  0.12627774164E+02  0.51100000000E-03 0.  1.
         12    1    3    3    0    0  0.21956982306E+01  0.77413095830E+01  0.96778182155E+01  0.12586068894E+02  0.00000000000E+00 0. -1.
</event>
<event>
 7    1  0.2580704E-010  0.4778728E+02  0.7816164E-02  0.1312668E+00
        -11   -1    0    0    0    0  0.00000000000E+00  0.00000000000E+00  0.45593999997E+02  0.45594000000E+02  0.51100000000E-03 0.  1.
         11   -1    0    0    0    0 -0.00000000000E+00 -0.00000000000E+00 -0.45593999997E+02  0.45594000000E+02  0.51100000000E-03 0. -1.
    9900012    2    1    2    0    0  0.22828759557E+02 -0.25793092020E+02  0.26404300228E+02  0.47787275013E+02  0.20000018096E+02 0.  0.
         12    1    1    2    0    0 -0.22828759557E+02  0.25793092020E+02 -0.26404300228E+02  0.43400724987E+02  0.00000000000E+00 0. -1.
         11    1    3    3    0    0  0.16566480219E+02 -0.12650345084E+02  0.10951599570E+02  0.23546061900E+02  0.51100000000E-03 0. -1.
        -11    1    3    3    0    0  0.55027703588E+01 -0.11444231454E+02  0.50375546662E+01  0.13661181225E+02  0.51100000000E-03 0.  1.
         12    1    3    3    0    0  0.75950897942E+00 -0.16985154813E+01  0.10415145992E+02  0.10580031888E+02  0.00000000000E+00 0. -1.
</event>
<event>
 7    1  0.2580704E-010  0.4778727E+02  0.7816164E-02  0.1312668E+00
        -11   -1    0    0    0    0  0.00000000000E+00  0.00000000000E+00  0.45593999997E+02  0.45594000000E+02  0.51100000000E-03 0.  1.
         11   -1    0    0    0    0 -0.00000000000E+00 -0.00000000000E+00 -0.45593999997E+02  0.45594000000E+02  0.51100000000E-03 0. -1.
    9900012    2    1    2    0    0  0.37492387756E+02  0.21324243701E+02  0.48187956793E+01  0.47787270734E+02  0.19999998584E+02 0.  0.
         12    1    1    2    0    0 -0.37492387756E+02 -0.21324243701E+02 -0.48187956793E+01  0.43400729266E+02  0.00000000000E+00 0. -1.
         11    1    3    3    0    0  0.92639812498E+01  0.14323303540E+02  0.63640083602E+01  0.18206564079E+02  0.51100000000E-03 0. -1.
        -11    1    3    3    0    0  0.37084037517E+01  0.26807872119E+01 -0.96348506371E+00  0.46762358998E+01  0.51100000000E-03 0.  1.
         12    1    3    3    0    0  0.24520002754E+02  0.43201529487E+01 -0.58172761725E+00  0.24904470755E+02  0.00000000000E+00 0. -1.
</event>
<event>
 7    1  0.2580704E-010  0.4778732E+02  0.7816164E-02  0.1312668E+00
        -11   -1    0    0    0    0  0.00000000000E+00  0.00000000000E+00  0.45593999997E+02  0.45594000000E+02  0.51100000000E-03 0. -1.
         11   -1    0    0    0    0 -0.00000000000E+00 -0.00000000000E+00 -0.45593999997E+02  0.45594000000E+02  0.51100000000E-03 0.  1.
    9900012    2    1    2    0    0 -0.12276654173E+02 -0.14200006914E+02 -0.39131345767E+02  0.47787324249E+02  0.20000242581E+02 0.  0.
         12    1    1    2    0    0  0.12276654173E+02  0.14200006914E+02  0.39131345767E+02  0.43400675751E+02  0.00000000000E+00 0. -1.
         11    1    3    3    0    0 -0.59226562385E+01 -0.35238653461E+00 -0.19765051172E+01  0.62536873866E+01  0.51100000000E-03 0. -1.
        -11    1    3    3    0    0 -0.92834265119E+01 -0.92143613115E+01 -0.26019148143E+02  0.29121856612E+02  0.51100000000E-03 0.  1.
        -12    1    3    3    0    0  0.29294285775E+01 -0.46332590680E+01 -0.11135692507E+02  0.12411780251E+02  0.00000000000E+00 0.  1.
</event>
<event>
 7    1  0.2580704E-010  0.4778727E+02  0.7816164E-02  0.1312668E+00
        -11   -1    0    0    0    0  0.00000000000E+00  0.00000000000E+00  0.45593999997E+02  0.45594000000E+02  0.51100000000E-03 0. -1.
         11   -1    0    0    0    0 -0.00000000000E+00 -0.00000000000E+00 -0.45593999997E+02  0.45594000000E+02  0.51100000000E-03 0.  1.
    9900012    2    1    2    0    0 -0.12638430940E+02  0.18318779642E+02 -0.37260107997E+02  0.47787271064E+02  0.20000000090E+02 0.  0.
         12    1    1    2    0    0  0.12638430940E+02 -0.18318779642E+02  0.37260107997E+02  0.43400728936E+02  0.00000000000E+00 0. -1.
         11    1    3    3    0    0 -0.22199570927E+01 -0.38405682851E+01 -0.67359679759E+01  0.80654472337E+01  0.51100000000E-03 0. -1.
        -11    1    3    3    0    0  0.51133136424E+00  0.25865124654E+01 -0.56586319508E+01  0.62427255517E+01  0.51100000000E-03 0.  1.
        -12    1    3    3    0    0 -0.10929805211E+02  0.19572835462E+02 -0.24865508071E+02  0.33479098279E+02  0.00000000000E+00 0.  1.
</event>
<event>
 7    1  0.2580704E-010  0.4778728E+02  0.7816164E-02  0.1312668E+00
        -11   -1    0    0    0    0  0.00000000000E+00  0.00000000000E+00  0.45593999997E+02  0.45594000000E+02  0.51100000000E-03 0. -1.
         11   -1    0    0    0    0 -0.00000000000E+00 -0.00000000000E+00 -0.45593999997E+02  0.45594000000E+02  0.51100000000E-03 0.  1.
    9900012    2    1    2    0    0 -0.13692285486E+02 -0.41103584971E+02 -0.25766195000E+01  0.47787281718E+02  0.20000048667E+02 0.  0.
         12    1    1    2    0    0  0.13692285486E+02  0.41103584971E+02  0.25766195000E+01  0.43400718282E+02  0.00000000000E+00 0. -1.
         11    1    3    3    0    0 -0.10582666971E+02 -0.28860986235E+02 -0.58796048166E+01  0.31297270164E+02  0.51100000000E-03 0. -1.
        -11    1    3    3    0    0 -0.31958203841E+01 -0.13945961734E+02  0.22437645688E+01  0.14482320129E+02  0.51100000000E-03 0.  1.
         12    1    3    3    0    0  0.86201868846E-01  0.17033629982E+01  0.10592207479E+01  0.20076914252E+01  0.00000000000E+00 0. -1.
</event>
<event>
 7    1  0.2580704E-010  0.4778727E+02  0.7816164E-02  0.1312668E+00
        -11   -1    0    0    0    0  0.00000000000E+00  0.00000000000E+00  0.45593999997E+02  0.45594000000E+02  0.51100000000E-03 0.  1.
         11   -1    0    0    0    0 -0.00000000000E+00 -0.00000000000E+00 -0.45593999997E+02  0.45594000000E+02  0.51100000000E-03 0. -1.
    9900012    2    1    2    0    0  0.41596779764E+01  0.41169639196E+02  0.13091263396E+02  0.47787270862E+02  0.19999999168E+02 0.  0.
         12    1    1    2    0    0 -0.41596779764E+01 -0.41169639196E+02 -0.13091263396E+02  0.43400729138E+02  0.00000000000E+00 0. -1.
         11    1    3    3    0    0 -0.33420405515E+00 -0.11090886800E+01  0.19216955477E+01  0.22438101724E+01  0.51100000000E-03 0. -1.
        -11    1    3    3    0    0  0.40841216839E+01  0.20795529699E+02  0.11380866863E+02  0.24055316173E+02  0.51100000000E-03 0.  1.
        -12    1    3    3    0    0  0.40976034767E+00  0.21483198178E+02 -0.21129901501E+00  0.21488144516E+02  0.00000000000E+00 0.  1.
</event>
<event>
 7    1  0.2580704E-010  0.4778725E+02  0.7816164E-02  0.1312668E+00
        -11   -1    0    0    0    0  0.00000000000E+00  0.00000000000E+00  0.45593999997E+02  0.45594000000E+02  0.51100000000E-03 0.  1.
         11   -1    0    0    0    0 -0.00000000000E+00 -0.00000000000E+00 -0.45593999997E+02  0.45594000000E+02  0.51100000000E-03 0. -1.
    9900012    2    1    2    0    0  0.24655673493E+02  0.34452848583E+02  0.94193610656E+01  0.47787246852E+02  0.19999889699E+02 0.  0.
         12    1    1    2    0    0 -0.24655673493E+02 -0.34452848583E+02 -0.94193610656E+01  0.43400753148E+02  0.00000000000E+00 0. -1.
         11    1    3    3    0    0  0.14402559665E+02  0.17626694075E+02  0.51262482484E+00  0.22768330053E+02  0.51100000000E-03 0. -1.
        -11    1    3    3    0    0  0.27878732323E+01  0.14971475286E+02  0.35263217619E+01  0.15631770687E+02  0.51100000000E-03 0.  1.
         12    1    3    3    0    0  0.74652405955E+01  0.18546792223E+01  0.53804144788E+01  0.93871461121E+01  0.00000000000E+00 0. -1.
</event>
<event>
 7    1  0.2580704E-010  0.4778727E+02  0.7816164E-02  0.1312668E+00
        -11   -1    0    0    0    0  0.00000000000E+00  0.00000000000E+00  0.45593999997E+02  0.45594000000E+02  0.51100000000E-03 0.  1.
         11   -1    0    0    0    0 -0.00000000000E+00 -0.00000000000E+00 -0.45593999997E+02  0.45594000000E+02  0.51100000000E-03 0. -1.
    9900012    2    1    2    0    0  0.38823820051E+02 -0.14234592019E+02  0.13179949180E+02  0.47787266438E+02  0.19999978999E+02 0.  0.
         12    1    1    2    0    0 -0.38823820051E+02  0.14234592019E+02 -0.13179949180E+02  0.43400733562E+02  0.00000000000E+00 0. -1.
         11    1    3    3    0    0  0.10149952551E+02 -0.81983403651E+01  0.46921230120E+01  0.13865436890E+02  0.51100000000E-03 0. -1.
        -11    1    3    3    0    0  0.23427665357E+02 -0.65763287648E+01  0.48563935944E+00  0.24338024775E+02  0.51100000000E-03 0.  1.
        -12    1    3    3    0    0  0.52462021424E+01  0.54007711077E+00  0.80021868085E+01  0.95838047728E+01  0.00000000000E+00 0.  1.
</event>
<event>
 7    1  0.2580704E-010  0.4778727E+02  0.7816164E-02  0.1312668E+00
        -11   -1    0    0    0    0  0.00000000000E+00  0.00000000000E+00  0.45593999997E+02  0.45594000000E+02  0.51100000000E-03 0.  1.
         11   -1    0    0    0    0 -0.00000000000E+00 -0.00000000000E+00 -0.45593999997E+02  0.45594000000E+02  0.51100000000E-03 0. -1.
    9900012    2    1    2    0    0  0.77886160552E+01  0.14391665564E+01  0.42671885023E+02  0.47787268303E+02  0.19999987501E+02 0.  0.
         12    1    1    2    0    0 -0.77886160552E+01 -0.14391665564E+01 -0.42671885023E+02  0.43400731697E+02  0.00000000000E+00 0. -1.
         11    1    3    3    0    0  0.53910184791E+00  0.25604873816E+01 -0.16154300129E+00  0.26216069186E+01  0.51100000000E-03 0.  1.
        -11    1    3    3    0    0 -0.23341712981E+01 -0.20795393521E+00  0.16351207962E+01  0.28574850424E+01  0.51100000000E-03 0. -1.
        -12    1    3    3    0    0  0.95836855054E+01 -0.91336688998E+00  0.41198307228E+02  0.42308176342E+02  0.00000000000E+00 0.  1.
</event>
<event>
 7    1  0.2580704E-010  0.4778727E+02  0.7816164E-02  0.1312668E+00
        -11   -1    0    0    0    0  0.00000000000E+00  0.00000000000E+00  0.45593999997E+02  0.45594000000E+02  0.51100000000E-03 0.  1.
         11   -1    0    0    0    0 -0.00000000000E+00 -0.00000000000E+00 -0.45593999997E+02  0.45594000000E+02  0.51100000000E-03 0. -1.
    9900012    2    1    2    0    0 -0.93521586932E+01  0.30504508766E+02  0.29421676184E+02  0.47787274698E+02  0.20000016656E+02 0.  0.
         12    1    1    2    0    0  0.93521586932E+01 -0.30504508766E+02 -0.29421676184E+02  0.43400725302E+02  0.00000000000E+00 0. -1.
         11    1    3    3    0    0 -0.66053764229E+00  0.12434443148E+02  0.14533954505E+02  0.19138639455E+02  0.51100000000E-03 0. -1.
        -11    1    3    3    0    0 -0.40151037689E+01  0.94370697620E+01  0.15747670323E+02  0.18792776933E+02  0.51100000000E-03 0.  1.
         12    1    3    3    0    0 -0.46765172820E+01  0.86329958567E+01 -0.85994864458E+00  0.98558583097E+01  0.00000000000E+00 0. -1.
</event>
<event>
 7    1  0.2580704E-010  0.4778727E+02  0.7816164E-02  0.1312668E+00
        -11   -1    0    0    0    0  0.00000000000E+00  0.00000000000E+00  0.45593999997E+02  0.45594000000E+02  0.51100000000E-03 0.  1.
         11   -1    0    0    0    0 -0.00000000000E+00 -0.00000000000E+00 -0.45593999997E+02  0.45594000000E+02  0.51100000000E-03 0. -1.
    9900012    2    1    2    0    0 -0.35086208923E+01 -0.21179297151E+02  0.37719367824E+02  0.47787265474E+02  0.19999974602E+02 0.  0.
         12    1    1    2    0    0  0.35086208923E+01  0.21179297151E+02 -0.37719367824E+02  0.43400734526E+02  0.00000000000E+00 0. -1.
         11    1    3    3    0    0 -0.48758569939E+01 -0.45827088806E+01  0.25848290133E+02  0.26700361517E+02  0.51100000000E-03 0.  1.
        -11    1    3    3    0    0 -0.17387016823E+01 -0.66949784379E+01  0.60432051766E+01  0.91851047294E+01  0.51100000000E-03 0. -1.
         12    1    3    3    0    0  0.31059377838E+01 -0.99016098330E+01  0.58278725141E+01  0.11901799227E+02  0.00000000000E+00 0. -1.
</event>
<event>
 7    1  0.2580704E-010  0.4778727E+02  0.7816164E-02  0.1312668E+00
        -11   -1    0    0    0    0  0.00000000000E+00  0.00000000000E+00  0.45593999997E+02  0.45594000000E+02  0.51100000000E-03 0. -1.
         11   -1    0    0    0    0 -0.00000000000E+00 -0.00000000000E+00 -0.45593999997E+02  0.45594000000E+02  0.51100000000E-03 0.  1.
    9900012    2    1    2    0    0  0.28486064500E+02 -0.32739451291E+02  0.54384182581E+00  0.47787270681E+02  0.19999998343E+02 0.  0.
         12    1    1    2    0    0 -0.28486064500E+02  0.32739451291E+02 -0.54384182581E+00  0.43400729319E+02  0.00000000000E+00 0. -1.
         11    1    3    3    0    0  0.75598076076E+01 -0.66825899647E+01  0.62933867726E+01  0.11891779389E+02  0.51100000000E-03 0. -1.
        -11    1    3    3    0    0  0.22800604954E+01  0.64269836051E+00  0.11080734943E+01  0.26152560439E+01  0.51100000000E-03 0.  1.
         12    1    3    3    0    0  0.18646196397E+02 -0.26699559686E+02 -0.68576184411E+01  0.33280235248E+02  0.00000000000E+00 0. -1.
</event>
<event>
 7    1  0.2580704E-010  0.4778727E+02  0.7816164E-02  0.1312668E+00
        -11   -1    0    0    0    0  0.00000000000E+00  0.00000000000E+00  0.45593999997E+02  0.45594000000E+02  0.51100000000E-03 0.  1.
         11   -1    0    0    0    0 -0.00000000000E+00 -0.00000000000E+00 -0.45593999997E+02  0.45594000000E+02  0.51100000000E-03 0. -1.
    9900012    2    1    2    0    0 -0.26168279500E+01 -0.25621787616E+01  0.43245929499E+02  0.47787274583E+02  0.20000016131E+02 0.  0.
         12    1    1    2    0    0  0.26168279500E+01  0.25621787616E+01 -0.43245929499E+02  0.43400725417E+02  0.00000000000E+00 0. -1.
         11    1    3    3    0    0 -0.54806292487E+01 -0.50328976017E+01  0.87837142971E+01  0.11511776246E+02  0.51100000000E-03 0. -1.
        -11    1    3    3    0    0  0.81908042929E+00 -0.35144732678E+01  0.22064392882E+02  0.22357545675E+02  0.51100000000E-03 0.  1.
        -12    1    3    3    0    0  0.20447208694E+01  0.59851921079E+01  0.12397822320E+02  0.13917952662E+02  0.00000000000E+00 0.  1.
</event>
<event>
 7    1  0.2580704E-010  0.4778727E+02  0.7816164E-02  0.1312668E+00
        -11   -1    0    0    0    0  0.00000000000E+00  0.00000000000E+00  0.45593999997E+02  0.45594000000E+02  0.51100000000E-03 0.  1.
         11   -1    0    0    0    0 -0.00000000000E+00 -0.00000000000E+00 -0.45593999997E+02  0.45594000000E+02  0.51100000000E-03 0. -1.
    9900012    2    1    2    0    0  0.20991559694E+02  0.67068734297E+01  0.37389782953E+02  0.47787267300E+02  0.19999982928E+02 0.  0.
         12    1    1    2    0    0 -0.20991559694E+02 -0.67068734297E+01 -0.37389782953E+02  0.43400732700E+02  0.00000000000E+00 0. -1.
         11    1    3    3    0    0  0.29675894785E+01  0.57920245644E+01  0.49055988972E+01  0.81497875229E+01  0.51100000000E-03 0. -1.
        -11    1    3    3    0    0  0.20310887479E+01  0.44287928863E+01  0.14590364674E+02  0.15382401292E+02  0.51100000000E-03 0.  1.
        -12    1    3    3    0    0  0.15992881468E+02 -0.35139440210E+01  0.17893819382E+02  0.24255078485E+02  0.00000000000E+00 0.  1.
</event>
<event>
 7    1  0.2580704E-010  0.4778727E+02  0.7816164E-02  0.1312668E+00
        -11   -1    0    0    0    0  0.00000000000E+00  0.00000000000E+00  0.45593999997E+02  0.45594000000E+02  0.51100000000E-03 0.  1.
         11   -1    0    0    0    0 -0.00000000000E+00 -0.00000000000E+00 -0.45593999997E+02  0.45594000000E+02  0.51100000000E-03 0. -1.
    9900012    2    1    2    0    0 -0.31843141762E+02 -0.19559136378E+02  0.22069842226E+02  0.47787269257E+02  0.19999991851E+02 0.  0.
         12    1    1    2    0    0  0.31843141762E+02  0.19559136378E+02 -0.22069842226E+02  0.43400730743E+02  0.00000000000E+00 0. -1.
         11    1    3    3    0    0  0.20663762928E-01 -0.22288474837E+01  0.41320167321E+01  0.46948642826E+01  0.51100000000E-03 0. -1.
        -11    1    3    3    0    0 -0.42192981314E+01 -0.41490222860E+01  0.97254273365E+01  0.11384234704E+02  0.51100000000E-03 0.  1.
        -12    1    3    3    0    0 -0.27644507393E+02 -0.13181266608E+02  0.82123981578E+01  0.31708170271E+02  0.00000000000E+00 0.  1.
</event>
<event>
 7    1  0.2580704E-010  0.4778728E+02  0.7816164E-02  0.1312668E+00
        -11   -1    0    0    0    0  0.00000000000E+00  0.00000000000E+00  0.45593999997E+02  0.45594000000E+02  0.51100000000E-03 0.  1.
         11   -1    0    0    0    0 -0.00000000000E+00 -0.00000000000E+00 -0.45593999997E+02  0.45594000000E+02  0.51100000000E-03 0. -1.
    9900012    2    1    2    0    0  0.29131151798E+02 -0.10525080809E+02  0.30401012777E+02  0.47787275248E+02  0.20000019164E+02 0.  0.
         12    1    1    2    0    0 -0.29131151798E+02  0.10525080809E+02 -0.30401012777E+02  0.43400724752E+02  0.00000000000E+00 0. -1.
         11    1    3    3    0    0  0.43933301334E+01 -0.12484971935E+01 -0.22649788403E+01  0.50980608383E+01  0.51100000000E-03 0. -1.
        -11    1    3    3    0    0  0.40032719009E+01 -0.48021915790E+01  0.81133037002E+01  0.10242701161E+02  0.51100000000E-03 0.  1.
        -12    1    3    3    0    0  0.20734549764E+02 -0.44743920363E+01  0.24552687918E+02  0.32446513249E+02  0.00000000000E+00 0.  1.
</event>
<event>
 7    1  0.2580704E-010  0.4778727E+02  0.7816164E-02  0.1312668E+00
        -11   -1    0    0    0    0  0.00000000000E+00  0.00000000000E+00  0.45593999997E+02  0.45594000000E+02  0.51100000000E-03 0.  1.
         11   -1    0    0    0    0 -0.00000000000E+00 -0.00000000000E+00 -0.45593999997E+02  0.45594000000E+02  0.51100000000E-03 0. -1.
    9900012    2    1    2    0    0 -0.30855749565E+02 -0.14625725117E+02  0.26788693183E+02  0.47787271909E+02  0.20000003941E+02 0.  0.
         12    1    1    2    0    0  0.30855749565E+02  0.14625725117E+02 -0.26788693183E+02  0.43400728091E+02  0.00000000000E+00 0. -1.
         11    1    3    3    0    0 -0.87184462147E+01 -0.90886675181E+01  0.81160667405E+01  0.14982847568E+02  0.51100000000E-03 0. -1.
        -11    1    3    3    0    0 -0.59209124847E+01 -0.85246441836E+01  0.86247129124E+01  0.13494904082E+02  0.51100000000E-03 0.  1.
        -12    1    3    3    0    0 -0.16216390866E+02  0.29875865852E+01  0.10047913530E+02  0.19309520258E+02  0.00000000000E+00 0.  1.
</event>
<event>
 7    1  0.2808537E-010  0.4778727E+02  0.7816164E-02  0.1312668E+00
        -11   -1    0    0    0    0  0.00000000000E+00  0.00000000000E+00  0.45593999997E+02  0.45594000000E+02  0.51100000000E-03 0. -1.
         11   -1    0    0    0    0 -0.00000000000E+00 -0.00000000000E+00 -0.45593999997E+02  0.45594000000E+02  0.51100000000E-03 0.  1.
    9900012    2    1    2    0    0 -0.13810391485E+02  0.34697601337E+02 -0.22112727322E+02  0.47787272343E+02  0.20000005919E+02 0.  0.
         12    1    1    2    0    0  0.13810391485E+02 -0.34697601337E+02  0.22112727322E+02  0.43400727657E+02  0.00000000000E+00 0. -1.
         11    1    3    3    0    0 -0.32742910030E+01  0.93386400321E+00 -0.74593022605E+00  0.34856126738E+01  0.51100000000E-03 0. -1.
        -11    1    3    3    0    0  0.35670331611E+01  0.13834508782E+02 -0.63170114604E+01  0.15621203310E+02  0.51100000000E-03 0.  1.
        -12    1    3    3    0    0 -0.14103133643E+02  0.19929228552E+02 -0.15049785636E+02  0.28680456359E+02  0.00000000000E+00 0.  1.
</event>
<event>
 7    1  0.2580704E-010  0.4778727E+02  0.7816164E-02  0.1312668E+00
        -11   -1    0    0    0    0  0.00000000000E+00  0.00000000000E+00  0.45593999997E+02  0.45594000000E+02  0.51100000000E-03 0.  1.
         11   -1    0    0    0    0 -0.00000000000E+00 -0.00000000000E+00 -0.45593999997E+02  0.45594000000E+02  0.51100000000E-03 0. -1.
    9900012    2    1    2    0    0  0.25585314520E+02  0.52783177385E+01  0.34657674470E+02  0.47787270088E+02  0.19999995638E+02 0.  0.
         12    1    1    2    0    0 -0.25585314520E+02 -0.52783177385E+01 -0.34657674470E+02  0.43400729912E+02  0.00000000000E+00 0. -1.
         11    1    3    3    0    0  0.10575130238E+02  0.52325073781E+01  0.13706568957E+02  0.18085423574E+02  0.51100000000E-03 0. -1.
        -11    1    3    3    0    0  0.16554906576E+02  0.25123857564E+01  0.20913975216E+02  0.26791255542E+02  0.51100000000E-03 0.  1.
         12    1    3    3    0    0 -0.15447222935E+01 -0.24665753959E+01  0.37130297224E-01  0.29105909721E+01  0.00000000000E+00 0. -1.
</event>
<event>
 7    1  0.2580704E-010  0.4778727E+02  0.7816164E-02  0.1312668E+00
        -11   -1    0    0    0    0  0.00000000000E+00  0.00000000000E+00  0.45593999997E+02  0.45594000000E+02  0.51100000000E-03 0.  1.
         11   -1    0    0    0    0 -0.00000000000E+00 -0.00000000000E+00 -0.45593999997E+02  0.45594000000E+02  0.51100000000E-03 0. -1.
    9900012    2    1    2    0    0 -0.16270617977E+02  0.40189880218E+02 -0.19141380723E+01  0.47787269524E+02  0.19999993066E+02 0.  0.
         12    1    1    2    0    0  0.16270617977E+02 -0.40189880218E+02  0.19141380723E+01  0.43400730476E+02  0.00000000000E+00 0. -1.
         11    1    3    3    0    0 -0.69040050257E+01  0.12303462308E+02 -0.33056810538E+01  0.14490272518E+02  0.51100000000E-03 0. -1.
        -11    1    3    3    0    0  0.32803050810E+01  0.10933514532E+02 -0.27575142530E+01  0.11743339669E+02  0.51100000000E-03 0.  1.
        -12    1    3    3    0    0 -0.12646918032E+02  0.16952903378E+02  0.41490572345E+01  0.21553657337E+02  0.00000000000E+00 0.  1.
</event>
<event>
 7    1  0.2580704E-010  0.4778727E+02  0.7816164E-02  0.1312668E+00
        -11   -1    0    0    0    0  0.00000000000E+00  0.00000000000E+00  0.45593999997E+02  0.45594000000E+02  0.51100000000E-03 0.  1.
         11   -1    0    0    0    0 -0.00000000000E+00 -0.00000000000E+00 -0.45593999997E+02  0.45594000000E+02  0.51100000000E-03 0. -1.
    9900012    2    1    2    0    0  0.24480246193E+02 -0.21854103643E+02  0.28403150047E+02  0.47787271523E+02  0.20000002182E+02 0.  0.
         12    1    1    2    0    0 -0.24480246193E+02  0.21854103643E+02 -0.28403150047E+02  0.43400728477E+02  0.00000000000E+00 0. -1.
         11    1    3    3    0    0  0.42814572800E+01  0.50574003272E+00  0.64193635041E+00  0.43587534870E+01  0.51100000000E-03 0. -1.
        -11    1    3    3    0    0  0.25564402726E+01  0.16996693852E+01  0.51419548975E+01  0.59886528799E+01  0.51100000000E-03 0.  1.
         12    1    3    3    0    0  0.17642348641E+02 -0.24059513061E+02  0.22619258799E+02  0.37439865156E+02  0.00000000000E+00 0. -1.
</event>
<event>
 7    1  0.2580704E-010  0.4778727E+02  0.7816164E-02  0.1312668E+00
        -11   -1    0    0    0    0  0.00000000000E+00  0.00000000000E+00  0.45593999997E+02  0.45594000000E+02  0.51100000000E-03 0.  1.
         11   -1    0    0    0    0 -0.00000000000E+00 -0.00000000000E+00 -0.45593999997E+02  0.45594000000E+02  0.51100000000E-03 0. -1.
    9900012    2    1    2    0    0 -0.20122154306E+02  0.29996546481E+02  0.24060951271E+02  0.47787271081E+02  0.20000000165E+02 0.  0.
         12    1    1    2    0    0  0.20122154306E+02 -0.29996546481E+02 -0.24060951271E+02  0.43400728919E+02  0.00000000000E+00 0. -1.
         11    1    3    3    0    0 -0.69003638329E+00  0.52048212078E+01  0.20227980808E+01  0.56265465743E+01  0.51100000000E-03 0. -1.
        -11    1    3    3    0    0 -0.34681517011E+01 -0.50725475217E+00 -0.17716147787E+01  0.39273404220E+01  0.51100000000E-03 0.  1.
        -12    1    3    3    0    0 -0.15963966221E+02  0.25298980025E+02  0.23809767968E+02  0.38233384084E+02  0.00000000000E+00 0.  1.
</event>
<event>
 7    1  0.2580704E-010  0.4778727E+02  0.7816164E-02  0.1312668E+00
        -11   -1    0    0    0    0  0.00000000000E+00  0.00000000000E+00  0.45593999997E+02  0.45594000000E+02  0.51100000000E-03 0. -1.
         11   -1    0    0    0    0 -0.00000000000E+00 -0.00000000000E+00 -0.45593999997E+02  0.45594000000E+02  0.51100000000E-03 0.  1.
    9900012    2    1    2    0    0 -0.16053182081E+02 -0.34590889606E+02  0.20721694859E+02  0.47787274931E+02  0.20000017720E+02 0.  0.
         12    1    1    2    0    0  0.16053182081E+02  0.34590889606E+02 -0.20721694859E+02  0.43400725069E+02  0.00000000000E+00 0. -1.
         11    1    3    3    0    0 -0.69809851584E+01 -0.12012370201E+02  0.12564203654E+02  0.18732068902E+02  0.51100000000E-03 0. -1.
        -11    1    3    3    0    0 -0.12228200060E+02 -0.19676106879E+02  0.86730795247E+01  0.24736619965E+02  0.51100000000E-03 0.  1.
        -12    1    3    3    0    0  0.31560031371E+01 -0.29024125267E+01 -0.51558831934E+00  0.43185860639E+01  0.00000000000E+00 0.  1.
</event>
<event>
 7    1  0.2580704E-010  0.4778729E+02  0.7816164E-02  0.1312668E+00
        -11   -1    0    0    0    0  0.00000000000E+00  0.00000000000E+00  0.45593999997E+02  0.45594000000E+02  0.51100000000E-03 0.  1.
         11   -1    0    0    0    0 -0.00000000000E+00 -0.00000000000E+00 -0.45593999997E+02  0.45594000000E+02  0.51100000000E-03 0. -1.
    9900012    2    1    2    0    0 -0.42559005069E+02  0.85055485004E+01 -0.93171153346E-01  0.47787286312E+02  0.20000069610E+02 0.  0.
         12    1    1    2    0    0  0.42559005069E+02 -0.85055485004E+01  0.93171153346E-01  0.43400713688E+02  0.00000000000E+00 0. -1.
         11    1    3    3    0    0 -0.82550868567E+01  0.31395881587E+01  0.49412962722E+01  0.10120270843E+02  0.51100000000E-03 0. -1.
        -11    1    3    3    0    0 -0.20378610854E+02  0.36362152745E+01 -0.97255894294E+01  0.22871312422E+02  0.51100000000E-03 0.  1.
         12    1    3    3    0    0 -0.13925307358E+02  0.17297450671E+01  0.46911220039E+01  0.14795703047E+02  0.00000000000E+00 0. -1.
</event>
<event>
 7    1  0.2580704E-010  0.4778727E+02  0.7816164E-02  0.1312668E+00
        -11   -1    0    0    0    0  0.00000000000E+00  0.00000000000E+00  0.45593999997E+02  0.45594000000E+02  0.51100000000E-03 0.  1.
         11   -1    0    0    0    0 -0.00000000000E+00 -0.00000000000E+00 -0.45593999997E+02  0.45594000000E+02  0.51100000000E-03 0. -1.
    9900012    2    1    2    0    0  0.16509377533E+00 -0.39148528634E+02  0.18734689431E+02  0.47787272607E+02  0.20000007125E+02 0.  0.
         12    1    1    2    0    0 -0.16509377533E+00  0.39148528634E+02 -0.18734689431E+02  0.43400727393E+02  0.00000000000E+00 0. -1.
         11    1    3    3    0    0  0.53704426836E+01 -0.28804831754E+02  0.16027782045E+02  0.33398350027E+02  0.51100000000E-03 0. -1.
        -11    1    3    3    0    0  0.15955335993E+01 -0.10484896975E+01  0.21250543952E+01  0.28567314463E+01  0.51100000000E-03 0.  1.
         12    1    3    3    0    0 -0.68008825076E+01 -0.92952071819E+01  0.58185299074E+00  0.11532191133E+02  0.00000000000E+00 0. -1.
</event>
<event>
 7    1  0.2580704E-010  0.4778728E+02  0.7816164E-02  0.1312668E+00
        -11   -1    0    0    0    0  0.00000000000E+00  0.00000000000E+00  0.45593999997E+02  0.45594000000E+02  0.51100000000E-03 0.  1.
         11   -1    0    0    0    0 -0.00000000000E+00 -0.00000000000E+00 -0.45593999997E+02  0.45594000000E+02  0.51100000000E-03 0. -1.
    9900012    2    1    2    0    0  0.72281351960E+01 -0.29767721945E+02  0.30745075586E+02  0.47787275570E+02  0.20000020635E+02 0.  0.
         12    1    1    2    0    0 -0.72281351960E+01  0.29767721945E+02 -0.30745075586E+02  0.43400724430E+02  0.00000000000E+00 0. -1.
         11    1    3    3    0    0  0.57343332287E+01 -0.68264942783E+01  0.34206998997E+01  0.95490727180E+01  0.51100000000E-03 0. -1.
        -11    1    3    3    0    0  0.26280043329E+01 -0.19769958140E+02  0.13681019153E+02  0.24185283479E+02  0.51100000000E-03 0.  1.
         12    1    3    3    0    0 -0.11342023656E+01 -0.31712695274E+01  0.13643356534E+02  0.14052919374E+02  0.00000000000E+00 0. -1.
</event>
<event>
 7    1  0.2580704E-010  0.4778727E+02  0.7816164E-02  0.1312668E+00
        -11   -1    0    0    0    0  0.00000000000E+00  0.00000000000E+00  0.45593999997E+02  0.45594000000E+02  0.51100000000E-03 0. -1.
         11   -1    0    0    0    0 -0.00000000000E+00 -0.00000000000E+00 -0.45593999997E+02  0.45594000000E+02  0.51100000000E-03 0.  1.
    9900012    2    1    2    0    0 -0.33830215386E+02  0.11366115514E+02 -0.24697194883E+02  0.47787268554E+02  0.19999988647E+02 0.  0.
         12    1    1    2    0    0  0.33830215386E+02 -0.11366115514E+02  0.24697194883E+02  0.43400731446E+02  0.00000000000E+00 0. -1.
         11    1    3    3    0    0 -0.11469352032E+01 -0.43942988207E+00  0.28732647263E+00  0.12613943652E+01  0.51100000000E-03 0. -1.
        -11    1    3    3    0    0 -0.22521722868E+02  0.12832737552E+02 -0.87733635930E+01  0.27365654807E+02  0.51100000000E-03 0.  1.
         12    1    3    3    0    0 -0.10161557315E+02 -0.10271921555E+01 -0.16211157762E+02  0.19160219382E+02  0.00000000000E+00 0. -1.
</event>
<event>
 7    1  0.2580704E-010  0.4778727E+02  0.7816164E-02  0.1312668E+00
        -11   -1    0    0    0    0  0.00000000000E+00  0.00000000000E+00  0.45593999997E+02  0.45594000000E+02  0.51100000000E-03 0. -1.
         11   -1    0    0    0    0 -0.00000000000E+00 -0.00000000000E+00 -0.45593999997E+02  0.45594000000E+02  0.51100000000E-03 0.  1.
    9900012    2    1    2    0    0  0.40042135210E+02 -0.80490785459E+01  0.14678656120E+02  0.47787271860E+02  0.20000003716E+02 0.  0.
         12    1    1    2    0    0 -0.40042135210E+02  0.80490785459E+01 -0.14678656120E+02  0.43400728140E+02  0.00000000000E+00 0. -1.
         11    1    3    3    0    0  0.95465594077E+01 -0.76847267029E+01  0.40822441982E+01  0.12917296117E+02  0.51100000000E-03 0. -1.
        -11    1    3    3    0    0  0.64387922617E+01 -0.39189459059E+01  0.70014971969E+01  0.10287718215E+02  0.51100000000E-03 0.  1.
        -12    1    3    3    0    0  0.24056783541E+02  0.35545940629E+01  0.35949147245E+01  0.24582257528E+02  0.00000000000E+00 0.  1.
</event>
<event>
 7    1  0.2835662E-010  0.4778727E+02  0.7816164E-02  0.1312668E+00
        -11   -1    0    0    0    0  0.00000000000E+00  0.00000000000E+00  0.45593999997E+02  0.45594000000E+02  0.51100000000E-03 0. -1.
         11   -1    0    0    0    0 -0.00000000000E+00 -0.00000000000E+00 -0.45593999997E+02  0.45594000000E+02  0.51100000000E-03 0.  1.
    9900012    2    1    2    0    0 -0.55515901917E+01 -0.21072069376E+01 -0.42992590865E+02  0.47787270236E+02  0.19999996315E+02 0.  0.
         12    1    1    2    0    0  0.55515901917E+01  0.21072069376E+01  0.42992590865E+02  0.43400729764E+02  0.00000000000E+00 0. -1.
         11    1    3    3    0    0  0.38780646237E+01 -0.33835047716E+01 -0.50139972291E+01  0.71852389132E+01  0.51100000000E-03 0. -1.
        -11    1    3    3    0    0 -0.48282328380E+01 -0.24558217508E+01 -0.60177106666E+01  0.80966495995E+01  0.51100000000E-03 0.  1.
        -12    1    3    3    0    0 -0.46014219775E+01  0.37321195847E+01 -0.31960882969E+02  0.32505381723E+02  0.00000000000E+00 0.  1.
</event>
<event>
 7    1  0.2580704E-010  0.4778727E+02  0.7816164E-02  0.1312668E+00
        -11   -1    0    0    0    0  0.00000000000E+00  0.00000000000E+00  0.45593999997E+02  0.45594000000E+02  0.51100000000E-03 0.  1.
         11   -1    0    0    0    0 -0.00000000000E+00 -0.00000000000E+00 -0.45593999997E+02  0.45594000000E+02  0.51100000000E-03 0. -1.
    9900012    2    1    2    0    0  0.32413128717E+02  0.16716376814E+02  0.23528180488E+02  0.47787269084E+02  0.19999991061E+02 0.  0.
         12    1    1    2    0    0 -0.32413128717E+02 -0.16716376814E+02 -0.23528180488E+02  0.43400730916E+02  0.00000000000E+00 0. -1.
         11    1    3    3    0    0  0.15586235228E+02  0.10523686136E+02  0.54575601270E+01  0.19582228200E+02  0.51100000000E-03 0.  1.
        -11    1    3    3    0    0 -0.20335999547E+00  0.39238134488E-02 -0.15118059119E+01  0.15254271731E+01  0.51100000000E-03 0. -1.
         12    1    3    3    0    0  0.17030253484E+02  0.61887668646E+01  0.19582426272E+02  0.26679613711E+02  0.00000000000E+00 0. -1.
</event>
<event>
 7    1  0.2580704E-010  0.4778727E+02  0.7816164E-02  0.1312668E+00
        -11   -1    0    0    0    0  0.00000000000E+00  0.00000000000E+00  0.45593999997E+02  0.45594000000E+02  0.51100000000E-03 0.  1.
         11   -1    0    0    0    0 -0.00000000000E+00 -0.00000000000E+00 -0.45593999997E+02  0.45594000000E+02  0.51100000000E-03 0. -1.
    9900012    2    1    2    0    0 -0.32711886704E+02 -0.11620865593E+02  0.26048247281E+02  0.47787271489E+02  0.20000002025E+02 0.  0.
         12    1    1    2    0    0  0.32711886704E+02  0.11620865593E+02 -0.26048247281E+02  0.43400728511E+02  0.00000000000E+00 0. -1.
         11    1    3    3    0    0 -0.12676784389E+02 -0.59657824189E+01  0.52904382808E+01  0.14975986103E+02  0.51100000000E-03 0. -1.
        -11    1    3    3    0    0 -0.19143818703E+02 -0.94229595638E+01  0.15958755780E+02  0.26645071735E+02  0.51100000000E-03 0.  1.
         12    1    3    3    0    0 -0.89128361296E+00  0.37678763894E+01  0.47990532203E+01  0.61662136498E+01  0.00000000000E+00 0. -1.
</event>
<event>
 7    1  0.2580704E-010  0.4778727E+02  0.7816164E-02  0.1312668E+00
        -11   -1    0    0    0    0  0.00000000000E+00  0.00000000000E+00  0.45593999997E+02  0.45594000000E+02  0.51100000000E-03 0. -1.
         11   -1    0    0    0    0 -0.00000000000E+00 -0.00000000000E+00 -0.45593999997E+02  0.45594000000E+02  0.51100000000E-03 0.  1.
    9900012    2    1    2    0    0 -0.13037705724E+02 -0.37463913600E+02 -0.17609571662E+02  0.47787267208E+02  0.19999982507E+02 0.  0.
         12    1    1    2    0    0  0.13037705724E+02  0.37463913600E+02  0.17609571662E+02  0.43400732792E+02  0.00000000000E+00 0. -1.
         11    1    3    3    0    0 -0.79609056437E+01 -0.11293838444E+02 -0.98774395121E+01  0.16985011541E+02  0.51100000000E-03 0. -1.
        -11    1    3    3    0    0 -0.83469810310E+01 -0.24451124444E+02 -0.81322451661E+01  0.27086214032E+02  0.51100000000E-03 0.  1.
         12    1    3    3    0    0  0.32701809511E+01 -0.17189507129E+01  0.40011301661E+00  0.37160416349E+01  0.00000000000E+00 0. -1.
</event>
<event>
 7    1  0.2580704E-010  0.4778727E+02  0.7816164E-02  0.1312668E+00
        -11   -1    0    0    0    0  0.00000000000E+00  0.00000000000E+00  0.45593999997E+02  0.45594000000E+02  0.51100000000E-03 0.  1.
         11   -1    0    0    0    0 -0.00000000000E+00 -0.00000000000E+00 -0.45593999997E+02  0.45594000000E+02  0.51100000000E-03 0. -1.
    9900012    2    1    2    0    0 -0.76423800581E+01 -0.38311675014E+01  0.42550435423E+02  0.47787269914E+02  0.19999994845E+02 0.  0.
         12    1    1    2    0    0  0.76423800581E+01  0.38311675014E+01 -0.42550435423E+02  0.43400730086E+02  0.00000000000E+00 0. -1.
         11    1    3    3    0    0 -0.14074725427E+01 -0.22603524115E+00  0.17328604454E+00  0.14360011153E+01  0.51100000000E-03 0. -1.
        -11    1    3    3    0    0 -0.86632025526E+01 -0.71239796356E+01  0.39820049165E+02  0.41369535653E+02  0.51100000000E-03 0.  1.
         12    1    3    3    0    0  0.24282950372E+01  0.35188473754E+01  0.25571002126E+01  0.49817331458E+01  0.00000000000E+00 0. -1.
</event>
<event>
 7    1  0.2580704E-010  0.4778727E+02  0.7816164E-02  0.1312668E+00
        -11   -1    0    0    0    0  0.00000000000E+00  0.00000000000E+00  0.45593999997E+02  0.45594000000E+02  0.51100000000E-03 0.  1.
         11   -1    0    0    0    0 -0.00000000000E+00 -0.00000000000E+00 -0.45593999997E+02  0.45594000000E+02  0.51100000000E-03 0. -1.
    9900012    2    1    2    0    0  0.26089678819E+02  0.30770254906E+01  0.34546837268E+02  0.47787269684E+02  0.19999993797E+02 0.  0.
         12    1    1    2    0    0 -0.26089678819E+02 -0.30770254906E+01 -0.34546837268E+02  0.43400730316E+02  0.00000000000E+00 0. -1.
         11    1    3    3    0    0  0.90029192428E+01 -0.39161150710E+01  0.83137759734E+01  0.12864967289E+02  0.51100000000E-03 0. -1.
        -11    1    3    3    0    0  0.16915959551E+02  0.89211217504E+00  0.19712605956E+02  0.25991005858E+02  0.51100000000E-03 0.  1.
         12    1    3    3    0    0  0.17080002539E+00  0.61010283866E+01  0.65204553382E+01  0.89312965375E+01  0.00000000000E+00 0. -1.
</event>
<event>
 7    1  0.2580704E-010  0.4778727E+02  0.7816164E-02  0.1312668E+00
        -11   -1    0    0    0    0  0.00000000000E+00  0.00000000000E+00  0.45593999997E+02  0.45594000000E+02  0.51100000000E-03 0. -1.
         11   -1    0    0    0    0 -0.00000000000E+00 -0.00000000000E+00 -0.45593999997E+02  0.45594000000E+02  0.51100000000E-03 0.  1.
    9900012    2    1    2    0    0 -0.16916225347E+01  0.39835854671E+02 -0.17142541485E+02  0.47787266911E+02  0.19999981152E+02 0.  0.
         12    1    1    2    0    0  0.16916225347E+01 -0.39835854671E+02  0.17142541485E+02  0.43400733089E+02  0.00000000000E+00 0. -1.
         11    1    3    3    0    0 -0.29657542456E+01  0.22014685937E+01 -0.24983993633E+01  0.44591660491E+01  0.51100000000E-03 0. -1.
        -11    1    3    3    0    0 -0.64419985255E+01  0.15571286868E+02 -0.96787820142E+01  0.19433042512E+02  0.51100000000E-03 0.  1.
         12    1    3    3    0    0  0.77161302364E+01  0.22063099209E+02 -0.49653601075E+01  0.23895058349E+02  0.00000000000E+00 0. -1.
</event>
<event>
 7    1  0.2580704E-010  0.4778727E+02  0.7816164E-02  0.1312668E+00
        -11   -1    0    0    0    0  0.00000000000E+00  0.00000000000E+00  0.45593999997E+02  0.45594000000E+02  0.51100000000E-03 0.  1.
         11   -1    0    0    0    0 -0.00000000000E+00 -0.00000000000E+00 -0.45593999997E+02  0.45594000000E+02  0.51100000000E-03 0. -1.
    9900012    2    1    2    0    0  0.41695977851E+02 -0.69088068509E+01  0.98659576555E+01  0.47787270726E+02  0.19999998546E+02 0.  0.
         12    1    1    2    0    0 -0.41695977851E+02  0.69088068509E+01 -0.98659576555E+01  0.43400729274E+02  0.00000000000E+00 0. -1.
         11    1    3    3    0    0  0.26401260132E+02 -0.83610734066E+01 -0.22047855758E+01  0.27781201644E+02  0.51100000000E-03 0. -1.
        -11    1    3    3    0    0  0.42830138882E+01 -0.35406476339E+00  0.57591095748E+01  0.71858829088E+01  0.51100000000E-03 0.  1.
        -12    1    3    3    0    0  0.11011703831E+02  0.18063313191E+01  0.63116336566E+01  0.12820186173E+02  0.00000000000E+00 0.  1.
</event>
<event>
 7    1  0.2580704E-010  0.4778727E+02  0.7816164E-02  0.1312668E+00
        -11   -1    0    0    0    0  0.00000000000E+00  0.00000000000E+00  0.45593999997E+02  0.45594000000E+02  0.51100000000E-03 0.  1.
         11   -1    0    0    0    0 -0.00000000000E+00 -0.00000000000E+00 -0.45593999997E+02  0.45594000000E+02  0.51100000000E-03 0. -1.
    9900012    2    1    2    0    0 -0.15739241916E+02 -0.27968292681E+02  0.29217704158E+02  0.47787269962E+02  0.19999995063E+02 0.  0.
         12    1    1    2    0    0  0.15739241916E+02  0.27968292681E+02 -0.29217704158E+02  0.43400730038E+02  0.00000000000E+00 0. -1.
         11    1    3    3    0    0 -0.31694686339E+01 -0.35288459297E+01  0.10525189853E+02  0.11544605091E+02  0.51100000000E-03 0. -1.
        -11    1    3    3    0    0 -0.48234693812E+01 -0.19625286448E+02  0.18055334940E+02  0.27100052492E+02  0.51100000000E-03 0.  1.
        -12    1    3    3    0    0 -0.77463039012E+01 -0.48141603035E+01  0.63717936612E+00  0.91426123784E+01  0.00000000000E+00 0.  1.
</event>
<event>
 7    1  0.2580704E-010  0.4778727E+02  0.7816164E-02  0.1312668E+00
        -11   -1    0    0    0    0  0.00000000000E+00  0.00000000000E+00  0.45593999997E+02  0.45594000000E+02  0.51100000000E-03 0.  1.
         11   -1    0    0    0    0 -0.00000000000E+00 -0.00000000000E+00 -0.45593999997E+02  0.45594000000E+02  0.51100000000E-03 0. -1.
    9900012    2    1    2    0    0 -0.33795803313E+02 -0.22689441750E+02 -0.15055109058E+02  0.47787269623E+02  0.19999993518E+02 0.  0.
         12    1    1    2    0    0  0.33795803313E+02  0.22689441750E+02  0.15055109058E+02  0.43400730377E+02  0.00000000000E+00 0. -1.
         11    1    3    3    0    0 -0.17756825424E+01  0.96019530869E+00  0.11616931648E+01  0.23290673654E+01  0.51100000000E-03 0. -1.
        -11    1    3    3    0    0 -0.12746070530E+01 -0.25755423304E+00 -0.50924754227E+01  0.52558789479E+01  0.51100000000E-03 0.  1.
        -12    1    3    3    0    0 -0.30745513718E+02 -0.23392082826E+02 -0.11124326800E+02  0.40202323309E+02  0.00000000000E+00 0.  1.
</event>
<event>
 7    1  0.2580704E-010  0.4778727E+02  0.7816164E-02  0.1312668E+00
        -11   -1    0    0    0    0  0.00000000000E+00  0.00000000000E+00  0.45593999997E+02  0.45594000000E+02  0.51100000000E-03 0.  1.
         11   -1    0    0    0    0 -0.00000000000E+00 -0.00000000000E+00 -0.45593999997E+02  0.45594000000E+02  0.51100000000E-03 0. -1.
    9900012    2    1    2    0    0 -0.26334174884E+00 -0.12081581172E+02  0.41684401111E+02  0.47787271337E+02  0.20000001333E+02 0.  0.
         12    1    1    2    0    0  0.26334174884E+00  0.12081581172E+02 -0.41684401111E+02  0.43400728663E+02  0.00000000000E+00 0. -1.
         11    1    3    3    0    0  0.48864835536E+01 -0.85837036866E+01  0.70561137539E+01  0.12138633863E+02  0.51100000000E-03 0. -1.
        -11    1    3    3    0    0 -0.78419337541E+00 -0.35218991466E+01  0.98798235398E+01  0.10518062858E+02  0.51100000000E-03 0.  1.
        -12    1    3    3    0    0 -0.43656319270E+01  0.24021661056E-01  0.24748463818E+02  0.25130574615E+02  0.00000000000E+00 0.  1.
</event>
<event>
 7    1  0.2580704E-010  0.4778726E+02  0.7816164E-02  0.1312668E+00
        -11   -1    0    0    0    0  0.00000000000E+00  0.00000000000E+00  0.45593999997E+02  0.45594000000E+02  0.51100000000E-03 0. -1.
         11   -1    0    0    0    0 -0.00000000000E+00 -0.00000000000E+00 -0.45593999997E+02  0.45594000000E+02  0.51100000000E-03 0.  1.
    9900012    2    1    2    0    0  0.17065010276E+02  0.36958336776E+02 -0.15049609304E+02  0.47787262988E+02  0.19999963266E+02 0.  0.
         12    1    1    2    0    0 -0.17065010276E+02 -0.36958336776E+02  0.15049609304E+02  0.43400737012E+02  0.00000000000E+00 0. -1.
         11    1    3    3    0    0 -0.17368775240E+01  0.95021513221E+00 -0.28927901597E+01  0.35054083214E+01  0.51100000000E-03 0. -1.
        -11    1    3    3    0    0 -0.18734881649E+01  0.29506290379E+01 -0.18376485690E+01  0.39488127517E+01  0.51100000000E-03 0.  1.
        -12    1    3    3    0    0  0.20675375965E+02  0.33057492606E+02 -0.10319170575E+02  0.40333041915E+02  0.00000000000E+00 0.  1.
</event>
<event>
 7    1  0.2580704E-010  0.4778727E+02  0.7816164E-02  0.1312668E+00
        -11   -1    0    0    0    0  0.00000000000E+00  0.00000000000E+00  0.45593999997E+02  0.45594000000E+02  0.51100000000E-03 0.  1.
         11   -1    0    0    0    0 -0.00000000000E+00 -0.00000000000E+00 -0.45593999997E+02  0.45594000000E+02  0.51100000000E-03 0. -1.
    9900012    2    1    2    0    0  0.29385516912E+02 -0.79578184974E+01  0.30931994292E+02  0.47787265556E+02  0.19999974975E+02 0.  0.
         12    1    1    2    0    0 -0.29385516912E+02  0.79578184974E+01 -0.30931994292E+02  0.43400734444E+02  0.00000000000E+00 0. -1.
         11    1    3    3    0    0  0.24983279854E+01 -0.56572954696E+01  0.26965158270E+01  0.67466904938E+01  0.51100000000E-03 0. -1.
        -11    1    3    3    0    0  0.12660774523E+02 -0.66804574971E+01  0.17893791413E+02  0.22915311372E+02  0.51100000000E-03 0.  1.
         12    1    3    3    0    0  0.14226414404E+02  0.43799344693E+01  0.10341687052E+02  0.18125263690E+02  0.00000000000E+00 0. -1.
</event>
<event>
 7    1  0.2580704E-010  0.4778727E+02  0.7816164E-02  0.1312668E+00
        -11   -1    0    0    0    0  0.00000000000E+00  0.00000000000E+00  0.45593999997E+02  0.45594000000E+02  0.51100000000E-03 0.  1.
         11   -1    0    0    0    0 -0.00000000000E+00 -0.00000000000E+00 -0.45593999997E+02  0.45594000000E+02  0.51100000000E-03 0. -1.
    9900012    2    1    2    0    0  0.36966584757E+01 -0.40586120322E+02  0.14923966410E+02  0.47787271664E+02  0.20000002824E+02 0.  0.
         12    1    1    2    0    0 -0.36966584757E+01  0.40586120322E+02 -0.14923966410E+02  0.43400728336E+02  0.00000000000E+00 0. -1.
         11    1    3    3    0    0  0.63225066675E+01 -0.26718016332E+02  0.80727391334E+01  0.28618099249E+02  0.51100000000E-03 0.  1.
        -11    1    3    3    0    0 -0.84577899325E+00 -0.12828586706E+02  0.91927603339E+00  0.12889260943E+02  0.51100000000E-03 0. -1.
        -12    1    3    3    0    0 -0.17800691985E+01 -0.10395172848E+01  0.59319512431E+01  0.62799114713E+01  0.00000000000E+00 0.  1.
</event>
<event>
 7    1  0.2580704E-010  0.4778726E+02  0.7816164E-02  0.1312668E+00
        -11   -1    0    0    0    0  0.00000000000E+00  0.00000000000E+00  0.45593999997E+02  0.45594000000E+02  0.51100000000E-03 0. -1.
         11   -1    0    0    0    0 -0.00000000000E+00 -0.00000000000E+00 -0.45593999997E+02  0.45594000000E+02  0.51100000000E-03 0.  1.
    9900012    2    1    2    0    0 -0.32743882119E+02 -0.85366743610E+01 -0.27176960891E+02  0.47787264653E+02  0.19999970860E+02 0.  0.
         12    1    1    2    0    0  0.32743882119E+02  0.85366743610E+01  0.27176960891E+02  0.43400735347E+02  0.00000000000E+00 0. -1.
         11    1    3    3    0    0 -0.23628602317E+01  0.40330002675E+01 -0.61142778104E+00  0.47140262860E+01  0.51100000000E-03 0. -1.
        -11    1    3    3    0    0 -0.10695639072E+02 -0.57880654806E+01 -0.51565802461E+01  0.13209417748E+02  0.51100000000E-03 0.  1.
         12    1    3    3    0    0 -0.19685382816E+02 -0.67816091478E+01 -0.21408952864E+02  0.29863820619E+02  0.00000000000E+00 0. -1.
</event>
<event>
 7    1  0.2580704E-010  0.4778730E+02  0.7816164E-02  0.1312668E+00
        -11   -1    0    0    0    0  0.00000000000E+00  0.00000000000E+00  0.45593999997E+02  0.45594000000E+02  0.51100000000E-03 0. -1.
         11   -1    0    0    0    0 -0.00000000000E+00 -0.00000000000E+00 -0.45593999997E+02  0.45594000000E+02  0.51100000000E-03 0.  1.
    9900012    2    1    2    0    0 -0.87187746411E+01  0.42215993344E+02  0.50411997904E+01  0.47787299308E+02  0.20000128864E+02 0.  0.
         12    1    1    2    0    0  0.87187746411E+01 -0.42215993344E+02 -0.50411997904E+01  0.43400700692E+02  0.00000000000E+00 0. -1.
         11    1    3    3    0    0  0.31684923355E+00 -0.16068500587E+01  0.24008948504E+01  0.29063132817E+01  0.51100000000E-03 0. -1.
        -11    1    3    3    0    0 -0.32314984270E+01  0.11647735115E+02  0.10124821403E+00  0.12088116762E+02  0.51100000000E-03 0.  1.
         12    1    3    3    0    0 -0.58041254476E+01  0.32175108288E+02  0.25390567259E+01  0.32792869265E+02  0.00000000000E+00 0. -1.
</event>
<event>
 7    1  0.2580704E-010  0.4778727E+02  0.7816164E-02  0.1312668E+00
        -11   -1    0    0    0    0  0.00000000000E+00  0.00000000000E+00  0.45593999997E+02  0.45594000000E+02  0.51100000000E-03 0. -1.
         11   -1    0    0    0    0 -0.00000000000E+00 -0.00000000000E+00 -0.45593999997E+02  0.45594000000E+02  0.51100000000E-03 0.  1.
    9900012    2    1    2    0    0  0.38461348989E+02 -0.34164952180E+01 -0.19816040429E+02  0.47787271159E+02  0.20000000523E+02 0.  0.
         12    1    1    2    0    0 -0.38461348989E+02  0.34164952180E+01  0.19816040429E+02  0.43400728841E+02  0.00000000000E+00 0. -1.
         11    1    3    3    0    0  0.46346922535E+01 -0.85495401744E+00 -0.10276558548E+02  0.11305705396E+02  0.51100000000E-03 0. -1.
        -11    1    3    3    0    0  0.94405122698E+01  0.35002892832E+01 -0.32191987584E+01  0.10570645103E+02  0.51100000000E-03 0.  1.
         12    1    3    3    0    0  0.24386144466E+02 -0.60618304838E+01 -0.63202831234E+01  0.25910920660E+02  0.00000000000E+00 0. -1.
</event>
<event>
 7    1  0.2580704E-010  0.4778727E+02  0.7816164E-02  0.1312668E+00
        -11   -1    0    0    0    0  0.00000000000E+00  0.00000000000E+00  0.45593999997E+02  0.45594000000E+02  0.51100000000E-03 0.  1.
         11   -1    0    0    0    0 -0.00000000000E+00 -0.00000000000E+00 -0.45593999997E+02  0.45594000000E+02  0.51100000000E-03 0. -1.
    9900012    2    1    2    0    0  0.55818078226E+01 -0.16241408973E+01  0.43009634736E+02  0.47787273136E+02  0.20000009535E+02 0.  0.
         12    1    1    2    0    0 -0.55818078226E+01  0.16241408973E+01 -0.43009634736E+02  0.43400726864E+02  0.00000000000E+00 0. -1.
         11    1    3    3    0    0  0.46098177328E+01 -0.11067840666E+01  0.63290956522E+01  0.79077710220E+01  0.51100000000E-03 0. -1.
        -11    1    3    3    0    0  0.86946382706E-01 -0.19491273105E+01  0.37804946327E+02  0.37855258868E+02  0.51100000000E-03 0.  1.
        -12    1    3    3    0    0  0.88504370713E+00  0.14317704798E+01 -0.11244072429E+01  0.20242432458E+01  0.00000000000E+00 0.  1.
</event>
<event>
 7    1  0.2580704E-010  0.4778727E+02  0.7816164E-02  0.1312668E+00
        -11   -1    0    0    0    0  0.00000000000E+00  0.00000000000E+00  0.45593999997E+02  0.45594000000E+02  0.51100000000E-03 0.  1.
         11   -1    0    0    0    0 -0.00000000000E+00 -0.00000000000E+00 -0.45593999997E+02  0.45594000000E+02  0.51100000000E-03 0. -1.
    9900012    2    1    2    0    0  0.35648493438E+02  0.18936746316E+02  0.15943895556E+02  0.47787271308E+02  0.20000001204E+02 0.  0.
         12    1    1    2    0    0 -0.35648493438E+02 -0.18936746316E+02 -0.15943895556E+02  0.43400728692E+02  0.00000000000E+00 0. -1.
         11    1    3    3    0    0  0.14406156264E+02  0.77682481052E+01  0.69723080623E+01  0.17790337178E+02  0.51100000000E-03 0. -1.
        -11    1    3    3    0    0  0.15167287352E+02  0.15085084978E+02  0.69234286121E+01  0.22484222433E+02  0.51100000000E-03 0.  1.
         12    1    3    3    0    0  0.60750498219E+01 -0.39165867671E+01  0.20481588819E+01  0.75127116974E+01  0.00000000000E+00 0. -1.
</event>
<event>
 7    1  0.2580704E-010  0.4778729E+02  0.7816164E-02  0.1312668E+00
        -11   -1    0    0    0    0  0.00000000000E+00  0.00000000000E+00  0.45593999997E+02  0.45594000000E+02  0.51100000000E-03 0. -1.
         11   -1    0    0    0    0 -0.00000000000E+00 -0.00000000000E+00 -0.45593999997E+02  0.45594000000E+02  0.51100000000E-03 0.  1.
    9900012    2    1    2    0    0 -0.45719631169E+01  0.83509940120E+01 -0.42343592417E+02  0.47787288410E+02  0.20000079177E+02 0.  0.
         12    1    1    2    0    0  0.45719631169E+01 -0.83509940120E+01  0.42343592417E+02  0.43400711590E+02  0.00000000000E+00 0. -1.
         11    1    3    3    0    0 -0.35511964156E+01 -0.13531166428E+01 -0.80710311337E+01  0.89209564764E+01  0.51100000000E-03 0.  1.
        -11    1    3    3    0    0  0.23037549789E+01  0.14984195332E+01 -0.27709535447E+02  0.27845482633E+02  0.51100000000E-03 0. -1.
         12    1    3    3    0    0 -0.33245216802E+01  0.82056911216E+01 -0.65630258364E+01  0.11020849301E+02  0.00000000000E+00 0. -1.
</event>
<event>
 7    1  0.2580704E-010  0.4778727E+02  0.7816164E-02  0.1312668E+00
        -11   -1    0    0    0    0  0.00000000000E+00  0.00000000000E+00  0.45593999997E+02  0.45594000000E+02  0.51100000000E-03 0.  1.
         11   -1    0    0    0    0 -0.00000000000E+00 -0.00000000000E+00 -0.45593999997E+02  0.45594000000E+02  0.51100000000E-03 0. -1.
    9900012    2    1    2    0    0 -0.97299061060E+01 -0.26627492707E+02  0.32862270074E+02  0.47787271491E+02  0.20000002037E+02 0.  0.
         12    1    1    2    0    0  0.97299061060E+01  0.26627492707E+02 -0.32862270074E+02  0.43400728509E+02  0.00000000000E+00 0. -1.
         11    1    3    3    0    0  0.59116201273E+00  0.50235723947E+00  0.18707495463E+01  0.20252257769E+01  0.51100000000E-03 0. -1.
        -11    1    3    3    0    0 -0.91609075719E+01 -0.21523039985E+02  0.32308091436E+02  0.39887043639E+02  0.51100000000E-03 0.  1.
         12    1    3    3    0    0 -0.11601605468E+01 -0.56068099607E+01 -0.13165709083E+01  0.58750020754E+01  0.00000000000E+00 0. -1.
</event>
<event>
 7    1  0.2580704E-010  0.4778727E+02  0.7816164E-02  0.1312668E+00
        -11   -1    0    0    0    0  0.00000000000E+00  0.00000000000E+00  0.45593999997E+02  0.45594000000E+02  0.51100000000E-03 0.  1.
         11   -1    0    0    0    0 -0.00000000000E+00 -0.00000000000E+00 -0.45593999997E+02  0.45594000000E+02  0.51100000000E-03 0. -1.
    9900012    2    1    2    0    0 -0.12401597008E+02 -0.16733886338E+02  0.38076249867E+02  0.47787270003E+02  0.19999995252E+02 0.  0.
         12    1    1    2    0    0  0.12401597008E+02  0.16733886338E+02 -0.38076249867E+02  0.43400729997E+02  0.00000000000E+00 0. -1.
         11    1    3    3    0    0 -0.88030103831E+00 -0.50149758023E+00  0.36891424684E+01  0.38257289703E+01  0.51100000000E-03 0.  1.
        -11    1    3    3    0    0  0.41782132280E+00 -0.69498527809E+01  0.65335896535E+00  0.69929898136E+01  0.51100000000E-03 0. -1.
         12    1    3    3    0    0 -0.11939117293E+02 -0.92825359766E+01  0.33733748433E+02  0.36968551219E+02  0.00000000000E+00 0. -1.
</event>
<event>
 7    1  0.2580704E-010  0.4778727E+02  0.7816164E-02  0.1312668E+00
        -11   -1    0    0    0    0  0.00000000000E+00  0.00000000000E+00  0.45593999997E+02  0.45594000000E+02  0.51100000000E-03 0.  1.
         11   -1    0    0    0    0 -0.00000000000E+00 -0.00000000000E+00 -0.45593999997E+02  0.45594000000E+02  0.51100000000E-03 0. -1.
    9900012    2    1    2    0    0 -0.16660401448E+02  0.28169158297E+02  0.28505311197E+02  0.47787271642E+02  0.20000002726E+02 0.  0.
         12    1    1    2    0    0  0.16660401448E+02 -0.28169158297E+02 -0.28505311197E+02  0.43400728358E+02  0.00000000000E+00 0. -1.
         11    1    3    3    0    0 -0.19507372103E-01 -0.27169886417E+00 -0.51067396048E+00  0.57878231261E+00  0.51100000000E-03 0. -1.
        -11    1    3    3    0    0 -0.62490353939E+01  0.22473758290E+02  0.25840555358E+02  0.34811701431E+02  0.51100000000E-03 0.  1.
        -12    1    3    3    0    0 -0.10391858682E+02  0.59670988706E+01  0.31754297995E+01  0.12396787899E+02  0.00000000000E+00 0.  1.
</event>
<event>
 7    1  0.2580704E-010  0.4778728E+02  0.7816164E-02  0.1312668E+00
        -11   -1    0    0    0    0  0.00000000000E+00  0.00000000000E+00  0.45593999997E+02  0.45594000000E+02  0.51100000000E-03 0.  1.
         11   -1    0    0    0    0 -0.00000000000E+00 -0.00000000000E+00 -0.45593999997E+02  0.45594000000E+02  0.51100000000E-03 0. -1.
    9900012    2    1    2    0    0 -0.32008336862E+01  0.36602174534E+02  0.23101046458E+02  0.47787275763E+02  0.20000021512E+02 0.  0.
         12    1    1    2    0    0  0.32008336862E+01 -0.36602174534E+02 -0.23101046458E+02  0.43400724237E+02  0.00000000000E+00 0. -1.
         11    1    3    3    0    0  0.29239828587E+01  0.15854018812E+02  0.15825463023E+02  0.22590813806E+02  0.51100000000E-03 0. -1.
        -11    1    3    3    0    0  0.17568160055E-01  0.15299501842E+02  0.73768228686E+01  0.16985069360E+02  0.51100000000E-03 0.  1.
        -12    1    3    3    0    0 -0.61423847050E+01  0.54486538791E+01 -0.10123943386E+00  0.82113925969E+01  0.00000000000E+00 0.  1.
</event>
<event>
 7    1  0.2580704E-010  0.4778726E+02  0.7816164E-02  0.1312668E+00
        -11   -1    0    0    0    0  0.00000000000E+00  0.00000000000E+00  0.45593999997E+02  0.45594000000E+02  0.51100000000E-03 0.  1.
         11   -1    0    0    0    0 -0.00000000000E+00 -0.00000000000E+00 -0.45593999997E+02  0.45594000000E+02  0.51100000000E-03 0. -1.
    9900012    2    1    2    0    0  0.39682105020E+02  0.56865599073E+01  0.16631819724E+02  0.47787264411E+02  0.19999969754E+02 0.  0.
         12    1    1    2    0    0 -0.39682105020E+02 -0.56865599073E+01 -0.16631819724E+02  0.43400735589E+02  0.00000000000E+00 0. -1.
         11    1    3    3    0    0  0.10211593501E+02  0.11635031080E+01 -0.23182497817E+01  0.10535875077E+02  0.51100000000E-03 0. -1.
        -11    1    3    3    0    0  0.18853180971E+02 -0.83220353626E+00  0.63139109776E+01  0.19899760489E+02  0.51100000000E-03 0.  1.
         12    1    3    3    0    0  0.10617330548E+02  0.53552603356E+01  0.12636158528E+02  0.17351628845E+02  0.00000000000E+00 0. -1.
</event>
<event>
 7    1  0.2580704E-010  0.4778727E+02  0.7816164E-02  0.1312668E+00
        -11   -1    0    0    0    0  0.00000000000E+00  0.00000000000E+00  0.45593999997E+02  0.45594000000E+02  0.51100000000E-03 0.  1.
         11   -1    0    0    0    0 -0.00000000000E+00 -0.00000000000E+00 -0.45593999997E+02  0.45594000000E+02  0.51100000000E-03 0. -1.
    9900012    2    1    2    0    0  0.55451307537E+01  0.24577061669E+02  0.35338970706E+02  0.47787270906E+02  0.19999999368E+02 0.  0.
         12    1    1    2    0    0 -0.55451307537E+01 -0.24577061669E+02 -0.35338970706E+02  0.43400729094E+02  0.00000000000E+00 0. -1.
         11    1    3    3    0    0  0.82521539035E+00  0.27360310395E+01 -0.12682147672E+01  0.31265340629E+01  0.51100000000E-03 0. -1.
        -11    1    3    3    0    0  0.68120011073E+01  0.78872977368E+01  0.95029790731E+01  0.14103880182E+02  0.51100000000E-03 0.  1.
         12    1    3    3    0    0 -0.20920857440E+01  0.13953732893E+02  0.27104206400E+02  0.30556856661E+02  0.00000000000E+00 0. -1.
</event>
<event>
 7    1  0.2580704E-010  0.4778727E+02  0.7816164E-02  0.1312668E+00
        -11   -1    0    0    0    0  0.00000000000E+00  0.00000000000E+00  0.45593999997E+02  0.45594000000E+02  0.51100000000E-03 0. -1.
         11   -1    0    0    0    0 -0.00000000000E+00 -0.00000000000E+00 -0.45593999997E+02  0.45594000000E+02  0.51100000000E-03 0.  1.
    9900012    2    1    2    0    0 -0.39748307418E+02  0.17008252413E+02 -0.37966493917E+01  0.47787272595E+02  0.20000007068E+02 0.  0.
         12    1    1    2    0    0  0.39748307418E+02 -0.17008252413E+02  0.37966493917E+01  0.43400727405E+02  0.00000000000E+00 0. -1.
         11    1    3    3    0    0 -0.17428451693E+02  0.24561882328E+01  0.57431260509E+01  0.18513975428E+02  0.51100000000E-03 0. -1.
        -11    1    3    3    0    0 -0.10626876454E+02  0.35272465592E+01 -0.14791107927E+01  0.11294234833E+02  0.51100000000E-03 0.  1.
         12    1    3    3    0    0 -0.11692979270E+02  0.11024817621E+02 -0.80606646498E+01  0.17979062333E+02  0.00000000000E+00 0. -1.
</event>
<event>
 7    1  0.2580704E-010  0.4778727E+02  0.7816164E-02  0.1312668E+00
        -11   -1    0    0    0    0  0.00000000000E+00  0.00000000000E+00  0.45593999997E+02  0.45594000000E+02  0.51100000000E-03 0. -1.
         11   -1    0    0    0    0 -0.00000000000E+00 -0.00000000000E+00 -0.45593999997E+02  0.45594000000E+02  0.51100000000E-03 0.  1.
    9900012    2    1    2    0    0 -0.33442908644E+02  0.11781001559E+02 -0.25028051543E+02  0.47787268435E+02  0.19999988104E+02 0.  0.
         12    1    1    2    0    0  0.33442908644E+02 -0.11781001559E+02  0.25028051543E+02  0.43400731565E+02  0.00000000000E+00 0. -1.
         11    1    3    3    0    0 -0.31684965532E+01 -0.16765399968E+01 -0.46684073804E+01  0.58859310647E+01  0.51100000000E-03 0.  1.
        -11    1    3    3    0    0 -0.12909762220E+02  0.33482558423E+01 -0.57141085778E-01  0.13337017775E+02  0.51100000000E-03 0. -1.
        -12    1    3    3    0    0 -0.17364649871E+02  0.10109285713E+02 -0.20302503077E+02  0.28564319595E+02  0.00000000000E+00 0.  1.
</event>
<event>
 7    1  0.2580704E-010  0.4778727E+02  0.7816164E-02  0.1312668E+00
        -11   -1    0    0    0    0  0.00000000000E+00  0.00000000000E+00  0.45593999997E+02  0.45594000000E+02  0.51100000000E-03 0.  1.
         11   -1    0    0    0    0 -0.00000000000E+00 -0.00000000000E+00 -0.45593999997E+02  0.45594000000E+02  0.51100000000E-03 0. -1.
    9900012    2    1    2    0    0 -0.13807448704E+02  0.40593878153E+02 -0.67167310759E+01  0.47787273513E+02  0.20000011256E+02 0.  0.
         12    1    1    2    0    0  0.13807448704E+02 -0.40593878153E+02  0.67167310759E+01  0.43400726487E+02  0.00000000000E+00 0. -1.
         11    1    3    3    0    0 -0.91008076241E+01  0.18097389349E+02 -0.40704149065E+01  0.20661763681E+02  0.51100000000E-03 0. -1.
        -11    1    3    3    0    0 -0.73845559772E+01  0.23016191372E+02 -0.16746998428E+01  0.24229761700E+02  0.51100000000E-03 0.  1.
         12    1    3    3    0    0  0.26779148969E+01 -0.51970256733E+00 -0.97161632655E+00  0.28957481312E+01  0.00000000000E+00 0. -1.
</event>
<event>
 7    1  0.2580704E-010  0.4778727E+02  0.7816164E-02  0.1312668E+00
        -11   -1    0    0    0    0  0.00000000000E+00  0.00000000000E+00  0.45593999997E+02  0.45594000000E+02  0.51100000000E-03 0. -1.
         11   -1    0    0    0    0 -0.00000000000E+00 -0.00000000000E+00 -0.45593999997E+02  0.45594000000E+02  0.51100000000E-03 0.  1.
    9900012    2    1    2    0    0  0.40113460831E+02  0.10218419999E+02 -0.13042906141E+02  0.47787271346E+02  0.20000001375E+02 0.  0.
         12    1    1    2    0    0 -0.40113460831E+02 -0.10218419999E+02  0.13042906141E+02  0.43400728654E+02  0.00000000000E+00 0. -1.
         11    1    3    3    0    0  0.15937130394E+02  0.14736906130E+01 -0.99074489909E+01  0.18823427823E+02  0.51100000000E-03 0. -1.
        -11    1    3    3    0    0  0.16521210333E+02  0.34464622752E+01 -0.77522161876E+01  0.18572165979E+02  0.51100000000E-03 0.  1.
        -12    1    3    3    0    0  0.76551201035E+01  0.52982671105E+01  0.46167590373E+01  0.10391677544E+02  0.00000000000E+00 0.  1.
</event>
<event>
 7    1  0.2580704E-010  0.4778727E+02  0.7816164E-02  0.1312668E+00
        -11   -1    0    0    0    0  0.00000000000E+00  0.00000000000E+00  0.45593999997E+02  0.45594000000E+02  0.51100000000E-03 0. -1.
         11   -1    0    0    0    0 -0.00000000000E+00 -0.00000000000E+00 -0.45593999997E+02  0.45594000000E+02  0.51100000000E-03 0.  1.
    9900012    2    1    2    0    0 -0.26295545011E+01  0.43113202512E+02  0.42379700188E+01  0.47787272153E+02  0.20000005055E+02 0.  0.
         12    1    1    2    0    0  0.26295545011E+01 -0.43113202512E+02 -0.42379700188E+01  0.43400727847E+02  0.00000000000E+00 0. -1.
         11    1    3    3    0    0  0.37393524256E+00  0.98654556974E+01 -0.46409940269E+01  0.10908981140E+02  0.51100000000E-03 0. -1.
        -11    1    3    3    0    0  0.25691980236E+01  0.20074814630E+02  0.38312477183E+00  0.20242177397E+02  0.51100000000E-03 0.  1.
         12    1    3    3    0    0 -0.55726877673E+01  0.13172932185E+02  0.84958392739E+01  0.16636113617E+02  0.00000000000E+00 0. -1.
</event>
<event>
 7    1  0.2580704E-010  0.4778727E+02  0.7816164E-02  0.1312668E+00
        -11   -1    0    0    0    0  0.00000000000E+00  0.00000000000E+00  0.45593999997E+02  0.45594000000E+02  0.51100000000E-03 0.  1.
         11   -1    0    0    0    0 -0.00000000000E+00 -0.00000000000E+00 -0.45593999997E+02  0.45594000000E+02  0.51100000000E-03 0. -1.
    9900012    2    1    2    0    0 -0.19322715972E+02  0.23317044606E+02  0.31089730101E+02  0.47787271441E+02  0.20000001809E+02 0.  0.
         12    1    1    2    0    0  0.19322715972E+02 -0.23317044606E+02 -0.31089730101E+02  0.43400728559E+02  0.00000000000E+00 0. -1.
         11    1    3    3    0    0  0.16755254715E+01  0.71104169739E+00 -0.13207577882E+01  0.22488591101E+01  0.51100000000E-03 0. -1.
        -11    1    3    3    0    0 -0.13446126986E+01  0.25421300807E+01  0.32076472387E+00  0.28936653099E+01  0.51100000000E-03 0.  1.
        -12    1    3    3    0    0 -0.19653628745E+02  0.20063872828E+02  0.32089723165E+02  0.42644747021E+02  0.00000000000E+00 0.  1.
</event>
<event>
 7    1  0.2580704E-010  0.4778727E+02  0.7816164E-02  0.1312668E+00
        -11   -1    0    0    0    0  0.00000000000E+00  0.00000000000E+00  0.45593999997E+02  0.45594000000E+02  0.51100000000E-03 0.  1.
         11   -1    0    0    0    0 -0.00000000000E+00 -0.00000000000E+00 -0.45593999997E+02  0.45594000000E+02  0.51100000000E-03 0. -1.
    9900012    2    1    2    0    0 -0.35063005900E+02  0.25479340179E+01  0.25450284748E+02  0.47787270234E+02  0.19999996306E+02 0.  0.
         12    1    1    2    0    0  0.35063005900E+02 -0.25479340179E+01 -0.25450284748E+02  0.43400729766E+02  0.00000000000E+00 0. -1.
         11    1    3    3    0    0 -0.25069188812E+01 -0.22839845150E+01  0.13876979159E+00  0.33941839752E+01  0.51100000000E-03 0. -1.
        -11    1    3    3    0    0 -0.32395085241E+02  0.30028249087E+01  0.18687043821E+02  0.37518850092E+02  0.51100000000E-03 0.  1.
         12    1    3    3    0    0 -0.16100177737E+00  0.18290936241E+01  0.66244711352E+01  0.68742361670E+01  0.00000000000E+00 0. -1.
</event>
<event>
 7    1  0.2580704E-010  0.4778726E+02  0.7816164E-02  0.1312668E+00
        -11   -1    0    0    0    0  0.00000000000E+00  0.00000000000E+00  0.45593999997E+02  0.45594000000E+02  0.51100000000E-03 0.  1.
         11   -1    0    0    0    0 -0.00000000000E+00 -0.00000000000E+00 -0.45593999997E+02  0.45594000000E+02  0.51100000000E-03 0. -1.
    9900012    2    1    2    0    0 -0.38707959979E+02  0.15122123490E+02 -0.12515560851E+02  0.47787262126E+02  0.19999959336E+02 0.  0.
         12    1    1    2    0    0  0.38707959979E+02 -0.15122123490E+02  0.12515560851E+02  0.43400737874E+02  0.00000000000E+00 0. -1.
         11    1    3    3    0    0 -0.76102775927E+01  0.75643554144E+00 -0.51614324545E+01  0.92265326645E+01  0.51100000000E-03 0. -1.
        -11    1    3    3    0    0 -0.21635703060E+02  0.57960812411E+01  0.23551663844E+01  0.22522100560E+02  0.51100000000E-03 0.  1.
        -12    1    3    3    0    0 -0.94619793267E+01  0.85696067072E+01 -0.97092947812E+01  0.16038628902E+02  0.00000000000E+00 0.  1.
</event>
<event>
 7    1  0.2580704E-010  0.4778727E+02  0.7816164E-02  0.1312668E+00
        -11   -1    0    0    0    0  0.00000000000E+00  0.00000000000E+00  0.45593999997E+02  0.45594000000E+02  0.51100000000E-03 0. -1.
         11   -1    0    0    0    0 -0.00000000000E+00 -0.00000000000E+00 -0.45593999997E+02  0.45594000000E+02  0.51100000000E-03 0.  1.
    9900012    2    1    2    0    0 -0.22209253000E+02  0.32425164614E+02 -0.18411442137E+02  0.47787269354E+02  0.19999992291E+02 0.  0.
         12    1    1    2    0    0  0.22209253000E+02 -0.32425164614E+02  0.18411442137E+02  0.43400730646E+02  0.00000000000E+00 0. -1.
         11    1    3    3    0    0 -0.13268137208E+02  0.21619508723E+02 -0.11958350011E+02  0.28043693723E+02  0.51100000000E-03 0. -1.
        -11    1    3    3    0    0 -0.10847658443E+02  0.11370020901E+02 -0.75917179714E+01  0.17452313629E+02  0.51100000000E-03 0.  1.
         12    1    3    3    0    0  0.19065426505E+01 -0.56436501036E+00  0.11386258452E+01  0.22912620013E+01  0.00000000000E+00 0. -1.
</event>
<event>
 7    1  0.2580704E-010  0.4778727E+02  0.7816164E-02  0.1312668E+00
        -11   -1    0    0    0    0  0.00000000000E+00  0.00000000000E+00  0.45593999997E+02  0.45594000000E+02  0.51100000000E-03 0.  1.
         11   -1    0    0    0    0 -0.00000000000E+00 -0.00000000000E+00 -0.45593999997E+02  0.45594000000E+02  0.51100000000E-03 0. -1.
    9900012    2    1    2    0    0  0.70508089955E+01  0.28841346571E+02  0.31655743785E+02  0.47787270812E+02  0.19999998939E+02 0.  0.
         12    1    1    2    0    0 -0.70508089955E+01 -0.28841346571E+02 -0.31655743785E+02  0.43400729188E+02  0.00000000000E+00 0. -1.
         11    1    3    3    0    0 -0.52359911666E-01  0.10360611858E+02  0.13566890173E+02  0.17070604233E+02  0.51100000000E-03 0. -1.
        -11    1    3    3    0    0  0.98552779337E+01  0.19513493044E+02  0.15484547474E+02  0.26789440545E+02  0.51100000000E-03 0.  1.
         12    1    3    3    0    0 -0.27521090266E+01 -0.10327583322E+01  0.26043061375E+01  0.39272260343E+01  0.00000000000E+00 0. -1.
</event>
<event>
 7    1  0.2580704E-010  0.4778727E+02  0.7816164E-02  0.1312668E+00
        -11   -1    0    0    0    0  0.00000000000E+00  0.00000000000E+00  0.45593999997E+02  0.45594000000E+02  0.51100000000E-03 0. -1.
         11   -1    0    0    0    0 -0.00000000000E+00 -0.00000000000E+00 -0.45593999997E+02  0.45594000000E+02  0.51100000000E-03 0.  1.
    9900012    2    1    2    0    0 -0.18355531386E+02 -0.47390746936E+01 -0.39041503155E+02  0.47787270398E+02  0.19999997052E+02 0.  0.
         12    1    1    2    0    0  0.18355531386E+02  0.47390746936E+01  0.39041503155E+02  0.43400729602E+02  0.00000000000E+00 0. -1.
         11    1    3    3    0    0 -0.15101616721E+02 -0.47732551175E+01 -0.19808680160E+02  0.25361912427E+02  0.51100000000E-03 0. -1.
        -11    1    3    3    0    0 -0.32497544527E+01 -0.37857431575E+01 -0.17560301745E+02  0.18255326699E+02  0.51100000000E-03 0.  1.
         12    1    3    3    0    0 -0.41602115794E-02  0.38199235815E+01 -0.16725212501E+01  0.41700312718E+01  0.00000000000E+00 0. -1.
</event>
<event>
 7    1  0.2580704E-010  0.4778727E+02  0.7816164E-02  0.1312668E+00
        -11   -1    0    0    0    0  0.00000000000E+00  0.00000000000E+00  0.45593999997E+02  0.45594000000E+02  0.51100000000E-03 0.  1.
         11   -1    0    0    0    0 -0.00000000000E+00 -0.00000000000E+00 -0.45593999997E+02  0.45594000000E+02  0.51100000000E-03 0. -1.
    9900012    2    1    2    0    0  0.15392247534E+02  0.78118547028E+00  0.40572054933E+02  0.47787272168E+02  0.20000005122E+02 0.  0.
         12    1    1    2    0    0 -0.15392247534E+02 -0.78118547028E+00 -0.40572054933E+02  0.43400727832E+02  0.00000000000E+00 0. -1.
         11    1    3    3    0    0  0.43680070585E+01  0.87077927091E+00  0.10933273198E+00  0.44552997777E+01  0.51100000000E-03 0. -1.
        -11    1    3    3    0    0 -0.92583494235E+00 -0.29610399253E+01  0.62266253812E+01  0.69567083940E+01  0.51100000000E-03 0.  1.
        -12    1    3    3    0    0  0.11950075418E+02  0.28714461246E+01  0.34236096820E+02  0.36375263996E+02  0.00000000000E+00 0.  1.
</event>
<event>
 7    1  0.2580704E-010  0.4778727E+02  0.7816164E-02  0.1312668E+00
        -11   -1    0    0    0    0  0.00000000000E+00  0.00000000000E+00  0.45593999997E+02  0.45594000000E+02  0.51100000000E-03 0. -1.
         11   -1    0    0    0    0 -0.00000000000E+00 -0.00000000000E+00 -0.45593999997E+02  0.45594000000E+02  0.51100000000E-03 0.  1.
    9900012    2    1    2    0    0 -0.19931513182E+02 -0.27374850455E+02  0.27147295312E+02  0.47787270767E+02  0.19999998736E+02 0.  0.
         12    1    1    2    0    0  0.19931513182E+02  0.27374850455E+02 -0.27147295312E+02  0.43400729233E+02  0.00000000000E+00 0. -1.
         11    1    3    3    0    0 -0.85546544162E+01 -0.61892484271E+01  0.92780175555E+01  0.14055978027E+02  0.51100000000E-03 0.  1.
        -11    1    3    3    0    0  0.12767998676E+01 -0.46814041213E+01  0.10673726939E+02  0.11724939637E+02  0.51100000000E-03 0. -1.
         12    1    3    3    0    0 -0.12653658634E+02 -0.16504197907E+02  0.71955508178E+01  0.22006353104E+02  0.00000000000E+00 0. -1.
</event>
<event>
 7    1  0.2580704E-010  0.4778727E+02  0.7816164E-02  0.1312668E+00
        -11   -1    0    0    0    0  0.00000000000E+00  0.00000000000E+00  0.45593999997E+02  0.45594000000E+02  0.51100000000E-03 0. -1.
         11   -1    0    0    0    0 -0.00000000000E+00 -0.00000000000E+00 -0.45593999997E+02  0.45594000000E+02  0.51100000000E-03 0.  1.
    9900012    2    1    2    0    0 -0.54964867502E+01  0.42820258683E+02  0.44539429373E+01  0.47787268118E+02  0.19999986656E+02 0.  0.
         12    1    1    2    0    0  0.54964867502E+01 -0.42820258683E+02 -0.44539429373E+01  0.43400731882E+02  0.00000000000E+00 0. -1.
         11    1    3    3    0    0  0.34250215057E+01  0.74841014348E+01 -0.33522627309E+01  0.88870812013E+01  0.51100000000E-03 0. -1.
        -11    1    3    3    0    0 -0.40266083789E+01  0.42273926426E+01 -0.15642744471E+01  0.60441193237E+01  0.51100000000E-03 0.  1.
         12    1    3    3    0    0 -0.48948998769E+01  0.31108764605E+02  0.93704801153E+01  0.32856067593E+02  0.00000000000E+00 0. -1.
</event>
<event>
 7    1  0.2580704E-010  0.4778728E+02  0.7816164E-02  0.1312668E+00
        -11   -1    0    0    0    0  0.00000000000E+00  0.00000000000E+00  0.45593999997E+02  0.45594000000E+02  0.51100000000E-03 0.  1.
         11   -1    0    0    0    0 -0.00000000000E+00 -0.00000000000E+00 -0.45593999997E+02  0.45594000000E+02  0.51100000000E-03 0. -1.
    9900012    2    1    2    0    0 -0.21935835903E+02 -0.56848901657E+01  0.37015182075E+02  0.47787279072E+02  0.20000036602E+02 0.  0.
         12    1    1    2    0    0  0.21935835903E+02  0.56848901657E+01 -0.37015182075E+02  0.43400720928E+02  0.00000000000E+00 0. -1.
         11    1    3    3    0    0 -0.10980311785E+02 -0.63863912733E+01  0.17025698629E+02  0.21242119821E+02  0.51100000000E-03 0. -1.
        -11    1    3    3    0    0 -0.10948347169E+02 -0.27466225154E+01  0.74121085064E+01  0.13503688153E+02  0.51100000000E-03 0.  1.
         12    1    3    3    0    0 -0.71769488578E-02  0.34481236230E+01  0.12577374940E+02  0.13041471098E+02  0.00000000000E+00 0. -1.
</event>
<event>
 7    1  0.2580704E-010  0.4778727E+02  0.7816164E-02  0.1312668E+00
        -11   -1    0    0    0    0  0.00000000000E+00  0.00000000000E+00  0.45593999997E+02  0.45594000000E+02  0.51100000000E-03 0.  1.
         11   -1    0    0    0    0 -0.00000000000E+00 -0.00000000000E+00 -0.45593999997E+02  0.45594000000E+02  0.51100000000E-03 0. -1.
    9900012    2    1    2    0    0 -0.12884415453E+02  0.39757493921E+02  0.11702849010E+02  0.47787272363E+02  0.20000006013E+02 0.  0.
         12    1    1    2    0    0  0.12884415453E+02 -0.39757493921E+02 -0.11702849010E+02  0.43400727637E+02  0.00000000000E+00 0. -1.
         11    1    3    3    0    0 -0.21800133888E+01  0.55436184299E+01  0.72262668769E-01  0.59572968556E+01  0.51100000000E-03 0. -1.
        -11    1    3    3    0    0 -0.12297769155E+02  0.35846202139E+02  0.11076218549E+02  0.39482501840E+02  0.51100000000E-03 0.  1.
         12    1    3    3    0    0  0.15933670905E+01 -0.16323266476E+01  0.55436779210E+00  0.23474736672E+01  0.00000000000E+00 0. -1.
</event>
<event>
 7    1  0.2580704E-010  0.4778727E+02  0.7816164E-02  0.1312668E+00
        -11   -1    0    0    0    0  0.00000000000E+00  0.00000000000E+00  0.45593999997E+02  0.45594000000E+02  0.51100000000E-03 0.  1.
         11   -1    0    0    0    0 -0.00000000000E+00 -0.00000000000E+00 -0.45593999997E+02  0.45594000000E+02  0.51100000000E-03 0. -1.
    9900012    2    1    2    0    0  0.15760061931E+02 -0.39675575808E+02  0.78161665069E+01  0.47787270437E+02  0.19999997230E+02 0.  0.
         12    1    1    2    0    0 -0.15760061931E+02  0.39675575808E+02 -0.78161665069E+01  0.43400729563E+02  0.00000000000E+00 0. -1.
         11    1    3    3    0    0  0.18956860946E+01 -0.45206317944E+01  0.50190293964E+01  0.70157247618E+01  0.51100000000E-03 0. -1.
        -11    1    3    3    0    0  0.11242348618E+01 -0.88124185947E+00 -0.33974689432E+01  0.36855510741E+01  0.51100000000E-03 0.  1.
        -12    1    3    3    0    0  0.12740140975E+02 -0.34273702154E+02  0.61946060536E+01  0.37085994601E+02  0.00000000000E+00 0.  1.
</event>
<event>
 7    1  0.2580704E-010  0.4778727E+02  0.7816164E-02  0.1312668E+00
        -11   -1    0    0    0    0  0.00000000000E+00  0.00000000000E+00  0.45593999997E+02  0.45594000000E+02  0.51100000000E-03 0. -1.
         11   -1    0    0    0    0 -0.00000000000E+00 -0.00000000000E+00 -0.45593999997E+02  0.45594000000E+02  0.51100000000E-03 0.  1.
    9900012    2    1    2    0    0  0.35602333708E+01  0.35021266306E+02 -0.25386203009E+02  0.47787266613E+02  0.19999979795E+02 0.  0.
         12    1    1    2    0    0 -0.35602333708E+01 -0.35021266306E+02  0.25386203009E+02  0.43400733387E+02  0.00000000000E+00 0. -1.
         11    1    3    3    0    0  0.64513301398E+00  0.24160667558E+01 -0.97489460272E+01  0.10064567754E+02  0.51100000000E-03 0. -1.
        -11    1    3    3    0    0 -0.32214613746E+01  0.69143280147E+01 -0.15373768541E+01  0.77813413455E+01  0.51100000000E-03 0.  1.
        -12    1    3    3    0    0  0.61365617314E+01  0.25690871535E+02 -0.14099880128E+02  0.29941357513E+02  0.00000000000E+00 0.  1.
</event>
<event>
 7    1  0.2580704E-010  0.4778728E+02  0.7816164E-02  0.1312668E+00
        -11   -1    0    0    0    0  0.00000000000E+00  0.00000000000E+00  0.45593999997E+02  0.45594000000E+02  0.51100000000E-03 0. -1.
         11   -1    0    0    0    0 -0.00000000000E+00 -0.00000000000E+00 -0.45593999997E+02  0.45594000000E+02  0.51100000000E-03 0.  1.
    9900012    2    1    2    0    0 -0.28928162820E+02 -0.32045146956E+02 -0.44601392323E+01  0.47787275472E+02  0.20000020189E+02 0.  0.
         12    1    1    2    0    0  0.28928162820E+02  0.32045146956E+02  0.44601392323E+01  0.43400724528E+02  0.00000000000E+00 0. -1.
         11    1    3    3    0    0 -0.43700913569E+00 -0.67315240537E+01 -0.43538252620E+01  0.80287102166E+01  0.51100000000E-03 0.  1.
        -11    1    3    3    0    0 -0.77800352996E+01 -0.37356688535E+01 -0.41516229653E+01  0.95770634619E+01  0.51100000000E-03 0. -1.
        -12    1    3    3    0    0 -0.20711118385E+02 -0.21577954049E+02  0.40453089950E+01  0.30181501794E+02  0.00000000000E+00 0.  1.
</event>
<event>
 7    1  0.2580704E-010  0.4778727E+02  0.7816164E-02  0.1312668E+00
        -11   -1    0    0    0    0  0.00000000000E+00  0.00000000000E+00  0.45593999997E+02  0.45594000000E+02  0.51100000000E-03 0.  1.
         11   -1    0    0    0    0 -0.00000000000E+00 -0.00000000000E+00 -0.45593999997E+02  0.45594000000E+02  0.51100000000E-03 0. -1.
    9900012    2    1    2    0    0  0.28042753108E+01 -0.20839601975E+02  0.37966698086E+02  0.47787272655E+02  0.20000007345E+02 0.  0.
         12    1    1    2    0    0 -0.28042753108E+01  0.20839601975E+02 -0.37966698086E+02  0.43400727345E+02  0.00000000000E+00 0. -1.
         11    1    3    3    0    0  0.46745723666E+01 -0.50427571812E+01  0.16659473035E+01  0.70750552986E+01  0.51100000000E-03 0. -1.
        -11    1    3    3    0    0 -0.63390743157E+00 -0.99158623139E+01  0.11519281920E+02  0.15212495531E+02  0.51100000000E-03 0.  1.
        -12    1    3    3    0    0 -0.12363896243E+01 -0.58809824802E+01  0.24781468862E+02  0.25499721826E+02  0.00000000000E+00 0.  1.
</event>
<event>
 7    1  0.2580704E-010  0.4778727E+02  0.7816164E-02  0.1312668E+00
        -11   -1    0    0    0    0  0.00000000000E+00  0.00000000000E+00  0.45593999997E+02  0.45594000000E+02  0.51100000000E-03 0. -1.
         11   -1    0    0    0    0 -0.00000000000E+00 -0.00000000000E+00 -0.45593999997E+02  0.45594000000E+02  0.51100000000E-03 0.  1.
    9900012    2    1    2    0    0 -0.55035687751E+01 -0.11840607108E+01 -0.43034078951E+02  0.47787271663E+02  0.20000002822E+02 0.  0.
         12    1    1    2    0    0  0.55035687751E+01  0.11840607108E+01  0.43034078951E+02  0.43400728337E+02  0.00000000000E+00 0. -1.
         11    1    3    3    0    0 -0.26617709175E+01 -0.88213597073E+00 -0.96882574203E+01  0.10085907019E+02  0.51100000000E-03 0. -1.
        -11    1    3    3    0    0  0.37581596774E+01 -0.49950013543E+01 -0.26088563832E+02  0.26826982048E+02  0.51100000000E-03 0.  1.
         12    1    3    3    0    0 -0.65999575350E+01  0.46930766143E+01 -0.72572576979E+01  0.10874382597E+02  0.00000000000E+00 0. -1.
</event>
<event>
 7    1  0.2580704E-010  0.4778727E+02  0.7816164E-02  0.1312668E+00
        -11   -1    0    0    0    0  0.00000000000E+00  0.00000000000E+00  0.45593999997E+02  0.45594000000E+02  0.51100000000E-03 0.  1.
         11   -1    0    0    0    0 -0.00000000000E+00 -0.00000000000E+00 -0.45593999997E+02  0.45594000000E+02  0.51100000000E-03 0. -1.
    9900012    2    1    2    0    0  0.68311870983E+01  0.22278258328E+02  0.36614713547E+02  0.47787272362E+02  0.20000006009E+02 0.  0.
         12    1    1    2    0    0 -0.68311870983E+01 -0.22278258328E+02 -0.36614713547E+02  0.43400727638E+02  0.00000000000E+00 0. -1.
         11    1    3    3    0    0 -0.12573230585E+01 -0.14936790608E+01  0.34584251399E+01  0.39714787069E+01  0.51100000000E-03 0. -1.
        -11    1    3    3    0    0  0.11110679249E+01  0.53213221109E+01  0.23993264377E+00  0.54413701286E+01  0.51100000000E-03 0.  1.
        -12    1    3    3    0    0  0.69774422319E+01  0.18450615278E+02  0.32916355764E+02  0.38374423527E+02  0.00000000000E+00 0.  1.
</event>
<event>
 7    1  0.2580704E-010  0.4778727E+02  0.7816164E-02  0.1312668E+00
        -11   -1    0    0    0    0  0.00000000000E+00  0.00000000000E+00  0.45593999997E+02  0.45594000000E+02  0.51100000000E-03 0.  1.
         11   -1    0    0    0    0 -0.00000000000E+00 -0.00000000000E+00 -0.45593999997E+02  0.45594000000E+02  0.51100000000E-03 0. -1.
    9900012    2    1    2    0    0 -0.33042212943E+02 -0.19111737303E+02  0.20653741919E+02  0.47787269659E+02  0.19999993682E+02 0.  0.
         12    1    1    2    0    0  0.33042212943E+02  0.19111737303E+02 -0.20653741919E+02  0.43400730341E+02  0.00000000000E+00 0. -1.
         11    1    3    3    0    0 -0.59749056894E+01 -0.38410315585E+01  0.63504779967E+01  0.95279374725E+01  0.51100000000E-03 0. -1.
        -11    1    3    3    0    0 -0.16633504979E+02 -0.10592391591E+02  0.17522570339E+02  0.26380157677E+02  0.51100000000E-03 0.  1.
         12    1    3    3    0    0 -0.10433802275E+02 -0.46783141529E+01 -0.32193064166E+01  0.11879174509E+02  0.00000000000E+00 0. -1.
</event>
<event>
 7    1  0.3173420E-010  0.4778727E+02  0.7816164E-02  0.1312668E+00
        -11   -1    0    0    0    0  0.00000000000E+00  0.00000000000E+00  0.45593999997E+02  0.45594000000E+02  0.51100000000E-03 0.  1.
         11   -1    0    0    0    0 -0.00000000000E+00 -0.00000000000E+00 -0.45593999997E+02  0.45594000000E+02  0.51100000000E-03 0. -1.
    9900012    2    1    2    0    0 -0.36720219963E+02 -0.23107285591E+02 -0.11410502900E+01  0.47787271927E+02  0.20000004024E+02 0.  0.
         12    1    1    2    0    0  0.36720219963E+02  0.23107285591E+02  0.11410502900E+01  0.43400728073E+02  0.00000000000E+00 0. -1.
         11    1    3    3    0    0  0.98019578095E+00 -0.29131945810E+01 -0.10721863212E+01  0.32553141484E+01  0.51100000000E-03 0. -1.
        -11    1    3    3    0    0 -0.12875564310E+02 -0.22849960764E+01 -0.39883575172E+01  0.13671443205E+02  0.51100000000E-03 0.  1.
        -12    1    3    3    0    0 -0.24824851434E+02 -0.17909094934E+02  0.39194935484E+01  0.30860514574E+02  0.00000000000E+00 0.  1.
</event>
<event>
 7    1  0.2580704E-010  0.4778727E+02  0.7816164E-02  0.1312668E+00
        -11   -1    0    0    0    0  0.00000000000E+00  0.00000000000E+00  0.45593999997E+02  0.45594000000E+02  0.51100000000E-03 0. -1.
         11   -1    0    0    0    0 -0.00000000000E+00 -0.00000000000E+00 -0.45593999997E+02  0.45594000000E+02  0.51100000000E-03 0.  1.
    9900012    2    1    2    0    0 -0.36418193663E+02 -0.64101197725E+00 -0.23599312736E+02  0.47787270886E+02  0.19999999277E+02 0.  0.
         12    1    1    2    0    0  0.36418193663E+02  0.64101197725E+00  0.23599312736E+02  0.43400729114E+02  0.00000000000E+00 0. -1.
         11    1    3    3    0    0  0.23240776588E+00 -0.20539425374E+01 -0.12214483407E+01  0.24009643118E+01  0.51100000000E-03 0. -1.
        -11    1    3    3    0    0 -0.37882338041E-01 -0.18322821494E+01 -0.37620836679E+01  0.41847301862E+01  0.51100000000E-03 0.  1.
        -12    1    3    3    0    0 -0.36612719091E+02  0.32452127095E+01 -0.18615780727E+02  0.41201576388E+02  0.00000000000E+00 0.  1.
</event>
<event>
 7    1  0.2580704E-010  0.4778727E+02  0.7816164E-02  0.1312668E+00
        -11   -1    0    0    0    0  0.00000000000E+00  0.00000000000E+00  0.45593999997E+02  0.45594000000E+02  0.51100000000E-03 0.  1.
         11   -1    0    0    0    0 -0.00000000000E+00 -0.00000000000E+00 -0.45593999997E+02  0.45594000000E+02  0.51100000000E-03 0. -1.
    9900012    2    1    2    0    0  0.37613608680E+02 -0.17862984443E+02  0.12237389841E+02  0.47787268655E+02  0.19999989105E+02 0.  0.
         12    1    1    2    0    0 -0.37613608680E+02  0.17862984443E+02 -0.12237389841E+02  0.43400731345E+02  0.00000000000E+00 0. -1.
         11    1    3    3    0    0  0.14356977348E+02 -0.28653385876E+01  0.66910793332E+00  0.14655397282E+02  0.51100000000E-03 0. -1.
        -11    1    3    3    0    0  0.16752307072E+02 -0.26677179116E+01  0.47645215043E+01  0.17619795020E+02  0.51100000000E-03 0.  1.
         12    1    3    3    0    0  0.65043242598E+01 -0.12329927944E+02  0.68037604034E+01  0.15512076354E+02  0.00000000000E+00 0. -1.
</event>
<event>
 7    1  0.2580704E-010  0.4778728E+02  0.7816164E-02  0.1312668E+00
        -11   -1    0    0    0    0  0.00000000000E+00  0.00000000000E+00  0.45593999997E+02  0.45594000000E+02  0.51100000000E-03 0.  1.
         11   -1    0    0    0    0 -0.00000000000E+00 -0.00000000000E+00 -0.45593999997E+02  0.45594000000E+02  0.51100000000E-03 0. -1.
    9900012    2    1    2    0    0  0.15362179793E+02  0.35092097548E+02  0.20400269058E+02  0.47787275859E+02  0.20000021950E+02 0.  0.
         12    1    1    2    0    0 -0.15362179793E+02 -0.35092097548E+02 -0.20400269058E+02  0.43400724141E+02  0.00000000000E+00 0. -1.
         11    1    3    3    0    0  0.31007086235E+01  0.92437957548E+01  0.10758156660E+02  0.14518956192E+02  0.51100000000E-03 0. -1.
        -11    1    3    3    0    0  0.67845364531E+01  0.82544243221E+01  0.10284809474E+02  0.14830467354E+02  0.51100000000E-03 0.  1.
         12    1    3    3    0    0  0.54769347165E+01  0.17593877472E+02 -0.64269707546E+00  0.18437852313E+02  0.00000000000E+00 0. -1.
</event>
<event>
 7    1  0.2580704E-010  0.4778727E+02  0.7816164E-02  0.1312668E+00
        -11   -1    0    0    0    0  0.00000000000E+00  0.00000000000E+00  0.45593999997E+02  0.45594000000E+02  0.51100000000E-03 0.  1.
         11   -1    0    0    0    0 -0.00000000000E+00 -0.00000000000E+00 -0.45593999997E+02  0.45594000000E+02  0.51100000000E-03 0. -1.
    9900012    2    1    2    0    0  0.38444308020E+02  0.29514422029E+01  0.19923546124E+02  0.47787268205E+02  0.19999987053E+02 0.  0.
         12    1    1    2    0    0 -0.38444308020E+02 -0.29514422029E+01 -0.19923546124E+02  0.43400731795E+02  0.00000000000E+00 0. -1.
         11    1    3    3    0    0  0.16137706394E+02 -0.93610398809E+00  0.13749476438E+02  0.21221450490E+02  0.51100000000E-03 0.  1.
        -11    1    3    3    0    0  0.11726356516E+02 -0.41300900348E+01  0.43222842189E+01  0.13162341052E+02  0.51100000000E-03 0. -1.
        -12    1    3    3    0    0  0.10580245110E+02  0.80176362258E+01  0.18517854674E+01  0.13403476663E+02  0.00000000000E+00 0.  1.
</event>
<event>
 7    1  0.2580704E-010  0.4778727E+02  0.7816164E-02  0.1312668E+00
        -11   -1    0    0    0    0  0.00000000000E+00  0.00000000000E+00  0.45593999997E+02  0.45594000000E+02  0.51100000000E-03 0.  1.
         11   -1    0    0    0    0 -0.00000000000E+00 -0.00000000000E+00 -0.45593999997E+02  0.45594000000E+02  0.51100000000E-03 0. -1.
    9900012    2    1    2    0    0  0.30039623950E+01  0.25918859657E+02  0.34681585073E+02  0.47787269371E+02  0.19999992368E+02 0.  0.
         12    1    1    2    0    0 -0.30039623950E+01 -0.25918859657E+02 -0.34681585073E+02  0.43400730629E+02  0.00000000000E+00 0. -1.
         11    1    3    3    0    0  0.39887115033E+01  0.26334990206E+01  0.10697393435E+02  0.11716627634E+02  0.51100000000E-03 0. -1.
        -11    1    3    3    0    0  0.38830056560E+01  0.11394188387E+01  0.21056181233E+01  0.45617580117E+01  0.51100000000E-03 0.  1.
        -12    1    3    3    0    0 -0.48677547643E+01  0.22145941797E+02  0.21878573515E+02  0.31508883725E+02  0.00000000000E+00 0.  1.
</event>
<event>
 7    1  0.2580704E-010  0.4778727E+02  0.7816164E-02  0.1312668E+00
        -11   -1    0    0    0    0  0.00000000000E+00  0.00000000000E+00  0.45593999997E+02  0.45594000000E+02  0.51100000000E-03 0.  1.
         11   -1    0    0    0    0 -0.00000000000E+00 -0.00000000000E+00 -0.45593999997E+02  0.45594000000E+02  0.51100000000E-03 0. -1.
    9900012    2    1    2    0    0  0.28965874426E+02  0.98152566439E+01  0.30793871059E+02  0.47787266838E+02  0.19999980819E+02 0.  0.
         12    1    1    2    0    0 -0.28965874426E+02 -0.98152566439E+01 -0.30793871059E+02  0.43400733162E+02  0.00000000000E+00 0. -1.
         11    1    3    3    0    0  0.14646321013E+02  0.24254173636E+01  0.20363710393E+02  0.25200755342E+02  0.51100000000E-03 0. -1.
        -11    1    3    3    0    0  0.89736722850E+01 -0.13377466634E+01  0.79321593240E+01  0.12051369724E+02  0.51100000000E-03 0.  1.
         12    1    3    3    0    0  0.53458811284E+01  0.87275859437E+01  0.24980013418E+01  0.10535141772E+02  0.00000000000E+00 0. -1.
</event>
<event>
 7    1  0.2580704E-010  0.4778727E+02  0.7816164E-02  0.1312668E+00
        -11   -1    0    0    0    0  0.00000000000E+00  0.00000000000E+00  0.45593999997E+02  0.45594000000E+02  0.51100000000E-03 0.  1.
         11   -1    0    0    0    0 -0.00000000000E+00 -0.00000000000E+00 -0.45593999997E+02  0.45594000000E+02  0.51100000000E-03 0. -1.
    9900012    2    1    2    0    0  0.34180173132E+02 -0.75843331147E+01  0.25647949004E+02  0.47787266916E+02  0.19999981176E+02 0.  0.
         12    1    1    2    0    0 -0.34180173132E+02  0.75843331147E+01 -0.25647949004E+02  0.43400733084E+02  0.00000000000E+00 0. -1.
         11    1    3    3    0    0 -0.32985428926E+00  0.80366730278E+00 -0.80803352463E+00  0.11864246389E+01  0.51100000000E-03 0. -1.
        -11    1    3    3    0    0  0.17036282286E+02  0.19467244798E+01  0.71258523310E+01  0.18568856239E+02  0.51100000000E-03 0.  1.
        -12    1    3    3    0    0  0.17473745135E+02 -0.10334724897E+02  0.19330130198E+02  0.28031986038E+02  0.00000000000E+00 0.  1.
</event>
<event>
 7    1  0.2580704E-010  0.4778727E+02  0.7816164E-02  0.1312668E+00
        -11   -1    0    0    0    0  0.00000000000E+00  0.00000000000E+00  0.45593999997E+02  0.45594000000E+02  0.51100000000E-03 0.  1.
         11   -1    0    0    0    0 -0.00000000000E+00 -0.00000000000E+00 -0.45593999997E+02  0.45594000000E+02  0.51100000000E-03 0. -1.
    9900012    2    1    2    0    0  0.27294713722E+02 -0.24087446743E+02  0.23630847521E+02  0.47787269104E+02  0.19999991153E+02 0.  0.
         12    1    1    2    0    0 -0.27294713722E+02  0.24087446743E+02 -0.23630847521E+02  0.43400730896E+02  0.00000000000E+00 0. -1.
         11    1    3    3    0    0  0.47631162151E+00 -0.96551751158E+00 -0.13722017843E+01  0.17441430056E+01  0.51100000000E-03 0. -1.
        -11    1    3    3    0    0  0.21240576065E+01 -0.92427707672E+01  0.23464088371E+01  0.97696502937E+01  0.51100000000E-03 0.  1.
         12    1    3    3    0    0  0.24694344494E+02 -0.13879158464E+02  0.22656640468E+02  0.36273475805E+02  0.00000000000E+00 0. -1.
</event>
<event>
 7    1  0.2580704E-010  0.4778727E+02  0.7816164E-02  0.1312668E+00
        -11   -1    0    0    0    0  0.00000000000E+00  0.00000000000E+00  0.45593999997E+02  0.45594000000E+02  0.51100000000E-03 0. -1.
         11   -1    0    0    0    0 -0.00000000000E+00 -0.00000000000E+00 -0.45593999997E+02  0.45594000000E+02  0.51100000000E-03 0.  1.
    9900012    2    1    2    0    0 -0.19002215964E+02  0.21871685602E+02 -0.32313598468E+02  0.47787268571E+02  0.19999988723E+02 0.  0.
         12    1    1    2    0    0  0.19002215964E+02 -0.21871685602E+02  0.32313598468E+02  0.43400731429E+02  0.00000000000E+00 0. -1.
         11    1    3    3    0    0 -0.18389849394E+02  0.13702991858E+02 -0.14182763623E+02  0.26964964877E+02  0.51100000000E-03 0. -1.
        -11    1    3    3    0    0 -0.33850882411E+01  0.41280351854E+01 -0.95189244764E+01  0.10913726235E+02  0.51100000000E-03 0.  1.
         12    1    3    3    0    0  0.27727216710E+01  0.40406585589E+01 -0.86119103686E+01  0.99085774585E+01  0.00000000000E+00 0. -1.
</event>
<event>
 7    1  0.2580704E-010  0.4778724E+02  0.7816164E-02  0.1312668E+00
        -11   -1    0    0    0    0  0.00000000000E+00  0.00000000000E+00  0.45593999997E+02  0.45594000000E+02  0.51100000000E-03 0.  1.
         11   -1    0    0    0    0 -0.00000000000E+00 -0.00000000000E+00 -0.45593999997E+02  0.45594000000E+02  0.51100000000E-03 0. -1.
    9900012    2    1    2    0    0  0.30440938721E+02  0.21742675493E+02  0.22005248832E+02  0.47787243509E+02  0.19999874456E+02 0.  0.
         12    1    1    2    0    0 -0.30440938721E+02 -0.21742675493E+02 -0.22005248832E+02  0.43400756491E+02  0.00000000000E+00 0. -1.
         11    1    3    3    0    0  0.11091995674E+02  0.60987353273E+01  0.26752727735E+01  0.12937697836E+02  0.51100000000E-03 0. -1.
        -11    1    3    3    0    0  0.51636944182E+01 -0.26352799061E+01  0.29823628153E+01  0.65194270033E+01  0.51100000000E-03 0.  1.
        -12    1    3    3    0    0  0.14185248628E+02  0.18279220072E+02  0.16347613243E+02  0.28330118670E+02  0.00000000000E+00 0.  1.
</event>
<event>
 7    1  0.2580704E-010  0.4778727E+02  0.7816164E-02  0.1312668E+00
        -11   -1    0    0    0    0  0.00000000000E+00  0.00000000000E+00  0.45593999997E+02  0.45594000000E+02  0.51100000000E-03 0.  1.
         11   -1    0    0    0    0 -0.00000000000E+00 -0.00000000000E+00 -0.45593999997E+02  0.45594000000E+02  0.51100000000E-03 0. -1.
    9900012    2    1    2    0    0  0.15799132456E+02  0.12026342502E+02  0.38592458973E+02  0.47787269707E+02  0.19999993904E+02 0.  0.
         12    1    1    2    0    0 -0.15799132456E+02 -0.12026342502E+02 -0.38592458973E+02  0.43400730293E+02  0.00000000000E+00 0. -1.
         11    1    3    3    0    0  0.18192181413E+01  0.44298318800E+01  0.26568249102E+01  0.54764663786E+01  0.51100000000E-03 0. -1.
        -11    1    3    3    0    0 -0.18512794709E+01  0.50929180709E+01  0.14968649943E+02  0.15919344570E+02  0.51100000000E-03 0.  1.
        -12    1    3    3    0    0  0.15831193785E+02  0.25035925511E+01  0.20966984120E+02  0.26391458759E+02  0.00000000000E+00 0.  1.
</event>
<event>
 7    1  0.2580704E-010  0.4778727E+02  0.7816164E-02  0.1312668E+00
        -11   -1    0    0    0    0  0.00000000000E+00  0.00000000000E+00  0.45593999997E+02  0.45594000000E+02  0.51100000000E-03 0.  1.
         11   -1    0    0    0    0 -0.00000000000E+00 -0.00000000000E+00 -0.45593999997E+02  0.45594000000E+02  0.51100000000E-03 0. -1.
    9900012    2    1    2    0    0  0.34956588508E+02 -0.12117712627E+01  0.25694196543E+02  0.47787271829E+02  0.20000003579E+02 0.  0.
         12    1    1    2    0    0 -0.34956588508E+02  0.12117712627E+01 -0.25694196543E+02  0.43400728171E+02  0.00000000000E+00 0. -1.
         11    1    3    3    0    0  0.34380246444E+01  0.14772263305E+01  0.67863616758E+01  0.77496397428E+01  0.51100000000E-03 0. -1.
        -11    1    3    3    0    0  0.19741077517E+02  0.41996685991E+01  0.16741422741E+02  0.26222558867E+02  0.51100000000E-03 0.  1.
         12    1    3    3    0    0  0.11777486347E+02 -0.68886661923E+01  0.21664121265E+01  0.13815073220E+02  0.00000000000E+00 0. -1.
</event>
<event>
 7    1  0.2580704E-010  0.4778727E+02  0.7816164E-02  0.1312668E+00
        -11   -1    0    0    0    0  0.00000000000E+00  0.00000000000E+00  0.45593999997E+02  0.45594000000E+02  0.51100000000E-03 0. -1.
         11   -1    0    0    0    0 -0.00000000000E+00 -0.00000000000E+00 -0.45593999997E+02  0.45594000000E+02  0.51100000000E-03 0.  1.
    9900012    2    1    2    0    0  0.25140661593E+02 -0.32082374977E+02 -0.14909440478E+02  0.47787273452E+02  0.20000010979E+02 0.  0.
         12    1    1    2    0    0 -0.25140661593E+02  0.32082374977E+02  0.14909440478E+02  0.43400726548E+02  0.00000000000E+00 0. -1.
         11    1    3    3    0    0  0.11148588811E+02 -0.93210853797E+01 -0.84696819733E+00  0.14556476927E+02  0.51100000000E-03 0. -1.
        -11    1    3    3    0    0  0.21775349986E+01 -0.59393278490E+01  0.25304443259E+01  0.68132534604E+01  0.51100000000E-03 0.  1.
        -12    1    3    3    0    0  0.11814537783E+02 -0.16821961748E+02 -0.16592916606E+02  0.26417543065E+02  0.00000000000E+00 0.  1.
</event>
<event>
 7    1  0.2580704E-010  0.4778727E+02  0.7816164E-02  0.1312668E+00
        -11   -1    0    0    0    0  0.00000000000E+00  0.00000000000E+00  0.45593999997E+02  0.45594000000E+02  0.51100000000E-03 0.  1.
         11   -1    0    0    0    0 -0.00000000000E+00 -0.00000000000E+00 -0.45593999997E+02  0.45594000000E+02  0.51100000000E-03 0. -1.
    9900012    2    1    2    0    0 -0.35307885713E+02  0.47865720156E+01  0.24780337391E+02  0.47787272052E+02  0.20000004595E+02 0.  0.
         12    1    1    2    0    0  0.35307885713E+02 -0.47865720156E+01 -0.24780337391E+02  0.43400727948E+02  0.00000000000E+00 0. -1.
         11    1    3    3    0    0 -0.41211102302E+01 -0.50950071500E+01  0.34351752326E+01  0.73988564338E+01  0.51100000000E-03 0. -1.
        -11    1    3    3    0    0 -0.12919975249E+02  0.25279160350E+01  0.14393029924E+02  0.19505779414E+02  0.51100000000E-03 0.  1.
         12    1    3    3    0    0 -0.18266800234E+02  0.73536631307E+01  0.69521322346E+01  0.20882636204E+02  0.00000000000E+00 0. -1.
</event>
<event>
 7    1  0.2580704E-010  0.4778727E+02  0.7816164E-02  0.1312668E+00
        -11   -1    0    0    0    0  0.00000000000E+00  0.00000000000E+00  0.45593999997E+02  0.45594000000E+02  0.51100000000E-03 0. -1.
         11   -1    0    0    0    0 -0.00000000000E+00 -0.00000000000E+00 -0.45593999997E+02  0.45594000000E+02  0.51100000000E-03 0.  1.
    9900012    2    1    2    0    0 -0.39567951347E+02 -0.17267608523E+02 -0.44531390172E+01  0.47787268151E+02  0.19999986809E+02 0.  0.
         12    1    1    2    0    0  0.39567951347E+02  0.17267608523E+02  0.44531390172E+01  0.43400731849E+02  0.00000000000E+00 0. -1.
         11    1    3    3    0    0 -0.86336486471E+01 -0.65199616045E+00 -0.18935589247E+00  0.86603027586E+01  0.51100000000E-03 0. -1.
        -11    1    3    3    0    0 -0.41900258737E+01 -0.83919401252E+01 -0.59303400855E+01  0.11097292899E+02  0.51100000000E-03 0.  1.
        -12    1    3    3    0    0 -0.26744276826E+02 -0.82236722369E+01  0.16665569608E+01  0.28029672494E+02  0.00000000000E+00 0.  1.
</event>
<event>
 7    1  0.2580704E-010  0.4778727E+02  0.7816164E-02  0.1312668E+00
        -11   -1    0    0    0    0  0.00000000000E+00  0.00000000000E+00  0.45593999997E+02  0.45594000000E+02  0.51100000000E-03 0. -1.
         11   -1    0    0    0    0 -0.00000000000E+00 -0.00000000000E+00 -0.45593999997E+02  0.45594000000E+02  0.51100000000E-03 0.  1.
    9900012    2    1    2    0    0 -0.37656721137E+02  0.10510925811E+02 -0.18844505614E+02  0.47787267287E+02  0.19999982869E+02 0.  0.
         12    1    1    2    0    0  0.37656721137E+02 -0.10510925811E+02  0.18844505614E+02  0.43400732713E+02  0.00000000000E+00 0. -1.
         11    1    3    3    0    0 -0.10254747395E+02  0.39872361916E+01 -0.33609336241E+01  0.11504510927E+02  0.51100000000E-03 0. -1.
        -11    1    3    3    0    0 -0.11268102000E+02  0.40287163810E+01 -0.15962617710E+02  0.19950083779E+02  0.51100000000E-03 0.  1.
        -12    1    3    3    0    0 -0.16133871742E+02  0.24949732385E+01  0.47904572060E+00  0.16332672581E+02  0.00000000000E+00 0.  1.
</event>
<event>
 7    1  0.2580704E-010  0.4778727E+02  0.7816164E-02  0.1312668E+00
        -11   -1    0    0    0    0  0.00000000000E+00  0.00000000000E+00  0.45593999997E+02  0.45594000000E+02  0.51100000000E-03 0. -1.
         11   -1    0    0    0    0 -0.00000000000E+00 -0.00000000000E+00 -0.45593999997E+02  0.45594000000E+02  0.51100000000E-03 0.  1.
    9900012    2    1    2    0    0 -0.35950784365E+02  0.23810993497E+02 -0.49194440383E+01  0.47787271464E+02  0.20000001915E+02 0.  0.
         12    1    1    2    0    0  0.35950784365E+02 -0.23810993497E+02  0.49194440383E+01  0.43400728536E+02  0.00000000000E+00 0. -1.
         11    1    3    3    0    0  0.57251032328E+00  0.89406778661E+00  0.22015176592E+01  0.24441369729E+01  0.51100000000E-03 0. -1.
        -11    1    3    3    0    0 -0.15127682480E+02  0.43501936806E+01  0.12872310005E+01  0.15793287377E+02  0.51100000000E-03 0.  1.
        -12    1    3    3    0    0 -0.21395612209E+02  0.18566732029E+02 -0.84081926980E+01  0.29549847115E+02  0.00000000000E+00 0.  1.
</event>
<event>
 7    1  0.2580704E-010  0.4778727E+02  0.7816164E-02  0.1312668E+00
        -11   -1    0    0    0    0  0.00000000000E+00  0.00000000000E+00  0.45593999997E+02  0.45594000000E+02  0.51100000000E-03 0.  1.
         11   -1    0    0    0    0 -0.00000000000E+00 -0.00000000000E+00 -0.45593999997E+02  0.45594000000E+02  0.51100000000E-03 0. -1.
    9900012    2    1    2    0    0  0.11549411203E+02  0.36513041949E+02 -0.20421363220E+02  0.47787271812E+02  0.20000003498E+02 0.  0.
         12    1    1    2    0    0 -0.11549411203E+02 -0.36513041949E+02  0.20421363220E+02  0.43400728188E+02  0.00000000000E+00 0. -1.
         11    1    3    3    0    0  0.10764034798E+02  0.21270546221E+02 -0.18768035768E+02  0.30340397962E+02  0.51100000000E-03 0. -1.
        -11    1    3    3    0    0 -0.14334838539E+01 -0.14960715423E+00  0.88290913602E+00  0.16902032610E+01  0.51100000000E-03 0.  1.
        -12    1    3    3    0    0  0.22188602591E+01  0.15392102883E+02 -0.25362365882E+01  0.15756670588E+02  0.00000000000E+00 0.  1.
</event>
<event>
 7    1  0.2580704E-010  0.4778729E+02  0.7816164E-02  0.1312668E+00
        -11   -1    0    0    0    0  0.00000000000E+00  0.00000000000E+00  0.45593999997E+02  0.45594000000E+02  0.51100000000E-03 0.  1.
         11   -1    0    0    0    0 -0.00000000000E+00 -0.00000000000E+00 -0.45593999997E+02  0.45594000000E+02  0.51100000000E-03 0. -1.
    9900012    2    1    2    0    0 -0.22304205805E+01  0.39014667157E+02  0.18881283393E+02  0.47787286965E+02  0.20000072589E+02 0.  0.
         12    1    1    2    0    0  0.22304205805E+01 -0.39014667157E+02 -0.18881283393E+02  0.43400713035E+02  0.00000000000E+00 0. -1.
         11    1    3    3    0    0  0.26537529145E+01  0.12766158775E+02  0.53229706605E+01  0.14083722211E+02  0.51100000000E-03 0. -1.
        -11    1    3    3    0    0 -0.68396404468E+01  0.27585524215E+02  0.11897911117E+02  0.30810746775E+02  0.51100000000E-03 0.  1.
         12    1    3    3    0    0  0.19554669519E+01 -0.13370158321E+01  0.16604016155E+01  0.28928179790E+01  0.00000000000E+00 0. -1.
</event>
<event>
 7    1  0.2580704E-010  0.4778727E+02  0.7816164E-02  0.1312668E+00
        -11   -1    0    0    0    0  0.00000000000E+00  0.00000000000E+00  0.45593999997E+02  0.45594000000E+02  0.51100000000E-03 0.  1.
         11   -1    0    0    0    0 -0.00000000000E+00 -0.00000000000E+00 -0.45593999997E+02  0.45594000000E+02  0.51100000000E-03 0. -1.
    9900012    2    1    2    0    0  0.66778557818E+01 -0.19183427256E+02  0.38353952848E+02  0.47787270304E+02  0.19999996623E+02 0.  0.
         12    1    1    2    0    0 -0.66778557818E+01  0.19183427256E+02 -0.38353952848E+02  0.43400729696E+02  0.00000000000E+00 0. -1.
         11    1    3    3    0    0 -0.35932561099E+01 -0.43757696755E+01  0.67581444443E+01  0.88165393617E+01  0.51100000000E-03 0. -1.
        -11    1    3    3    0    0  0.37427532206E+01 -0.11796416732E+02  0.28636059824E+02  0.31195954415E+02  0.51100000000E-03 0.  1.
         12    1    3    3    0    0  0.65283586712E+01 -0.30112408489E+01  0.29597485796E+01  0.77747765269E+01  0.00000000000E+00 0. -1.
</event>
<event>
 7    1  0.2580704E-010  0.4778727E+02  0.7816164E-02  0.1312668E+00
        -11   -1    0    0    0    0  0.00000000000E+00  0.00000000000E+00  0.45593999997E+02  0.45594000000E+02  0.51100000000E-03 0.  1.
         11   -1    0    0    0    0 -0.00000000000E+00 -0.00000000000E+00 -0.45593999997E+02  0.45594000000E+02  0.51100000000E-03 0. -1.
    9900012    2    1    2    0    0 -0.11103734636E+02  0.40978033632E+01  0.41755695984E+02  0.47787273481E+02  0.20000011111E+02 0.  0.
         12    1    1    2    0    0  0.11103734636E+02 -0.40978033632E+01 -0.41755695984E+02  0.43400726519E+02  0.00000000000E+00 0. -1.
         11    1    3    3    0    0 -0.60784147700E+00  0.45292893329E+01  0.16292749493E+02  0.16921513509E+02  0.51100000000E-03 0. -1.
        -11    1    3    3    0    0 -0.18236874083E-01  0.53950885319E+01  0.67397766328E+01  0.86331860963E+01  0.51100000000E-03 0.  1.
         12    1    3    3    0    0 -0.10477656285E+02 -0.58265745016E+01  0.18723169858E+02  0.22232573876E+02  0.00000000000E+00 0. -1.
</event>
<event>
 7    1  0.2580704E-010  0.4778727E+02  0.7816164E-02  0.1312668E+00
        -11   -1    0    0    0    0  0.00000000000E+00  0.00000000000E+00  0.45593999997E+02  0.45594000000E+02  0.51100000000E-03 0. -1.
         11   -1    0    0    0    0 -0.00000000000E+00 -0.00000000000E+00 -0.45593999997E+02  0.45594000000E+02  0.51100000000E-03 0.  1.
    9900012    2    1    2    0    0 -0.29396015347E+02  0.31709829438E+02  0.37395226177E+01  0.47787273846E+02  0.20000012773E+02 0.  0.
         12    1    1    2    0    0  0.29396015347E+02 -0.31709829438E+02 -0.37395226177E+01  0.43400726154E+02  0.00000000000E+00 0. -1.
         11    1    3    3    0    0 -0.50272048835E+01  0.51876882010E+00  0.51378353480E+01  0.72068899224E+01  0.51100000000E-03 0. -1.
        -11    1    3    3    0    0  0.38560781612E+00  0.30011535282E+01  0.18000060360E+00  0.30311740903E+01  0.51100000000E-03 0.  1.
        -12    1    3    3    0    0 -0.24754418280E+02  0.28189907090E+02 -0.15783133339E+01  0.37549209833E+02  0.00000000000E+00 0.  1.
</event>
<event>
 7    1  0.2580704E-010  0.4778727E+02  0.7816164E-02  0.1312668E+00
        -11   -1    0    0    0    0  0.00000000000E+00  0.00000000000E+00  0.45593999997E+02  0.45594000000E+02  0.51100000000E-03 0.  1.
         11   -1    0    0    0    0 -0.00000000000E+00 -0.00000000000E+00 -0.45593999997E+02  0.45594000000E+02  0.51100000000E-03 0. -1.
    9900012    2    1    2    0    0  0.44172717095E+01 -0.26268913340E+02  0.34264483787E+02  0.47787274815E+02  0.20000017191E+02 0.  0.
         12    1    1    2    0    0 -0.44172717095E+01  0.26268913340E+02 -0.34264483787E+02  0.43400725185E+02  0.00000000000E+00 0. -1.
         11    1    3    3    0    0 -0.20799411557E+01 -0.82802352223E+01  0.32639326292E+01  0.91401152628E+01  0.51100000000E-03 0. -1.
        -11    1    3    3    0    0  0.50047294442E+01 -0.44509948905E+01  0.26651092376E+01  0.72084311632E+01  0.51100000000E-03 0.  1.
        -12    1    3    3    0    0  0.14924834211E+01 -0.13537683227E+02  0.28335441920E+02  0.31438728389E+02  0.00000000000E+00 0.  1.
</event>
<event>
 7    1  0.2580704E-010  0.4778727E+02  0.7816164E-02  0.1312668E+00
        -11   -1    0    0    0    0  0.00000000000E+00  0.00000000000E+00  0.45593999997E+02  0.45594000000E+02  0.51100000000E-03 0.  1.
         11   -1    0    0    0    0 -0.00000000000E+00 -0.00000000000E+00 -0.45593999997E+02  0.45594000000E+02  0.51100000000E-03 0. -1.
    9900012    2    1    2    0    0 -0.18180166392E+02  0.16178994563E+02  0.35935293309E+02  0.47787267053E+02  0.19999981800E+02 0.  0.
         12    1    1    2    0    0  0.18180166392E+02 -0.16178994563E+02 -0.35935293309E+02  0.43400732947E+02  0.00000000000E+00 0. -1.
         11    1    3    3    0    0 -0.18470572720E+01  0.61220884380E+00 -0.52574409185E+00  0.20156456399E+01  0.51100000000E-03 0. -1.
        -11    1    3    3    0    0 -0.40294525485E+01  0.44075604691E+01  0.30156675282E+00  0.59794665228E+01  0.51100000000E-03 0.  1.
        -12    1    3    3    0    0 -0.12303656572E+02  0.11159225250E+02  0.36159470648E+02  0.39792154890E+02  0.00000000000E+00 0.  1.
</event>
<event>
 7    1  0.2935128E-010  0.4778733E+02  0.7816164E-02  0.1312667E+00
        -11   -1    0    0    0    0  0.00000000000E+00  0.00000000000E+00  0.45593999997E+02  0.45594000000E+02  0.51100000000E-03 0. -1.
         11   -1    0    0    0    0 -0.00000000000E+00 -0.00000000000E+00 -0.45593999997E+02  0.45594000000E+02  0.51100000000E-03 0.  1.
    9900012    2    1    2    0    0  0.29107091719E+02  0.21024048000E+02 -0.24380007730E+02  0.47787329964E+02  0.20000268635E+02 0.  0.
         12    1    1    2    0    0 -0.29107091719E+02 -0.21024048000E+02  0.24380007730E+02  0.43400670036E+02  0.00000000000E+00 0. -1.
         11    1    3    3    0    0  0.23640950290E+01  0.57092184909E+01  0.64949542752E+00  0.62133699113E+01  0.51100000000E-03 0. -1.
        -11    1    3    3    0    0  0.13379521850E+02  0.14556649173E+02 -0.15905662107E+02  0.25375139948E+02  0.51100000000E-03 0.  1.
        -12    1    3    3    0    0  0.13363474841E+02  0.75818033595E+00 -0.91238410514E+01  0.16198820104E+02  0.00000000000E+00 0.  1.
</event>
<event>
 7    1  0.2580704E-010  0.4778727E+02  0.7816164E-02  0.1312668E+00
        -11   -1    0    0    0    0  0.00000000000E+00  0.00000000000E+00  0.45593999997E+02  0.45594000000E+02  0.51100000000E-03 0.  1.
         11   -1    0    0    0    0 -0.00000000000E+00 -0.00000000000E+00 -0.45593999997E+02  0.45594000000E+02  0.51100000000E-03 0. -1.
    9900012    2    1    2    0    0 -0.40196632051E+02  0.16361307456E+02  0.40195545485E+00  0.47787272148E+02  0.20000005031E+02 0.  0.
         12    1    1    2    0    0  0.40196632051E+02 -0.16361307456E+02 -0.40195545485E+00  0.43400727852E+02  0.00000000000E+00 0. -1.
         11    1    3    3    0    0 -0.73155313240E+01  0.15191574292E+01  0.59699148424E+01  0.95637190116E+01  0.51100000000E-03 0. -1.
        -11    1    3    3    0    0 -0.13999803143E+02  0.11680829627E+02  0.18478215581E+00  0.18233771236E+02  0.51100000000E-03 0.  1.
         12    1    3    3    0    0 -0.18881297584E+02  0.31613204004E+01 -0.57527415433E+01  0.19989781900E+02  0.00000000000E+00 0. -1.
</event>
<event>
 7    1  0.2580704E-010  0.4778726E+02  0.7816164E-02  0.1312668E+00
        -11   -1    0    0    0    0  0.00000000000E+00  0.00000000000E+00  0.45593999997E+02  0.45594000000E+02  0.51100000000E-03 0.  1.
         11   -1    0    0    0    0 -0.00000000000E+00 -0.00000000000E+00 -0.45593999997E+02  0.45594000000E+02  0.51100000000E-03 0. -1.
    9900012    2    1    2    0    0  0.17722101813E+02  0.31911414038E+02  0.23477916466E+02  0.47787264981E+02  0.19999972355E+02 0.  0.
         12    1    1    2    0    0 -0.17722101813E+02 -0.31911414038E+02 -0.23477916466E+02  0.43400735019E+02  0.00000000000E+00 0. -1.
         11    1    3    3    0    0  0.28564397819E+01  0.18316582025E+02  0.96660122540E+01  0.20906654884E+02  0.51100000000E-03 0. -1.
        -11    1    3    3    0    0  0.97978561722E+01  0.21002649972E+01  0.88667756957E+01  0.13380164802E+02  0.51100000000E-03 0.  1.
        -12    1    3    3    0    0  0.50678058592E+01  0.11494567016E+02  0.49451285164E+01  0.13500445295E+02  0.00000000000E+00 0.  1.
</event>
<event>
 7    1  0.2580704E-010  0.4778727E+02  0.7816164E-02  0.1312668E+00
        -11   -1    0    0    0    0  0.00000000000E+00  0.00000000000E+00  0.45593999997E+02  0.45594000000E+02  0.51100000000E-03 0.  1.
         11   -1    0    0    0    0 -0.00000000000E+00 -0.00000000000E+00 -0.45593999997E+02  0.45594000000E+02  0.51100000000E-03 0. -1.
    9900012    2    1    2    0    0  0.11034904278E+01  0.42894614947E+02 -0.65159531982E+01  0.47787270413E+02  0.19999997123E+02 0.  0.
         12    1    1    2    0    0 -0.11034904278E+01 -0.42894614947E+02  0.65159531982E+01  0.43400729587E+02  0.00000000000E+00 0. -1.
         11    1    3    3    0    0 -0.16802262100E+01  0.11480923867E+01 -0.10247582852E+01  0.22784657226E+01  0.51100000000E-03 0. -1.
        -11    1    3    3    0    0  0.65513898190E+01  0.53348518030E+01  0.26506538273E+00  0.84529055501E+01  0.51100000000E-03 0.  1.
        -12    1    3    3    0    0 -0.37676731813E+01  0.36411670757E+02 -0.57562602958E+01  0.37055899141E+02  0.00000000000E+00 0.  1.
</event>
<event>
 7    1  0.2580704E-010  0.4778728E+02  0.7816164E-02  0.1312668E+00
        -11   -1    0    0    0    0  0.00000000000E+00  0.00000000000E+00  0.45593999997E+02  0.45594000000E+02  0.51100000000E-03 0.  1.
         11   -1    0    0    0    0 -0.00000000000E+00 -0.00000000000E+00 -0.45593999997E+02  0.45594000000E+02  0.51100000000E-03 0. -1.
    9900012    2    1    2    0    0  0.14416477079E+02  0.82913152546E+01  0.40087920544E+02  0.47787284642E+02  0.20000061996E+02 0.  0.
         12    1    1    2    0    0 -0.14416477079E+02 -0.82913152546E+01 -0.40087920544E+02  0.43400715358E+02  0.00000000000E+00 0. -1.
         11    1    3    3    0    0  0.71942800402E+01  0.37875719356E+01  0.10257240719E+02  0.13088710933E+02  0.51100000000E-03 0. -1.
        -11    1    3    3    0    0  0.11810128207E+02  0.52779798248E+01  0.19944698174E+02  0.23772403850E+02  0.51100000000E-03 0.  1.
         12    1    3    3    0    0 -0.45879311682E+01 -0.77423650582E+00  0.98859816514E+01  0.10926169859E+02  0.00000000000E+00 0. -1.
</event>
<event>
 7    1  0.2580704E-010  0.4778727E+02  0.7816164E-02  0.1312668E+00
        -11   -1    0    0    0    0  0.00000000000E+00  0.00000000000E+00  0.45593999997E+02  0.45594000000E+02  0.51100000000E-03 0.  1.
         11   -1    0    0    0    0 -0.00000000000E+00 -0.00000000000E+00 -0.45593999997E+02  0.45594000000E+02  0.51100000000E-03 0. -1.
    9900012    2    1    2    0    0  0.25669542470E+02 -0.26038866287E+02  0.23381086652E+02  0.47787272113E+02  0.20000004870E+02 0.  0.
         12    1    1    2    0    0 -0.25669542470E+02  0.26038866287E+02 -0.23381086652E+02  0.43400727887E+02  0.00000000000E+00 0. -1.
         11    1    3    3    0    0  0.13539676756E+02 -0.15880195048E+02  0.14801304077E+02  0.25584801036E+02  0.51100000000E-03 0. -1.
        -11    1    3    3    0    0  0.14439466282E+02 -0.61790454788E+01  0.77977681910E+01  0.17535221086E+02  0.51100000000E-03 0.  1.
         12    1    3    3    0    0 -0.23096005672E+01 -0.39796257606E+01  0.78201438355E+00  0.46672499901E+01  0.00000000000E+00 0. -1.
</event>
<event>
 7    1  0.2580704E-010  0.4778726E+02  0.7816164E-02  0.1312668E+00
        -11   -1    0    0    0    0  0.00000000000E+00  0.00000000000E+00  0.45593999997E+02  0.45594000000E+02  0.51100000000E-03 0.  1.
         11   -1    0    0    0    0 -0.00000000000E+00 -0.00000000000E+00 -0.45593999997E+02  0.45594000000E+02  0.51100000000E-03 0. -1.
    9900012    2    1    2    0    0 -0.12357174199E+02 -0.29454687871E+02  0.29382745715E+02  0.47787261095E+02  0.19999954636E+02 0.  0.
         12    1    1    2    0    0  0.12357174199E+02  0.29454687871E+02 -0.29382745715E+02  0.43400738905E+02  0.00000000000E+00 0. -1.
         11    1    3    3    0    0 -0.27603929100E+00 -0.11489885359E+02  0.43732162418E+01  0.12297100627E+02  0.51100000000E-03 0. -1.
        -11    1    3    3    0    0 -0.63802110558E+00 -0.10592360256E+02  0.62604138351E+01  0.12320631006E+02  0.51100000000E-03 0.  1.
        -12    1    3    3    0    0 -0.11443113802E+02 -0.73724422549E+01  0.18749115638E+02  0.23169529463E+02  0.00000000000E+00 0.  1.
</event>
<event>
 7    1  0.2580704E-010  0.4778727E+02  0.7816164E-02  0.1312668E+00
        -11   -1    0    0    0    0  0.00000000000E+00  0.00000000000E+00  0.45593999997E+02  0.45594000000E+02  0.51100000000E-03 0.  1.
         11   -1    0    0    0    0 -0.00000000000E+00 -0.00000000000E+00 -0.45593999997E+02  0.45594000000E+02  0.51100000000E-03 0. -1.
    9900012    2    1    2    0    0 -0.12267811714E+02  0.13733449507E+02  0.39300338918E+02  0.47787268685E+02  0.19999989242E+02 0.  0.
         12    1    1    2    0    0  0.12267811714E+02 -0.13733449507E+02 -0.39300338918E+02  0.43400731315E+02  0.00000000000E+00 0. -1.
         11    1    3    3    0    0 -0.32495035817E+01  0.18951672112E+01  0.17180936609E+02  0.17587936641E+02  0.51100000000E-03 0.  1.
        -11    1    3    3    0    0  0.36729350438E+01  0.46682415184E+01  0.73188487031E+01  0.94259470246E+01  0.51100000000E-03 0. -1.
         12    1    3    3    0    0 -0.12691243176E+02  0.71700407775E+01  0.14800553606E+02  0.20773385019E+02  0.00000000000E+00 0. -1.
</event>
<event>
 7    1  0.2580704E-010  0.4778727E+02  0.7816164E-02  0.1312668E+00
        -11   -1    0    0    0    0  0.00000000000E+00  0.00000000000E+00  0.45593999997E+02  0.45594000000E+02  0.51100000000E-03 0. -1.
         11   -1    0    0    0    0 -0.00000000000E+00 -0.00000000000E+00 -0.45593999997E+02  0.45594000000E+02  0.51100000000E-03 0.  1.
    9900012    2    1    2    0    0 -0.13203941558E+02 -0.17307009984E+02 -0.37546592500E+02  0.47787271024E+02  0.19999999908E+02 0.  0.
         12    1    1    2    0    0  0.13203941558E+02  0.17307009984E+02  0.37546592500E+02  0.43400728976E+02  0.00000000000E+00 0. -1.
         11    1    3    3    0    0 -0.50989615314E+01 -0.51849943864E+01 -0.19898887897E+02  0.21186064177E+02  0.51100000000E-03 0. -1.
        -11    1    3    3    0    0 -0.68855308893E+01 -0.12147757520E+02 -0.19739932750E+02  0.24179402259E+02  0.51100000000E-03 0.  1.
         12    1    3    3    0    0 -0.12194491372E+01  0.25741922287E-01  0.20922281471E+01  0.24218045883E+01  0.00000000000E+00 0. -1.
</event>
<event>
 7    1  0.2580704E-010  0.4778727E+02  0.7816164E-02  0.1312668E+00
        -11   -1    0    0    0    0  0.00000000000E+00  0.00000000000E+00  0.45593999997E+02  0.45594000000E+02  0.51100000000E-03 0.  1.
         11   -1    0    0    0    0 -0.00000000000E+00 -0.00000000000E+00 -0.45593999997E+02  0.45594000000E+02  0.51100000000E-03 0. -1.
    9900012    2    1    2    0    0 -0.19526327976E+02 -0.11565098579E+02  0.36994516521E+02  0.47787271412E+02  0.20000001676E+02 0.  0.
         12    1    1    2    0    0  0.19526327976E+02  0.11565098579E+02 -0.36994516521E+02  0.43400728588E+02  0.00000000000E+00 0. -1.
         11    1    3    3    0    0  0.72450627674E+00 -0.61433305317E+00 -0.89101083134E+00  0.13023881940E+01  0.51100000000E-03 0. -1.
        -11    1    3    3    0    0 -0.59999077091E+01  0.71535337603E+00  0.19686593993E+02  0.20593023243E+02  0.51100000000E-03 0.  1.
        -12    1    3    3    0    0 -0.14250926543E+02 -0.11666118902E+02  0.18198933359E+02  0.25891859975E+02  0.00000000000E+00 0.  1.
</event>
<event>
 7    1  0.2580704E-010  0.4778727E+02  0.7816164E-02  0.1312668E+00
        -11   -1    0    0    0    0  0.00000000000E+00  0.00000000000E+00  0.45593999997E+02  0.45594000000E+02  0.51100000000E-03 0.  1.
         11   -1    0    0    0    0 -0.00000000000E+00 -0.00000000000E+00 -0.45593999997E+02  0.45594000000E+02  0.51100000000E-03 0. -1.
    9900012    2    1    2    0    0 -0.20419040844E+01  0.38045142829E+02  0.20785124573E+02  0.47787266496E+02  0.19999979264E+02 0.  0.
         12    1    1    2    0    0  0.20419040844E+01 -0.38045142829E+02 -0.20785124573E+02  0.43400733504E+02  0.00000000000E+00 0. -1.
         11    1    3    3    0    0 -0.22715977749E+01 -0.45534339850E+00  0.26751967136E+01  0.35389506607E+01  0.51100000000E-03 0. -1.
        -11    1    3    3    0    0 -0.18820189635E+01  0.21662600149E+00  0.12729012572E+00  0.18987167353E+01  0.51100000000E-03 0.  1.
        -12    1    3    3    0    0  0.21117126541E+01  0.38283860226E+02  0.17982637733E+02  0.42349599100E+02  0.00000000000E+00 0.  1.
</event>
<event>
 7    1  0.2580704E-010  0.4778726E+02  0.7816164E-02  0.1312668E+00
        -11   -1    0    0    0    0  0.00000000000E+00  0.00000000000E+00  0.45593999997E+02  0.45594000000E+02  0.51100000000E-03 0. -1.
         11   -1    0    0    0    0 -0.00000000000E+00 -0.00000000000E+00 -0.45593999997E+02  0.45594000000E+02  0.51100000000E-03 0.  1.
    9900012    2    1    2    0    0  0.19745005525E+02 -0.16447523650E+02 -0.34974813759E+02  0.47787264120E+02  0.19999968429E+02 0.  0.
         12    1    1    2    0    0 -0.19745005525E+02  0.16447523650E+02  0.34974813759E+02  0.43400735880E+02  0.00000000000E+00 0. -1.
         11    1    3    3    0    0 -0.26788891668E+00 -0.33509343311E+01 -0.12494034890E+01  0.35862981893E+01  0.51100000000E-03 0. -1.
        -11    1    3    3    0    0  0.59139699598E+01 -0.11211101046E+02 -0.23439455030E+02  0.26647173953E+02  0.51100000000E-03 0.  1.
         12    1    3    3    0    0  0.14098924482E+02 -0.18854882728E+01 -0.10285955241E+02  0.17553791978E+02  0.00000000000E+00 0. -1.
</event>
<event>
 7    1  0.2580704E-010  0.4778727E+02  0.7816164E-02  0.1312668E+00
        -11   -1    0    0    0    0  0.00000000000E+00  0.00000000000E+00  0.45593999997E+02  0.45594000000E+02  0.51100000000E-03 0.  1.
         11   -1    0    0    0    0 -0.00000000000E+00 -0.00000000000E+00 -0.45593999997E+02  0.45594000000E+02  0.51100000000E-03 0. -1.
    9900012    2    1    2    0    0  0.15521735408E+02  0.12455431614E+02  0.38568913102E+02  0.47787272995E+02  0.20000008891E+02 0.  0.
         12    1    1    2    0    0 -0.15521735408E+02 -0.12455431614E+02 -0.38568913102E+02  0.43400727005E+02  0.00000000000E+00 0. -1.
         11    1    3    3    0    0  0.36800009783E+01 -0.35762175805E+01  0.62195321212E+01  0.80631457540E+01  0.51100000000E-03 0. -1.
        -11    1    3    3    0    0  0.44312303601E+01  0.81968751837E+01  0.24983121342E+02  0.26664225426E+02  0.51100000000E-03 0.  1.
        -12    1    3    3    0    0  0.74105040692E+01  0.78347740106E+01  0.73662596384E+01  0.13059901815E+02  0.00000000000E+00 0.  1.
</event>
<event>
 7    1  0.2580704E-010  0.4778727E+02  0.7816164E-02  0.1312668E+00
        -11   -1    0    0    0    0  0.00000000000E+00  0.00000000000E+00  0.45593999997E+02  0.45594000000E+02  0.51100000000E-03 0. -1.
         11   -1    0    0    0    0 -0.00000000000E+00 -0.00000000000E+00 -0.45593999997E+02  0.45594000000E+02  0.51100000000E-03 0.  1.
    9900012    2    1    2    0    0  0.34028720268E+02 -0.26134269199E+02 -0.65322120080E+01  0.47787267018E+02  0.19999981643E+02 0.  0.
         12    1    1    2    0    0 -0.34028720268E+02  0.26134269199E+02  0.65322120080E+01  0.43400732982E+02  0.00000000000E+00 0. -1.
         11    1    3    3    0    0  0.22262935632E+01  0.15956589702E+01 -0.69922914848E+00  0.28269121390E+01  0.51100000000E-03 0. -1.
        -11    1    3    3    0    0  0.15034089072E+02 -0.70031204081E+01  0.30414298767E+01  0.16861726651E+02  0.51100000000E-03 0.  1.
        -12    1    3    3    0    0  0.16768337632E+02 -0.20726807761E+02 -0.88744127363E+01  0.28098628228E+02  0.00000000000E+00 0.  1.
</event>
<event>
 7    1  0.2580704E-010  0.4778727E+02  0.7816164E-02  0.1312668E+00
        -11   -1    0    0    0    0  0.00000000000E+00  0.00000000000E+00  0.45593999997E+02  0.45594000000E+02  0.51100000000E-03 0.  1.
         11   -1    0    0    0    0 -0.00000000000E+00 -0.00000000000E+00 -0.45593999997E+02  0.45594000000E+02  0.51100000000E-03 0. -1.
    9900012    2    1    2    0    0  0.38854553590E+02  0.80484777396E+01  0.17583212308E+02  0.47787266324E+02  0.19999978475E+02 0.  0.
         12    1    1    2    0    0 -0.38854553590E+02 -0.80484777396E+01 -0.17583212308E+02  0.43400733676E+02  0.00000000000E+00 0. -1.
         11    1    3    3    0    0  0.27192597485E+01  0.30366823420E+01  0.53900463308E+01  0.67578408487E+01  0.51100000000E-03 0. -1.
        -11    1    3    3    0    0  0.81735458679E+01  0.67391285599E+01  0.30929320443E+00  0.10598036061E+02  0.51100000000E-03 0.  1.
         12    1    3    3    0    0  0.27961747974E+02 -0.17273331623E+01  0.11883872772E+02  0.30431389414E+02  0.00000000000E+00 0. -1.
</event>
<event>
 7    1  0.2580704E-010  0.4778727E+02  0.7816164E-02  0.1312668E+00
        -11   -1    0    0    0    0  0.00000000000E+00  0.00000000000E+00  0.45593999997E+02  0.45594000000E+02  0.51100000000E-03 0. -1.
         11   -1    0    0    0    0 -0.00000000000E+00 -0.00000000000E+00 -0.45593999997E+02  0.45594000000E+02  0.51100000000E-03 0.  1.
    9900012    2    1    2    0    0 -0.30186293821E+02 -0.24763239605E+02 -0.18952386905E+02  0.47787270285E+02  0.19999996538E+02 0.  0.
         12    1    1    2    0    0  0.30186293821E+02  0.24763239605E+02  0.18952386905E+02  0.43400729715E+02  0.00000000000E+00 0. -1.
         11    1    3    3    0    0 -0.38976398680E+01 -0.89002631534E+01  0.14624047676E+01  0.98257268793E+01  0.51100000000E-03 0. -1.
        -11    1    3    3    0    0 -0.72398216132E+01 -0.94151169000E+01 -0.81903695525E+01  0.14427113256E+02  0.51100000000E-03 0.  1.
        -12    1    3    3    0    0 -0.19048832340E+02 -0.64478595517E+01 -0.12224422120E+02  0.23534430150E+02  0.00000000000E+00 0.  1.
</event>
<event>
 7    1  0.2580704E-010  0.4778727E+02  0.7816164E-02  0.1312668E+00
        -11   -1    0    0    0    0  0.00000000000E+00  0.00000000000E+00  0.45593999997E+02  0.45594000000E+02  0.51100000000E-03 0.  1.
         11   -1    0    0    0    0 -0.00000000000E+00 -0.00000000000E+00 -0.45593999997E+02  0.45594000000E+02  0.51100000000E-03 0. -1.
    9900012    2    1    2    0    0 -0.11368452577E+02 -0.41781149720E+02  0.29525091519E+01  0.47787268483E+02  0.19999988319E+02 0.  0.
         12    1    1    2    0    0  0.11368452577E+02  0.41781149720E+02 -0.29525091519E+01  0.43400731517E+02  0.00000000000E+00 0. -1.
         11    1    3    3    0    0 -0.71851267056E+01 -0.14582578467E+02  0.72617457736E+01  0.17804791278E+02  0.51100000000E-03 0. -1.
        -11    1    3    3    0    0 -0.63201275675E+01 -0.10248023289E+02  0.10267464436E+01  0.12083881923E+02  0.51100000000E-03 0.  1.
         12    1    3    3    0    0  0.21368016959E+01 -0.16950547965E+02 -0.53359830653E+01  0.17898595282E+02  0.00000000000E+00 0. -1.
</event>
<event>
 7    1  0.2580704E-010  0.4778727E+02  0.7816164E-02  0.1312668E+00
        -11   -1    0    0    0    0  0.00000000000E+00  0.00000000000E+00  0.45593999997E+02  0.45594000000E+02  0.51100000000E-03 0. -1.
         11   -1    0    0    0    0 -0.00000000000E+00 -0.00000000000E+00 -0.45593999997E+02  0.45594000000E+02  0.51100000000E-03 0.  1.
    9900012    2    1    2    0    0 -0.36789063875E+02  0.13978924149E+02 -0.18296936915E+02  0.47787269111E+02  0.19999991187E+02 0.  0.
         12    1    1    2    0    0  0.36789063875E+02 -0.13978924149E+02  0.18296936915E+02  0.43400730889E+02  0.00000000000E+00 0. -1.
         11    1    3    3    0    0 -0.15250870289E+02  0.19357293132E+01 -0.59925793986E+01  0.16499912141E+02  0.51100000000E-03 0. -1.
        -11    1    3    3    0    0 -0.20325877652E+02  0.55667224557E+01 -0.12838053124E+02  0.24676817248E+02  0.51100000000E-03 0.  1.
         12    1    3    3    0    0 -0.12123159336E+01  0.64764723802E+01  0.53369560703E+00  0.66105397220E+01  0.00000000000E+00 0. -1.
</event>
<event>
 7    1  0.2580704E-010  0.4778728E+02  0.7816164E-02  0.1312668E+00
        -11   -1    0    0    0    0  0.00000000000E+00  0.00000000000E+00  0.45593999997E+02  0.45594000000E+02  0.51100000000E-03 0. -1.
         11   -1    0    0    0    0 -0.00000000000E+00 -0.00000000000E+00 -0.45593999997E+02  0.45594000000E+02  0.51100000000E-03 0.  1.
    9900012    2    1    2    0    0  0.19566046159E+02  0.34861767262E+02 -0.16895261070E+02  0.47787276209E+02  0.20000023547E+02 0.  0.
         12    1    1    2    0    0 -0.19566046159E+02 -0.34861767262E+02  0.16895261070E+02  0.43400723791E+02  0.00000000000E+00 0. -1.
         11    1    3    3    0    0  0.48606787228E+01  0.19823278778E+02 -0.40881741525E+01  0.20815901310E+02  0.51100000000E-03 0. -1.
        -11    1    3    3    0    0  0.27659741370E+01  0.95526079655E+01 -0.86767887872E+01  0.13198090611E+02  0.51100000000E-03 0.  1.
        -12    1    3    3    0    0  0.11939393299E+02  0.54858805184E+01 -0.41302981304E+01  0.13773284288E+02  0.00000000000E+00 0.  1.
</event>
<event>
 7    1  0.2580704E-010  0.4778728E+02  0.7816164E-02  0.1312668E+00
        -11   -1    0    0    0    0  0.00000000000E+00  0.00000000000E+00  0.45593999997E+02  0.45594000000E+02  0.51100000000E-03 0.  1.
         11   -1    0    0    0    0 -0.00000000000E+00 -0.00000000000E+00 -0.45593999997E+02  0.45594000000E+02  0.51100000000E-03 0. -1.
    9900012    2    1    2    0    0  0.35744488017E+02  0.23096648282E+02  0.85146543389E+01  0.47787275075E+02  0.20000018378E+02 0.  0.
         12    1    1    2    0    0 -0.35744488017E+02 -0.23096648282E+02 -0.85146543389E+01  0.43400724925E+02  0.00000000000E+00 0. -1.
         11    1    3    3    0    0  0.18249061646E+02  0.80464461716E+01  0.59153872208E+01  0.20803013079E+02  0.51100000000E-03 0. -1.
        -11    1    3    3    0    0  0.11761654012E+02  0.15744759853E+01 -0.98438432244E+00  0.11907329360E+02  0.51100000000E-03 0.  1.
         12    1    3    3    0    0  0.57337723596E+01  0.13475726125E+02  0.35836514406E+01  0.15076932636E+02  0.00000000000E+00 0. -1.
</event>
<event>
 7    1  0.2580704E-010  0.4778728E+02  0.7816164E-02  0.1312668E+00
        -11   -1    0    0    0    0  0.00000000000E+00  0.00000000000E+00  0.45593999997E+02  0.45594000000E+02  0.51100000000E-03 0. -1.
         11   -1    0    0    0    0 -0.00000000000E+00 -0.00000000000E+00 -0.45593999997E+02  0.45594000000E+02  0.51100000000E-03 0.  1.
    9900012    2    1    2    0    0  0.17511729476E+02 -0.45786690152E+01 -0.39446133522E+02  0.47787281929E+02  0.20000049629E+02 0.  0.
         12    1    1    2    0    0 -0.17511729476E+02  0.45786690152E+01  0.39446133522E+02  0.43400718071E+02  0.00000000000E+00 0. -1.
         11    1    3    3    0    0  0.35395890388E+01  0.70486203886E+01 -0.72747728394E+01  0.10730054057E+02  0.51100000000E-03 0. -1.
        -11    1    3    3    0    0  0.52158010957E+01 -0.32071742821E+01 -0.88500333094E+01  0.10761674488E+02  0.51100000000E-03 0.  1.
         12    1    3    3    0    0  0.87563393418E+01 -0.84201151217E+01 -0.23321327373E+02  0.26295553384E+02  0.00000000000E+00 0. -1.
</event>
<event>
 7    1  0.2580704E-010  0.4778727E+02  0.7816164E-02  0.1312668E+00
        -11   -1    0    0    0    0  0.00000000000E+00  0.00000000000E+00  0.45593999997E+02  0.45594000000E+02  0.51100000000E-03 0. -1.
         11   -1    0    0    0    0 -0.00000000000E+00 -0.00000000000E+00 -0.45593999997E+02  0.45594000000E+02  0.51100000000E-03 0.  1.
    9900012    2    1    2    0    0 -0.25556949725E+02  0.32479201844E+02 -0.13250177212E+02  0.47787269271E+02  0.19999991914E+02 0.  0.
         12    1    1    2    0    0  0.25556949725E+02 -0.32479201844E+02  0.13250177212E+02  0.43400730729E+02  0.00000000000E+00 0. -1.
         11    1    3    3    0    0 -0.55382033437E+00  0.12597404485E+02 -0.63016196539E+01  0.14096514720E+02  0.51100000000E-03 0. -1.
        -11    1    3    3    0    0 -0.29289599849E+01 -0.39449299822E+00 -0.16845191348E+00  0.29602039841E+01  0.51100000000E-03 0.  1.
        -12    1    3    3    0    0 -0.22074169405E+02  0.20276290357E+02 -0.67801056445E+01  0.30730550567E+02  0.00000000000E+00 0.  1.
</event>
<event>
 7    1  0.2580704E-010  0.4778727E+02  0.7816164E-02  0.1312668E+00
        -11   -1    0    0    0    0  0.00000000000E+00  0.00000000000E+00  0.45593999997E+02  0.45594000000E+02  0.51100000000E-03 0. -1.
         11   -1    0    0    0    0 -0.00000000000E+00 -0.00000000000E+00 -0.45593999997E+02  0.45594000000E+02  0.51100000000E-03 0.  1.
    9900012    2    1    2    0    0 -0.25457007632E+02  0.11117380018E+02 -0.33346181791E+02  0.47787271710E+02  0.20000003037E+02 0.  0.
         12    1    1    2    0    0  0.25457007632E+02 -0.11117380018E+02  0.33346181791E+02  0.43400728290E+02  0.00000000000E+00 0. -1.
         11    1    3    3    0    0 -0.84167579298E+01  0.44436922132E+01 -0.45916018335E+01  0.10567451074E+02  0.51100000000E-03 0. -1.
        -11    1    3    3    0    0 -0.15619266242E+02  0.96335419567E+01 -0.28538388604E+02  0.33929430189E+02  0.51100000000E-03 0.  1.
        -12    1    3    3    0    0 -0.14209834600E+01 -0.29598541521E+01 -0.21619135286E+00  0.32903904474E+01  0.00000000000E+00 0.  1.
</event>
<event>
 7    1  0.2580704E-010  0.4778727E+02  0.7816164E-02  0.1312668E+00
        -11   -1    0    0    0    0  0.00000000000E+00  0.00000000000E+00  0.45593999997E+02  0.45594000000E+02  0.51100000000E-03 0. -1.
         11   -1    0    0    0    0 -0.00000000000E+00 -0.00000000000E+00 -0.45593999997E+02  0.45594000000E+02  0.51100000000E-03 0.  1.
    9900012    2    1    2    0    0 -0.10472455345E+02  0.19384086776E+02 -0.37392618824E+02  0.47787273236E+02  0.20000009994E+02 0.  0.
         12    1    1    2    0    0  0.10472455345E+02 -0.19384086776E+02  0.37392618824E+02  0.43400726764E+02  0.00000000000E+00 0. -1.
         11    1    3    3    0    0 -0.27282353640E+01  0.20762628161E+01 -0.32310186904E+01  0.47110102443E+01  0.51100000000E-03 0. -1.
        -11    1    3    3    0    0 -0.41582770787E+00 -0.15937239432E+01 -0.15293303707E+02  0.15381742659E+02  0.51100000000E-03 0.  1.
        -12    1    3    3    0    0 -0.73283922730E+01  0.18901547903E+02 -0.18868296427E+02  0.27694520333E+02  0.00000000000E+00 0.  1.
</event>
<event>
 7    1  0.2580704E-010  0.4778727E+02  0.7816164E-02  0.1312668E+00
        -11   -1    0    0    0    0  0.00000000000E+00  0.00000000000E+00  0.45593999997E+02  0.45594000000E+02  0.51100000000E-03 0.  1.
         11   -1    0    0    0    0 -0.00000000000E+00 -0.00000000000E+00 -0.45593999997E+02  0.45594000000E+02  0.51100000000E-03 0. -1.
    9900012    2    1    2    0    0  0.31600214421E+02  0.14530535901E+02  0.25959844457E+02  0.47787267872E+02  0.19999985535E+02 0.  0.
         12    1    1    2    0    0 -0.31600214421E+02 -0.14530535901E+02 -0.25959844457E+02  0.43400732128E+02  0.00000000000E+00 0. -1.
         11    1    3    3    0    0  0.51143559865E+01  0.38239247584E-01  0.13997499710E+01  0.53025842416E+01  0.51100000000E-03 0. -1.
        -11    1    3    3    0    0  0.21760024522E+02  0.13282132912E+02  0.10444652942E+02  0.27550036248E+02  0.51100000000E-03 0.  1.
         12    1    3    3    0    0  0.47258339121E+01  0.12101637408E+01  0.14115441544E+02  0.14934647383E+02  0.00000000000E+00 0. -1.
</event>
<event>
 7    1  0.2580704E-010  0.4778727E+02  0.7816164E-02  0.1312668E+00
        -11   -1    0    0    0    0  0.00000000000E+00  0.00000000000E+00  0.45593999997E+02  0.45594000000E+02  0.51100000000E-03 0.  1.
         11   -1    0    0    0    0 -0.00000000000E+00 -0.00000000000E+00 -0.45593999997E+02  0.45594000000E+02  0.51100000000E-03 0. -1.
    9900012    2    1    2    0    0 -0.13391132437E+01  0.21691006001E+02  0.37567676217E+02  0.47787271182E+02  0.20000000625E+02 0.  0.
         12    1    1    2    0    0  0.13391132437E+01 -0.21691006001E+02 -0.37567676217E+02  0.43400728818E+02  0.00000000000E+00 0. -1.
         11    1    3    3    0    0 -0.11582972384E+01  0.15940788229E+02  0.22442167530E+02  0.27551792421E+02  0.51100000000E-03 0. -1.
        -11    1    3    3    0    0 -0.20596621882E+01  0.68503889219E+01  0.16271916788E+02  0.17774850574E+02  0.51100000000E-03 0.  1.
         12    1    3    3    0    0  0.18788461829E+01 -0.11001711503E+01 -0.11464081014E+01  0.24606281868E+01  0.00000000000E+00 0. -1.
</event>
<event>
 7    1  0.2580704E-010  0.4778726E+02  0.7816164E-02  0.1312668E+00
        -11   -1    0    0    0    0  0.00000000000E+00  0.00000000000E+00  0.45593999997E+02  0.45594000000E+02  0.51100000000E-03 0. -1.
         11   -1    0    0    0    0 -0.00000000000E+00 -0.00000000000E+00 -0.45593999997E+02  0.45594000000E+02  0.51100000000E-03 0.  1.
    9900012    2    1    2    0    0 -0.15589759854E+02 -0.16288528225E+02 -0.37084597650E+02  0.47787260987E+02  0.19999954143E+02 0.  0.
         12    1    1    2    0    0  0.15589759854E+02  0.16288528225E+02  0.37084597650E+02  0.43400739013E+02  0.00000000000E+00 0. -1.
         11    1    3    3    0    0 -0.26692092330E+01  0.17944067633E+01  0.59984590052E-02  0.32163037488E+01  0.51100000000E-03 0. -1.
        -11    1    3    3    0    0 -0.68098628692E+01 -0.14795641270E+02 -0.18084842143E+02  0.24338174716E+02  0.51100000000E-03 0.  1.
         12    1    3    3    0    0 -0.61106877519E+01 -0.32872937183E+01 -0.19005753965E+02  0.20232782522E+02  0.00000000000E+00 0. -1.
</event>
<event>
 7    1  0.2580704E-010  0.4778727E+02  0.7816164E-02  0.1312668E+00
        -11   -1    0    0    0    0  0.00000000000E+00  0.00000000000E+00  0.45593999997E+02  0.45594000000E+02  0.51100000000E-03 0. -1.
         11   -1    0    0    0    0 -0.00000000000E+00 -0.00000000000E+00 -0.45593999997E+02  0.45594000000E+02  0.51100000000E-03 0.  1.
    9900012    2    1    2    0    0 -0.38416502154E+02 -0.82931750640E+01  0.18412461917E+02  0.47787272538E+02  0.20000006810E+02 0.  0.
         12    1    1    2    0    0  0.38416502154E+02  0.82931750640E+01 -0.18412461917E+02  0.43400727462E+02  0.00000000000E+00 0. -1.
         11    1    3    3    0    0 -0.92151989944E+01  0.62640623061E+00 -0.71361120128E+00  0.92639904188E+01  0.51100000000E-03 0. -1.
        -11    1    3    3    0    0 -0.18233293934E+02 -0.75255703759E+01  0.45760114737E+01  0.20249125868E+02  0.51100000000E-03 0.  1.
        -12    1    3    3    0    0 -0.10968009226E+02 -0.13940109188E+01  0.14550061645E+02  0.18274156251E+02  0.00000000000E+00 0.  1.
</event>
<event>
 7    1  0.2580704E-010  0.4778726E+02  0.7816164E-02  0.1312668E+00
        -11   -1    0    0    0    0  0.00000000000E+00  0.00000000000E+00  0.45593999997E+02  0.45594000000E+02  0.51100000000E-03 0. -1.
         11   -1    0    0    0    0 -0.00000000000E+00 -0.00000000000E+00 -0.45593999997E+02  0.45594000000E+02  0.51100000000E-03 0.  1.
    9900012    2    1    2    0    0 -0.35244460692E+02 -0.18393246370E+02 -0.17410931528E+02  0.47787262009E+02  0.19999958802E+02 0.  0.
         12    1    1    2    0    0  0.35244460692E+02  0.18393246370E+02  0.17410931528E+02  0.43400737991E+02  0.00000000000E+00 0. -1.
         11    1    3    3    0    0 -0.14491061976E+02 -0.14860616832E+02 -0.69289731130E+01  0.21882401113E+02  0.51100000000E-03 0. -1.
        -11    1    3    3    0    0 -0.15966736454E+02 -0.73398837411E+01 -0.77187902859E+01  0.19193496035E+02  0.51100000000E-03 0.  1.
         12    1    3    3    0    0 -0.47866622624E+01  0.38072542024E+01 -0.27631681295E+01  0.67113648603E+01  0.00000000000E+00 0. -1.
</event>
<event>
 7    1  0.2580704E-010  0.4778727E+02  0.7816164E-02  0.1312668E+00
        -11   -1    0    0    0    0  0.00000000000E+00  0.00000000000E+00  0.45593999997E+02  0.45594000000E+02  0.51100000000E-03 0.  1.
         11   -1    0    0    0    0 -0.00000000000E+00 -0.00000000000E+00 -0.45593999997E+02  0.45594000000E+02  0.51100000000E-03 0. -1.
    9900012    2    1    2    0    0 -0.16440654445E+02  0.10595613737E+02  0.38743528808E+02  0.47787272201E+02  0.20000005272E+02 0.  0.
         12    1    1    2    0    0  0.16440654445E+02 -0.10595613737E+02 -0.38743528808E+02  0.43400727799E+02  0.00000000000E+00 0. -1.
         11    1    3    3    0    0 -0.76208790569E+01 -0.64438786591E+00  0.36653162958E+01  0.84810127420E+01  0.51100000000E-03 0. -1.
        -11    1    3    3    0    0  0.70901605114E+00 -0.15682276247E+01  0.26208039519E+01  0.31353875772E+01  0.51100000000E-03 0.  1.
        -12    1    3    3    0    0 -0.95287914392E+01  0.12808229228E+02  0.32457408560E+02  0.36170871881E+02  0.00000000000E+00 0.  1.
</event>
<event>
 7    1  0.2580704E-010  0.4778727E+02  0.7816164E-02  0.1312668E+00
        -11   -1    0    0    0    0  0.00000000000E+00  0.00000000000E+00  0.45593999997E+02  0.45594000000E+02  0.51100000000E-03 0.  1.
         11   -1    0    0    0    0 -0.00000000000E+00 -0.00000000000E+00 -0.45593999997E+02  0.45594000000E+02  0.51100000000E-03 0. -1.
    9900012    2    1    2    0    0  0.27690310123E+02  0.19633900774E+01  0.33361883018E+02  0.47787269432E+02  0.19999992650E+02 0.  0.
         12    1    1    2    0    0 -0.27690310123E+02 -0.19633900774E+01 -0.33361883018E+02  0.43400730568E+02  0.00000000000E+00 0. -1.
         11    1    3    3    0    0  0.65264821434E+01  0.61577462716E+01  0.15034883753E+02  0.17508870268E+02  0.51100000000E-03 0. -1.
        -11    1    3    3    0    0  0.20519684307E+01  0.28041298478E+01  0.11937292536E+01  0.36740588504E+01  0.51100000000E-03 0.  1.
         12    1    3    3    0    0  0.19111859549E+02 -0.69984860420E+01  0.17133270011E+02  0.26604340314E+02  0.00000000000E+00 0. -1.
</event>
<event>
 7    1  0.2580704E-010  0.4778727E+02  0.7816164E-02  0.1312668E+00
        -11   -1    0    0    0    0  0.00000000000E+00  0.00000000000E+00  0.45593999997E+02  0.45594000000E+02  0.51100000000E-03 0.  1.
         11   -1    0    0    0    0 -0.00000000000E+00 -0.00000000000E+00 -0.45593999997E+02  0.45594000000E+02  0.51100000000E-03 0. -1.
    9900012    2    1    2    0    0 -0.24050329633E+02  0.26317120293E+02  0.24751044676E+02  0.47787269723E+02  0.19999993977E+02 0.  0.
         12    1    1    2    0    0  0.24050329633E+02 -0.26317120293E+02 -0.24751044676E+02  0.43400730277E+02  0.00000000000E+00 0. -1.
         11    1    3    3    0    0  0.27779337875E+00  0.96276541987E+01  0.12605081510E+02  0.15863699905E+02  0.51100000000E-03 0. -1.
        -11    1    3    3    0    0 -0.44493853940E+01  0.28130440561E+01  0.25700227327E+01  0.58579232116E+01  0.51100000000E-03 0.  1.
         12    1    3    3    0    0 -0.19878737618E+02  0.13876422038E+02  0.95759404334E+01  0.26065646607E+02  0.00000000000E+00 0. -1.
</event>
<event>
 7    1  0.2580704E-010  0.4778727E+02  0.7816164E-02  0.1312668E+00
        -11   -1    0    0    0    0  0.00000000000E+00  0.00000000000E+00  0.45593999997E+02  0.45594000000E+02  0.51100000000E-03 0.  1.
         11   -1    0    0    0    0 -0.00000000000E+00 -0.00000000000E+00 -0.45593999997E+02  0.45594000000E+02  0.51100000000E-03 0. -1.
    9900012    2    1    2    0    0  0.49238334854E+00  0.21692440503E+02  0.37587481599E+02  0.47787272019E+02  0.20000004442E+02 0.  0.
         12    1    1    2    0    0 -0.49238334854E+00 -0.21692440503E+02 -0.37587481599E+02  0.43400727981E+02  0.00000000000E+00 0. -1.
         11    1    3    3    0    0  0.86595798377E+00 -0.50207509065E+00  0.13771179747E+01  0.17024737307E+01  0.51100000000E-03 0. -1.
        -11    1    3    3    0    0 -0.17935924577E+01  0.25132601306E+02  0.31170707815E+02  0.40080888816E+02  0.51100000000E-03 0.  1.
        -12    1    3    3    0    0  0.14200178225E+01 -0.29380857127E+01  0.50396558096E+01  0.60039094722E+01  0.00000000000E+00 0.  1.
</event>
<event>
 7    1  0.3003612E-010  0.4778727E+02  0.7816164E-02  0.1312668E+00
        -11   -1    0    0    0    0  0.00000000000E+00  0.00000000000E+00  0.45593999997E+02  0.45594000000E+02  0.51100000000E-03 0. -1.
         11   -1    0    0    0    0 -0.00000000000E+00 -0.00000000000E+00 -0.45593999997E+02  0.45594000000E+02  0.51100000000E-03 0.  1.
    9900012    2    1    2    0    0  0.42885065078E+01  0.28881713604E+02 -0.32110409853E+02  0.47787273167E+02  0.20000009675E+02 0.  0.
         12    1    1    2    0    0 -0.42885065078E+01 -0.28881713604E+02  0.32110409853E+02  0.43400726833E+02  0.00000000000E+00 0. -1.
         11    1    3    3    0    0 -0.30304614740E+01  0.21680016096E+01 -0.24399437486E+01  0.44539031739E+01  0.51100000000E-03 0. -1.
        -11    1    3    3    0    0  0.14141318245E+01  0.58207485114E+01 -0.17383009961E+02  0.18386133841E+02  0.51100000000E-03 0.  1.
        -12    1    3    3    0    0  0.59048361573E+01  0.20892963483E+02 -0.12287456143E+02  0.24947236152E+02  0.00000000000E+00 0.  1.
</event>
<event>
 7    1  0.2580704E-010  0.4778727E+02  0.7816164E-02  0.1312668E+00
        -11   -1    0    0    0    0  0.00000000000E+00  0.00000000000E+00  0.45593999997E+02  0.45594000000E+02  0.51100000000E-03 0.  1.
         11   -1    0    0    0    0 -0.00000000000E+00 -0.00000000000E+00 -0.45593999997E+02  0.45594000000E+02  0.51100000000E-03 0. -1.
    9900012    2    1    2    0    0  0.11329542156E+02  0.32864129856E+02  0.25984878709E+02  0.47787268691E+02  0.19999989269E+02 0.  0.
         12    1    1    2    0    0 -0.11329542156E+02 -0.32864129856E+02 -0.25984878709E+02  0.43400731309E+02  0.00000000000E+00 0. -1.
         11    1    3    3    0    0  0.10082891041E+02  0.72165637228E+01  0.52240063478E+01  0.13454877416E+02  0.51100000000E-03 0.  1.
        -11    1    3    3    0    0  0.15842549432E+01  0.25872390440E+02  0.21374366310E+02  0.33596934179E+02  0.51100000000E-03 0. -1.
        -12    1    3    3    0    0 -0.33760382798E+00 -0.22482430669E+00 -0.61349394933E+00  0.73545709556E+00  0.00000000000E+00 0.  1.
</event>
<event>
 7    1  0.2580704E-010  0.4778727E+02  0.7816164E-02  0.1312668E+00
        -11   -1    0    0    0    0  0.00000000000E+00  0.00000000000E+00  0.45593999997E+02  0.45594000000E+02  0.51100000000E-03 0. -1.
         11   -1    0    0    0    0 -0.00000000000E+00 -0.00000000000E+00 -0.45593999997E+02  0.45594000000E+02  0.51100000000E-03 0.  1.
    9900012    2    1    2    0    0  0.26090470659E+02  0.27149542856E+02 -0.21582705177E+02  0.47787268448E+02  0.19999988161E+02 0.  0.
         12    1    1    2    0    0 -0.26090470659E+02 -0.27149542856E+02  0.21582705177E+02  0.43400731552E+02  0.00000000000E+00 0. -1.
         11    1    3    3    0    0  0.14897944302E+02  0.12833115647E+02 -0.93362408738E+01  0.21767016229E+02  0.51100000000E-03 0. -1.
        -11    1    3    3    0    0  0.14531379206E+02  0.11380150263E+02 -0.91405302695E+01  0.20596555428E+02  0.51100000000E-03 0.  1.
         12    1    3    3    0    0 -0.33388528487E+01  0.29362769465E+01 -0.31059340340E+01  0.54236967905E+01  0.00000000000E+00 0. -1.
</event>
<event>
 7    1  0.2580704E-010  0.4778727E+02  0.7816164E-02  0.1312668E+00
        -11   -1    0    0    0    0  0.00000000000E+00  0.00000000000E+00  0.45593999997E+02  0.45594000000E+02  0.51100000000E-03 0.  1.
         11   -1    0    0    0    0 -0.00000000000E+00 -0.00000000000E+00 -0.45593999997E+02  0.45594000000E+02  0.51100000000E-03 0. -1.
    9900012    2    1    2    0    0  0.27321356626E+02  0.26320137748E+02  0.21081202660E+02  0.47787270921E+02  0.19999999439E+02 0.  0.
         12    1    1    2    0    0 -0.27321356626E+02 -0.26320137748E+02 -0.21081202660E+02  0.43400729079E+02  0.00000000000E+00 0. -1.
         11    1    3    3    0    0  0.38818541225E+01  0.81837974618E+01  0.57972820560E+01  0.10754153236E+02  0.51100000000E-03 0. -1.
        -11    1    3    3    0    0  0.25143274963E+02  0.19180882927E+02  0.13619346960E+02  0.34432211047E+02  0.51100000000E-03 0.  1.
         12    1    3    3    0    0 -0.17037724598E+01 -0.10445426409E+01  0.16645736442E+01  0.26009066381E+01  0.00000000000E+00 0. -1.
</event>
<event>
 7    1  0.2580704E-010  0.4778727E+02  0.7816164E-02  0.1312668E+00
        -11   -1    0    0    0    0  0.00000000000E+00  0.00000000000E+00  0.45593999997E+02  0.45594000000E+02  0.51100000000E-03 0.  1.
         11   -1    0    0    0    0 -0.00000000000E+00 -0.00000000000E+00 -0.45593999997E+02  0.45594000000E+02  0.51100000000E-03 0. -1.
    9900012    2    1    2    0    0  0.35141488044E+02  0.19995444127E+02  0.15775967894E+02  0.47787272693E+02  0.20000007515E+02 0.  0.
         12    1    1    2    0    0 -0.35141488044E+02 -0.19995444127E+02 -0.15775967894E+02  0.43400727307E+02  0.00000000000E+00 0. -1.
         11    1    3    3    0    0 -0.98488040624E+00  0.40396115661E+01  0.14106471003E+01  0.43907148077E+01  0.51100000000E-03 0. -1.
        -11    1    3    3    0    0  0.71871993749E+01  0.51481017831E+01  0.78556403493E+01  0.11826659392E+02  0.51100000000E-03 0.  1.
         12    1    3    3    0    0  0.28939169076E+02  0.10807730778E+02  0.65096804448E+01  0.31569898493E+02  0.00000000000E+00 0. -1.
</event>
<event>
 7    1  0.2580704E-010  0.4778727E+02  0.7816164E-02  0.1312668E+00
        -11   -1    0    0    0    0  0.00000000000E+00  0.00000000000E+00  0.45593999997E+02  0.45594000000E+02  0.51100000000E-03 0. -1.
         11   -1    0    0    0    0 -0.00000000000E+00 -0.00000000000E+00 -0.45593999997E+02  0.45594000000E+02  0.51100000000E-03 0.  1.
    9900012    2    1    2    0    0  0.24112794610E+02  0.37845825290E+01 -0.35886954519E+02  0.47787269205E+02  0.19999991616E+02 0.  0.
         12    1    1    2    0    0 -0.24112794610E+02 -0.37845825290E+01  0.35886954519E+02  0.43400730795E+02  0.00000000000E+00 0. -1.
         11    1    3    3    0    0  0.54259823365E+01 -0.14933965896E+01 -0.84590864373E+01  0.10160101442E+02  0.51100000000E-03 0. -1.
        -11    1    3    3    0    0  0.36429485167E+01  0.28523965211E+01 -0.20270457731E+02  0.20791793975E+02  0.51100000000E-03 0.  1.
         12    1    3    3    0    0  0.15043863757E+02  0.24255825974E+01 -0.71574103506E+01  0.16835373789E+02  0.00000000000E+00 0. -1.
</event>
<event>
 7    1  0.3063949E-010  0.4778727E+02  0.7816164E-02  0.1312668E+00
        -11   -1    0    0    0    0  0.00000000000E+00  0.00000000000E+00  0.45593999997E+02  0.45594000000E+02  0.51100000000E-03 0. -1.
         11   -1    0    0    0    0 -0.00000000000E+00 -0.00000000000E+00 -0.45593999997E+02  0.45594000000E+02  0.51100000000E-03 0.  1.
    9900012    2    1    2    0    0 -0.26141042492E+02  0.26079481245E+02 -0.22806359659E+02  0.47787268607E+02  0.19999988887E+02 0.  0.
         12    1    1    2    0    0  0.26141042492E+02 -0.26079481245E+02  0.22806359659E+02  0.43400731393E+02  0.00000000000E+00 0. -1.
         11    1    3    3    0    0 -0.57498633911E+01 -0.71237349439E+00 -0.14651049122E+01  0.59761975936E+01  0.51100000000E-03 0.  1.
        -11    1    3    3    0    0 -0.86149307814E+01  0.54119380171E+01 -0.11859674247E+02  0.15625555317E+02  0.51100000000E-03 0. -1.
        -12    1    3    3    0    0 -0.11776248319E+02  0.21379916722E+02 -0.94815804998E+01  0.26185515696E+02  0.00000000000E+00 0.  1.
</event>
<event>
 7    1  0.2580704E-010  0.4778727E+02  0.7816164E-02  0.1312668E+00
        -11   -1    0    0    0    0  0.00000000000E+00  0.00000000000E+00  0.45593999997E+02  0.45594000000E+02  0.51100000000E-03 0.  1.
         11   -1    0    0    0    0 -0.00000000000E+00 -0.00000000000E+00 -0.45593999997E+02  0.45594000000E+02  0.51100000000E-03 0. -1.
    9900012    2    1    2    0    0 -0.23259277238E+02  0.14587227389E+02  0.33613123396E+02  0.47787271377E+02  0.20000001518E+02 0.  0.
         12    1    1    2    0    0  0.23259277238E+02 -0.14587227389E+02 -0.33613123396E+02  0.43400728623E+02  0.00000000000E+00 0. -1.
         11    1    3    3    0    0 -0.15955839694E+01 -0.24455740379E+01  0.28300043667E+01  0.40664044997E+01  0.51100000000E-03 0. -1.
        -11    1    3    3    0    0  0.96473295021E+00  0.50582491379E+01  0.76150391984E+01  0.91926827564E+01  0.51100000000E-03 0.  1.
         12    1    3    3    0    0 -0.22628426219E+02  0.11974552289E+02  0.23168079831E+02  0.34528184121E+02  0.00000000000E+00 0. -1.
</event>
<event>
 7    1  0.2580704E-010  0.4778726E+02  0.7816164E-02  0.1312668E+00
        -11   -1    0    0    0    0  0.00000000000E+00  0.00000000000E+00  0.45593999997E+02  0.45594000000E+02  0.51100000000E-03 0.  1.
         11   -1    0    0    0    0 -0.00000000000E+00 -0.00000000000E+00 -0.45593999997E+02  0.45594000000E+02  0.51100000000E-03 0. -1.
    9900012    2    1    2    0    0  0.16541739458E+02 -0.69843795856E+01  0.39512190161E+02  0.47787264132E+02  0.19999968485E+02 0.  0.
         12    1    1    2    0    0 -0.16541739458E+02  0.69843795856E+01 -0.39512190161E+02  0.43400735868E+02  0.00000000000E+00 0. -1.
         11    1    3    3    0    0  0.13446686463E+02 -0.17433528899E+00  0.24256679754E+02  0.27735001038E+02  0.51100000000E-03 0. -1.
        -11    1    3    3    0    0  0.39970349457E+00 -0.42709255385E+01  0.15743359263E+02  0.16317289265E+02  0.51100000000E-03 0.  1.
         12    1    3    3    0    0  0.26953495004E+01 -0.25391187581E+01 -0.48784885529E+00  0.37349738289E+01  0.00000000000E+00 0. -1.
</event>
<event>
 7    1  0.3394333E-010  0.4778727E+02  0.7816164E-02  0.1312668E+00
        -11   -1    0    0    0    0  0.00000000000E+00  0.00000000000E+00  0.45593999997E+02  0.45594000000E+02  0.51100000000E-03 0.  1.
         11   -1    0    0    0    0 -0.00000000000E+00 -0.00000000000E+00 -0.45593999997E+02  0.45594000000E+02  0.51100000000E-03 0. -1.
    9900012    2    1    2    0    0  0.40634490548E+02 -0.56787910319E+01  0.14149663776E+02  0.47787268731E+02  0.19999989453E+02 0.  0.
         12    1    1    2    0    0 -0.40634490548E+02  0.56787910319E+01 -0.14149663776E+02  0.43400731269E+02  0.00000000000E+00 0. -1.
         11    1    3    3    0    0 -0.12357907783E+01 -0.71287984015E+00 -0.78878953877E+00  0.16302041933E+01  0.51100000000E-03 0. -1.
        -11    1    3    3    0    0  0.13423766368E+02 -0.20975650552E+01 -0.63211547688E+00  0.13601354818E+02  0.51100000000E-03 0.  1.
        -12    1    3    3    0    0  0.28446514959E+02 -0.28683461366E+01  0.15570568792E+02  0.32555709720E+02  0.00000000000E+00 0.  1.
</event>
<event>
 7    1  0.2580704E-010  0.4778727E+02  0.7816164E-02  0.1312668E+00
        -11   -1    0    0    0    0  0.00000000000E+00  0.00000000000E+00  0.45593999997E+02  0.45594000000E+02  0.51100000000E-03 0. -1.
         11   -1    0    0    0    0 -0.00000000000E+00 -0.00000000000E+00 -0.45593999997E+02  0.45594000000E+02  0.51100000000E-03 0.  1.
    9900012    2    1    2    0    0 -0.50366148145E+01  0.24580272899E+02 -0.35412792294E+02  0.47787272326E+02  0.20000005842E+02 0.  0.
         12    1    1    2    0    0  0.50366148145E+01 -0.24580272899E+02  0.35412792294E+02  0.43400727674E+02  0.00000000000E+00 0. -1.
         11    1    3    3    0    0 -0.16637147437E+01 -0.47106082587E+00 -0.50380007478E+01  0.53264713316E+01  0.51100000000E-03 0. -1.
        -11    1    3    3    0    0 -0.94052808674E+01  0.12286496995E+02 -0.17417221261E+02  0.23297573121E+02  0.51100000000E-03 0.  1.
         12    1    3    3    0    0  0.60323807967E+01  0.12764836730E+02 -0.12957570286E+02  0.19163227873E+02  0.00000000000E+00 0. -1.
</event>
<event>
 7    1  0.2580704E-010  0.4778727E+02  0.7816164E-02  0.1312668E+00
        -11   -1    0    0    0    0  0.00000000000E+00  0.00000000000E+00  0.45593999997E+02  0.45594000000E+02  0.51100000000E-03 0.  1.
         11   -1    0    0    0    0 -0.00000000000E+00 -0.00000000000E+00 -0.45593999997E+02  0.45594000000E+02  0.51100000000E-03 0. -1.
    9900012    2    1    2    0    0 -0.23148446519E+02 -0.12581349100E+02  0.34488870041E+02  0.47787273299E+02  0.20000010279E+02 0.  0.
         12    1    1    2    0    0  0.23148446519E+02  0.12581349100E+02 -0.34488870041E+02  0.43400726701E+02  0.00000000000E+00 0. -1.
         11    1    3    3    0    0 -0.98861758175E+01 -0.11615044909E+02  0.28094939562E+02  0.31968286939E+02  0.51100000000E-03 0. -1.
        -11    1    3    3    0    0 -0.47707175807E+01 -0.11061818939E+01  0.53651868995E+01  0.72642009433E+01  0.51100000000E-03 0.  1.
         12    1    3    3    0    0 -0.84915531211E+01  0.13987770211E+00  0.10287435798E+01  0.85547854171E+01  0.00000000000E+00 0. -1.
</event>
<event>
 7    1  0.2580704E-010  0.4778727E+02  0.7816164E-02  0.1312668E+00
        -11   -1    0    0    0    0  0.00000000000E+00  0.00000000000E+00  0.45593999997E+02  0.45594000000E+02  0.51100000000E-03 0.  1.
         11   -1    0    0    0    0 -0.00000000000E+00 -0.00000000000E+00 -0.45593999997E+02  0.45594000000E+02  0.51100000000E-03 0. -1.
    9900012    2    1    2    0    0 -0.17760250200E+02 -0.17150760975E+02  0.35693808030E+02  0.47787273960E+02  0.20000013291E+02 0.  0.
         12    1    1    2    0    0  0.17760250200E+02  0.17150760975E+02 -0.35693808030E+02  0.43400726040E+02  0.00000000000E+00 0. -1.
         11    1    3    3    0    0 -0.65254432984E+01 -0.98589840715E+01  0.41132957339E+01  0.12517994217E+02  0.51100000000E-03 0. -1.
        -11    1    3    3    0    0  0.11228766568E+01 -0.68418943777E+00  0.55804595768E+01  0.57332797353E+01  0.51100000000E-03 0.  1.
        -12    1    3    3    0    0 -0.12357683558E+02 -0.66075874657E+01  0.26000052719E+02  0.29536000007E+02  0.00000000000E+00 0.  1.
</event>
<event>
 7    1  0.2580704E-010  0.4778728E+02  0.7816164E-02  0.1312668E+00
        -11   -1    0    0    0    0  0.00000000000E+00  0.00000000000E+00  0.45593999997E+02  0.45594000000E+02  0.51100000000E-03 0.  1.
         11   -1    0    0    0    0 -0.00000000000E+00 -0.00000000000E+00 -0.45593999997E+02  0.45594000000E+02  0.51100000000E-03 0. -1.
    9900012    2    1    2    0    0 -0.10573280355E+02  0.10257783921E+02  0.40824091220E+02  0.47787276361E+02  0.20000024240E+02 0.  0.
         12    1    1    2    0    0  0.10573280355E+02 -0.10257783921E+02 -0.40824091220E+02  0.43400723639E+02  0.00000000000E+00 0. -1.
         11    1    3    3    0    0 -0.93119360670E+00  0.59202162597E+01  0.27130339376E+01  0.65784979671E+01  0.51100000000E-03 0. -1.
        -11    1    3    3    0    0 -0.79617472433E+01  0.56774477011E+00  0.99935040405E+01  0.12789913079E+02  0.51100000000E-03 0.  1.
        -12    1    3    3    0    0 -0.16803395047E+01  0.37698228911E+01  0.28117553242E+02  0.28418865315E+02  0.00000000000E+00 0.  1.
</event>
<event>
 7    1  0.2580704E-010  0.4778727E+02  0.7816164E-02  0.1312668E+00
        -11   -1    0    0    0    0  0.00000000000E+00  0.00000000000E+00  0.45593999997E+02  0.45594000000E+02  0.51100000000E-03 0.  1.
         11   -1    0    0    0    0 -0.00000000000E+00 -0.00000000000E+00 -0.45593999997E+02  0.45594000000E+02  0.51100000000E-03 0. -1.
    9900012    2    1    2    0    0 -0.13820198215E+01  0.45940732271E+00  0.43376283993E+02  0.47787273659E+02  0.20000011921E+02 0.  0.
         12    1    1    2    0    0  0.13820198215E+01 -0.45940732271E+00 -0.43376283993E+02  0.43400726341E+02  0.00000000000E+00 0. -1.
         11    1    3    3    0    0 -0.74476127069E+00  0.11663647403E+01 -0.33965776372E+00  0.14249363900E+01  0.51100000000E-03 0. -1.
        -11    1    3    3    0    0 -0.13760222095E+01  0.61401965250E+01  0.33206210073E+02  0.33797157250E+02  0.51100000000E-03 0.  1.
         12    1    3    3    0    0  0.73876365870E+00 -0.68471539427E+01  0.10509731684E+02  0.12565180020E+02  0.00000000000E+00 0. -1.
</event>
<event>
 7    1  0.2580704E-010  0.4778727E+02  0.7816164E-02  0.1312668E+00
        -11   -1    0    0    0    0  0.00000000000E+00  0.00000000000E+00  0.45593999997E+02  0.45594000000E+02  0.51100000000E-03 0.  1.
         11   -1    0    0    0    0 -0.00000000000E+00 -0.00000000000E+00 -0.45593999997E+02  0.45594000000E+02  0.51100000000E-03 0. -1.
    9900012    2    1    2    0    0 -0.92070787236E+01 -0.38670019183E+02  0.17420748739E+02  0.47787272254E+02  0.20000005517E+02 0.  0.
         12    1    1    2    0    0  0.92070787236E+01  0.38670019183E+02 -0.17420748739E+02  0.43400727746E+02  0.00000000000E+00 0. -1.
         11    1    3    3    0    0  0.18434410114E+01  0.77617864273E+00 -0.46668200376E+00  0.20539036983E+01  0.51100000000E-03 0. -1.
        -11    1    3    3    0    0  0.24995895746E+00 -0.16458283235E+02  0.75876755587E+01  0.18124855507E+02  0.51100000000E-03 0.  1.
         12    1    3    3    0    0 -0.11300478692E+02 -0.22987914591E+02  0.10299755184E+02  0.27608513049E+02  0.00000000000E+00 0. -1.
</event>
<event>
 7    1  0.2580704E-010  0.4778727E+02  0.7816164E-02  0.1312668E+00
        -11   -1    0    0    0    0  0.00000000000E+00  0.00000000000E+00  0.45593999997E+02  0.45594000000E+02  0.51100000000E-03 0. -1.
         11   -1    0    0    0    0 -0.00000000000E+00 -0.00000000000E+00 -0.45593999997E+02  0.45594000000E+02  0.51100000000E-03 0.  1.
    9900012    2    1    2    0    0  0.29979476133E+02 -0.39374541918E+01 -0.31134399225E+02  0.47787270170E+02  0.19999996011E+02 0.  0.
         12    1    1    2    0    0 -0.29979476133E+02  0.39374541918E+01  0.31134399225E+02  0.43400729830E+02  0.00000000000E+00 0. -1.
         11    1    3    3    0    0  0.12842112417E+02  0.18228667670E+01 -0.91341111609E+01  0.15864257989E+02  0.51100000000E-03 0. -1.
        -11    1    3    3    0    0  0.19510952183E+02 -0.56161366145E+01 -0.21339549039E+02  0.29454958818E+02  0.51100000000E-03 0.  1.
        -12    1    3    3    0    0 -0.23735884674E+01 -0.14418434421E+00 -0.66073902549E+00  0.24680533620E+01  0.00000000000E+00 0.  1.
</event>
<event>
 7    1  0.2580704E-010  0.4778727E+02  0.7816164E-02  0.1312668E+00
        -11   -1    0    0    0    0  0.00000000000E+00  0.00000000000E+00  0.45593999997E+02  0.45594000000E+02  0.51100000000E-03 0. -1.
         11   -1    0    0    0    0 -0.00000000000E+00 -0.00000000000E+00 -0.45593999997E+02  0.45594000000E+02  0.51100000000E-03 0.  1.
    9900012    2    1    2    0    0 -0.14587412692E+02 -0.26292701386E+02 -0.31297356884E+02  0.47787270707E+02  0.19999998462E+02 0.  0.
         12    1    1    2    0    0  0.14587412692E+02  0.26292701386E+02  0.31297356884E+02  0.43400729293E+02  0.00000000000E+00 0. -1.
         11    1    3    3    0    0 -0.10640409914E+02 -0.83915442796E+01 -0.12387720128E+02  0.18360063964E+02  0.51100000000E-03 0. -1.
        -11    1    3    3    0    0 -0.35984961229E+01 -0.52282960556E+01 -0.14794339506E+02  0.16098345743E+02  0.51100000000E-03 0.  1.
         12    1    3    3    0    0 -0.34850665538E+00 -0.12672861051E+02 -0.41152972500E+01  0.13328861000E+02  0.00000000000E+00 0. -1.
</event>
<event>
 7    1  0.2580704E-010  0.4778727E+02  0.7816164E-02  0.1312668E+00
        -11   -1    0    0    0    0  0.00000000000E+00  0.00000000000E+00  0.45593999997E+02  0.45594000000E+02  0.51100000000E-03 0.  1.
         11   -1    0    0    0    0 -0.00000000000E+00 -0.00000000000E+00 -0.45593999997E+02  0.45594000000E+02  0.51100000000E-03 0. -1.
    9900012    2    1    2    0    0  0.13500653033E+02  0.48301998465E+01  0.40963701397E+02  0.47787270801E+02  0.19999998891E+02 0.  0.
         12    1    1    2    0    0 -0.13500653033E+02 -0.48301998465E+01 -0.40963701397E+02  0.43400729199E+02  0.00000000000E+00 0. -1.
         11    1    3    3    0    0  0.50436826098E+01  0.69096350590E+01  0.19744259146E+02  0.21517842838E+02  0.51100000000E-03 0. -1.
        -11    1    3    3    0    0  0.51924102234E+01  0.40606308128E+01  0.40283493758E+01  0.77251178295E+01  0.51100000000E-03 0.  1.
        -12    1    3    3    0    0  0.32645601997E+01 -0.61400660252E+01  0.17191092875E+02  0.18544310133E+02  0.00000000000E+00 0.  1.
</event>
<event>
 7    1  0.2580704E-010  0.4778727E+02  0.7816164E-02  0.1312668E+00
        -11   -1    0    0    0    0  0.00000000000E+00  0.00000000000E+00  0.45593999997E+02  0.45594000000E+02  0.51100000000E-03 0.  1.
         11   -1    0    0    0    0 -0.00000000000E+00 -0.00000000000E+00 -0.45593999997E+02  0.45594000000E+02  0.51100000000E-03 0. -1.
    9900012    2    1    2    0    0  0.13398218503E+02  0.26487324677E+02  0.31662797450E+02  0.47787269937E+02  0.19999994952E+02 0.  0.
         12    1    1    2    0    0 -0.13398218503E+02 -0.26487324677E+02 -0.31662797450E+02  0.43400730063E+02  0.00000000000E+00 0. -1.
         11    1    3    3    0    0 -0.11734821980E+01  0.37770553791E+01  0.94025168905E+01  0.10200516259E+02  0.51100000000E-03 0. -1.
        -11    1    3    3    0    0  0.12616802755E+02  0.13455112746E+02  0.21148743884E+02  0.28062308154E+02  0.51100000000E-03 0.  1.
        -12    1    3    3    0    0  0.19548979459E+01  0.92551565515E+01  0.11115366755E+01  0.95244455246E+01  0.00000000000E+00 0.  1.
</event>
<event>
 7    1  0.2580704E-010  0.4778727E+02  0.7816164E-02  0.1312668E+00
        -11   -1    0    0    0    0  0.00000000000E+00  0.00000000000E+00  0.45593999997E+02  0.45594000000E+02  0.51100000000E-03 0.  1.
         11   -1    0    0    0    0 -0.00000000000E+00 -0.00000000000E+00 -0.45593999997E+02  0.45594000000E+02  0.51100000000E-03 0. -1.
    9900012    2    1    2    0    0  0.39563064632E+02 -0.17802902697E+02  0.12016269117E+01  0.47787270344E+02  0.19999996805E+02 0.  0.
         12    1    1    2    0    0 -0.39563064632E+02  0.17802902697E+02 -0.12016269117E+01  0.43400729656E+02  0.00000000000E+00 0. -1.
         11    1    3    3    0    0  0.97303937109E+01 -0.64210452482E+01  0.11662359513E+01  0.11716248990E+02  0.51100000000E-03 0. -1.
        -11    1    3    3    0    0  0.19647418551E+02 -0.15410298915E+02  0.15287775261E+01  0.25016705006E+02  0.51100000000E-03 0.  1.
         12    1    3    3    0    0  0.10185252369E+02  0.40284414662E+01 -0.14933865658E+01  0.11054316347E+02  0.00000000000E+00 0. -1.
</event>
<event>
 7    1  0.2580704E-010  0.4778727E+02  0.7816164E-02  0.1312668E+00
        -11   -1    0    0    0    0  0.00000000000E+00  0.00000000000E+00  0.45593999997E+02  0.45594000000E+02  0.51100000000E-03 0.  1.
         11   -1    0    0    0    0 -0.00000000000E+00 -0.00000000000E+00 -0.45593999997E+02  0.45594000000E+02  0.51100000000E-03 0. -1.
    9900012    2    1    2    0    0 -0.18412977345E+02 -0.16672310636E+02  0.35589600401E+02  0.47787270359E+02  0.19999996876E+02 0.  0.
         12    1    1    2    0    0  0.18412977345E+02  0.16672310636E+02 -0.35589600401E+02  0.43400729641E+02  0.00000000000E+00 0. -1.
         11    1    3    3    0    0 -0.13759688462E+02 -0.94534882801E+01  0.16631735655E+02  0.23565060967E+02  0.51100000000E-03 0. -1.
        -11    1    3    3    0    0 -0.51385753832E+01  0.10100958824E+01  0.24735078164E+01  0.57916743555E+01  0.51100000000E-03 0.  1.
        -12    1    3    3    0    0  0.48528649974E+00 -0.82289182380E+01  0.16484356929E+02  0.18430535036E+02  0.00000000000E+00 0.  1.
</event>
<event>
 7    1  0.2580704E-010  0.4778730E+02  0.7816164E-02  0.1312668E+00
        -11   -1    0    0    0    0  0.00000000000E+00  0.00000000000E+00  0.45593999997E+02  0.45594000000E+02  0.51100000000E-03 0.  1.
         11   -1    0    0    0    0 -0.00000000000E+00 -0.00000000000E+00 -0.45593999997E+02  0.45594000000E+02  0.51100000000E-03 0. -1.
    9900012    2    1    2    0    0  0.24426812035E+02  0.23704351025E+01  0.35795708330E+02  0.47787299042E+02  0.20000127652E+02 0.  0.
         12    1    1    2    0    0 -0.24426812035E+02 -0.23704351025E+01 -0.35795708330E+02  0.43400700958E+02  0.00000000000E+00 0. -1.
         11    1    3    3    0    0 -0.96860448251E+00 -0.98095219992E+00  0.38377452775E+01  0.40778365512E+01  0.51100000000E-03 0. -1.
        -11    1    3    3    0    0 -0.11355014124E-01  0.34136215681E+01  0.80042216576E+00  0.35062254707E+01  0.51100000000E-03 0.  1.
        -12    1    3    3    0    0  0.25406771532E+02 -0.62234265731E-01  0.31157540887E+02  0.40203237020E+02  0.00000000000E+00 0.  1.
</event>
<event>
 7    1  0.2580704E-010  0.4778727E+02  0.7816164E-02  0.1312668E+00
        -11   -1    0    0    0    0  0.00000000000E+00  0.00000000000E+00  0.45593999997E+02  0.45594000000E+02  0.51100000000E-03 0. -1.
         11   -1    0    0    0    0 -0.00000000000E+00 -0.00000000000E+00 -0.45593999997E+02  0.45594000000E+02  0.51100000000E-03 0.  1.
    9900012    2    1    2    0    0  0.38900200440E+02  0.18786610557E+02  0.41786370340E+01  0.47787270306E+02  0.19999996633E+02 0.  0.
         12    1    1    2    0    0 -0.38900200440E+02 -0.18786610557E+02 -0.41786370340E+01  0.43400729694E+02  0.00000000000E+00 0. -1.
         11    1    3    3    0    0  0.21295921717E+02  0.20204112952E+01  0.61807923202E+01  0.22266578936E+02  0.51100000000E-03 0. -1.
        -11    1    3    3    0    0  0.10191014781E+02  0.68996451451E+01  0.21628956707E+01  0.12495599359E+02  0.51100000000E-03 0.  1.
        -12    1    3    3    0    0  0.74132639429E+01  0.98665541167E+01 -0.41650509569E+01  0.13025092011E+02  0.00000000000E+00 0.  1.
</event>
<event>
 7    1  0.2580704E-010  0.4778726E+02  0.7816164E-02  0.1312668E+00
        -11   -1    0    0    0    0  0.00000000000E+00  0.00000000000E+00  0.45593999997E+02  0.45594000000E+02  0.51100000000E-03 0.  1.
         11   -1    0    0    0    0 -0.00000000000E+00 -0.00000000000E+00 -0.45593999997E+02  0.45594000000E+02  0.51100000000E-03 0. -1.
    9900012    2    1    2    0    0  0.33693148344E+02 -0.27334721964E+02  0.10995707589E+01  0.47787258923E+02  0.19999944734E+02 0.  0.
         12    1    1    2    0    0 -0.33693148344E+02  0.27334721964E+02 -0.10995707589E+01  0.43400741077E+02  0.00000000000E+00 0. -1.
         11    1    3    3    0    0  0.37925921800E+01 -0.33867491358E+01  0.49808018142E+01  0.71177392567E+01  0.51100000000E-03 0. -1.
        -11    1    3    3    0    0  0.68096357429E+00 -0.27872378678E+01 -0.35841527369E+01  0.45911390116E+01  0.51100000000E-03 0.  1.
        -12    1    3    3    0    0  0.29219592590E+02 -0.21160734960E+02 -0.29707831845E+00  0.36078380655E+02  0.00000000000E+00 0.  1.
</event>
<event>
 7    1  0.2580704E-010  0.4778727E+02  0.7816164E-02  0.1312668E+00
        -11   -1    0    0    0    0  0.00000000000E+00  0.00000000000E+00  0.45593999997E+02  0.45594000000E+02  0.51100000000E-03 0.  1.
         11   -1    0    0    0    0 -0.00000000000E+00 -0.00000000000E+00 -0.45593999997E+02  0.45594000000E+02  0.51100000000E-03 0. -1.
    9900012    2    1    2    0    0 -0.23645414926E+02  0.15648921857E+02  0.32857702443E+02  0.47787274060E+02  0.20000013749E+02 0.  0.
         12    1    1    2    0    0  0.23645414926E+02 -0.15648921857E+02 -0.32857702443E+02  0.43400725940E+02  0.00000000000E+00 0. -1.
         11    1    3    3    0    0 -0.17485240344E+02  0.55835211502E+01  0.17655529285E+02  0.25468157627E+02  0.51100000000E-03 0. -1.
        -11    1    3    3    0    0 -0.52235173377E+01  0.55515458792E+01  0.15922594057E+02  0.17653152602E+02  0.51100000000E-03 0.  1.
         12    1    3    3    0    0 -0.93665724470E+00  0.45138548272E+01 -0.72042089977E+00  0.46659638305E+01  0.00000000000E+00 0. -1.
</event>
<event>
 7    1  0.2580704E-010  0.4778727E+02  0.7816164E-02  0.1312668E+00
        -11   -1    0    0    0    0  0.00000000000E+00  0.00000000000E+00  0.45593999997E+02  0.45594000000E+02  0.51100000000E-03 0.  1.
         11   -1    0    0    0    0 -0.00000000000E+00 -0.00000000000E+00 -0.45593999997E+02  0.45594000000E+02  0.51100000000E-03 0. -1.
    9900012    2    1    2    0    0  0.10342291386E+02  0.33663646712E+02  0.25365711708E+02  0.47787269228E+02  0.19999991719E+02 0.  0.
         12    1    1    2    0    0 -0.10342291386E+02 -0.33663646712E+02 -0.25365711708E+02  0.43400730772E+02  0.00000000000E+00 0. -1.
         11    1    3    3    0    0  0.25729892614E+00 -0.18076667663E+01 -0.21767233519E+00  0.18388157553E+01  0.51100000000E-03 0. -1.
        -11    1    3    3    0    0  0.74398024376E+01  0.98440934786E+01  0.70476768382E+01  0.14210087466E+02  0.51100000000E-03 0.  1.
        -12    1    3    3    0    0  0.26451900223E+01  0.25627220000E+02  0.18535707205E+02  0.31738366007E+02  0.00000000000E+00 0.  1.
</event>
<event>
 7    1  0.2580704E-010  0.4778727E+02  0.7816164E-02  0.1312668E+00
        -11   -1    0    0    0    0  0.00000000000E+00  0.00000000000E+00  0.45593999997E+02  0.45594000000E+02  0.51100000000E-03 0. -1.
         11   -1    0    0    0    0 -0.00000000000E+00 -0.00000000000E+00 -0.45593999997E+02  0.45594000000E+02  0.51100000000E-03 0.  1.
    9900012    2    1    2    0    0 -0.15199881489E+02  0.60898324184E+01 -0.40193296418E+02  0.47787268058E+02  0.19999986382E+02 0.  0.
         12    1    1    2    0    0  0.15199881489E+02 -0.60898324184E+01  0.40193296418E+02  0.43400731942E+02  0.00000000000E+00 0. -1.
         11    1    3    3    0    0 -0.10647581545E+01  0.21922062141E+01  0.15214710479E+01  0.28730388831E+01  0.51100000000E-03 0. -1.
        -11    1    3    3    0    0 -0.83114015927E+01  0.56915423136E+01 -0.20494363181E+02  0.22836198738E+02  0.51100000000E-03 0.  1.
         12    1    3    3    0    0 -0.58237217418E+01 -0.17939161094E+01 -0.21220404285E+02  0.22078030437E+02  0.00000000000E+00 0. -1.
</event>
<event>
 7    1  0.2580704E-010  0.4778727E+02  0.7816164E-02  0.1312668E+00
        -11   -1    0    0    0    0  0.00000000000E+00  0.00000000000E+00  0.45593999997E+02  0.45594000000E+02  0.51100000000E-03 0. -1.
         11   -1    0    0    0    0 -0.00000000000E+00 -0.00000000000E+00 -0.45593999997E+02  0.45594000000E+02  0.51100000000E-03 0.  1.
    9900012    2    1    2    0    0  0.31090903146E+02  0.70234147888E+00 -0.30273517093E+02  0.47787269832E+02  0.19999994471E+02 0.  0.
         12    1    1    2    0    0 -0.31090903146E+02 -0.70234147888E+00  0.30273517093E+02  0.43400730168E+02  0.00000000000E+00 0. -1.
         11    1    3    3    0    0  0.96573614858E+01 -0.36165887108E+01 -0.17643058956E+02  0.20435798843E+02  0.51100000000E-03 0. -1.
        -11    1    3    3    0    0 -0.40280637729E+00 -0.14713629315E+01 -0.12613370255E+00  0.15307095824E+01  0.51100000000E-03 0.  1.
        -12    1    3    3    0    0  0.21836348037E+02  0.57902931211E+01 -0.12504324434E+02  0.25820761406E+02  0.00000000000E+00 0.  1.
</event>
<event>
 7    1  0.2580704E-010  0.4778727E+02  0.7816164E-02  0.1312668E+00
        -11   -1    0    0    0    0  0.00000000000E+00  0.00000000000E+00  0.45593999997E+02  0.45594000000E+02  0.51100000000E-03 0.  1.
         11   -1    0    0    0    0 -0.00000000000E+00 -0.00000000000E+00 -0.45593999997E+02  0.45594000000E+02  0.51100000000E-03 0. -1.
    9900012    2    1    2    0    0 -0.26731060447E+02  0.28930686646E+02  0.18223308609E+02  0.47787271906E+02  0.20000003927E+02 0.  0.
         12    1    1    2    0    0  0.26731060447E+02 -0.28930686646E+02 -0.18223308609E+02  0.43400728094E+02  0.00000000000E+00 0. -1.
         11    1    3    3    0    0 -0.15978388508E+02  0.17569212829E+02  0.52730913077E+00  0.23754245808E+02  0.51100000000E-03 0. -1.
        -11    1    3    3    0    0 -0.60291610653E+00  0.31164990160E+01  0.31182915944E+01  0.44496984928E+01  0.51100000000E-03 0.  1.
         12    1    3    3    0    0 -0.10149755833E+02  0.82449748014E+01  0.14577707884E+02  0.19583327605E+02  0.00000000000E+00 0. -1.
</event>
<event>
 7    1  0.2580704E-010  0.4778727E+02  0.7816164E-02  0.1312668E+00
        -11   -1    0    0    0    0  0.00000000000E+00  0.00000000000E+00  0.45593999997E+02  0.45594000000E+02  0.51100000000E-03 0.  1.
         11   -1    0    0    0    0 -0.00000000000E+00 -0.00000000000E+00 -0.45593999997E+02  0.45594000000E+02  0.51100000000E-03 0. -1.
    9900012    2    1    2    0    0 -0.32395061954E+02  0.20879086246E+01  0.28806669256E+02  0.47787267345E+02  0.19999983131E+02 0.  0.
         12    1    1    2    0    0  0.32395061954E+02 -0.20879086246E+01 -0.28806669256E+02  0.43400732655E+02  0.00000000000E+00 0. -1.
         11    1    3    3    0    0 -0.18801723804E+02  0.37696889479E+00  0.18184688099E+02  0.26159698107E+02  0.51100000000E-03 0. -1.
        -11    1    3    3    0    0 -0.79913727158E+01 -0.50288002355E+01  0.82747503443E+01  0.12554774519E+02  0.51100000000E-03 0.  1.
         12    1    3    3    0    0 -0.56019654342E+01  0.67397399653E+01  0.23472308128E+01  0.90727947191E+01  0.00000000000E+00 0. -1.
</event>
<event>
 7    1  0.2580704E-010  0.4778727E+02  0.7816164E-02  0.1312668E+00
        -11   -1    0    0    0    0  0.00000000000E+00  0.00000000000E+00  0.45593999997E+02  0.45594000000E+02  0.51100000000E-03 0.  1.
         11   -1    0    0    0    0 -0.00000000000E+00 -0.00000000000E+00 -0.45593999997E+02  0.45594000000E+02  0.51100000000E-03 0. -1.
    9900012    2    1    2    0    0  0.29681457887E+02 -0.87630051339E+01  0.30427683080E+02  0.47787273060E+02  0.20000009191E+02 0.  0.
         12    1    1    2    0    0 -0.29681457887E+02  0.87630051339E+01 -0.30427683080E+02  0.43400726940E+02  0.00000000000E+00 0. -1.
         11    1    3    3    0    0  0.10127981541E+02 -0.82440379295E+01  0.72134134572E+01  0.14918897595E+02  0.51100000000E-03 0. -1.
        -11    1    3    3    0    0  0.22099725237E+01  0.15568537002E+01 -0.11098715271E+01  0.29222571870E+01  0.51100000000E-03 0.  1.
        -12    1    3    3    0    0  0.17343503822E+02 -0.20758209046E+01  0.24324141150E+02  0.29946118279E+02  0.00000000000E+00 0.  1.
</event>
<event>
 7    1  0.2580704E-010  0.4778727E+02  0.7816164E-02  0.1312668E+00
        -11   -1    0    0    0    0  0.00000000000E+00  0.00000000000E+00  0.45593999997E+02  0.45594000000E+02  0.51100000000E-03 0.  1.
         11   -1    0    0    0    0 -0.00000000000E+00 -0.00000000000E+00 -0.45593999997E+02  0.45594000000E+02  0.51100000000E-03 0. -1.
    9900012    2    1    2    0    0  0.22696505229E+02 -0.14852023717E+02  0.33880809527E+02  0.47787271754E+02  0.20000003235E+02 0.  0.
         12    1    1    2    0    0 -0.22696505229E+02  0.14852023717E+02 -0.33880809527E+02  0.43400728246E+02  0.00000000000E+00 0. -1.
         11    1    3    3    0    0  0.10713322219E+02  0.29745191265E+01  0.87513541043E+01  0.14149531297E+02  0.51100000000E-03 0. -1.
        -11    1    3    3    0    0  0.36445891124E+01 -0.17698670485E+01  0.65682105447E+01  0.77173084161E+01  0.51100000000E-03 0.  1.
        -12    1    3    3    0    0  0.83385938972E+01 -0.16056675795E+02  0.18561244878E+02  0.25920432041E+02  0.00000000000E+00 0.  1.
</event>
<event>
 7    1  0.2580704E-010  0.4778727E+02  0.7816164E-02  0.1312668E+00
        -11   -1    0    0    0    0  0.00000000000E+00  0.00000000000E+00  0.45593999997E+02  0.45594000000E+02  0.51100000000E-03 0. -1.
         11   -1    0    0    0    0 -0.00000000000E+00 -0.00000000000E+00 -0.45593999997E+02  0.45594000000E+02  0.51100000000E-03 0.  1.
    9900012    2    1    2    0    0 -0.18104894397E+02 -0.23485554854E+02 -0.31690136274E+02  0.47787271608E+02  0.20000002568E+02 0.  0.
         12    1    1    2    0    0  0.18104894397E+02  0.23485554854E+02  0.31690136274E+02  0.43400728392E+02  0.00000000000E+00 0. -1.
         11    1    3    3    0    0 -0.76981197907E+01 -0.53956379022E+01 -0.14123046846E+02  0.16965683280E+02  0.51100000000E-03 0. -1.
        -11    1    3    3    0    0 -0.10944216885E+02 -0.12790141651E+02 -0.18921026934E+02  0.25325261443E+02  0.51100000000E-03 0.  1.
         12    1    3    3    0    0  0.53744227928E+00 -0.52997753016E+01  0.13539375060E+01  0.54963268844E+01  0.00000000000E+00 0. -1.
</event>
<event>
 7    1  0.2580704E-010  0.4778727E+02  0.7816164E-02  0.1312668E+00
        -11   -1    0    0    0    0  0.00000000000E+00  0.00000000000E+00  0.45593999997E+02  0.45594000000E+02  0.51100000000E-03 0.  1.
         11   -1    0    0    0    0 -0.00000000000E+00 -0.00000000000E+00 -0.45593999997E+02  0.45594000000E+02  0.51100000000E-03 0. -1.
    9900012    2    1    2    0    0  0.28648097544E+02  0.29839933383E+02  0.13133476605E+02  0.47787270457E+02  0.19999997320E+02 0.  0.
         12    1    1    2    0    0 -0.28648097544E+02 -0.29839933383E+02 -0.13133476605E+02  0.43400729543E+02  0.00000000000E+00 0. -1.
         11    1    3    3    0    0  0.42160233472E+00  0.29380746353E+01 -0.10225169460E+01  0.31393585742E+01  0.51100000000E-03 0. -1.
        -11    1    3    3    0    0  0.39064134482E+01 -0.14340972418E+01  0.43932541861E+01  0.60512299190E+01  0.51100000000E-03 0.  1.
         12    1    3    3    0    0  0.24320081761E+02  0.28335955989E+02  0.97627393652E+01  0.38596681963E+02  0.00000000000E+00 0. -1.
</event>
<event>
 7    1  0.2580704E-010  0.4778727E+02  0.7816164E-02  0.1312668E+00
        -11   -1    0    0    0    0  0.00000000000E+00  0.00000000000E+00  0.45593999997E+02  0.45594000000E+02  0.51100000000E-03 0. -1.
         11   -1    0    0    0    0 -0.00000000000E+00 -0.00000000000E+00 -0.45593999997E+02  0.45594000000E+02  0.51100000000E-03 0.  1.
    9900012    2    1    2    0    0  0.21856691769E+02 -0.12687724100E+02 -0.35283569087E+02  0.47787267685E+02  0.19999984684E+02 0.  0.
         12    1    1    2    0    0 -0.21856691769E+02  0.12687724100E+02  0.35283569087E+02  0.43400732315E+02  0.00000000000E+00 0. -1.
         11    1    3    3    0    0  0.59726167089E+01 -0.86541670896E+00 -0.18306039626E+01  0.63065210346E+01  0.51100000000E-03 0. -1.
        -11    1    3    3    0    0  0.13550331183E+02 -0.19586164077E+01 -0.23947512077E+02  0.27584977584E+02  0.51100000000E-03 0.  1.
         12    1    3    3    0    0  0.23337438772E+01 -0.98636909834E+01 -0.95054530479E+01  0.13895769066E+02  0.00000000000E+00 0. -1.
</event>
<event>
 7    1  0.2580704E-010  0.4778726E+02  0.7816164E-02  0.1312668E+00
        -11   -1    0    0    0    0  0.00000000000E+00  0.00000000000E+00  0.45593999997E+02  0.45594000000E+02  0.51100000000E-03 0.  1.
         11   -1    0    0    0    0 -0.00000000000E+00 -0.00000000000E+00 -0.45593999997E+02  0.45594000000E+02  0.51100000000E-03 0. -1.
    9900012    2    1    2    0    0  0.28413971610E+02 -0.29132523732E+02  0.15085306729E+02  0.47787260367E+02  0.19999951316E+02 0.  0.
         12    1    1    2    0    0 -0.28413971610E+02  0.29132523732E+02 -0.15085306729E+02  0.43400739633E+02  0.00000000000E+00 0. -1.
         11    1    3    3    0    0  0.10180035098E+02 -0.18467901256E+02  0.55427342811E+01  0.21804091243E+02  0.51100000000E-03 0. -1.
        -11    1    3    3    0    0  0.60819408317E+01 -0.95509591406E+01  0.75736100091E+01  0.13622422458E+02  0.51100000000E-03 0.  1.
        -12    1    3    3    0    0  0.12151995680E+02 -0.11136633352E+01  0.19689624389E+01  0.12360746665E+02  0.00000000000E+00 0.  1.
</event>
<event>
 7    1  0.2580704E-010  0.4778728E+02  0.7816164E-02  0.1312668E+00
        -11   -1    0    0    0    0  0.00000000000E+00  0.00000000000E+00  0.45593999997E+02  0.45594000000E+02  0.51100000000E-03 0.  1.
         11   -1    0    0    0    0 -0.00000000000E+00 -0.00000000000E+00 -0.45593999997E+02  0.45594000000E+02  0.51100000000E-03 0. -1.
    9900012    2    1    2    0    0 -0.13939779576E+01  0.10830700119E+02  0.42004472034E+02  0.47787275231E+02  0.20000019088E+02 0.  0.
         12    1    1    2    0    0  0.13939779576E+01 -0.10830700119E+02 -0.42004472034E+02  0.43400724769E+02  0.00000000000E+00 0. -1.
         11    1    3    3    0    0  0.55431572107E+00  0.35312932978E+01  0.11163260477E+02  0.11721590465E+02  0.51100000000E-03 0. -1.
        -11    1    3    3    0    0 -0.84623570987E+00  0.70170365680E+01  0.22006713078E+01  0.74025584455E+01  0.51100000000E-03 0.  1.
        -12    1    3    3    0    0 -0.11020579688E+01  0.28237025322E+00  0.28640540249E+02  0.28663126321E+02  0.00000000000E+00 0.  1.
</event>
<event>
 7    1  0.2580704E-010  0.4778727E+02  0.7816164E-02  0.1312668E+00
        -11   -1    0    0    0    0  0.00000000000E+00  0.00000000000E+00  0.45593999997E+02  0.45594000000E+02  0.51100000000E-03 0.  1.
         11   -1    0    0    0    0 -0.00000000000E+00 -0.00000000000E+00 -0.45593999997E+02  0.45594000000E+02  0.51100000000E-03 0. -1.
    9900012    2    1    2    0    0  0.65673307392E+01  0.31590872957E+02  0.29026025634E+02  0.47787271304E+02  0.20000001184E+02 0.  0.
         12    1    1    2    0    0 -0.65673307392E+01 -0.31590872957E+02 -0.29026025634E+02  0.43400728696E+02  0.00000000000E+00 0. -1.
         11    1    3    3    0    0 -0.22639897053E+01  0.17640923754E+00 -0.45251804554E+00  0.23155004745E+01  0.51100000000E-03 0. -1.
        -11    1    3    3    0    0  0.66113874516E+01  0.77864886973E+01  0.13211487416E+02  0.16699797911E+02  0.51100000000E-03 0.  1.
        -12    1    3    3    0    0  0.22199329929E+01  0.23627975022E+02  0.16267056264E+02  0.28771972919E+02  0.00000000000E+00 0.  1.
</event>
<event>
 7    1  0.2580704E-010  0.4778727E+02  0.7816164E-02  0.1312668E+00
        -11   -1    0    0    0    0  0.00000000000E+00  0.00000000000E+00  0.45593999997E+02  0.45594000000E+02  0.51100000000E-03 0. -1.
         11   -1    0    0    0    0 -0.00000000000E+00 -0.00000000000E+00 -0.45593999997E+02  0.45594000000E+02  0.51100000000E-03 0.  1.
    9900012    2    1    2    0    0 -0.34693260765E+02  0.25614309020E+02  0.48896067612E+01  0.47787269322E+02  0.19999992148E+02 0.  0.
         12    1    1    2    0    0  0.34693260765E+02 -0.25614309020E+02 -0.48896067612E+01  0.43400730678E+02  0.00000000000E+00 0. -1.
         11    1    3    3    0    0 -0.36987883481E+01  0.21793411175E+01 -0.50869948899E+00  0.43231167439E+01  0.51100000000E-03 0. -1.
        -11    1    3    3    0    0 -0.28503420062E+02  0.16815736283E+02 -0.20950586985E+01  0.33160265578E+02  0.51100000000E-03 0.  1.
        -12    1    3    3    0    0 -0.24910523551E+01  0.66192316195E+01  0.74933649487E+01  0.10303887001E+02  0.00000000000E+00 0.  1.
</event>
<event>
 7    1  0.2580704E-010  0.4778727E+02  0.7816164E-02  0.1312668E+00
        -11   -1    0    0    0    0  0.00000000000E+00  0.00000000000E+00  0.45593999997E+02  0.45594000000E+02  0.51100000000E-03 0.  1.
         11   -1    0    0    0    0 -0.00000000000E+00 -0.00000000000E+00 -0.45593999997E+02  0.45594000000E+02  0.51100000000E-03 0. -1.
    9900012    2    1    2    0    0  0.29928093185E+02  0.21130049977E+02  0.23269151521E+02  0.47787272054E+02  0.20000004605E+02 0.  0.
         12    1    1    2    0    0 -0.29928093185E+02 -0.21130049977E+02 -0.23269151521E+02  0.43400727946E+02  0.00000000000E+00 0. -1.
         11    1    3    3    0    0  0.59368883811E+01 -0.89138204762E+00  0.61464358541E+01  0.85918496015E+01  0.51100000000E-03 0. -1.
        -11    1    3    3    0    0  0.14937610255E+02  0.11600863163E+02  0.16939311751E+02  0.25390008056E+02  0.51100000000E-03 0.  1.
        -12    1    3    3    0    0  0.90535945492E+01  0.10420568862E+02  0.18340391531E+00  0.13805414397E+02  0.00000000000E+00 0.  1.
</event>
<event>
 7    1  0.2580704E-010  0.4778727E+02  0.7816164E-02  0.1312668E+00
        -11   -1    0    0    0    0  0.00000000000E+00  0.00000000000E+00  0.45593999997E+02  0.45594000000E+02  0.51100000000E-03 0. -1.
         11   -1    0    0    0    0 -0.00000000000E+00 -0.00000000000E+00 -0.45593999997E+02  0.45594000000E+02  0.51100000000E-03 0.  1.
    9900012    2    1    2    0    0  0.12102932693E+02  0.33483623033E+02 -0.24819135438E+02  0.47787268727E+02  0.19999989432E+02 0.  0.
         12    1    1    2    0    0 -0.12102932693E+02 -0.33483623033E+02  0.24819135438E+02  0.43400731273E+02  0.00000000000E+00 0. -1.
         11    1    3    3    0    0 -0.97284391517E+00  0.12764327891E+02 -0.85914056882E+01  0.15417092585E+02  0.51100000000E-03 0. -1.
        -11    1    3    3    0    0  0.11215593068E+02  0.22102477557E+02 -0.11974591276E+02  0.27526348805E+02  0.51100000000E-03 0.  1.
         12    1    3    3    0    0  0.18601835403E+01 -0.13831824158E+01 -0.42531384732E+01  0.48438273371E+01  0.00000000000E+00 0. -1.
</event>
<event>
 7    1  0.2580704E-010  0.4778728E+02  0.7816164E-02  0.1312668E+00
        -11   -1    0    0    0    0  0.00000000000E+00  0.00000000000E+00  0.45593999997E+02  0.45594000000E+02  0.51100000000E-03 0. -1.
         11   -1    0    0    0    0 -0.00000000000E+00 -0.00000000000E+00 -0.45593999997E+02  0.45594000000E+02  0.51100000000E-03 0.  1.
    9900012    2    1    2    0    0 -0.33998632315E+02  0.83531065052E+01 -0.25650358903E+02  0.47787282271E+02  0.20000051187E+02 0.  0.
         12    1    1    2    0    0  0.33998632315E+02 -0.83531065052E+01  0.25650358903E+02  0.43400717729E+02  0.00000000000E+00 0. -1.
         11    1    3    3    0    0 -0.61396244288E+01 -0.15110751445E+01 -0.97888973915E+00  0.63981686131E+01  0.51100000000E-03 0.  1.
        -11    1    3    3    0    0 -0.14587922885E+02 -0.16052339164E+01 -0.62465605545E+01  0.15950040409E+02  0.51100000000E-03 0. -1.
        -12    1    3    3    0    0 -0.13271085001E+02  0.11469415566E+02 -0.18424908609E+02  0.25439073249E+02  0.00000000000E+00 0.  1.
</event>
<event>
 7    1  0.2580704E-010  0.4778723E+02  0.7816164E-02  0.1312668E+00
        -11   -1    0    0    0    0  0.00000000000E+00  0.00000000000E+00  0.45593999997E+02  0.45594000000E+02  0.51100000000E-03 0.  1.
         11   -1    0    0    0    0 -0.00000000000E+00 -0.00000000000E+00 -0.45593999997E+02  0.45594000000E+02  0.51100000000E-03 0. -1.
    9900012    2    1    2    0    0  0.42649630724E+02  0.80379152867E+01  0.16603125261E+00  0.47787232156E+02  0.19999822691E+02 0.  0.
         12    1    1    2    0    0 -0.42649630724E+02 -0.80379152867E+01 -0.16603125261E+00  0.43400767844E+02  0.00000000000E+00 0. -1.
         11    1    3    3    0    0  0.53936470994E+01 -0.24932954034E+01  0.43234053598E+01  0.73484546108E+01  0.51100000000E-03 0. -1.
        -11    1    3    3    0    0  0.11162106124E+02  0.90797647858E-02 -0.51343247893E+01  0.12286333337E+02  0.51100000000E-03 0.  1.
         12    1    3    3    0    0  0.26093877501E+02  0.10522130925E+02  0.97695068215E+00  0.28152444208E+02  0.00000000000E+00 0. -1.
</event>
<event>
 7    1  0.2580704E-010  0.4778727E+02  0.7816164E-02  0.1312668E+00
        -11   -1    0    0    0    0  0.00000000000E+00  0.00000000000E+00  0.45593999997E+02  0.45594000000E+02  0.51100000000E-03 0. -1.
         11   -1    0    0    0    0 -0.00000000000E+00 -0.00000000000E+00 -0.45593999997E+02  0.45594000000E+02  0.51100000000E-03 0.  1.
    9900012    2    1    2    0    0  0.42298717657E+02 -0.94686522785E+01  0.21878988928E+01  0.47787265065E+02  0.19999972735E+02 0.  0.
         12    1    1    2    0    0 -0.42298717657E+02  0.94686522785E+01 -0.21878988928E+01  0.43400734935E+02  0.00000000000E+00 0. -1.
         11    1    3    3    0    0  0.15330259813E+02  0.25388194687E+01 -0.24825170636E+01  0.15736116467E+02  0.51100000000E-03 0. -1.
        -11    1    3    3    0    0  0.20549342535E+02 -0.51783129046E+01 -0.78559734672E+00  0.21206309595E+02  0.51100000000E-03 0.  1.
         12    1    3    3    0    0  0.64191153088E+01 -0.68291588426E+01  0.54560133031E+01  0.10844839003E+02  0.00000000000E+00 0. -1.
</event>
<event>
 7    1  0.2580704E-010  0.4778727E+02  0.7816164E-02  0.1312668E+00
        -11   -1    0    0    0    0  0.00000000000E+00  0.00000000000E+00  0.45593999997E+02  0.45594000000E+02  0.51100000000E-03 0.  1.
         11   -1    0    0    0    0 -0.00000000000E+00 -0.00000000000E+00 -0.45593999997E+02  0.45594000000E+02  0.51100000000E-03 0. -1.
    9900012    2    1    2    0    0  0.47433574160E+01 -0.19706521969E+01  0.43095712466E+02  0.47787270253E+02  0.19999996390E+02 0.  0.
         12    1    1    2    0    0 -0.47433574160E+01  0.19706521969E+01 -0.43095712466E+02  0.43400729747E+02  0.00000000000E+00 0. -1.
         11    1    3    3    0    0  0.47555355356E+00  0.30511550342E+01  0.22115509048E+01  0.37982437903E+01  0.51100000000E-03 0. -1.
        -11    1    3    3    0    0 -0.41995269961E+01 -0.66119635328E+00  0.25812477016E+02  0.26160221283E+02  0.51100000000E-03 0.  1.
         12    1    3    3    0    0  0.84673308586E+01 -0.43606108779E+01  0.15071684545E+02  0.17828805179E+02  0.00000000000E+00 0. -1.
</event>
<event>
 7    1  0.2580704E-010  0.4778727E+02  0.7816164E-02  0.1312668E+00
        -11   -1    0    0    0    0  0.00000000000E+00  0.00000000000E+00  0.45593999997E+02  0.45594000000E+02  0.51100000000E-03 0. -1.
         11   -1    0    0    0    0 -0.00000000000E+00 -0.00000000000E+00 -0.45593999997E+02  0.45594000000E+02  0.51100000000E-03 0.  1.
    9900012    2    1    2    0    0  0.70852468068E+01 -0.31057943568E+02 -0.29475869524E+02  0.47787268840E+02  0.19999989951E+02 0.  0.
         12    1    1    2    0    0 -0.70852468068E+01  0.31057943568E+02  0.29475869524E+02  0.43400731160E+02  0.00000000000E+00 0. -1.
         11    1    3    3    0    0 -0.28290943506E+01 -0.19978182231E+01 -0.10691593769E+02  0.11238559965E+02  0.51100000000E-03 0. -1.
        -11    1    3    3    0    0  0.38474218615E+01 -0.74410701718E+01 -0.82097875675E+01  0.11729142869E+02  0.51100000000E-03 0.  1.
         12    1    3    3    0    0  0.60669192959E+01 -0.21619055173E+02 -0.10574488187E+02  0.24819566007E+02  0.00000000000E+00 0. -1.
</event>
<event>
 7    1  0.2580704E-010  0.4778727E+02  0.7816164E-02  0.1312668E+00
        -11   -1    0    0    0    0  0.00000000000E+00  0.00000000000E+00  0.45593999997E+02  0.45594000000E+02  0.51100000000E-03 0.  1.
         11   -1    0    0    0    0 -0.00000000000E+00 -0.00000000000E+00 -0.45593999997E+02  0.45594000000E+02  0.51100000000E-03 0. -1.
    9900012    2    1    2    0    0 -0.35826116680E+02  0.23967447203E+02 -0.50669443418E+01  0.47787273200E+02  0.20000009826E+02 0.  0.
         12    1    1    2    0    0  0.35826116680E+02 -0.23967447203E+02  0.50669443418E+01  0.43400726800E+02  0.00000000000E+00 0. -1.
         11    1    3    3    0    0 -0.80152825851E+00 -0.40075750213E+00 -0.20054012251E+01  0.21965173478E+01  0.51100000000E-03 0. -1.
        -11    1    3    3    0    0 -0.28205446053E+02  0.12546114583E+02 -0.64321002664E+01  0.31532904914E+02  0.51100000000E-03 0.  1.
         12    1    3    3    0    0 -0.68191423688E+01  0.11822090122E+02  0.33705571497E+01  0.14057850938E+02  0.00000000000E+00 0. -1.
</event>
<event>
 7    1  0.2580704E-010  0.4778727E+02  0.7816164E-02  0.1312668E+00
        -11   -1    0    0    0    0  0.00000000000E+00  0.00000000000E+00  0.45593999997E+02  0.45594000000E+02  0.51100000000E-03 0.  1.
         11   -1    0    0    0    0 -0.00000000000E+00 -0.00000000000E+00 -0.45593999997E+02  0.45594000000E+02  0.51100000000E-03 0. -1.
    9900012    2    1    2    0    0  0.42499467093E+02 -0.87689655167E+01  0.72393994968E+00  0.47787267881E+02  0.19999985574E+02 0.  0.
         12    1    1    2    0    0 -0.42499467093E+02  0.87689655167E+01 -0.72393994968E+00  0.43400732119E+02  0.00000000000E+00 0. -1.
         11    1    3    3    0    0  0.81968056480E+01  0.77238985007E-01 -0.30697146810E+01  0.87530987185E+01  0.51100000000E-03 0. -1.
        -11    1    3    3    0    0  0.19604455070E+02 -0.48988586035E+01 -0.58253437300E+01  0.21030171279E+02  0.51100000000E-03 0.  1.
        -12    1    3    3    0    0  0.14698206376E+02 -0.39473458982E+01  0.96189983607E+01  0.18003997883E+02  0.00000000000E+00 0.  1.
</event>
<event>
 7    1  0.2580704E-010  0.4778728E+02  0.7816164E-02  0.1312668E+00
        -11   -1    0    0    0    0  0.00000000000E+00  0.00000000000E+00  0.45593999997E+02  0.45594000000E+02  0.51100000000E-03 0.  1.
         11   -1    0    0    0    0 -0.00000000000E+00 -0.00000000000E+00 -0.45593999997E+02  0.45594000000E+02  0.51100000000E-03 0. -1.
    9900012    2    1    2    0    0 -0.57055995506E+01 -0.20318098637E+01  0.42976046286E+02  0.47787277979E+02  0.20000031616E+02 0.  0.
         12    1    1    2    0    0  0.57055995506E+01  0.20318098637E+01 -0.42976046286E+02  0.43400722021E+02  0.00000000000E+00 0. -1.
         11    1    3    3    0    0 -0.21302622917E+01 -0.17084382030E+01  0.11013778325E+02  0.11347250406E+02  0.51100000000E-03 0. -1.
        -11    1    3    3    0    0 -0.66574193795E+01  0.60043850670E+01  0.24919457459E+02  0.26483074466E+02  0.51100000000E-03 0.  1.
         12    1    3    3    0    0  0.30820821206E+01 -0.63277567277E+01  0.70428105021E+01  0.99569531069E+01  0.00000000000E+00 0. -1.
</event>
<event>
 7    1  0.2580704E-010  0.4778727E+02  0.7816164E-02  0.1312668E+00
        -11   -1    0    0    0    0  0.00000000000E+00  0.00000000000E+00  0.45593999997E+02  0.45594000000E+02  0.51100000000E-03 0.  1.
         11   -1    0    0    0    0 -0.00000000000E+00 -0.00000000000E+00 -0.45593999997E+02  0.45594000000E+02  0.51100000000E-03 0. -1.
    9900012    2    1    2    0    0  0.36814620406E+02  0.69661575958E+01  0.21903868159E+02  0.47787273420E+02  0.20000010833E+02 0.  0.
         12    1    1    2    0    0 -0.36814620406E+02 -0.69661575958E+01 -0.21903868159E+02  0.43400726580E+02  0.00000000000E+00 0. -1.
         11    1    3    3    0    0  0.69831186192E+01  0.58117069326E+01  0.31791456031E+00  0.90907069609E+01  0.51100000000E-03 0. -1.
        -11    1    3    3    0    0  0.12519339454E+02  0.58662679498E+01  0.12245913314E+02  0.18469145979E+02  0.51100000000E-03 0.  1.
         12    1    3    3    0    0  0.17312162333E+02 -0.47118172866E+01  0.93400402844E+01  0.20227420480E+02  0.00000000000E+00 0. -1.
</event>
<event>
 7    1  0.2580704E-010  0.4778727E+02  0.7816164E-02  0.1312668E+00
        -11   -1    0    0    0    0  0.00000000000E+00  0.00000000000E+00  0.45593999997E+02  0.45594000000E+02  0.51100000000E-03 0.  1.
         11   -1    0    0    0    0 -0.00000000000E+00 -0.00000000000E+00 -0.45593999997E+02  0.45594000000E+02  0.51100000000E-03 0. -1.
    9900012    2    1    2    0    0  0.40447323926E+02  0.27403481631E+01 -0.15496055277E+02  0.47787271320E+02  0.20000001257E+02 0.  0.
         12    1    1    2    0    0 -0.40447323926E+02 -0.27403481631E+01  0.15496055277E+02  0.43400728680E+02  0.00000000000E+00 0. -1.
         11    1    3    3    0    0  0.23522072855E+02  0.40540834803E+01 -0.12359344526E+02  0.26878930441E+02  0.51100000000E-03 0. -1.
        -11    1    3    3    0    0  0.14700449097E+02 -0.47683051985E+01  0.44000414158E+00  0.15460709623E+02  0.51100000000E-03 0.  1.
         12    1    3    3    0    0  0.22248019727E+01  0.34545698812E+01 -0.35767148926E+01  0.54476312563E+01  0.00000000000E+00 0. -1.
</event>
<event>
 7    1  0.2580704E-010  0.4778726E+02  0.7816164E-02  0.1312668E+00
        -11   -1    0    0    0    0  0.00000000000E+00  0.00000000000E+00  0.45593999997E+02  0.45594000000E+02  0.51100000000E-03 0.  1.
         11   -1    0    0    0    0 -0.00000000000E+00 -0.00000000000E+00 -0.45593999997E+02  0.45594000000E+02  0.51100000000E-03 0. -1.
    9900012    2    1    2    0    0 -0.50581314578E+01  0.12823187530E+02  0.41153433757E+02  0.47787263344E+02  0.19999964890E+02 0.  0.
         12    1    1    2    0    0  0.50581314578E+01 -0.12823187530E+02 -0.41153433757E+02  0.43400736656E+02  0.00000000000E+00 0. -1.
         11    1    3    3    0    0 -0.55414218734E+01 -0.33007093130E+01  0.86385930268E+01  0.10780877891E+02  0.51100000000E-03 0. -1.
        -11    1    3    3    0    0 -0.89798762630E+00  0.15710646075E+01  0.99984590362E+01  0.10160896079E+02  0.51100000000E-03 0.  1.
        -12    1    3    3    0    0  0.13812780419E+01  0.14552832236E+02  0.22516381694E+02  0.26845489374E+02  0.00000000000E+00 0.  1.
</event>
<event>
 7    1  0.2580704E-010  0.4778727E+02  0.7816164E-02  0.1312668E+00
        -11   -1    0    0    0    0  0.00000000000E+00  0.00000000000E+00  0.45593999997E+02  0.45594000000E+02  0.51100000000E-03 0.  1.
         11   -1    0    0    0    0 -0.00000000000E+00 -0.00000000000E+00 -0.45593999997E+02  0.45594000000E+02  0.51100000000E-03 0. -1.
    9900012    2    1    2    0    0  0.13057550990E+02  0.34403567333E+02  0.23011261340E+02  0.47787271532E+02  0.20000002222E+02 0.  0.
         12    1    1    2    0    0 -0.13057550990E+02 -0.34403567333E+02 -0.23011261340E+02  0.43400728468E+02  0.00000000000E+00 0. -1.
         11    1    3    3    0    0  0.62599760677E+01  0.20607892233E+02  0.11715624617E+02  0.24517919632E+02  0.51100000000E-03 0. -1.
        -11    1    3    3    0    0  0.21288861090E+01  0.13915013791E+02  0.40480954633E+01  0.14647417589E+02  0.51100000000E-03 0.  1.
         12    1    3    3    0    0  0.46686888137E+01 -0.11933869054E+00  0.72475412591E+01  0.86219343110E+01  0.00000000000E+00 0. -1.
</event>
<event>
 7    1  0.2580704E-010  0.4778727E+02  0.7816164E-02  0.1312668E+00
        -11   -1    0    0    0    0  0.00000000000E+00  0.00000000000E+00  0.45593999997E+02  0.45594000000E+02  0.51100000000E-03 0.  1.
         11   -1    0    0    0    0 -0.00000000000E+00 -0.00000000000E+00 -0.45593999997E+02  0.45594000000E+02  0.51100000000E-03 0. -1.
    9900012    2    1    2    0    0 -0.20657415053E+02  0.25293075301E+01  0.38085389410E+02  0.47787273281E+02  0.20000010198E+02 0.  0.
         12    1    1    2    0    0  0.20657415053E+02 -0.25293075301E+01 -0.38085389410E+02  0.43400726719E+02  0.00000000000E+00 0. -1.
         11    1    3    3    0    0 -0.53065609267E+01  0.13461525336E+01  0.11806241539E+01  0.56004990105E+01  0.51100000000E-03 0. -1.
        -11    1    3    3    0    0 -0.35071795601E+00 -0.15476296431E+01  0.17195566920E+02  0.17268632910E+02  0.51100000000E-03 0.  1.
         12    1    3    3    0    0 -0.15000136170E+02  0.27307846396E+01  0.19709198335E+02  0.24918141361E+02  0.00000000000E+00 0. -1.
</event>
<event>
 7    1  0.2580704E-010  0.4778727E+02  0.7816164E-02  0.1312668E+00
        -11   -1    0    0    0    0  0.00000000000E+00  0.00000000000E+00  0.45593999997E+02  0.45594000000E+02  0.51100000000E-03 0.  1.
         11   -1    0    0    0    0 -0.00000000000E+00 -0.00000000000E+00 -0.45593999997E+02  0.45594000000E+02  0.51100000000E-03 0. -1.
    9900012    2    1    2    0    0 -0.10424573717E+02  0.91441362927E+01  0.41125860613E+02  0.47787269858E+02  0.19999994589E+02 0.  0.
         12    1    1    2    0    0  0.10424573717E+02 -0.91441362927E+01 -0.41125860613E+02  0.43400730142E+02  0.00000000000E+00 0. -1.
         11    1    3    3    0    0 -0.10634923484E+01  0.76899212547E+01  0.17006776857E+02  0.18694821855E+02  0.51100000000E-03 0. -1.
        -11    1    3    3    0    0 -0.73898602448E+01  0.34751242260E+01  0.24865701633E+02  0.26172306753E+02  0.51100000000E-03 0.  1.
         12    1    3    3    0    0 -0.19712211234E+01 -0.20209091879E+01 -0.74661787650E+00  0.29201412494E+01  0.00000000000E+00 0. -1.
</event>
<event>
 7    1  0.2580704E-010  0.4778727E+02  0.7816164E-02  0.1312668E+00
        -11   -1    0    0    0    0  0.00000000000E+00  0.00000000000E+00  0.45593999997E+02  0.45594000000E+02  0.51100000000E-03 0.  1.
         11   -1    0    0    0    0 -0.00000000000E+00 -0.00000000000E+00 -0.45593999997E+02  0.45594000000E+02  0.51100000000E-03 0. -1.
    9900012    2    1    2    0    0  0.38043417606E+02 -0.91976756896E+01  0.18754318253E+02  0.47787270578E+02  0.19999997873E+02 0.  0.
         12    1    1    2    0    0 -0.38043417606E+02  0.91976756896E+01 -0.18754318253E+02  0.43400729422E+02  0.00000000000E+00 0. -1.
         11    1    3    3    0    0  0.16887000045E+02 -0.14331950861E+01  0.77757899180E+01  0.18646386453E+02  0.51100000000E-03 0. -1.
        -11    1    3    3    0    0  0.95188439621E+01  0.34262697264E+01  0.75813944664E+01  0.12642201427E+02  0.51100000000E-03 0.  1.
         12    1    3    3    0    0  0.11637573599E+02 -0.11190750330E+02  0.33971338691E+01  0.16498682697E+02  0.00000000000E+00 0. -1.
</event>
<event>
 7    1  0.2580704E-010  0.4778725E+02  0.7816164E-02  0.1312668E+00
        -11   -1    0    0    0    0  0.00000000000E+00  0.00000000000E+00  0.45593999997E+02  0.45594000000E+02  0.51100000000E-03 0.  1.
         11   -1    0    0    0    0 -0.00000000000E+00 -0.00000000000E+00 -0.45593999997E+02  0.45594000000E+02  0.51100000000E-03 0. -1.
    9900012    2    1    2    0    0  0.40909355045E+02  0.91030606114E+01  0.11277573414E+02  0.47787254559E+02  0.19999924836E+02 0.  0.
         12    1    1    2    0    0 -0.40909355045E+02 -0.91030606114E+01 -0.11277573414E+02  0.43400745441E+02  0.00000000000E+00 0. -1.
         11    1    3    3    0    0  0.71649930960E+01  0.74937366831E+01  0.33386407228E+01  0.10892187002E+02  0.51100000000E-03 0. -1.
        -11    1    3    3    0    0  0.43984253647E+01 -0.13377083519E+01  0.56910514781E+01  0.73159877331E+01  0.51100000000E-03 0.  1.
        -12    1    3    3    0    0  0.29345936585E+02  0.29470322802E+01  0.22478812135E+01  0.29579079824E+02  0.00000000000E+00 0.  1.
</event>
<event>
 7    1  0.2580704E-010  0.4778727E+02  0.7816164E-02  0.1312668E+00
        -11   -1    0    0    0    0  0.00000000000E+00  0.00000000000E+00  0.45593999997E+02  0.45594000000E+02  0.51100000000E-03 0.  1.
         11   -1    0    0    0    0 -0.00000000000E+00 -0.00000000000E+00 -0.45593999997E+02  0.45594000000E+02  0.51100000000E-03 0. -1.
    9900012    2    1    2    0    0  0.38808942742E+02  0.91665409410E+01 -0.17130783191E+02  0.47787271408E+02  0.20000001657E+02 0.  0.
         12    1    1    2    0    0 -0.38808942742E+02 -0.91665409410E+01  0.17130783191E+02  0.43400728592E+02  0.00000000000E+00 0. -1.
         11    1    3    3    0    0  0.63475402936E+01  0.34150239371E+01 -0.10518927294E+02  0.12751528848E+02  0.51100000000E-03 0. -1.
        -11    1    3    3    0    0  0.88578854753E+01  0.60605792631E+01 -0.30913927845E+01  0.11169130034E+02  0.51100000000E-03 0.  1.
        -12    1    3    3    0    0  0.23603516973E+02 -0.30906225924E+00 -0.35204631128E+01  0.23866612527E+02  0.00000000000E+00 0.  1.
</event>
<event>
 7    1  0.2580704E-010  0.4778727E+02  0.7816164E-02  0.1312668E+00
        -11   -1    0    0    0    0  0.00000000000E+00  0.00000000000E+00  0.45593999997E+02  0.45594000000E+02  0.51100000000E-03 0.  1.
         11   -1    0    0    0    0 -0.00000000000E+00 -0.00000000000E+00 -0.45593999997E+02  0.45594000000E+02  0.51100000000E-03 0. -1.
    9900012    2    1    2    0    0  0.38983048635E+02  0.12587634989E+02  0.14335156412E+02  0.47787270227E+02  0.19999996273E+02 0.  0.
         12    1    1    2    0    0 -0.38983048635E+02 -0.12587634989E+02 -0.14335156412E+02  0.43400729773E+02  0.00000000000E+00 0. -1.
         11    1    3    3    0    0  0.30017765173E+00 -0.13570150056E+01  0.20083472891E+01  0.24423462987E+01  0.51100000000E-03 0. -1.
        -11    1    3    3    0    0  0.21486438565E+02  0.97254149438E+01  0.14215806476E+02  0.27537971822E+02  0.51100000000E-03 0.  1.
        -12    1    3    3    0    0  0.17196432418E+02  0.42192350508E+01 -0.18889973528E+01  0.17806952107E+02  0.00000000000E+00 0.  1.
</event>
<event>
 7    1  0.2580704E-010  0.4778726E+02  0.7816164E-02  0.1312668E+00
        -11   -1    0    0    0    0  0.00000000000E+00  0.00000000000E+00  0.45593999997E+02  0.45594000000E+02  0.51100000000E-03 0.  1.
         11   -1    0    0    0    0 -0.00000000000E+00 -0.00000000000E+00 -0.45593999997E+02  0.45594000000E+02  0.51100000000E-03 0. -1.
    9900012    2    1    2    0    0  0.17822301618E+02  0.11460633033E+02  0.37876685678E+02  0.47787264263E+02  0.19999969082E+02 0.  0.
         12    1    1    2    0    0 -0.17822301618E+02 -0.11460633033E+02 -0.37876685678E+02  0.43400735737E+02  0.00000000000E+00 0. -1.
         11    1    3    3    0    0  0.42930290808E+01  0.31546217046E+01  0.28781750767E+02  0.29270649365E+02  0.51100000000E-03 0. -1.
        -11    1    3    3    0    0  0.36541389427E+01  0.88176869241E+00  0.17840963208E+01  0.41609190551E+01  0.51100000000E-03 0.  1.
         12    1    3    3    0    0  0.98751335947E+01  0.74242426364E+01  0.73108385905E+01  0.14355695843E+02  0.00000000000E+00 0. -1.
</event>
<event>
 7    1  0.2580704E-010  0.4778727E+02  0.7816164E-02  0.1312668E+00
        -11   -1    0    0    0    0  0.00000000000E+00  0.00000000000E+00  0.45593999997E+02  0.45594000000E+02  0.51100000000E-03 0. -1.
         11   -1    0    0    0    0 -0.00000000000E+00 -0.00000000000E+00 -0.45593999997E+02  0.45594000000E+02  0.51100000000E-03 0.  1.
    9900012    2    1    2    0    0  0.26660952314E+02 -0.42906237290E+01 -0.33976570518E+02  0.47787272190E+02  0.20000005223E+02 0.  0.
         12    1    1    2    0    0 -0.26660952314E+02  0.42906237290E+01  0.33976570518E+02  0.43400727810E+02  0.00000000000E+00 0. -1.
         11    1    3    3    0    0  0.82838864337E+01 -0.32273922413E+01 -0.33552418301E+01  0.95024461654E+01  0.51100000000E-03 0. -1.
        -11    1    3    3    0    0  0.82178007112E+01 -0.18760620467E+01 -0.31750623681E+01  0.90073791213E+01  0.51100000000E-03 0.  1.
         12    1    3    3    0    0  0.10159265169E+02  0.81283055902E+00 -0.27446266319E+02  0.29277446903E+02  0.00000000000E+00 0. -1.
</event>
<event>
 7    1  0.2580704E-010  0.4778727E+02  0.7816164E-02  0.1312668E+00
        -11   -1    0    0    0    0  0.00000000000E+00  0.00000000000E+00  0.45593999997E+02  0.45594000000E+02  0.51100000000E-03 0.  1.
         11   -1    0    0    0    0 -0.00000000000E+00 -0.00000000000E+00 -0.45593999997E+02  0.45594000000E+02  0.51100000000E-03 0. -1.
    9900012    2    1    2    0    0 -0.34805266762E+02 -0.20850846227E+01  0.25843162197E+02  0.47787271843E+02  0.20000003641E+02 0.  0.
         12    1    1    2    0    0  0.34805266762E+02  0.20850846227E+01 -0.25843162197E+02  0.43400728157E+02  0.00000000000E+00 0. -1.
         11    1    3    3    0    0  0.12727266369E+01  0.12799970781E+01  0.70253744139E+00  0.19369524336E+01  0.51100000000E-03 0. -1.
        -11    1    3    3    0    0 -0.24683066119E+01  0.32212854226E+01  0.20696320829E+01  0.45555015667E+01  0.51100000000E-03 0.  1.
        -12    1    3    3    0    0 -0.33609686787E+02 -0.65863671234E+01  0.23070992672E+02  0.41294817843E+02  0.00000000000E+00 0.  1.
</event>
<event>
 7    1  0.2580704E-010  0.4778727E+02  0.7816164E-02  0.1312668E+00
        -11   -1    0    0    0    0  0.00000000000E+00  0.00000000000E+00  0.45593999997E+02  0.45594000000E+02  0.51100000000E-03 0. -1.
         11   -1    0    0    0    0 -0.00000000000E+00 -0.00000000000E+00 -0.45593999997E+02  0.45594000000E+02  0.51100000000E-03 0.  1.
    9900012    2    1    2    0    0  0.18597479196E+00  0.38021021012E+02 -0.20928230458E+02  0.47787268952E+02  0.19999990458E+02 0.  0.
         12    1    1    2    0    0 -0.18597479196E+00 -0.38021021012E+02  0.20928230458E+02  0.43400731048E+02  0.00000000000E+00 0. -1.
         11    1    3    3    0    0  0.48317026914E+01  0.16827525848E+01  0.76491472040E+00  0.51732100238E+01  0.51100000000E-03 0. -1.
        -11    1    3    3    0    0 -0.26823788732E+01  0.15821366389E+02 -0.87749086582E+01  0.18289609428E+02  0.51100000000E-03 0.  1.
         12    1    3    3    0    0 -0.19633490262E+01  0.20516902039E+02 -0.12918236520E+02  0.24324449500E+02  0.00000000000E+00 0. -1.
</event>
<event>
 7    1  0.2580704E-010  0.4778727E+02  0.7816164E-02  0.1312668E+00
        -11   -1    0    0    0    0  0.00000000000E+00  0.00000000000E+00  0.45593999997E+02  0.45594000000E+02  0.51100000000E-03 0. -1.
         11   -1    0    0    0    0 -0.00000000000E+00 -0.00000000000E+00 -0.45593999997E+02  0.45594000000E+02  0.51100000000E-03 0.  1.
    9900012    2    1    2    0    0  0.55475738570E+01 -0.42812972049E+02  0.44606213536E+01  0.47787270810E+02  0.19999998932E+02 0.  0.
         12    1    1    2    0    0 -0.55475738570E+01  0.42812972049E+02 -0.44606213536E+01  0.43400729190E+02  0.00000000000E+00 0. -1.
         11    1    3    3    0    0  0.24512938849E+01 -0.15769332373E+02  0.54169336607E+01  0.16853007320E+02  0.51100000000E-03 0. -1.
        -11    1    3    3    0    0  0.66424523670E+01 -0.22992603175E+02  0.31823004658E+01  0.24143508667E+02  0.51100000000E-03 0.  1.
         12    1    3    3    0    0 -0.35461723948E+01 -0.40510365008E+01 -0.41386127729E+01  0.67907548232E+01  0.00000000000E+00 0. -1.
</event>
<event>
 7    1  0.2580704E-010  0.4778727E+02  0.7816164E-02  0.1312668E+00
        -11   -1    0    0    0    0  0.00000000000E+00  0.00000000000E+00  0.45593999997E+02  0.45594000000E+02  0.51100000000E-03 0.  1.
         11   -1    0    0    0    0 -0.00000000000E+00 -0.00000000000E+00 -0.45593999997E+02  0.45594000000E+02  0.51100000000E-03 0. -1.
    9900012    2    1    2    0    0 -0.30088834399E+02 -0.30920256697E+02 -0.47141015624E+01  0.47787274392E+02  0.20000015264E+02 0.  0.
         12    1    1    2    0    0  0.30088834399E+02  0.30920256697E+02  0.47141015624E+01  0.43400725608E+02  0.00000000000E+00 0. -1.
         11    1    3    3    0    0 -0.11460411359E+02 -0.16098322833E+02 -0.94331238164E+01  0.21897051212E+02  0.51100000000E-03 0. -1.
        -11    1    3    3    0    0 -0.17129074671E+01 -0.61075539719E+01  0.21043332170E+01  0.66831494118E+01  0.51100000000E-03 0.  1.
        -12    1    3    3    0    0 -0.16915515573E+02 -0.87143798924E+01  0.26146890370E+01  0.19207073769E+02  0.00000000000E+00 0.  1.
</event>
<event>
 7    1  0.2580704E-010  0.4778728E+02  0.7816164E-02  0.1312668E+00
        -11   -1    0    0    0    0  0.00000000000E+00  0.00000000000E+00  0.45593999997E+02  0.45594000000E+02  0.51100000000E-03 0.  1.
         11   -1    0    0    0    0 -0.00000000000E+00 -0.00000000000E+00 -0.45593999997E+02  0.45594000000E+02  0.51100000000E-03 0. -1.
    9900012    2    1    2    0    0 -0.35797299664E+02  0.23560301503E+02 -0.68620868396E+01  0.47787277587E+02  0.20000029830E+02 0.  0.
         12    1    1    2    0    0  0.35797299664E+02 -0.23560301503E+02  0.68620868396E+01  0.43400722413E+02  0.00000000000E+00 0. -1.
         11    1    3    3    0    0 -0.24739054779E+01  0.62384674267E+01  0.17862036467E+01  0.69447251836E+01  0.51100000000E-03 0. -1.
        -11    1    3    3    0    0 -0.13916678708E+01  0.53065820521E+01 -0.30250508436E+01  0.62647813533E+01  0.51100000000E-03 0.  1.
        -12    1    3    3    0    0 -0.31931726316E+02  0.12015252024E+02 -0.56232396427E+01  0.34577771050E+02  0.00000000000E+00 0.  1.
</event>
<event>
 7    1  0.2580704E-010  0.4778728E+02  0.7816164E-02  0.1312668E+00
        -11   -1    0    0    0    0  0.00000000000E+00  0.00000000000E+00  0.45593999997E+02  0.45594000000E+02  0.51100000000E-03 0.  1.
         11   -1    0    0    0    0 -0.00000000000E+00 -0.00000000000E+00 -0.45593999997E+02  0.45594000000E+02  0.51100000000E-03 0. -1.
    9900012    2    1    2    0    0 -0.24330468494E+02  0.86156092440E+01  0.34891572699E+02  0.47787282665E+02  0.20000052981E+02 0.  0.
         12    1    1    2    0    0  0.24330468494E+02 -0.86156092440E+01 -0.34891572699E+02  0.43400717335E+02  0.00000000000E+00 0. -1.
         11    1    3    3    0    0 -0.10695959371E+02  0.40899420525E+01  0.69775677790E+01  0.13409609436E+02  0.51100000000E-03 0. -1.
        -11    1    3    3    0    0 -0.15356770587E+02  0.67009909867E+01  0.26252517432E+02  0.31143672790E+02  0.51100000000E-03 0.  1.
        -12    1    3    3    0    0  0.17222614638E+01 -0.21753237953E+01  0.16614874880E+01  0.32340004386E+01  0.00000000000E+00 0.  1.
</event>
<event>
 7    1  0.2580704E-010  0.4778727E+02  0.7816164E-02  0.1312668E+00
        -11   -1    0    0    0    0  0.00000000000E+00  0.00000000000E+00  0.45593999997E+02  0.45594000000E+02  0.51100000000E-03 0.  1.
         11   -1    0    0    0    0 -0.00000000000E+00 -0.00000000000E+00 -0.45593999997E+02  0.45594000000E+02  0.51100000000E-03 0. -1.
    9900012    2    1    2    0    0  0.38762043733E+01 -0.21493301864E+02  0.37505150685E+02  0.47787270591E+02  0.19999997931E+02 0.  0.
         12    1    1    2    0    0 -0.38762043733E+01  0.21493301864E+02 -0.37505150685E+02  0.43400729409E+02  0.00000000000E+00 0. -1.
         11    1    3    3    0    0 -0.45132532527E+00 -0.62417835245E+01  0.42170867999E+01  0.75463486173E+01  0.51100000000E-03 0. -1.
        -11    1    3    3    0    0 -0.18257485171E+01 -0.13181502345E+02  0.30301442830E+02  0.33094754865E+02  0.51100000000E-03 0.  1.
         12    1    3    3    0    0  0.61532782157E+01 -0.20700159939E+01  0.29866210558E+01  0.71461671087E+01  0.00000000000E+00 0. -1.
</event>
<event>
 7    1  0.2580704E-010  0.4778732E+02  0.7816164E-02  0.1312668E+00
        -11   -1    0    0    0    0  0.00000000000E+00  0.00000000000E+00  0.45593999997E+02  0.45594000000E+02  0.51100000000E-03 0.  1.
         11   -1    0    0    0    0 -0.00000000000E+00 -0.00000000000E+00 -0.45593999997E+02  0.45594000000E+02  0.51100000000E-03 0. -1.
    9900012    2    1    2    0    0 -0.28518059810E+02  0.13455903514E+02  0.29820765064E+02  0.47787319087E+02  0.20000219046E+02 0.  0.
         12    1    1    2    0    0  0.28518059810E+02 -0.13455903514E+02 -0.29820765064E+02  0.43400680913E+02  0.00000000000E+00 0. -1.
         11    1    3    3    0    0  0.17921760729E+01  0.23810889178E+01  0.98291101949E+00  0.31380876093E+01  0.51100000000E-03 0. -1.
        -11    1    3    3    0    0 -0.91528845096E+01  0.75584670851E+01  0.14985005102E+02  0.19116906070E+02  0.51100000000E-03 0.  1.
         12    1    3    3    0    0 -0.21157351373E+02  0.35163475112E+01  0.13852848943E+02  0.25532325408E+02  0.00000000000E+00 0. -1.
</event>
<event>
 7    1  0.2580704E-010  0.4778727E+02  0.7816164E-02  0.1312668E+00
        -11   -1    0    0    0    0  0.00000000000E+00  0.00000000000E+00  0.45593999997E+02  0.45594000000E+02  0.51100000000E-03 0. -1.
         11   -1    0    0    0    0 -0.00000000000E+00 -0.00000000000E+00 -0.45593999997E+02  0.45594000000E+02  0.51100000000E-03 0.  1.
    9900012    2    1    2    0    0  0.36498715297E+02  0.12409116251E+02 -0.19936923495E+02  0.47787270710E+02  0.19999998474E+02 0.  0.
         12    1    1    2    0    0 -0.36498715297E+02 -0.12409116251E+02  0.19936923495E+02  0.43400729290E+02  0.00000000000E+00 0. -1.
         11    1    3    3    0    0  0.16567977517E+02  0.14148003059E+02 -0.11943168488E+02  0.24845585993E+02  0.51100000000E-03 0. -1.
        -11    1    3    3    0    0  0.20874861400E+01  0.69840611311E+00  0.14212348034E+01  0.26201675731E+01  0.51100000000E-03 0.  1.
        -12    1    3    3    0    0  0.17843251640E+02 -0.24372929206E+01 -0.94149898105E+01  0.20321517143E+02  0.00000000000E+00 0.  1.
</event>
<event>
 7    1  0.2580704E-010  0.4778727E+02  0.7816164E-02  0.1312668E+00
        -11   -1    0    0    0    0  0.00000000000E+00  0.00000000000E+00  0.45593999997E+02  0.45594000000E+02  0.51100000000E-03 0.  1.
         11   -1    0    0    0    0 -0.00000000000E+00 -0.00000000000E+00 -0.45593999997E+02  0.45594000000E+02  0.51100000000E-03 0. -1.
    9900012    2    1    2    0    0 -0.85889909969E+01  0.30820479944E+02  0.29324911390E+02  0.47787272145E+02  0.20000005016E+02 0.  0.
         12    1    1    2    0    0  0.85889909969E+01 -0.30820479944E+02 -0.29324911390E+02  0.43400727855E+02  0.00000000000E+00 0. -1.
         11    1    3    3    0    0 -0.17813221813E+01 -0.21164795816E+01  0.31232893103E+01  0.41722333240E+01  0.51100000000E-03 0. -1.
        -11    1    3    3    0    0 -0.24582894533E+01  0.10133486132E+02  0.31334161889E+01  0.10888022111E+02  0.51100000000E-03 0.  1.
        -12    1    3    3    0    0 -0.43493793623E+01  0.22803473394E+02  0.23068205891E+02  0.32727016710E+02  0.00000000000E+00 0.  1.
</event>
<event>
 7    1  0.2580704E-010  0.4778727E+02  0.7816164E-02  0.1312668E+00
        -11   -1    0    0    0    0  0.00000000000E+00  0.00000000000E+00  0.45593999997E+02  0.45594000000E+02  0.51100000000E-03 0.  1.
         11   -1    0    0    0    0 -0.00000000000E+00 -0.00000000000E+00 -0.45593999997E+02  0.45594000000E+02  0.51100000000E-03 0. -1.
    9900012    2    1    2    0    0 -0.55882731424E+01  0.14016807716E+02  0.40693042338E+02  0.47787269707E+02  0.19999993904E+02 0.  0.
         12    1    1    2    0    0  0.55882731424E+01 -0.14016807716E+02 -0.40693042338E+02  0.43400730293E+02  0.00000000000E+00 0. -1.
         11    1    3    3    0    0  0.24533503306E+01 -0.27296387735E+01  0.25652242649E+01  0.44777484821E+01  0.51100000000E-03 0. -1.
        -11    1    3    3    0    0 -0.39904923182E+01  0.77590991555E+00  0.76875870792E+01  0.86962670440E+01  0.51100000000E-03 0.  1.
        -12    1    3    3    0    0 -0.40511311548E+01  0.15970536574E+02  0.30440230993E+02  0.34613254181E+02  0.00000000000E+00 0.  1.
</event>
<event>
 7    1  0.2580704E-010  0.4778727E+02  0.7816164E-02  0.1312668E+00
        -11   -1    0    0    0    0  0.00000000000E+00  0.00000000000E+00  0.45593999997E+02  0.45594000000E+02  0.51100000000E-03 0. -1.
         11   -1    0    0    0    0 -0.00000000000E+00 -0.00000000000E+00 -0.45593999997E+02  0.45594000000E+02  0.51100000000E-03 0.  1.
    9900012    2    1    2    0    0 -0.28156155970E+02  0.25427906315E+02 -0.21077849955E+02  0.47787270774E+02  0.19999998768E+02 0.  0.
         12    1    1    2    0    0  0.28156155970E+02 -0.25427906315E+02  0.21077849955E+02  0.43400729226E+02  0.00000000000E+00 0. -1.
         11    1    3    3    0    0 -0.55398897367E+01  0.67379250568E-01 -0.54344341627E+01  0.77606696353E+01  0.51100000000E-03 0. -1.
        -11    1    3    3    0    0 -0.13922506999E+02  0.73272078601E+01 -0.11739226854E+02  0.19629916545E+02  0.51100000000E-03 0.  1.
        -12    1    3    3    0    0 -0.86937592339E+01  0.18033319205E+02 -0.39041889389E+01  0.20396684594E+02  0.00000000000E+00 0.  1.
</event>
<event>
 7    1  0.2580704E-010  0.4778728E+02  0.7816164E-02  0.1312668E+00
        -11   -1    0    0    0    0  0.00000000000E+00  0.00000000000E+00  0.45593999997E+02  0.45594000000E+02  0.51100000000E-03 0.  1.
         11   -1    0    0    0    0 -0.00000000000E+00 -0.00000000000E+00 -0.45593999997E+02  0.45594000000E+02  0.51100000000E-03 0. -1.
    9900012    2    1    2    0    0 -0.31970570391E+01 -0.18370186352E+01  0.43243809311E+02  0.47787275871E+02  0.20000022006E+02 0.  0.
         12    1    1    2    0    0  0.31970570391E+01  0.18370186352E+01 -0.43243809311E+02  0.43400724129E+02  0.00000000000E+00 0. -1.
         11    1    3    3    0    0  0.13596211075E+01  0.39584782554E+01  0.34529252071E+01  0.54259388497E+01  0.51100000000E-03 0. -1.
        -11    1    3    3    0    0  0.43407493495E+01 -0.24431395577E+01  0.15254639587E+02  0.16047275937E+02  0.51100000000E-03 0.  1.
        -12    1    3    3    0    0 -0.88974274960E+01 -0.33523573328E+01  0.24536244517E+02  0.26314061084E+02  0.00000000000E+00 0.  1.
</event>
<event>
 7    1  0.2580704E-010  0.4778727E+02  0.7816164E-02  0.1312668E+00
        -11   -1    0    0    0    0  0.00000000000E+00  0.00000000000E+00  0.45593999997E+02  0.45594000000E+02  0.51100000000E-03 0. -1.
         11   -1    0    0    0    0 -0.00000000000E+00 -0.00000000000E+00 -0.45593999997E+02  0.45594000000E+02  0.51100000000E-03 0.  1.
    9900012    2    1    2    0    0 -0.69778688266E+01  0.40759804891E+02 -0.13174621419E+02  0.47787274226E+02  0.20000014508E+02 0.  0.
         12    1    1    2    0    0  0.69778688266E+01 -0.40759804891E+02  0.13174621419E+02  0.43400725774E+02  0.00000000000E+00 0. -1.
         11    1    3    3    0    0 -0.50456606586E+01  0.77257809500E+01  0.28353183919E+01  0.96532592120E+01  0.51100000000E-03 0. -1.
        -11    1    3    3    0    0 -0.58183244327E+01  0.13953831083E+02 -0.63512159139E+01  0.16398178099E+02  0.51100000000E-03 0.  1.
        -12    1    3    3    0    0  0.38861162647E+01  0.19080192858E+02 -0.96587238969E+01  0.21735836916E+02  0.00000000000E+00 0.  1.
</event>
<event>
 7    1  0.2580704E-010  0.4778727E+02  0.7816164E-02  0.1312668E+00
        -11   -1    0    0    0    0  0.00000000000E+00  0.00000000000E+00  0.45593999997E+02  0.45594000000E+02  0.51100000000E-03 0.  1.
         11   -1    0    0    0    0 -0.00000000000E+00 -0.00000000000E+00 -0.45593999997E+02  0.45594000000E+02  0.51100000000E-03 0. -1.
    9900012    2    1    2    0    0 -0.21780797808E+02 -0.10078727358E+02  0.36161292591E+02  0.47787274428E+02  0.20000015427E+02 0.  0.
         12    1    1    2    0    0  0.21780797808E+02  0.10078727358E+02 -0.36161292591E+02  0.43400725572E+02  0.00000000000E+00 0. -1.
         11    1    3    3    0    0 -0.36127127179E+01 -0.16729515330E+01  0.15726841173E+02  0.16222946513E+02  0.51100000000E-03 0.  1.
        -11    1    3    3    0    0 -0.10932328402E+01 -0.51048023875E+01  0.10006678796E+02  0.11286619789E+02  0.51100000000E-03 0. -1.
         12    1    3    3    0    0 -0.17074852250E+02 -0.33009734378E+01  0.10427772621E+02  0.20277708126E+02  0.00000000000E+00 0. -1.
</event>
<event>
 7    1  0.2580704E-010  0.4778727E+02  0.7816164E-02  0.1312668E+00
        -11   -1    0    0    0    0  0.00000000000E+00  0.00000000000E+00  0.45593999997E+02  0.45594000000E+02  0.51100000000E-03 0.  1.
         11   -1    0    0    0    0 -0.00000000000E+00 -0.00000000000E+00 -0.45593999997E+02  0.45594000000E+02  0.51100000000E-03 0. -1.
    9900012    2    1    2    0    0 -0.21855390363E+02 -0.25134168759E+02  0.27825142555E+02  0.47787273217E+02  0.20000009904E+02 0.  0.
         12    1    1    2    0    0  0.21855390363E+02  0.25134168759E+02 -0.27825142555E+02  0.43400726783E+02  0.00000000000E+00 0. -1.
         11    1    3    3    0    0 -0.40241510767E+01 -0.11732706336E+00  0.45502532192E+00  0.40514942715E+01  0.51100000000E-03 0. -1.
        -11    1    3    3    0    0 -0.16463697053E+02 -0.13705071717E+02  0.11845356522E+02  0.24478455483E+02  0.51100000000E-03 0.  1.
        -12    1    3    3    0    0 -0.13675422334E+01 -0.11311769978E+02  0.15524760711E+02  0.19257323462E+02  0.00000000000E+00 0.  1.
</event>
<event>
 7    1  0.2984298E-010  0.4778728E+02  0.7816164E-02  0.1312668E+00
        -11   -1    0    0    0    0  0.00000000000E+00  0.00000000000E+00  0.45593999997E+02  0.45594000000E+02  0.51100000000E-03 0. -1.
         11   -1    0    0    0    0 -0.00000000000E+00 -0.00000000000E+00 -0.45593999997E+02  0.45594000000E+02  0.51100000000E-03 0.  1.
    9900012    2    1    2    0    0 -0.19494295607E+02  0.26336576701E+02 -0.28460144090E+02  0.47787278403E+02  0.20000033550E+02 0.  0.
         12    1    1    2    0    0  0.19494295607E+02 -0.26336576701E+02  0.28460144090E+02  0.43400721597E+02  0.00000000000E+00 0. -1.
         11    1    3    3    0    0 -0.88230492390E+01  0.45100122367E+01 -0.21607792593E+01  0.10141763925E+02  0.51100000000E-03 0. -1.
        -11    1    3    3    0    0  0.47384074463E+00  0.66656807272E+01 -0.21272676264E+01  0.70129232439E+01  0.51100000000E-03 0.  1.
        -12    1    3    3    0    0 -0.11145087113E+02  0.15160883737E+02 -0.24172097204E+02  0.30632591234E+02  0.00000000000E+00 0.  1.
</event>
<event>
 7    1  0.2580704E-010  0.4778727E+02  0.7816164E-02  0.1312668E+00
        -11   -1    0    0    0    0  0.00000000000E+00  0.00000000000E+00  0.45593999997E+02  0.45594000000E+02  0.51100000000E-03 0. -1.
         11   -1    0    0    0    0 -0.00000000000E+00 -0.00000000000E+00 -0.45593999997E+02  0.45594000000E+02  0.51100000000E-03 0.  1.
    9900012    2    1    2    0    0 -0.37683597504E+02  0.20311691915E+02 -0.71417596191E+01  0.47787273281E+02  0.20000010195E+02 0.  0.
         12    1    1    2    0    0  0.37683597504E+02 -0.20311691915E+02  0.71417596191E+01  0.43400726719E+02  0.00000000000E+00 0. -1.
         11    1    3    3    0    0 -0.47196518420E+01 -0.17629873603E+01 -0.19759634785E+01  0.54118083735E+01  0.51100000000E-03 0. -1.
        -11    1    3    3    0    0 -0.26737454533E+02  0.10944745692E+02 -0.82104661650E+00  0.28902474824E+02  0.51100000000E-03 0.  1.
         12    1    3    3    0    0 -0.62264911297E+01  0.11129933583E+02 -0.43447495240E+01  0.13472990083E+02  0.00000000000E+00 0. -1.
</event>
<event>
 7    1  0.2580704E-010  0.4778724E+02  0.7816164E-02  0.1312668E+00
        -11   -1    0    0    0    0  0.00000000000E+00  0.00000000000E+00  0.45593999997E+02  0.45594000000E+02  0.51100000000E-03 0.  1.
         11   -1    0    0    0    0 -0.00000000000E+00 -0.00000000000E+00 -0.45593999997E+02  0.45594000000E+02  0.51100000000E-03 0. -1.
    9900012    2    1    2    0    0 -0.20272440197E+02 -0.24457878232E+01  0.38297159758E+02  0.47787237850E+02  0.19999848655E+02 0.  0.
         12    1    1    2    0    0  0.20272440197E+02  0.24457878232E+01 -0.38297159758E+02  0.43400762150E+02  0.00000000000E+00 0. -1.
         11    1    3    3    0    0 -0.21730695723E+01 -0.82349653780E+01  0.66136410760E+01  0.10783187594E+02  0.51100000000E-03 0. -1.
        -11    1    3    3    0    0 -0.34299568012E+01  0.18003299014E+01  0.54979643782E+01  0.67255783378E+01  0.51100000000E-03 0.  1.
         12    1    3    3    0    0 -0.14669413823E+02  0.39888476534E+01  0.26185554304E+02  0.30278471919E+02  0.00000000000E+00 0. -1.
</event>
<event>
 7    1  0.2580704E-010  0.4778729E+02  0.7816164E-02  0.1312668E+00
        -11   -1    0    0    0    0  0.00000000000E+00  0.00000000000E+00  0.45593999997E+02  0.45594000000E+02  0.51100000000E-03 0.  1.
         11   -1    0    0    0    0 -0.00000000000E+00 -0.00000000000E+00 -0.45593999997E+02  0.45594000000E+02  0.51100000000E-03 0. -1.
    9900012    2    1    2    0    0  0.23755196652E+02  0.36226561583E+02 -0.26359791094E+01  0.47787291274E+02  0.20000092233E+02 0.  0.
         12    1    1    2    0    0 -0.23755196652E+02 -0.36226561583E+02  0.26359791094E+01  0.43400708726E+02  0.00000000000E+00 0. -1.
         11    1    3    3    0    0  0.25002392406E+01 -0.72404468010E+00  0.96439069649E-01  0.26047529085E+01  0.51100000000E-03 0. -1.
        -11    1    3    3    0    0  0.60284315664E+01  0.91653861823E+01 -0.72914515746E+01  0.13172378576E+02  0.51100000000E-03 0.  1.
        -12    1    3    3    0    0  0.15226525845E+02  0.27785220081E+02  0.45590333956E+01  0.32010159789E+02  0.00000000000E+00 0.  1.
</event>
<event>
 7    1  0.2580704E-010  0.4778727E+02  0.7816164E-02  0.1312668E+00
        -11   -1    0    0    0    0  0.00000000000E+00  0.00000000000E+00  0.45593999997E+02  0.45594000000E+02  0.51100000000E-03 0.  1.
         11   -1    0    0    0    0 -0.00000000000E+00 -0.00000000000E+00 -0.45593999997E+02  0.45594000000E+02  0.51100000000E-03 0. -1.
    9900012    2    1    2    0    0 -0.15354800699E+02  0.35103851523E+02 -0.20385613634E+02  0.47787267984E+02  0.19999986047E+02 0.  0.
         12    1    1    2    0    0  0.15354800699E+02 -0.35103851523E+02  0.20385613634E+02  0.43400732016E+02  0.00000000000E+00 0. -1.
         11    1    3    3    0    0 -0.58624378389E+01  0.15632088876E+02 -0.13177407994E+02  0.21269096401E+02  0.51100000000E-03 0. -1.
        -11    1    3    3    0    0 -0.11074909150E+02  0.18091436312E+02 -0.96445384849E+01  0.23301733913E+02  0.51100000000E-03 0.  1.
         12    1    3    3    0    0  0.15825462898E+01  0.13803263354E+01  0.24363328446E+01  0.32164376694E+01  0.00000000000E+00 0. -1.
</event>
<event>
 7    1  0.2580704E-010  0.4778727E+02  0.7816164E-02  0.1312668E+00
        -11   -1    0    0    0    0  0.00000000000E+00  0.00000000000E+00  0.45593999997E+02  0.45594000000E+02  0.51100000000E-03 0.  1.
         11   -1    0    0    0    0 -0.00000000000E+00 -0.00000000000E+00 -0.45593999997E+02  0.45594000000E+02  0.51100000000E-03 0. -1.
    9900012    2    1    2    0    0  0.10855449536E+02 -0.35864355158E+01  0.41867885663E+02  0.47787272423E+02  0.20000006285E+02 0.  0.
         12    1    1    2    0    0 -0.10855449536E+02  0.35864355158E+01 -0.41867885663E+02  0.43400727577E+02  0.00000000000E+00 0. -1.
         11    1    3    3    0    0  0.85035680413E+01  0.12836720608E+01  0.52511246285E+01  0.10076348223E+02  0.51100000000E-03 0. -1.
        -11    1    3    3    0    0  0.44115327478E+01 -0.27042490113E+01  0.14550638109E+02  0.15443304489E+02  0.51100000000E-03 0.  1.
         12    1    3    3    0    0 -0.20596512529E+01 -0.21658585653E+01  0.22066122925E+02  0.22267619710E+02  0.00000000000E+00 0. -1.
</event>
<event>
 7    1  0.2580704E-010  0.4778727E+02  0.7816164E-02  0.1312668E+00
        -11   -1    0    0    0    0  0.00000000000E+00  0.00000000000E+00  0.45593999997E+02  0.45594000000E+02  0.51100000000E-03 0.  1.
         11   -1    0    0    0    0 -0.00000000000E+00 -0.00000000000E+00 -0.45593999997E+02  0.45594000000E+02  0.51100000000E-03 0. -1.
    9900012    2    1    2    0    0  0.40980800006E+02  0.49912988780E+01  0.13389724358E+02  0.47787265536E+02  0.19999974885E+02 0.  0.
         12    1    1    2    0    0 -0.40980800006E+02 -0.49912988780E+01 -0.13389724358E+02  0.43400734464E+02  0.00000000000E+00 0. -1.
         11    1    3    3    0    0  0.66201926749E+01 -0.54391699397E+01  0.42839388864E+01  0.95793347018E+01  0.51100000000E-03 0. -1.
        -11    1    3    3    0    0  0.35276155476E+01  0.29381706022E+01 -0.13735000918E+01  0.47920163504E+01  0.51100000000E-03 0.  1.
        -12    1    3    3    0    0  0.30832991783E+02  0.74922982156E+01  0.10479285564E+02  0.33415914484E+02  0.00000000000E+00 0.  1.
</event>
<event>
 7    1  0.2580704E-010  0.4778727E+02  0.7816164E-02  0.1312668E+00
        -11   -1    0    0    0    0  0.00000000000E+00  0.00000000000E+00  0.45593999997E+02  0.45594000000E+02  0.51100000000E-03 0.  1.
         11   -1    0    0    0    0 -0.00000000000E+00 -0.00000000000E+00 -0.45593999997E+02  0.45594000000E+02  0.51100000000E-03 0. -1.
    9900012    2    1    2    0    0  0.20723332178E+02 -0.11763015341E+02  0.36273937150E+02  0.47787267946E+02  0.19999985875E+02 0.  0.
         12    1    1    2    0    0 -0.20723332178E+02  0.11763015341E+02 -0.36273937150E+02  0.43400732054E+02  0.00000000000E+00 0. -1.
         11    1    3    3    0    0  0.11858838323E+02 -0.14023513796E+02  0.13468081151E+02  0.22774551493E+02  0.51100000000E-03 0. -1.
        -11    1    3    3    0    0  0.19756796870E+01 -0.13900350461E+01  0.66226343893E+01  0.70494534661E+01  0.51100000000E-03 0.  1.
         12    1    3    3    0    0  0.68888141674E+01  0.36505335016E+01  0.16183221610E+02  0.17963262987E+02  0.00000000000E+00 0. -1.
</event>
<event>
 7    1  0.2580704E-010  0.4778727E+02  0.7816164E-02  0.1312668E+00
        -11   -1    0    0    0    0  0.00000000000E+00  0.00000000000E+00  0.45593999997E+02  0.45594000000E+02  0.51100000000E-03 0.  1.
         11   -1    0    0    0    0 -0.00000000000E+00 -0.00000000000E+00 -0.45593999997E+02  0.45594000000E+02  0.51100000000E-03 0. -1.
    9900012    2    1    2    0    0 -0.17787563207E+02 -0.27882452839E+02  0.28103288867E+02  0.47787269288E+02  0.19999991993E+02 0.  0.
         12    1    1    2    0    0  0.17787563207E+02  0.27882452839E+02 -0.28103288867E+02  0.43400730712E+02  0.00000000000E+00 0. -1.
         11    1    3    3    0    0 -0.40910709398E+01 -0.12253429962E+02  0.94559314237E+01  0.16009311248E+02  0.51100000000E-03 0.  1.
        -11    1    3    3    0    0 -0.76997559178E+01 -0.17650516235E+02  0.12518104943E+02  0.22968019422E+02  0.51100000000E-03 0. -1.
         12    1    3    3    0    0 -0.59967363498E+01  0.20214933585E+01  0.61292525001E+01  0.88099386182E+01  0.00000000000E+00 0. -1.
</event>
<event>
 7    1  0.2580704E-010  0.4778727E+02  0.7816164E-02  0.1312668E+00
        -11   -1    0    0    0    0  0.00000000000E+00  0.00000000000E+00  0.45593999997E+02  0.45594000000E+02  0.51100000000E-03 0.  1.
         11   -1    0    0    0    0 -0.00000000000E+00 -0.00000000000E+00 -0.45593999997E+02  0.45594000000E+02  0.51100000000E-03 0. -1.
    9900012    2    1    2    0    0 -0.95165863683E+01 -0.32957125569E+01  0.42216065092E+02  0.47787270867E+02  0.19999999193E+02 0.  0.
         12    1    1    2    0    0  0.95165863683E+01  0.32957125569E+01 -0.42216065092E+02  0.43400729133E+02  0.00000000000E+00 0. -1.
         11    1    3    3    0    0  0.26205947688E+01  0.17520142306E+00  0.70201042609E+01  0.74953369888E+01  0.51100000000E-03 0. -1.
        -11    1    3    3    0    0 -0.29892489574E+01  0.57727858688E+01  0.13781529052E+02  0.15237821671E+02  0.51100000000E-03 0.  1.
        -12    1    3    3    0    0 -0.91479321797E+01 -0.92436998488E+01  0.21414431780E+02  0.25054112207E+02  0.00000000000E+00 0.  1.
</event>
<event>
 7    1  0.2580704E-010  0.4778727E+02  0.7816164E-02  0.1312668E+00
        -11   -1    0    0    0    0  0.00000000000E+00  0.00000000000E+00  0.45593999997E+02  0.45594000000E+02  0.51100000000E-03 0.  1.
         11   -1    0    0    0    0 -0.00000000000E+00 -0.00000000000E+00 -0.45593999997E+02  0.45594000000E+02  0.51100000000E-03 0. -1.
    9900012    2    1    2    0    0 -0.33888786240E+02  0.57787535260E-01  0.27114021073E+02  0.47787270618E+02  0.19999998054E+02 0.  0.
         12    1    1    2    0    0  0.33888786240E+02 -0.57787535260E-01 -0.27114021073E+02  0.43400729382E+02  0.00000000000E+00 0. -1.
         11    1    3    3    0    0 -0.20414067597E+02 -0.57392012481E+01  0.14682271994E+02  0.25792279814E+02  0.51100000000E-03 0. -1.
        -11    1    3    3    0    0 -0.11758102937E+02  0.50572221956E+00  0.51879590835E+01  0.12861712924E+02  0.51100000000E-03 0.  1.
        -12    1    3    3    0    0 -0.17166157057E+01  0.52912665638E+01  0.72437899947E+01  0.91332778792E+01  0.00000000000E+00 0.  1.
</event>
<event>
 7    1  0.2580704E-010  0.4778727E+02  0.7816164E-02  0.1312668E+00
        -11   -1    0    0    0    0  0.00000000000E+00  0.00000000000E+00  0.45593999997E+02  0.45594000000E+02  0.51100000000E-03 0.  1.
         11   -1    0    0    0    0 -0.00000000000E+00 -0.00000000000E+00 -0.45593999997E+02  0.45594000000E+02  0.51100000000E-03 0. -1.
    9900012    2    1    2    0    0  0.10887477558E+02 -0.12212713451E+02  0.40198701931E+02  0.47787272191E+02  0.20000005229E+02 0.  0.
         12    1    1    2    0    0 -0.10887477558E+02  0.12212713451E+02 -0.40198701931E+02  0.43400727809E+02  0.00000000000E+00 0. -1.
         11    1    3    3    0    0 -0.51797473234E+00 -0.15109704563E+01  0.18695766507E+02  0.18763875268E+02  0.51100000000E-03 0. -1.
        -11    1    3    3    0    0  0.17486816493E+01  0.23556658490E+01  0.16217091170E+01  0.33521619626E+01  0.51100000000E-03 0.  1.
        -12    1    3    3    0    0  0.96567706414E+01 -0.13057408844E+02  0.19881226307E+02  0.25671234960E+02  0.00000000000E+00 0.  1.
</event>
<event>
 7    1  0.2580704E-010  0.4778727E+02  0.7816164E-02  0.1312668E+00
        -11   -1    0    0    0    0  0.00000000000E+00  0.00000000000E+00  0.45593999997E+02  0.45594000000E+02  0.51100000000E-03 0.  1.
         11   -1    0    0    0    0 -0.00000000000E+00 -0.00000000000E+00 -0.45593999997E+02  0.45594000000E+02  0.51100000000E-03 0. -1.
    9900012    2    1    2    0    0 -0.10615950736E+02  0.85279559713E+01  0.41209208256E+02  0.47787270880E+02  0.19999999250E+02 0.  0.
         12    1    1    2    0    0  0.10615950736E+02 -0.85279559713E+01 -0.41209208256E+02  0.43400729120E+02  0.00000000000E+00 0. -1.
         11    1    3    3    0    0  0.13336669942E+01  0.45883243048E+01  0.40917064569E+01  0.62907431650E+01  0.51100000000E-03 0. -1.
        -11    1    3    3    0    0 -0.34001993375E+00  0.65121611608E+01  0.15679123519E+02  0.16981129854E+02  0.51100000000E-03 0.  1.
        -12    1    3    3    0    0 -0.11609597797E+02 -0.25725294944E+01  0.21438378280E+02  0.24515397861E+02  0.00000000000E+00 0.  1.
</event>
<event>
 7    1  0.2580704E-010  0.4778728E+02  0.7816164E-02  0.1312668E+00
        -11   -1    0    0    0    0  0.00000000000E+00  0.00000000000E+00  0.45593999997E+02  0.45594000000E+02  0.51100000000E-03 0.  1.
         11   -1    0    0    0    0 -0.00000000000E+00 -0.00000000000E+00 -0.45593999997E+02  0.45594000000E+02  0.51100000000E-03 0. -1.
    9900012    2    1    2    0    0  0.28824189892E+02 -0.28713688625E+02  0.15110023690E+02  0.47787278194E+02  0.20000032599E+02 0.  0.
         12    1    1    2    0    0 -0.28824189892E+02  0.28713688625E+02 -0.15110023690E+02  0.43400721806E+02  0.00000000000E+00 0. -1.
         11    1    3    3    0    0  0.58657166211E+00  0.13693221461E+01  0.99252134135E+00  0.17900302591E+01  0.51100000000E-03 0. -1.
        -11    1    3    3    0    0  0.18946990572E+02 -0.14106767025E+02  0.16001109457E+01  0.23675930456E+02  0.51100000000E-03 0.  1.
         12    1    3    3    0    0  0.92906276572E+01 -0.15976243746E+02  0.12517391403E+02  0.22321317480E+02  0.00000000000E+00 0. -1.
</event>
<event>
 7    1  0.2830060E-010  0.4778727E+02  0.7816164E-02  0.1312668E+00
        -11   -1    0    0    0    0  0.00000000000E+00  0.00000000000E+00  0.45593999997E+02  0.45594000000E+02  0.51100000000E-03 0.  1.
         11   -1    0    0    0    0 -0.00000000000E+00 -0.00000000000E+00 -0.45593999997E+02  0.45594000000E+02  0.51100000000E-03 0. -1.
    9900012    2    1    2    0    0 -0.39127139010E+02 -0.72535962541E+01  0.17322695138E+02  0.47787269216E+02  0.19999991662E+02 0.  0.
         12    1    1    2    0    0  0.39127139010E+02  0.72535962541E+01 -0.17322695138E+02  0.43400730784E+02  0.00000000000E+00 0. -1.
         11    1    3    3    0    0 -0.13010068723E+01 -0.16158218279E+01  0.44326195463E+01  0.48940387580E+01  0.51100000000E-03 0. -1.
        -11    1    3    3    0    0 -0.28829729508E+02 -0.51618857299E+01  0.15986283099E+02  0.33367043851E+02  0.51100000000E-03 0.  1.
        -12    1    3    3    0    0 -0.89964026301E+01 -0.47588869622E+00 -0.30962075067E+01  0.95261866064E+01  0.00000000000E+00 0.  1.
</event>
<event>
 7    1  0.2580704E-010  0.4778727E+02  0.7816164E-02  0.1312668E+00
        -11   -1    0    0    0    0  0.00000000000E+00  0.00000000000E+00  0.45593999997E+02  0.45594000000E+02  0.51100000000E-03 0.  1.
         11   -1    0    0    0    0 -0.00000000000E+00 -0.00000000000E+00 -0.45593999997E+02  0.45594000000E+02  0.51100000000E-03 0. -1.
    9900012    2    1    2    0    0  0.15735466476E+02 -0.35112103110E+02  0.20078808070E+02  0.47787271625E+02  0.20000002645E+02 0.  0.
         12    1    1    2    0    0 -0.15735466476E+02  0.35112103110E+02 -0.20078808070E+02  0.43400728375E+02  0.00000000000E+00 0. -1.
         11    1    3    3    0    0  0.11290861568E+02 -0.17279002311E+02  0.56950606214E+00  0.20648772681E+02  0.51100000000E-03 0. -1.
        -11    1    3    3    0    0  0.32104201713E+01 -0.52259835533E+01  0.53381658768E+01  0.81310341879E+01  0.51100000000E-03 0.  1.
         12    1    3    3    0    0  0.12341847365E+01 -0.12607117246E+02  0.14171136131E+02  0.19007464756E+02  0.00000000000E+00 0. -1.
</event>
<event>
 7    1  0.2580704E-010  0.4778722E+02  0.7816164E-02  0.1312668E+00
        -11   -1    0    0    0    0  0.00000000000E+00  0.00000000000E+00  0.45593999997E+02  0.45594000000E+02  0.51100000000E-03 0. -1.
         11   -1    0    0    0    0 -0.00000000000E+00 -0.00000000000E+00 -0.45593999997E+02  0.45594000000E+02  0.51100000000E-03 0.  1.
    9900012    2    1    2    0    0 -0.42832624255E+02  0.12618813493E+01 -0.68848710820E+01  0.47787222416E+02  0.19999778282E+02 0.  0.
         12    1    1    2    0    0  0.42832624255E+02 -0.12618813493E+01  0.68848710820E+01  0.43400777584E+02  0.00000000000E+00 0. -1.
         11    1    3    3    0    0 -0.14628954983E+02  0.37379383620E+01 -0.51841010555E-01  0.15099046157E+02  0.51100000000E-03 0. -1.
        -11    1    3    3    0    0 -0.12837045809E+02 -0.56915024906E+01  0.27305276146E+01  0.14305199300E+02  0.51100000000E-03 0.  1.
         12    1    3    3    0    0 -0.15366623463E+02  0.32154454779E+01 -0.95635576860E+01  0.18382976959E+02  0.00000000000E+00 0. -1.
</event>
<event>
 7    1  0.2580704E-010  0.4778727E+02  0.7816164E-02  0.1312668E+00
        -11   -1    0    0    0    0  0.00000000000E+00  0.00000000000E+00  0.45593999997E+02  0.45594000000E+02  0.51100000000E-03 0.  1.
         11   -1    0    0    0    0 -0.00000000000E+00 -0.00000000000E+00 -0.45593999997E+02  0.45594000000E+02  0.51100000000E-03 0. -1.
    9900012    2    1    2    0    0 -0.23483588075E+02 -0.29212200665E+02  0.21881310753E+02  0.47787270319E+02  0.19999996693E+02 0.  0.
         12    1    1    2    0    0  0.23483588075E+02  0.29212200665E+02 -0.21881310753E+02  0.43400729681E+02  0.00000000000E+00 0. -1.
         11    1    3    3    0    0 -0.13139571610E+02 -0.21871920225E+02  0.11109409756E+02  0.27828909821E+02  0.51100000000E-03 0. -1.
        -11    1    3    3    0    0 -0.11241811655E+02 -0.92453878486E+01  0.10208241547E+02  0.17778181052E+02  0.51100000000E-03 0.  1.
         12    1    3    3    0    0  0.89779519059E+00  0.19051074088E+01  0.56365945014E+00  0.21801794465E+01  0.00000000000E+00 0. -1.
</event>
<event>
 7    1  0.2580704E-010  0.4778727E+02  0.7816164E-02  0.1312668E+00
        -11   -1    0    0    0    0  0.00000000000E+00  0.00000000000E+00  0.45593999997E+02  0.45594000000E+02  0.51100000000E-03 0.  1.
         11   -1    0    0    0    0 -0.00000000000E+00 -0.00000000000E+00 -0.45593999997E+02  0.45594000000E+02  0.51100000000E-03 0. -1.
    9900012    2    1    2    0    0 -0.37387024367E+02  0.14670381375E+02  0.16450343246E+02  0.47787268743E+02  0.19999989507E+02 0.  0.
         12    1    1    2    0    0  0.37387024367E+02 -0.14670381375E+02 -0.16450343246E+02  0.43400731257E+02  0.00000000000E+00 0. -1.
         11    1    3    3    0    0 -0.25400872506E+02  0.79628740664E+01  0.13594135269E+01  0.26654449776E+02  0.51100000000E-03 0. -1.
        -11    1    3    3    0    0 -0.17402962924E+01  0.11875193314E+01  0.40184218928E-01  0.21072371438E+01  0.51100000000E-03 0.  1.
         12    1    3    3    0    0 -0.10245855568E+02  0.55199879774E+01  0.15050745500E+02  0.19025581823E+02  0.00000000000E+00 0. -1.
</event>
<event>
 7    1  0.2580704E-010  0.4778729E+02  0.7816164E-02  0.1312668E+00
        -11   -1    0    0    0    0  0.00000000000E+00  0.00000000000E+00  0.45593999997E+02  0.45594000000E+02  0.51100000000E-03 0. -1.
         11   -1    0    0    0    0 -0.00000000000E+00 -0.00000000000E+00 -0.45593999997E+02  0.45594000000E+02  0.51100000000E-03 0.  1.
    9900012    2    1    2    0    0 -0.29418647306E+02 -0.31889904312E+02 -0.10950633959E+01  0.47787286063E+02  0.20000068477E+02 0.  0.
         12    1    1    2    0    0  0.29418647306E+02  0.31889904312E+02  0.10950633959E+01  0.43400713937E+02  0.00000000000E+00 0. -1.
         11    1    3    3    0    0 -0.11064050872E+02 -0.87305447146E+01  0.52237635864E+01  0.15030746455E+02  0.51100000000E-03 0. -1.
        -11    1    3    3    0    0 -0.18586153950E+02 -0.21127726867E+02 -0.22825021234E+01  0.28231822071E+02  0.51100000000E-03 0.  1.
        -12    1    3    3    0    0  0.23155751597E+00 -0.20316327306E+01 -0.40363248588E+01  0.45247175383E+01  0.00000000000E+00 0.  1.
</event>
<event>
 7    1  0.2580704E-010  0.4778727E+02  0.7816164E-02  0.1312668E+00
        -11   -1    0    0    0    0  0.00000000000E+00  0.00000000000E+00  0.45593999997E+02  0.45594000000E+02  0.51100000000E-03 0. -1.
         11   -1    0    0    0    0 -0.00000000000E+00 -0.00000000000E+00 -0.45593999997E+02  0.45594000000E+02  0.51100000000E-03 0.  1.
    9900012    2    1    2    0    0  0.29346953300E+02 -0.16379588291E+02 -0.27460671064E+02  0.47787273787E+02  0.20000012503E+02 0.  0.
         12    1    1    2    0    0 -0.29346953300E+02  0.16379588291E+02  0.27460671064E+02  0.43400726213E+02  0.00000000000E+00 0. -1.
         11    1    3    3    0    0  0.76061034889E+01  0.27708785435E+00 -0.10792916220E+02  0.13206688789E+02  0.51100000000E-03 0. -1.
        -11    1    3    3    0    0  0.11067354127E+02 -0.43501426035E+01 -0.13490306775E+02  0.17983282381E+02  0.51100000000E-03 0.  1.
         12    1    3    3    0    0  0.10673495684E+02 -0.12306533542E+02 -0.31774480685E+01  0.16597302617E+02  0.00000000000E+00 0. -1.
</event>
<event>
 7    1  0.2580704E-010  0.4778729E+02  0.7816164E-02  0.1312668E+00
        -11   -1    0    0    0    0  0.00000000000E+00  0.00000000000E+00  0.45593999997E+02  0.45594000000E+02  0.51100000000E-03 0.  1.
         11   -1    0    0    0    0 -0.00000000000E+00 -0.00000000000E+00 -0.45593999997E+02  0.45594000000E+02  0.51100000000E-03 0. -1.
    9900012    2    1    2    0    0 -0.34329714249E+02 -0.65991104082E+01  0.25720500600E+02  0.47787289295E+02  0.20000083210E+02 0.  0.
         12    1    1    2    0    0  0.34329714249E+02  0.65991104082E+01 -0.25720500600E+02  0.43400710705E+02  0.00000000000E+00 0. -1.
         11    1    3    3    0    0 -0.13711366584E+02 -0.84936923379E+01  0.45160150848E+01  0.16749291795E+02  0.51100000000E-03 0. -1.
        -11    1    3    3    0    0 -0.12348161489E+02  0.57136613982E+00  0.61410761266E+01  0.13802766667E+02  0.51100000000E-03 0.  1.
         12    1    3    3    0    0 -0.82701861762E+01  0.13232157899E+01  0.15063409389E+02  0.17235230832E+02  0.00000000000E+00 0. -1.
</event>
<event>
 7    1  0.2580704E-010  0.4778727E+02  0.7816164E-02  0.1312668E+00
        -11   -1    0    0    0    0  0.00000000000E+00  0.00000000000E+00  0.45593999997E+02  0.45594000000E+02  0.51100000000E-03 0. -1.
         11   -1    0    0    0    0 -0.00000000000E+00 -0.00000000000E+00 -0.45593999997E+02  0.45594000000E+02  0.51100000000E-03 0.  1.
    9900012    2    1    2    0    0 -0.16386745938E+02 -0.17494147559E+02 -0.36180828988E+02  0.47787273883E+02  0.20000012942E+02 0.  0.
         12    1    1    2    0    0  0.16386745938E+02  0.17494147559E+02  0.36180828988E+02  0.43400726117E+02  0.00000000000E+00 0. -1.
         11    1    3    3    0    0 -0.44691553538E+01 -0.18763357175E+01 -0.26382838777E+01  0.55185620755E+01  0.51100000000E-03 0. -1.
        -11    1    3    3    0    0 -0.34781104711E+01 -0.13872384640E+01  0.10791058676E+01  0.38969414596E+01  0.51100000000E-03 0.  1.
        -12    1    3    3    0    0 -0.84394801130E+01 -0.14230573377E+02 -0.34621650977E+02  0.38371770348E+02  0.00000000000E+00 0.  1.
</event>
<event>
 7    1  0.2580704E-010  0.4778727E+02  0.7816164E-02  0.1312668E+00
        -11   -1    0    0    0    0  0.00000000000E+00  0.00000000000E+00  0.45593999997E+02  0.45594000000E+02  0.51100000000E-03 0.  1.
         11   -1    0    0    0    0 -0.00000000000E+00 -0.00000000000E+00 -0.45593999997E+02  0.45594000000E+02  0.51100000000E-03 0. -1.
    9900012    2    1    2    0    0  0.91990491230E+01  0.42233128494E+02  0.39196733846E+01  0.47787268594E+02  0.19999988826E+02 0.  0.
         12    1    1    2    0    0 -0.91990491230E+01 -0.42233128494E+02 -0.39196733846E+01  0.43400731406E+02  0.00000000000E+00 0. -1.
         11    1    3    3    0    0  0.48275784270E+00  0.86014820101E+01 -0.34972250044E+01  0.92978024768E+01  0.51100000000E-03 0. -1.
        -11    1    3    3    0    0  0.19378094861E+00 -0.11747354196E+01 -0.11389385235E+01  0.16476454665E+01  0.51100000000E-03 0.  1.
        -12    1    3    3    0    0  0.85225103317E+01  0.34806381903E+02  0.85558369125E+01  0.36841820650E+02  0.00000000000E+00 0.  1.
</event>
<event>
 7    1  0.2580704E-010  0.4778727E+02  0.7816164E-02  0.1312668E+00
        -11   -1    0    0    0    0  0.00000000000E+00  0.00000000000E+00  0.45593999997E+02  0.45594000000E+02  0.51100000000E-03 0. -1.
         11   -1    0    0    0    0 -0.00000000000E+00 -0.00000000000E+00 -0.45593999997E+02  0.45594000000E+02  0.51100000000E-03 0.  1.
    9900012    2    1    2    0    0  0.22033969675E+02  0.27935197382E+02 -0.24854627413E+02  0.47787267561E+02  0.19999984118E+02 0.  0.
         12    1    1    2    0    0 -0.22033969675E+02 -0.27935197382E+02  0.24854627413E+02  0.43400732439E+02  0.00000000000E+00 0. -1.
         11    1    3    3    0    0  0.20580635838E+01  0.13678608393E+00 -0.98119813074E+00  0.22840941707E+01  0.51100000000E-03 0. -1.
        -11    1    3    3    0    0  0.14856009500E+02  0.56611030547E+01 -0.11585810247E+02  0.19671809917E+02  0.51100000000E-03 0.  1.
         12    1    3    3    0    0  0.51198965911E+01  0.22137308243E+02 -0.12287619035E+02  0.25831363474E+02  0.00000000000E+00 0. -1.
</event>
<event>
 7    1  0.2580704E-010  0.4778727E+02  0.7816164E-02  0.1312668E+00
        -11   -1    0    0    0    0  0.00000000000E+00  0.00000000000E+00  0.45593999997E+02  0.45594000000E+02  0.51100000000E-03 0.  1.
         11   -1    0    0    0    0 -0.00000000000E+00 -0.00000000000E+00 -0.45593999997E+02  0.45594000000E+02  0.51100000000E-03 0. -1.
    9900012    2    1    2    0    0  0.18120119285E+01 -0.25062099463E+02  0.35386877796E+02  0.47787270318E+02  0.19999996689E+02 0.  0.
         12    1    1    2    0    0 -0.18120119285E+01  0.25062099463E+02 -0.35386877796E+02  0.43400729682E+02  0.00000000000E+00 0. -1.
         11    1    3    3    0    0  0.17861383936E+01 -0.44322966635E+01  0.52168816495E+01  0.70747012997E+01  0.51100000000E-03 0. -1.
        -11    1    3    3    0    0  0.27422456684E+01 -0.23335445491E+02  0.26241697967E+02  0.35223424592E+02  0.51100000000E-03 0.  1.
         12    1    3    3    0    0 -0.27163721336E+01  0.27056426911E+01  0.39282981801E+01  0.54891444262E+01  0.00000000000E+00 0. -1.
</event>
<event>
 7    1  0.4199252E-010  0.4778727E+02  0.7816164E-02  0.1312668E+00
        -11   -1    0    0    0    0  0.00000000000E+00  0.00000000000E+00  0.45593999997E+02  0.45594000000E+02  0.51100000000E-03 0. -1.
         11   -1    0    0    0    0 -0.00000000000E+00 -0.00000000000E+00 -0.45593999997E+02  0.45594000000E+02  0.51100000000E-03 0.  1.
    9900012    2    1    2    0    0 -0.41679631210E+02  0.11373616356E+02 -0.41318656148E+01  0.47787272814E+02  0.20000008066E+02 0.  0.
         12    1    1    2    0    0  0.41679631210E+02 -0.11373616356E+02  0.41318656148E+01  0.43400727186E+02  0.00000000000E+00 0. -1.
         11    1    3    3    0    0  0.86609221797E+00  0.11571246732E+01  0.11464498714E+01  0.18448308345E+01  0.51100000000E-03 0. -1.
        -11    1    3    3    0    0 -0.20136894442E+02  0.10159768196E+02  0.12875396871E+01  0.22591440110E+02  0.51100000000E-03 0.  1.
        -12    1    3    3    0    0 -0.22408828987E+02  0.56723486736E-01 -0.65658551733E+01  0.23351001869E+02  0.00000000000E+00 0.  1.
</event>
<event>
 7    1  0.2580704E-010  0.4778729E+02  0.7816164E-02  0.1312668E+00
        -11   -1    0    0    0    0  0.00000000000E+00  0.00000000000E+00  0.45593999997E+02  0.45594000000E+02  0.51100000000E-03 0.  1.
         11   -1    0    0    0    0 -0.00000000000E+00 -0.00000000000E+00 -0.45593999997E+02  0.45594000000E+02  0.51100000000E-03 0. -1.
    9900012    2    1    2    0    0 -0.34430646615E+02  0.29832498006E+01 -0.26253615674E+02  0.47787291001E+02  0.20000090988E+02 0.  0.
         12    1    1    2    0    0  0.34430646615E+02 -0.29832498006E+01  0.26253615674E+02  0.43400708999E+02  0.00000000000E+00 0. -1.
         11    1    3    3    0    0 -0.15961996766E+02  0.46616149217E+01 -0.54575894254E+01  0.17501464996E+02  0.51100000000E-03 0. -1.
        -11    1    3    3    0    0 -0.32514736402E+01 -0.28984022538E+01  0.16020507924E+00  0.43587248579E+01  0.51100000000E-03 0.  1.
        -12    1    3    3    0    0 -0.15217176209E+02  0.12200371327E+01 -0.20956231328E+02  0.25927101146E+02  0.00000000000E+00 0.  1.
</event>
<event>
 7    1  0.2580704E-010  0.4778727E+02  0.7816164E-02  0.1312668E+00
        -11   -1    0    0    0    0  0.00000000000E+00  0.00000000000E+00  0.45593999997E+02  0.45594000000E+02  0.51100000000E-03 0.  1.
         11   -1    0    0    0    0 -0.00000000000E+00 -0.00000000000E+00 -0.45593999997E+02  0.45594000000E+02  0.51100000000E-03 0. -1.
    9900012    2    1    2    0    0  0.21163391175E+02 -0.24209613100E+02  0.29148395508E+02  0.47787268980E+02  0.19999990585E+02 0.  0.
         12    1    1    2    0    0 -0.21163391175E+02  0.24209613100E+02 -0.29148395508E+02  0.43400731020E+02  0.00000000000E+00 0. -1.
         11    1    3    3    0    0 -0.33554489601E+00 -0.41373654271E+01  0.62094304379E+01  0.74690969788E+01  0.51100000000E-03 0. -1.
        -11    1    3    3    0    0  0.21258399486E+01 -0.11664569209E+02  0.62630896563E+01  0.13409237958E+02  0.51100000000E-03 0.  1.
         12    1    3    3    0    0  0.19373096122E+02 -0.84076784638E+01  0.16675875413E+02  0.26908934043E+02  0.00000000000E+00 0. -1.
</event>
<event>
 7    1  0.2580704E-010  0.4778727E+02  0.7816164E-02  0.1312668E+00
        -11   -1    0    0    0    0  0.00000000000E+00  0.00000000000E+00  0.45593999997E+02  0.45594000000E+02  0.51100000000E-03 0.  1.
         11   -1    0    0    0    0 -0.00000000000E+00 -0.00000000000E+00 -0.45593999997E+02  0.45594000000E+02  0.51100000000E-03 0. -1.
    9900012    2    1    2    0    0  0.29296246412E+02  0.10498356410E+02  0.30251242386E+02  0.47787271814E+02  0.20000003509E+02 0.  0.
         12    1    1    2    0    0 -0.29296246412E+02 -0.10498356410E+02 -0.30251242386E+02  0.43400728186E+02  0.00000000000E+00 0. -1.
         11    1    3    3    0    0  0.73118348675E+01  0.78040943085E+00  0.10541704546E+02  0.12852995877E+02  0.51100000000E-03 0. -1.
        -11    1    3    3    0    0  0.22864698421E+02  0.54308445641E+01  0.19525633084E+02  0.30553868072E+02  0.51100000000E-03 0.  1.
         12    1    3    3    0    0 -0.88028687697E+00  0.42871024155E+01  0.18390475646E+00  0.43804078653E+01  0.00000000000E+00 0. -1.
</event>
<event>
 7    1  0.2580704E-010  0.4778727E+02  0.7816164E-02  0.1312668E+00
        -11   -1    0    0    0    0  0.00000000000E+00  0.00000000000E+00  0.45593999997E+02  0.45594000000E+02  0.51100000000E-03 0. -1.
         11   -1    0    0    0    0 -0.00000000000E+00 -0.00000000000E+00 -0.45593999997E+02  0.45594000000E+02  0.51100000000E-03 0.  1.
    9900012    2    1    2    0    0 -0.42721782527E+02 -0.76438781992E+01  0.20881866441E+00  0.47787272109E+02  0.20000004854E+02 0.  0.
         12    1    1    2    0    0  0.42721782527E+02  0.76438781992E+01 -0.20881866441E+00  0.43400727891E+02  0.00000000000E+00 0. -1.
         11    1    3    3    0    0 -0.39094500672E+01 -0.22456788248E+01  0.51747440916E+00  0.45381332327E+01  0.51100000000E-03 0. -1.
        -11    1    3    3    0    0 -0.33747375656E+02 -0.11189299914E+02 -0.17355291082E+00  0.35554407844E+02  0.51100000000E-03 0.  1.
         12    1    3    3    0    0 -0.50649568038E+01  0.57911005399E+01 -0.13510283393E+00  0.76947310326E+01  0.00000000000E+00 0. -1.
</event>
<event>
 7    1  0.2580704E-010  0.4778727E+02  0.7816164E-02  0.1312668E+00
        -11   -1    0    0    0    0  0.00000000000E+00  0.00000000000E+00  0.45593999997E+02  0.45594000000E+02  0.51100000000E-03 0.  1.
         11   -1    0    0    0    0 -0.00000000000E+00 -0.00000000000E+00 -0.45593999997E+02  0.45594000000E+02  0.51100000000E-03 0. -1.
    9900012    2    1    2    0    0 -0.23541661202E+02 -0.32852422315E+02  0.15815563026E+02  0.47787268463E+02  0.19999988231E+02 0.  0.
         12    1    1    2    0    0  0.23541661202E+02  0.32852422315E+02 -0.15815563026E+02  0.43400731537E+02  0.00000000000E+00 0. -1.
         11    1    3    3    0    0 -0.20014463122E+01 -0.37678623980E+01 -0.26351326867E+01  0.50146284936E+01  0.51100000000E-03 0. -1.
        -11    1    3    3    0    0 -0.85274764980E+01 -0.18597584885E+02  0.43740136593E+01  0.20921759360E+02  0.51100000000E-03 0.  1.
        -12    1    3    3    0    0 -0.13012738391E+02 -0.10486975032E+02  0.14076682053E+02  0.21850880609E+02  0.00000000000E+00 0.  1.
</event>
<event>
 7    1  0.2580704E-010  0.4778728E+02  0.7816164E-02  0.1312668E+00
        -11   -1    0    0    0    0  0.00000000000E+00  0.00000000000E+00  0.45593999997E+02  0.45594000000E+02  0.51100000000E-03 0.  1.
         11   -1    0    0    0    0 -0.00000000000E+00 -0.00000000000E+00 -0.45593999997E+02  0.45594000000E+02  0.51100000000E-03 0. -1.
    9900012    2    1    2    0    0 -0.33884384535E+02  0.26458630692E+02  0.59508098850E+01  0.47787276599E+02  0.20000025328E+02 0.  0.
         12    1    1    2    0    0  0.33884384535E+02 -0.26458630692E+02 -0.59508098850E+01  0.43400723401E+02  0.00000000000E+00 0. -1.
         11    1    3    3    0    0 -0.10729029306E+02  0.34526987930E+01  0.27158433305E+01  0.11593489727E+02  0.51100000000E-03 0. -1.
        -11    1    3    3    0    0 -0.12189819968E+02  0.11927696643E+02  0.93502222047E+01  0.19449635307E+02  0.51100000000E-03 0.  1.
         12    1    3    3    0    0 -0.10965535261E+02  0.11078235256E+02 -0.61152556502E+01  0.16744151565E+02  0.00000000000E+00 0. -1.
</event>
<event>
 7    1  0.2580704E-010  0.4778727E+02  0.7816164E-02  0.1312668E+00
        -11   -1    0    0    0    0  0.00000000000E+00  0.00000000000E+00  0.45593999997E+02  0.45594000000E+02  0.51100000000E-03 0.  1.
         11   -1    0    0    0    0 -0.00000000000E+00 -0.00000000000E+00 -0.45593999997E+02  0.45594000000E+02  0.51100000000E-03 0. -1.
    9900012    2    1    2    0    0 -0.18158911802E+02 -0.36719218740E+02  0.14337930418E+02  0.47787270152E+02  0.19999995929E+02 0.  0.
         12    1    1    2    0    0  0.18158911802E+02  0.36719218740E+02 -0.14337930418E+02  0.43400729848E+02  0.00000000000E+00 0. -1.
         11    1    3    3    0    0 -0.10932231511E+02 -0.21721253735E+02  0.80325955265E+01  0.25609551749E+02  0.51100000000E-03 0. -1.
        -11    1    3    3    0    0 -0.22454469432E+01 -0.13878963978E+02  0.87053633188E+01  0.16536354612E+02  0.51100000000E-03 0.  1.
         12    1    3    3    0    0 -0.49812333478E+01 -0.11190010265E+01 -0.24000284271E+01  0.56413637902E+01  0.00000000000E+00 0. -1.
</event>
<event>
 7    1  0.2580704E-010  0.4778728E+02  0.7816164E-02  0.1312668E+00
        -11   -1    0    0    0    0  0.00000000000E+00  0.00000000000E+00  0.45593999997E+02  0.45594000000E+02  0.51100000000E-03 0.  1.
         11   -1    0    0    0    0 -0.00000000000E+00 -0.00000000000E+00 -0.45593999997E+02  0.45594000000E+02  0.51100000000E-03 0. -1.
    9900012    2    1    2    0    0  0.11922488427E+02 -0.31605805307E+02  0.27249770188E+02  0.47787278408E+02  0.20000033574E+02 0.  0.
         12    1    1    2    0    0 -0.11922488427E+02  0.31605805307E+02 -0.27249770188E+02  0.43400721592E+02  0.00000000000E+00 0. -1.
         11    1    3    3    0    0  0.35577596083E+01 -0.11126007881E+02  0.10890939706E+02  0.15970543909E+02  0.51100000000E-03 0.  1.
        -11    1    3    3    0    0  0.68504540161E+01 -0.23179668930E+02  0.14078306506E+02  0.27971851677E+02  0.51100000000E-03 0. -1.
         12    1    3    3    0    0  0.15142748025E+01  0.26998715036E+01  0.22805239755E+01  0.38448828222E+01  0.00000000000E+00 0. -1.
</event>
<event>
 7    1  0.2580704E-010  0.4778727E+02  0.7816164E-02  0.1312668E+00
        -11   -1    0    0    0    0  0.00000000000E+00  0.00000000000E+00  0.45593999997E+02  0.45594000000E+02  0.51100000000E-03 0.  1.
         11   -1    0    0    0    0 -0.00000000000E+00 -0.00000000000E+00 -0.45593999997E+02  0.45594000000E+02  0.51100000000E-03 0. -1.
    9900012    2    1    2    0    0 -0.29088941806E+02  0.19586098339E+02 -0.25570323157E+02  0.47787271782E+02  0.20000003361E+02 0.  0.
         12    1    1    2    0    0  0.29088941806E+02 -0.19586098339E+02  0.25570323157E+02  0.43400728218E+02  0.00000000000E+00 0. -1.
         11    1    3    3    0    0 -0.20768308671E+02  0.87262631936E+01 -0.18008156989E+02  0.28840319568E+02  0.51100000000E-03 0. -1.
        -11    1    3    3    0    0 -0.52003519944E+01  0.11177380256E+01 -0.68775646348E+01  0.86944749541E+01  0.51100000000E-03 0.  1.
        -12    1    3    3    0    0 -0.31202811406E+01  0.97420971202E+01 -0.68460153246E+00  0.10252477259E+02  0.00000000000E+00 0.  1.
</event>
<event>
 7    1  0.2580704E-010  0.4778727E+02  0.7816164E-02  0.1312668E+00
        -11   -1    0    0    0    0  0.00000000000E+00  0.00000000000E+00  0.45593999997E+02  0.45594000000E+02  0.51100000000E-03 0.  1.
         11   -1    0    0    0    0 -0.00000000000E+00 -0.00000000000E+00 -0.45593999997E+02  0.45594000000E+02  0.51100000000E-03 0. -1.
    9900012    2    1    2    0    0  0.17915961569E+02  0.29632454250E+02  0.26164085248E+02  0.47787269814E+02  0.19999994391E+02 0.  0.
         12    1    1    2    0    0 -0.17915961569E+02 -0.29632454250E+02 -0.26164085248E+02  0.43400730186E+02  0.00000000000E+00 0. -1.
         11    1    3    3    0    0  0.58235859184E+01  0.21342368227E+01  0.31944888122E+01  0.69766667397E+01  0.51100000000E-03 0. -1.
        -11    1    3    3    0    0  0.15273381352E+02  0.18786692259E+02  0.14324321922E+02  0.28131871298E+02  0.51100000000E-03 0.  1.
         12    1    3    3    0    0 -0.31810057021E+01  0.87115251684E+01  0.86452745138E+01  0.12678731776E+02  0.00000000000E+00 0. -1.
</event>
<event>
 7    1  0.2580704E-010  0.4778727E+02  0.7816164E-02  0.1312668E+00
        -11   -1    0    0    0    0  0.00000000000E+00  0.00000000000E+00  0.45593999997E+02  0.45594000000E+02  0.51100000000E-03 0.  1.
         11   -1    0    0    0    0 -0.00000000000E+00 -0.00000000000E+00 -0.45593999997E+02  0.45594000000E+02  0.51100000000E-03 0. -1.
    9900012    2    1    2    0    0 -0.11960917189E+02 -0.27058700206E+02  0.31755101629E+02  0.47787271017E+02  0.19999999874E+02 0.  0.
         12    1    1    2    0    0  0.11960917189E+02  0.27058700206E+02 -0.31755101629E+02  0.43400728983E+02  0.00000000000E+00 0. -1.
         11    1    3    3    0    0 -0.19530764756E+01 -0.12422172594E+02  0.22273122992E+02  0.25577663845E+02  0.51100000000E-03 0.  1.
        -11    1    3    3    0    0 -0.36172463447E+00  0.11848279761E+01  0.17196389147E+01  0.21193914934E+01  0.51100000000E-03 0. -1.
        -12    1    3    3    0    0 -0.96461160792E+01 -0.15821355588E+02  0.77623397215E+01  0.20090215679E+02  0.00000000000E+00 0.  1.
</event>
<event>
 7    1  0.2580704E-010  0.4778731E+02  0.7816164E-02  0.1312668E+00
        -11   -1    0    0    0    0  0.00000000000E+00  0.00000000000E+00  0.45593999997E+02  0.45594000000E+02  0.51100000000E-03 0. -1.
         11   -1    0    0    0    0 -0.00000000000E+00 -0.00000000000E+00 -0.45593999997E+02  0.45594000000E+02  0.51100000000E-03 0.  1.
    9900012    2    1    2    0    0 -0.24546263582E+02 -0.88719122548E+01 -0.34675500642E+02  0.47787306138E+02  0.20000160007E+02 0.  0.
         12    1    1    2    0    0  0.24546263582E+02  0.88719122548E+01  0.34675500642E+02  0.43400693862E+02  0.00000000000E+00 0. -1.
         11    1    3    3    0    0  0.15192702958E+01  0.85324452815E+00 -0.38070956017E+00  0.17835774406E+01  0.51100000000E-03 0. -1.
        -11    1    3    3    0    0 -0.94472245529E+01  0.20301781625E+01 -0.68975530118E+01  0.11872148623E+02  0.51100000000E-03 0.  1.
         12    1    3    3    0    0 -0.16618309325E+02 -0.11755334946E+02 -0.27397238070E+02  0.34131580074E+02  0.00000000000E+00 0. -1.
</event>
<event>
 7    1  0.2580704E-010  0.4778727E+02  0.7816164E-02  0.1312668E+00
        -11   -1    0    0    0    0  0.00000000000E+00  0.00000000000E+00  0.45593999997E+02  0.45594000000E+02  0.51100000000E-03 0. -1.
         11   -1    0    0    0    0 -0.00000000000E+00 -0.00000000000E+00 -0.45593999997E+02  0.45594000000E+02  0.51100000000E-03 0.  1.
    9900012    2    1    2    0    0 -0.10894434682E+01  0.42717854858E+02 -0.75908732641E+01  0.47787269964E+02  0.19999995075E+02 0.  0.
         12    1    1    2    0    0  0.10894434682E+01 -0.42717854858E+02  0.75908732641E+01  0.43400730036E+02  0.00000000000E+00 0. -1.
         11    1    3    3    0    0  0.23721160985E+01  0.15576511995E+02 -0.70775451755E+01  0.17272704093E+02  0.51100000000E-03 0. -1.
        -11    1    3    3    0    0 -0.54749809593E+01  0.95817190021E+01 -0.52433511101E+01  0.12217916625E+02  0.51100000000E-03 0.  1.
         12    1    3    3    0    0  0.20134213926E+01  0.17559623861E+02  0.47300230215E+01  0.18296649246E+02  0.00000000000E+00 0. -1.
</event>
<event>
 7    1  0.2580704E-010  0.4778727E+02  0.7816164E-02  0.1312668E+00
        -11   -1    0    0    0    0  0.00000000000E+00  0.00000000000E+00  0.45593999997E+02  0.45594000000E+02  0.51100000000E-03 0.  1.
         11   -1    0    0    0    0 -0.00000000000E+00 -0.00000000000E+00 -0.45593999997E+02  0.45594000000E+02  0.51100000000E-03 0. -1.
    9900012    2    1    2    0    0 -0.14331009475E+02  0.21899704849E+02  0.34621501852E+02  0.47787270795E+02  0.19999998864E+02 0.  0.
         12    1    1    2    0    0  0.14331009475E+02 -0.21899704849E+02 -0.34621501852E+02  0.43400729205E+02  0.00000000000E+00 0. -1.
         11    1    3    3    0    0 -0.37863714661E+01  0.93541903954E+01  0.22049081159E+02  0.24248700317E+02  0.51100000000E-03 0.  1.
        -11    1    3    3    0    0 -0.10116893823E+02  0.11928625525E+02  0.14587739804E+02  0.21387982616E+02  0.51100000000E-03 0. -1.
         12    1    3    3    0    0 -0.42774418618E+00  0.61688892795E+00 -0.20153191106E+01  0.21505878629E+01  0.00000000000E+00 0. -1.
</event>
<event>
 7    1  0.2580704E-010  0.4778727E+02  0.7816164E-02  0.1312668E+00
        -11   -1    0    0    0    0  0.00000000000E+00  0.00000000000E+00  0.45593999997E+02  0.45594000000E+02  0.51100000000E-03 0.  1.
         11   -1    0    0    0    0 -0.00000000000E+00 -0.00000000000E+00 -0.45593999997E+02  0.45594000000E+02  0.51100000000E-03 0. -1.
    9900012    2    1    2    0    0 -0.30675273655E+02  0.24832650220E+01  0.30602026679E+02  0.47787273557E+02  0.20000011454E+02 0.  0.
         12    1    1    2    0    0  0.30675273655E+02 -0.24832650220E+01 -0.30602026679E+02  0.43400726443E+02  0.00000000000E+00 0. -1.
         11    1    3    3    0    0 -0.44623064053E+01  0.19367251790E+01  0.15166844865E+01  0.50954307930E+01  0.51100000000E-03 0. -1.
        -11    1    3    3    0    0 -0.15561748940E+02  0.37769564682E+01  0.60680487620E+01  0.17124679450E+02  0.51100000000E-03 0.  1.
        -12    1    3    3    0    0 -0.10651218310E+02 -0.32304166252E+01  0.23017293430E+02  0.25567163314E+02  0.00000000000E+00 0.  1.
</event>
<event>
 7    1  0.2580704E-010  0.4778725E+02  0.7816164E-02  0.1312668E+00
        -11   -1    0    0    0    0  0.00000000000E+00  0.00000000000E+00  0.45593999997E+02  0.45594000000E+02  0.51100000000E-03 0. -1.
         11   -1    0    0    0    0 -0.00000000000E+00 -0.00000000000E+00 -0.45593999997E+02  0.45594000000E+02  0.51100000000E-03 0.  1.
    9900012    2    1    2    0    0 -0.12395493211E+02 -0.20273990459E+02 -0.36317237506E+02  0.47787254833E+02  0.19999926083E+02 0.  0.
         12    1    1    2    0    0  0.12395493211E+02  0.20273990459E+02  0.36317237506E+02  0.43400745167E+02  0.00000000000E+00 0. -1.
         11    1    3    3    0    0  0.89660649647E+00 -0.45028194657E+01 -0.12557194193E+02  0.13370206154E+02  0.51100000000E-03 0.  1.
        -11    1    3    3    0    0 -0.13414158364E+01  0.24897630013E+01 -0.13416447181E+01  0.31302279565E+01  0.51100000000E-03 0. -1.
        -12    1    3    3    0    0 -0.11950683871E+02 -0.18260933994E+02 -0.22418398594E+02  0.31286820722E+02  0.00000000000E+00 0.  1.
</event>
<event>
 7    1  0.2580704E-010  0.4778727E+02  0.7816164E-02  0.1312668E+00
        -11   -1    0    0    0    0  0.00000000000E+00  0.00000000000E+00  0.45593999997E+02  0.45594000000E+02  0.51100000000E-03 0. -1.
         11   -1    0    0    0    0 -0.00000000000E+00 -0.00000000000E+00 -0.45593999997E+02  0.45594000000E+02  0.51100000000E-03 0.  1.
    9900012    2    1    2    0    0  0.61496537890E+01  0.33975671291E+02 -0.26295607624E+02  0.47787268880E+02  0.19999990134E+02 0.  0.
         12    1    1    2    0    0 -0.61496537890E+01 -0.33975671291E+02  0.26295607624E+02  0.43400731120E+02  0.00000000000E+00 0. -1.
         11    1    3    3    0    0 -0.61701375857E+01  0.73349256315E+01 -0.89964559288E+01  0.13145643818E+02  0.51100000000E-03 0.  1.
        -11    1    3    3    0    0  0.30466740518E+01  0.50447880193E+01 -0.84969645070E+00  0.59543339893E+01  0.51100000000E-03 0. -1.
        -12    1    3    3    0    0  0.92731173229E+01  0.21595957640E+02 -0.16449455244E+02  0.28687291073E+02  0.00000000000E+00 0.  1.
</event>
<event>
 7    1  0.2580704E-010  0.4778727E+02  0.7816164E-02  0.1312668E+00
        -11   -1    0    0    0    0  0.00000000000E+00  0.00000000000E+00  0.45593999997E+02  0.45594000000E+02  0.51100000000E-03 0. -1.
         11   -1    0    0    0    0 -0.00000000000E+00 -0.00000000000E+00 -0.45593999997E+02  0.45594000000E+02  0.51100000000E-03 0.  1.
    9900012    2    1    2    0    0  0.22073392176E+02  0.36141555078E+02  0.94961387409E+01  0.47787270783E+02  0.19999998808E+02 0.  0.
         12    1    1    2    0    0 -0.22073392176E+02 -0.36141555078E+02 -0.94961387409E+01  0.43400729217E+02  0.00000000000E+00 0. -1.
         11    1    3    3    0    0 -0.52400208031E+00  0.10284265338E+02 -0.19604423725E+01  0.10482558194E+02  0.51100000000E-03 0. -1.
        -11    1    3    3    0    0  0.48645147764E+01  0.23637769652E+01 -0.70969023847E+00  0.54547782766E+01  0.51100000000E-03 0.  1.
        -12    1    3    3    0    0  0.17732879480E+02  0.23493512774E+02  0.12166271352E+02  0.31849934313E+02  0.00000000000E+00 0.  1.
</event>
<event>
 7    1  0.2580704E-010  0.4778727E+02  0.7816164E-02  0.1312668E+00
        -11   -1    0    0    0    0  0.00000000000E+00  0.00000000000E+00  0.45593999997E+02  0.45594000000E+02  0.51100000000E-03 0.  1.
         11   -1    0    0    0    0 -0.00000000000E+00 -0.00000000000E+00 -0.45593999997E+02  0.45594000000E+02  0.51100000000E-03 0. -1.
    9900012    2    1    2    0    0  0.37299866569E+01 -0.37936037353E+01  0.43073411489E+02  0.47787274118E+02  0.20000014015E+02 0.  0.
         12    1    1    2    0    0 -0.37299866569E+01  0.37936037353E+01 -0.43073411489E+02  0.43400725882E+02  0.00000000000E+00 0. -1.
         11    1    3    3    0    0  0.29287115235E+01  0.49453259994E+01  0.99295681479E+01  0.11473008511E+02  0.51100000000E-03 0. -1.
        -11    1    3    3    0    0 -0.21662465224E+01 -0.12116655054E+01  0.23904117788E+02  0.24032636243E+02  0.51100000000E-03 0.  1.
         12    1    3    3    0    0  0.29675216559E+01 -0.75272642294E+01  0.92397255531E+01  0.12281629365E+02  0.00000000000E+00 0. -1.
</event>
<event>
 7    1  0.2580704E-010  0.4778727E+02  0.7816164E-02  0.1312668E+00
        -11   -1    0    0    0    0  0.00000000000E+00  0.00000000000E+00  0.45593999997E+02  0.45594000000E+02  0.51100000000E-03 0. -1.
         11   -1    0    0    0    0 -0.00000000000E+00 -0.00000000000E+00 -0.45593999997E+02  0.45594000000E+02  0.51100000000E-03 0.  1.
    9900012    2    1    2    0    0 -0.10789161355E+02 -0.39672773576E+02  0.13902827069E+02  0.47787267673E+02  0.19999984629E+02 0.  0.
         12    1    1    2    0    0  0.10789161355E+02  0.39672773576E+02 -0.13902827069E+02  0.43400732327E+02  0.00000000000E+00 0. -1.
         11    1    3    3    0    0  0.15836083859E+01 -0.11809148668E+02 -0.29637729286E+01  0.12277937857E+02  0.51100000000E-03 0. -1.
        -11    1    3    3    0    0 -0.38820958967E+01 -0.44736756455E+01  0.10250257648E+01  0.60112494884E+01  0.51100000000E-03 0.  1.
         12    1    3    3    0    0 -0.84906738441E+01 -0.23389949263E+02  0.15841574233E+02  0.29498080328E+02  0.00000000000E+00 0. -1.
</event>
<event>
 7    1  0.2580704E-010  0.4778728E+02  0.7816164E-02  0.1312668E+00
        -11   -1    0    0    0    0  0.00000000000E+00  0.00000000000E+00  0.45593999997E+02  0.45594000000E+02  0.51100000000E-03 0.  1.
         11   -1    0    0    0    0 -0.00000000000E+00 -0.00000000000E+00 -0.45593999997E+02  0.45594000000E+02  0.51100000000E-03 0. -1.
    9900012    2    1    2    0    0 -0.38380623819E+02 -0.11705145928E+01  0.20228205413E+02  0.47787277847E+02  0.20000031014E+02 0.  0.
         12    1    1    2    0    0  0.38380623819E+02  0.11705145928E+01 -0.20228205413E+02  0.43400722153E+02  0.00000000000E+00 0. -1.
         11    1    3    3    0    0 -0.30156384463E+01  0.18544221813E+01 -0.17002801383E+01  0.39273285673E+01  0.51100000000E-03 0. -1.
        -11    1    3    3    0    0 -0.12007056503E+02  0.32004857502E+01  0.21167291896E+01  0.12605278959E+02  0.51100000000E-03 0.  1.
         12    1    3    3    0    0 -0.23357928870E+02 -0.62254225243E+01  0.19811756362E+02  0.31254670321E+02  0.00000000000E+00 0. -1.
</event>
<event>
 7    1  0.2580704E-010  0.4778727E+02  0.7816164E-02  0.1312668E+00
        -11   -1    0    0    0    0  0.00000000000E+00  0.00000000000E+00  0.45593999997E+02  0.45594000000E+02  0.51100000000E-03 0. -1.
         11   -1    0    0    0    0 -0.00000000000E+00 -0.00000000000E+00 -0.45593999997E+02  0.45594000000E+02  0.51100000000E-03 0.  1.
    9900012    2    1    2    0    0 -0.18333715753E+02  0.23503980485E+02 -0.31544590710E+02  0.47787269189E+02  0.19999991539E+02 0.  0.
         12    1    1    2    0    0  0.18333715753E+02 -0.23503980485E+02  0.31544590710E+02  0.43400730811E+02  0.00000000000E+00 0. -1.
         11    1    3    3    0    0 -0.10816029836E+02  0.66425397413E+01 -0.11858843478E+02  0.17370722625E+02  0.51100000000E-03 0. -1.
        -11    1    3    3    0    0 -0.85443467959E+01  0.13148388722E+02 -0.21120941920E+02  0.26305516076E+02  0.51100000000E-03 0.  1.
         12    1    3    3    0    0  0.10266608794E+01  0.37130520215E+01  0.14351946886E+01  0.41110304876E+01  0.00000000000E+00 0. -1.
</event>
<event>
 7    1  0.2580704E-010  0.4778726E+02  0.7816164E-02  0.1312668E+00
        -11   -1    0    0    0    0  0.00000000000E+00  0.00000000000E+00  0.45593999997E+02  0.45594000000E+02  0.51100000000E-03 0. -1.
         11   -1    0    0    0    0 -0.00000000000E+00 -0.00000000000E+00 -0.45593999997E+02  0.45594000000E+02  0.51100000000E-03 0.  1.
    9900012    2    1    2    0    0 -0.13203205445E+02 -0.30124794120E+02 -0.28316016362E+02  0.47787255336E+02  0.19999928378E+02 0.  0.
         12    1    1    2    0    0  0.13203205445E+02  0.30124794120E+02  0.28316016362E+02  0.43400744664E+02  0.00000000000E+00 0. -1.
         11    1    3    3    0    0 -0.84051835116E+00 -0.15687033460E+02 -0.11268564027E+02  0.19333132839E+02  0.51100000000E-03 0. -1.
        -11    1    3    3    0    0 -0.99799328526E+01 -0.15560994178E+02 -0.17852799906E+02  0.25699534321E+02  0.51100000000E-03 0.  1.
         12    1    3    3    0    0 -0.23827542407E+01  0.11232335182E+01  0.80534757104E+00  0.27545881758E+01  0.00000000000E+00 0. -1.
</event>
<event>
 7    1  0.2580704E-010  0.4778729E+02  0.7816164E-02  0.1312668E+00
        -11   -1    0    0    0    0  0.00000000000E+00  0.00000000000E+00  0.45593999997E+02  0.45594000000E+02  0.51100000000E-03 0.  1.
         11   -1    0    0    0    0 -0.00000000000E+00 -0.00000000000E+00 -0.45593999997E+02  0.45594000000E+02  0.51100000000E-03 0. -1.
    9900012    2    1    2    0    0  0.37380474522E+02 -0.21386157934E+02 -0.53809155898E+01  0.47787287111E+02  0.20000073254E+02 0.  0.
         12    1    1    2    0    0 -0.37380474522E+02  0.21386157934E+02  0.53809155898E+01  0.43400712889E+02  0.00000000000E+00 0. -1.
         11    1    3    3    0    0  0.68044264827E+01 -0.81847272464E+01 -0.48042976515E+01  0.11677810413E+02  0.51100000000E-03 0.  1.
        -11    1    3    3    0    0  0.19202265497E+01 -0.60824898841E+01 -0.15594479670E+01  0.65662646471E+01  0.51100000000E-03 0. -1.
        -12    1    3    3    0    0  0.28655821490E+02 -0.71189408033E+01  0.98283002870E+00  0.29543212051E+02  0.00000000000E+00 0.  1.
</event>
<event>
 7    1  0.2580704E-010  0.4778726E+02  0.7816164E-02  0.1312668E+00
        -11   -1    0    0    0    0  0.00000000000E+00  0.00000000000E+00  0.45593999997E+02  0.45594000000E+02  0.51100000000E-03 0.  1.
         11   -1    0    0    0    0 -0.00000000000E+00 -0.00000000000E+00 -0.45593999997E+02  0.45594000000E+02  0.51100000000E-03 0. -1.
    9900012    2    1    2    0    0 -0.24120942096E+02 -0.23514192492E+02  0.27365801838E+02  0.47787260301E+02  0.19999951017E+02 0.  0.
         12    1    1    2    0    0  0.24120942096E+02  0.23514192492E+02 -0.27365801838E+02  0.43400739699E+02  0.00000000000E+00 0. -1.
         11    1    3    3    0    0  0.13095879778E+00  0.18350024296E+01  0.40508681970E+01  0.44490355735E+01  0.51100000000E-03 0. -1.
        -11    1    3    3    0    0 -0.42168182454E+01 -0.55795603101E+01  0.33464571219E+00  0.70017881561E+01  0.51100000000E-03 0.  1.
        -12    1    3    3    0    0 -0.20035082649E+02 -0.19769634612E+02  0.22980287929E+02  0.36336436571E+02  0.00000000000E+00 0.  1.
</event>
<event>
 7    1  0.2580704E-010  0.4778727E+02  0.7816164E-02  0.1312668E+00
        -11   -1    0    0    0    0  0.00000000000E+00  0.00000000000E+00  0.45593999997E+02  0.45594000000E+02  0.51100000000E-03 0.  1.
         11   -1    0    0    0    0 -0.00000000000E+00 -0.00000000000E+00 -0.45593999997E+02  0.45594000000E+02  0.51100000000E-03 0. -1.
    9900012    2    1    2    0    0 -0.69699482260E+01 -0.46181219032E+01  0.42587746055E+02  0.47787270257E+02  0.19999996410E+02 0.  0.
         12    1    1    2    0    0  0.69699482260E+01  0.46181219032E+01 -0.42587746055E+02  0.43400729743E+02  0.00000000000E+00 0. -1.
         11    1    3    3    0    0  0.11405259553E+01 -0.29311385003E+01  0.17639785402E+01  0.36061049506E+01  0.51100000000E-03 0. -1.
        -11    1    3    3    0    0  0.34517677361E+01 -0.21782178649E+01  0.19468782119E+02  0.19892028831E+02  0.51100000000E-03 0.  1.
         12    1    3    3    0    0 -0.11562241917E+02  0.49123446206E+00  0.21354985396E+02  0.24289136475E+02  0.00000000000E+00 0. -1.
</event>
<event>
 7    1  0.2580704E-010  0.4778728E+02  0.7816164E-02  0.1312668E+00
        -11   -1    0    0    0    0  0.00000000000E+00  0.00000000000E+00  0.45593999997E+02  0.45594000000E+02  0.51100000000E-03 0.  1.
         11   -1    0    0    0    0 -0.00000000000E+00 -0.00000000000E+00 -0.45593999997E+02  0.45594000000E+02  0.51100000000E-03 0. -1.
    9900012    2    1    2    0    0  0.15786348351E+02  0.32487003058E+00  0.40426580419E+02  0.47787277205E+02  0.20000028086E+02 0.  0.
         12    1    1    2    0    0 -0.15786348351E+02 -0.32487003058E+00 -0.40426580419E+02  0.43400722795E+02  0.00000000000E+00 0. -1.
         11    1    3    3    0    0  0.28547167861E+01  0.19854958194E+01  0.25947060182E+01  0.43386750466E+01  0.51100000000E-03 0. -1.
        -11    1    3    3    0    0  0.14613628553E+01 -0.45488142291E+00  0.28691718018E+02  0.28732510882E+02  0.51100000000E-03 0.  1.
        -12    1    3    3    0    0  0.11470268709E+02 -0.12057443660E+01  0.91401563834E+01  0.14716091276E+02  0.00000000000E+00 0.  1.
</event>
<event>
 7    1  0.2598576E-010  0.4778727E+02  0.7816164E-02  0.1312668E+00
        -11   -1    0    0    0    0  0.00000000000E+00  0.00000000000E+00  0.45593999997E+02  0.45594000000E+02  0.51100000000E-03 0. -1.
         11   -1    0    0    0    0 -0.00000000000E+00 -0.00000000000E+00 -0.45593999997E+02  0.45594000000E+02  0.51100000000E-03 0.  1.
    9900012    2    1    2    0    0  0.26209714018E+00  0.71295807118E+01 -0.42810326615E+02  0.47787266355E+02  0.19999978619E+02 0.  0.
         12    1    1    2    0    0 -0.26209714018E+00 -0.71295807118E+01  0.42810326615E+02  0.43400733645E+02  0.00000000000E+00 0. -1.
         11    1    3    3    0    0 -0.82775824799E+01  0.20978633706E+01 -0.12308754815E+02  0.14980815992E+02  0.51100000000E-03 0. -1.
        -11    1    3    3    0    0  0.19671046662E+01  0.83216550361E+00 -0.11289427671E+01  0.24158874613E+01  0.51100000000E-03 0.  1.
        -12    1    3    3    0    0  0.65725749539E+01  0.41995518376E+01 -0.29372629033E+02  0.30390562901E+02  0.00000000000E+00 0.  1.
</event>
<event>
 7    1  0.2580704E-010  0.4778727E+02  0.7816164E-02  0.1312668E+00
        -11   -1    0    0    0    0  0.00000000000E+00  0.00000000000E+00  0.45593999997E+02  0.45594000000E+02  0.51100000000E-03 0.  1.
         11   -1    0    0    0    0 -0.00000000000E+00 -0.00000000000E+00 -0.45593999997E+02  0.45594000000E+02  0.51100000000E-03 0. -1.
    9900012    2    1    2    0    0 -0.21364669330E+02 -0.13191294964E+02  0.35400057288E+02  0.47787269426E+02  0.19999992619E+02 0.  0.
         12    1    1    2    0    0  0.21364669330E+02  0.13191294964E+02 -0.35400057288E+02  0.43400730574E+02  0.00000000000E+00 0. -1.
         11    1    3    3    0    0 -0.30007616304E+01 -0.24474034844E+01  0.33275691134E-01  0.38723974113E+01  0.51100000000E-03 0. -1.
        -11    1    3    3    0    0  0.15287349889E+01 -0.47939129979E+01  0.94532042074E+01  0.10708954316E+02  0.51100000000E-03 0.  1.
        -12    1    3    3    0    0 -0.19892642689E+02 -0.59499784812E+01  0.25913577389E+02  0.33205917698E+02  0.00000000000E+00 0.  1.
</event>
<event>
 7    1  0.2580704E-010  0.4778727E+02  0.7816164E-02  0.1312668E+00
        -11   -1    0    0    0    0  0.00000000000E+00  0.00000000000E+00  0.45593999997E+02  0.45594000000E+02  0.51100000000E-03 0.  1.
         11   -1    0    0    0    0 -0.00000000000E+00 -0.00000000000E+00 -0.45593999997E+02  0.45594000000E+02  0.51100000000E-03 0. -1.
    9900012    2    1    2    0    0  0.38957643976E+02  0.19128470259E+02  0.16498694444E+00  0.47787267065E+02  0.19999981856E+02 0.  0.
         12    1    1    2    0    0 -0.38957643976E+02 -0.19128470259E+02 -0.16498694444E+00  0.43400732935E+02  0.00000000000E+00 0. -1.
         11    1    3    3    0    0  0.15032659528E+01  0.44896886042E+01 -0.10528369074E+01  0.48503173198E+01  0.51100000000E-03 0. -1.
        -11    1    3    3    0    0  0.25120858079E+02  0.12755289276E+02 -0.55915906156E+01  0.28723175330E+02  0.51100000000E-03 0.  1.
         12    1    3    3    0    0  0.12333519944E+02  0.18834923789E+01  0.68094144674E+01  0.14213774415E+02  0.00000000000E+00 0. -1.
</event>
<event>
 7    1  0.2580704E-010  0.4778727E+02  0.7816164E-02  0.1312668E+00
        -11   -1    0    0    0    0  0.00000000000E+00  0.00000000000E+00  0.45593999997E+02  0.45594000000E+02  0.51100000000E-03 0. -1.
         11   -1    0    0    0    0 -0.00000000000E+00 -0.00000000000E+00 -0.45593999997E+02  0.45594000000E+02  0.51100000000E-03 0.  1.
    9900012    2    1    2    0    0 -0.81013923944E+01  0.49329787839E+01 -0.42351577214E+02  0.47787274995E+02  0.20000018012E+02 0.  0.
         12    1    1    2    0    0  0.81013923944E+01 -0.49329787839E+01  0.42351577214E+02  0.43400725005E+02  0.00000000000E+00 0. -1.
         11    1    3    3    0    0 -0.12708561706E+02  0.33392609675E+01 -0.19841343100E+02  0.23797838152E+02  0.51100000000E-03 0. -1.
        -11    1    3    3    0    0 -0.62422742281E+00  0.41504693501E+00 -0.13379105105E+02  0.13400088713E+02  0.51100000000E-03 0.  1.
        -12    1    3    3    0    0  0.52313967341E+01  0.11786708814E+01 -0.91311290091E+01  0.10589348130E+02  0.00000000000E+00 0.  1.
</event>
<event>
 7    1  0.2580704E-010  0.4778727E+02  0.7816164E-02  0.1312668E+00
        -11   -1    0    0    0    0  0.00000000000E+00  0.00000000000E+00  0.45593999997E+02  0.45594000000E+02  0.51100000000E-03 0.  1.
         11   -1    0    0    0    0 -0.00000000000E+00 -0.00000000000E+00 -0.45593999997E+02  0.45594000000E+02  0.51100000000E-03 0. -1.
    9900012    2    1    2    0    0 -0.15396870056E+02 -0.13910742680E+02  0.38118903824E+02  0.47787271917E+02  0.20000003976E+02 0.  0.
         12    1    1    2    0    0  0.15396870056E+02  0.13910742680E+02 -0.38118903824E+02  0.43400728083E+02  0.00000000000E+00 0. -1.
         11    1    3    3    0    0 -0.10788513116E+01 -0.65587398336E+00  0.12244654500E+02  0.12309575741E+02  0.51100000000E-03 0. -1.
        -11    1    3    3    0    0 -0.87091951735E+01 -0.69977457245E+01  0.24547862944E+02  0.26970652590E+02  0.51100000000E-03 0.  1.
        -12    1    3    3    0    0 -0.56088235708E+01 -0.62571229718E+01  0.13263863808E+01  0.85070435854E+01  0.00000000000E+00 0.  1.
</event>
<event>
 7    1  0.2580704E-010  0.4778727E+02  0.7816164E-02  0.1312668E+00
        -11   -1    0    0    0    0  0.00000000000E+00  0.00000000000E+00  0.45593999997E+02  0.45594000000E+02  0.51100000000E-03 0.  1.
         11   -1    0    0    0    0 -0.00000000000E+00 -0.00000000000E+00 -0.45593999997E+02  0.45594000000E+02  0.51100000000E-03 0. -1.
    9900012    2    1    2    0    0  0.40903422822E+02  0.14188643977E+02 -0.30357462416E+01  0.47787269918E+02  0.19999994863E+02 0.  0.
         12    1    1    2    0    0 -0.40903422822E+02 -0.14188643977E+02  0.30357462416E+01  0.43400730082E+02  0.00000000000E+00 0. -1.
         11    1    3    3    0    0  0.15301148666E+00 -0.36832345165E+00 -0.31889673954E+01  0.32138120652E+01  0.51100000000E-03 0. -1.
        -11    1    3    3    0    0  0.21884974381E+01 -0.77177554023E+00 -0.19387271389E+01  0.30238752787E+01  0.51100000000E-03 0.  1.
        -12    1    3    3    0    0  0.38561913897E+02  0.15328742969E+02  0.20919482928E+01  0.41549582574E+02  0.00000000000E+00 0.  1.
</event>
<event>
 7    1  0.2580704E-010  0.4778726E+02  0.7816164E-02  0.1312668E+00
        -11   -1    0    0    0    0  0.00000000000E+00  0.00000000000E+00  0.45593999997E+02  0.45594000000E+02  0.51100000000E-03 0.  1.
         11   -1    0    0    0    0 -0.00000000000E+00 -0.00000000000E+00 -0.45593999997E+02  0.45594000000E+02  0.51100000000E-03 0. -1.
    9900012    2    1    2    0    0  0.11801139291E+02  0.34339468760E+02  0.23773057425E+02  0.47787259654E+02  0.19999948066E+02 0.  0.
         12    1    1    2    0    0 -0.11801139291E+02 -0.34339468760E+02 -0.23773057425E+02  0.43400740346E+02  0.00000000000E+00 0. -1.
         11    1    3    3    0    0  0.10213421332E+01  0.12586309579E+02  0.39284090891E+01  0.13224625772E+02  0.51100000000E-03 0. -1.
        -11    1    3    3    0    0  0.51482844245E+01  0.11216223500E+02  0.18907124004E+02  0.22578481802E+02  0.51100000000E-03 0.  1.
         12    1    3    3    0    0  0.56315127328E+01  0.10536935681E+02  0.93752433157E+00  0.11984152080E+02  0.00000000000E+00 0. -1.
</event>
<event>
 7    1  0.2580704E-010  0.4778727E+02  0.7816164E-02  0.1312668E+00
        -11   -1    0    0    0    0  0.00000000000E+00  0.00000000000E+00  0.45593999997E+02  0.45594000000E+02  0.51100000000E-03 0.  1.
         11   -1    0    0    0    0 -0.00000000000E+00 -0.00000000000E+00 -0.45593999997E+02  0.45594000000E+02  0.51100000000E-03 0. -1.
    9900012    2    1    2    0    0  0.24645203810E+02  0.21383664638E+02  0.28617765120E+02  0.47787266542E+02  0.19999979473E+02 0.  0.
         12    1    1    2    0    0 -0.24645203810E+02 -0.21383664638E+02 -0.28617765120E+02  0.43400733458E+02  0.00000000000E+00 0. -1.
         11    1    3    3    0    0  0.13332284880E+02  0.13733629632E+02  0.95644295824E+01  0.21397212821E+02  0.51100000000E-03 0. -1.
        -11    1    3    3    0    0  0.13684175176E+02  0.52796874231E+01  0.13681754978E+02  0.20057970214E+02  0.51100000000E-03 0.  1.
         12    1    3    3    0    0 -0.23712562463E+01  0.23703475832E+01  0.53715805592E+01  0.63320835082E+01  0.00000000000E+00 0. -1.
</event>
<event>
 7    1  0.2580704E-010  0.4778727E+02  0.7816164E-02  0.1312668E+00
        -11   -1    0    0    0    0  0.00000000000E+00  0.00000000000E+00  0.45593999997E+02  0.45594000000E+02  0.51100000000E-03 0.  1.
         11   -1    0    0    0    0 -0.00000000000E+00 -0.00000000000E+00 -0.45593999997E+02  0.45594000000E+02  0.51100000000E-03 0. -1.
    9900012    2    1    2    0    0  0.35346385054E+02 -0.21208516882E+02  0.13581424549E+02  0.47787271693E+02  0.20000002959E+02 0.  0.
         12    1    1    2    0    0 -0.35346385054E+02  0.21208516882E+02 -0.13581424549E+02  0.43400728307E+02  0.00000000000E+00 0. -1.
         11    1    3    3    0    0  0.15348645124E+02 -0.14956415283E+02  0.82746693222E+01  0.22972710287E+02  0.51100000000E-03 0. -1.
        -11    1    3    3    0    0  0.15245644934E+02 -0.90252570241E+01  0.85560293904E+00  0.17737446560E+02  0.51100000000E-03 0.  1.
        -12    1    3    3    0    0  0.47520949960E+01  0.27731554252E+01  0.44511522880E+01  0.70771148468E+01  0.00000000000E+00 0.  1.
</event>
<event>
 7    1  0.2580704E-010  0.4778727E+02  0.7816164E-02  0.1312668E+00
        -11   -1    0    0    0    0  0.00000000000E+00  0.00000000000E+00  0.45593999997E+02  0.45594000000E+02  0.51100000000E-03 0. -1.
         11   -1    0    0    0    0 -0.00000000000E+00 -0.00000000000E+00 -0.45593999997E+02  0.45594000000E+02  0.51100000000E-03 0.  1.
    9900012    2    1    2    0    0 -0.20497182815E+02  0.75974044406E+01 -0.37493573571E+02  0.47787272856E+02  0.20000008258E+02 0.  0.
         12    1    1    2    0    0  0.20497182815E+02 -0.75974044406E+01  0.37493573571E+02  0.43400727144E+02  0.00000000000E+00 0. -1.
         11    1    3    3    0    0 -0.10430177106E+02  0.22975162149E+01 -0.51911154875E+01  0.11874967600E+02  0.51100000000E-03 0. -1.
        -11    1    3    3    0    0 -0.90219472922E+01 -0.93713782231E+00 -0.15496999016E+02  0.17956356507E+02  0.51100000000E-03 0.  1.
         12    1    3    3    0    0 -0.10450584160E+01  0.62370260480E+01 -0.16805459068E+02  0.17955948749E+02  0.00000000000E+00 0. -1.
</event>
<event>
 7    1  0.2580704E-010  0.4778726E+02  0.7816164E-02  0.1312668E+00
        -11   -1    0    0    0    0  0.00000000000E+00  0.00000000000E+00  0.45593999997E+02  0.45594000000E+02  0.51100000000E-03 0.  1.
         11   -1    0    0    0    0 -0.00000000000E+00 -0.00000000000E+00 -0.45593999997E+02  0.45594000000E+02  0.51100000000E-03 0. -1.
    9900012    2    1    2    0    0  0.11100163151E+02  0.39157511877E+02 -0.15069846113E+02  0.47787255534E+02  0.19999929281E+02 0.  0.
         12    1    1    2    0    0 -0.11100163151E+02 -0.39157511877E+02  0.15069846113E+02  0.43400744466E+02  0.00000000000E+00 0. -1.
         11    1    3    3    0    0  0.73966274546E+01  0.19464559577E+02 -0.51132929341E+01  0.21441197311E+02  0.51100000000E-03 0. -1.
        -11    1    3    3    0    0  0.66484412646E+01  0.54223851415E+01  0.20465546801E+00  0.85817198739E+01  0.51100000000E-03 0.  1.
         12    1    3    3    0    0 -0.29449055685E+01  0.14270567158E+02 -0.10161208647E+02  0.17764338349E+02  0.00000000000E+00 0. -1.
</event>
<event>
 7    1  0.2580704E-010  0.4778727E+02  0.7816164E-02  0.1312668E+00
        -11   -1    0    0    0    0  0.00000000000E+00  0.00000000000E+00  0.45593999997E+02  0.45594000000E+02  0.51100000000E-03 0.  1.
         11   -1    0    0    0    0 -0.00000000000E+00 -0.00000000000E+00 -0.45593999997E+02  0.45594000000E+02  0.51100000000E-03 0. -1.
    9900012    2    1    2    0    0 -0.53040399801E+00  0.16043275927E+02  0.40323135306E+02  0.47787271068E+02  0.20000000109E+02 0.  0.
         12    1    1    2    0    0  0.53040399801E+00 -0.16043275927E+02 -0.40323135306E+02  0.43400728932E+02  0.00000000000E+00 0. -1.
         11    1    3    3    0    0 -0.19315686645E+00  0.52583174169E+01  0.12005071358E+01  0.53970759932E+01  0.51100000000E-03 0. -1.
        -11    1    3    3    0    0 -0.19566334792E-01  0.61168697376E+01  0.48681146101E+01  0.78176095033E+01  0.51100000000E-03 0.  1.
         12    1    3    3    0    0 -0.31768079677E+00  0.46680887728E+01  0.34254513560E+02  0.34572585572E+02  0.00000000000E+00 0. -1.
</event>
<event>
 7    1  0.2580704E-010  0.4778727E+02  0.7816164E-02  0.1312668E+00
        -11   -1    0    0    0    0  0.00000000000E+00  0.00000000000E+00  0.45593999997E+02  0.45594000000E+02  0.51100000000E-03 0. -1.
         11   -1    0    0    0    0 -0.00000000000E+00 -0.00000000000E+00 -0.45593999997E+02  0.45594000000E+02  0.51100000000E-03 0.  1.
    9900012    2    1    2    0    0 -0.40084694809E+01  0.43186172447E+02  0.15843262827E+01  0.47787269500E+02  0.19999992957E+02 0.  0.
         12    1    1    2    0    0  0.40084694809E+01 -0.43186172447E+02 -0.15843262827E+01  0.43400730500E+02  0.00000000000E+00 0. -1.
         11    1    3    3    0    0 -0.29910879112E+01  0.58548376757E+01  0.23705281297E+01  0.69889294586E+01  0.51100000000E-03 0. -1.
        -11    1    3    3    0    0 -0.43364109378E+01  0.36974341363E+02  0.47245507570E+00  0.37230761382E+02  0.51100000000E-03 0.  1.
         12    1    3    3    0    0  0.33190293681E+01  0.35699340838E+00 -0.12586569227E+01  0.35675786591E+01  0.00000000000E+00 0. -1.
</event>
<event>
 7    1  0.2580704E-010  0.4778728E+02  0.7816164E-02  0.1312668E+00
        -11   -1    0    0    0    0  0.00000000000E+00  0.00000000000E+00  0.45593999997E+02  0.45594000000E+02  0.51100000000E-03 0.  1.
         11   -1    0    0    0    0 -0.00000000000E+00 -0.00000000000E+00 -0.45593999997E+02  0.45594000000E+02  0.51100000000E-03 0. -1.
    9900012    2    1    2    0    0  0.35033569201E+02  0.22552979362E+02 -0.12150514159E+02  0.47787276004E+02  0.20000022611E+02 0.  0.
         12    1    1    2    0    0 -0.35033569201E+02 -0.22552979362E+02  0.12150514159E+02  0.43400723996E+02  0.00000000000E+00 0. -1.
         11    1    3    3    0    0  0.17292416927E+02  0.44628577761E+01 -0.11047978061E+02  0.21000061957E+02  0.51100000000E-03 0. -1.
        -11    1    3    3    0    0  0.75056218841E+01  0.24591060774E+01  0.10973798372E+01  0.79740708133E+01  0.51100000000E-03 0.  1.
        -12    1    3    3    0    0  0.10235530391E+02  0.15631015508E+02 -0.21999159350E+01  0.18813143233E+02  0.00000000000E+00 0.  1.
</event>
<event>
 7    1  0.3119181E-010  0.4778727E+02  0.7816164E-02  0.1312668E+00
        -11   -1    0    0    0    0  0.00000000000E+00  0.00000000000E+00  0.45593999997E+02  0.45594000000E+02  0.51100000000E-03 0. -1.
         11   -1    0    0    0    0 -0.00000000000E+00 -0.00000000000E+00 -0.45593999997E+02  0.45594000000E+02  0.51100000000E-03 0.  1.
    9900012    2    1    2    0    0  0.31718400234E+02 -0.24497994772E+02 -0.16655771886E+02  0.47787269610E+02  0.19999993461E+02 0.  0.
         12    1    1    2    0    0 -0.31718400234E+02  0.24497994772E+02  0.16655771886E+02  0.43400730390E+02  0.00000000000E+00 0. -1.
         11    1    3    3    0    0  0.87329021232E+01 -0.11807592263E+02  0.70394539528E+00  0.14703004929E+02  0.51100000000E-03 0.  1.
        -11    1    3    3    0    0  0.60829481687E+01 -0.79804205107E+00 -0.64745545893E-01  0.61354153718E+01  0.51100000000E-03 0. -1.
        -12    1    3    3    0    0  0.16902549942E+02 -0.11892360457E+02 -0.17294971736E+02  0.26948849310E+02  0.00000000000E+00 0.  1.
</event>
<event>
 7    1  0.2580704E-010  0.4778727E+02  0.7816164E-02  0.1312668E+00
        -11   -1    0    0    0    0  0.00000000000E+00  0.00000000000E+00  0.45593999997E+02  0.45594000000E+02  0.51100000000E-03 0.  1.
         11   -1    0    0    0    0 -0.00000000000E+00 -0.00000000000E+00 -0.45593999997E+02  0.45594000000E+02  0.51100000000E-03 0. -1.
    9900012    2    1    2    0    0  0.25366132465E+02 -0.71933339694E+01  0.34473737136E+02  0.47787270952E+02  0.19999999577E+02 0.  0.
         12    1    1    2    0    0 -0.25366132465E+02  0.71933339694E+01 -0.34473737136E+02  0.43400729048E+02  0.00000000000E+00 0. -1.
         11    1    3    3    0    0  0.65946251813E+01  0.41440890096E+01  0.12386834890E+02  0.14632027674E+02  0.51100000000E-03 0. -1.
        -11    1    3    3    0    0  0.87755271433E+01  0.81742500939E+00  0.98717426722E+01  0.13233645149E+02  0.51100000000E-03 0.  1.
         12    1    3    3    0    0  0.99959801404E+01 -0.12154847988E+02  0.12215159573E+02  0.19921598128E+02  0.00000000000E+00 0. -1.
</event>
<event>
 7    1  0.2580704E-010  0.4778727E+02  0.7816164E-02  0.1312668E+00
        -11   -1    0    0    0    0  0.00000000000E+00  0.00000000000E+00  0.45593999997E+02  0.45594000000E+02  0.51100000000E-03 0. -1.
         11   -1    0    0    0    0 -0.00000000000E+00 -0.00000000000E+00 -0.45593999997E+02  0.45594000000E+02  0.51100000000E-03 0.  1.
    9900012    2    1    2    0    0 -0.24177931264E+02  0.16795418849E+02 -0.31889890724E+02  0.47787267461E+02  0.19999983664E+02 0.  0.
         12    1    1    2    0    0  0.24177931264E+02 -0.16795418849E+02  0.31889890724E+02  0.43400732539E+02  0.00000000000E+00 0. -1.
         11    1    3    3    0    0 -0.10883519196E+02  0.97804746265E+01 -0.20239892776E+02  0.24975226402E+02  0.51100000000E-03 0. -1.
        -11    1    3    3    0    0  0.19756233104E+01  0.90186016710E+00 -0.42565215965E+01  0.47785369716E+01  0.51100000000E-03 0.  1.
         12    1    3    3    0    0 -0.15270035378E+02  0.61130840557E+01 -0.73934763514E+01  0.18033504088E+02  0.00000000000E+00 0. -1.
</event>
<event>
 7    1  0.2580704E-010  0.4778727E+02  0.7816164E-02  0.1312668E+00
        -11   -1    0    0    0    0  0.00000000000E+00  0.00000000000E+00  0.45593999997E+02  0.45594000000E+02  0.51100000000E-03 0.  1.
         11   -1    0    0    0    0 -0.00000000000E+00 -0.00000000000E+00 -0.45593999997E+02  0.45594000000E+02  0.51100000000E-03 0. -1.
    9900012    2    1    2    0    0  0.33139794671E+02  0.47130537853E+01  0.27625429146E+02  0.47787271869E+02  0.20000003758E+02 0.  0.
         12    1    1    2    0    0 -0.33139794671E+02 -0.47130537853E+01 -0.27625429146E+02  0.43400728131E+02  0.00000000000E+00 0. -1.
         11    1    3    3    0    0  0.16997175671E+02  0.29453949803E+01  0.11565501652E+02  0.20768730368E+02  0.51100000000E-03 0. -1.
        -11    1    3    3    0    0  0.13229312672E+02  0.75636877366E+01  0.11119032187E+02  0.18864171411E+02  0.51100000000E-03 0.  1.
         12    1    3    3    0    0  0.29133063279E+01 -0.57960289316E+01  0.49408953068E+01  0.81543700903E+01  0.00000000000E+00 0. -1.
</event>
<event>
 7    1  0.2580704E-010  0.4778727E+02  0.7816164E-02  0.1312668E+00
        -11   -1    0    0    0    0  0.00000000000E+00  0.00000000000E+00  0.45593999997E+02  0.45594000000E+02  0.51100000000E-03 0.  1.
         11   -1    0    0    0    0 -0.00000000000E+00 -0.00000000000E+00 -0.45593999997E+02  0.45594000000E+02  0.51100000000E-03 0. -1.
    9900012    2    1    2    0    0 -0.22334631095E+02  0.73824800375E+01  0.36473090093E+02  0.47787273525E+02  0.20000011309E+02 0.  0.
         12    1    1    2    0    0  0.22334631095E+02 -0.73824800375E+01 -0.36473090093E+02  0.43400726475E+02  0.00000000000E+00 0. -1.
         11    1    3    3    0    0 -0.38691705856E+01  0.42018640081E+01  0.18102240229E+02  0.18982024226E+02  0.51100000000E-03 0. -1.
        -11    1    3    3    0    0 -0.44502912048E+01  0.59453358328E+01  0.92260191541E+01  0.11843628653E+02  0.51100000000E-03 0.  1.
        -12    1    3    3    0    0 -0.14015169304E+02 -0.27647198034E+01  0.91448307101E+01  0.16961620646E+02  0.00000000000E+00 0.  1.
</event>
<event>
 7    1  0.2580704E-010  0.4778727E+02  0.7816164E-02  0.1312668E+00
        -11   -1    0    0    0    0  0.00000000000E+00  0.00000000000E+00  0.45593999997E+02  0.45594000000E+02  0.51100000000E-03 0.  1.
         11   -1    0    0    0    0 -0.00000000000E+00 -0.00000000000E+00 -0.45593999997E+02  0.45594000000E+02  0.51100000000E-03 0. -1.
    9900012    2    1    2    0    0 -0.37776891273E+02 -0.11766680158E+01  0.21334134123E+02  0.47787270275E+02  0.19999996493E+02 0.  0.
         12    1    1    2    0    0  0.37776891273E+02  0.11766680158E+01 -0.21334134123E+02  0.43400729725E+02  0.00000000000E+00 0. -1.
         11    1    3    3    0    0 -0.44376058787E+01 -0.22098825073E+01  0.82803026019E+00  0.50260880418E+01  0.51100000000E-03 0. -1.
        -11    1    3    3    0    0 -0.21276792205E+02 -0.62884486534E+00  0.21857698210E+02  0.30509937786E+02  0.51100000000E-03 0.  1.
        -12    1    3    3    0    0 -0.12062493189E+02  0.16620593568E+01 -0.13515943465E+01  0.12251244448E+02  0.00000000000E+00 0.  1.
</event>
<event>
 7    1  0.2580704E-010  0.4778727E+02  0.7816164E-02  0.1312668E+00
        -11   -1    0    0    0    0  0.00000000000E+00  0.00000000000E+00  0.45593999997E+02  0.45594000000E+02  0.51100000000E-03 0.  1.
         11   -1    0    0    0    0 -0.00000000000E+00 -0.00000000000E+00 -0.45593999997E+02  0.45594000000E+02  0.51100000000E-03 0. -1.
    9900012    2    1    2    0    0  0.18864313864E+02 -0.56194626005E+01  0.38680521991E+02  0.47787268681E+02  0.19999989226E+02 0.  0.
         12    1    1    2    0    0 -0.18864313864E+02  0.56194626005E+01 -0.38680521991E+02  0.43400731319E+02  0.00000000000E+00 0. -1.
         11    1    3    3    0    0  0.10108638195E+02 -0.60946815019E+01  0.21841982930E+02  0.24827443029E+02  0.51100000000E-03 0. -1.
        -11    1    3    3    0    0  0.24494030399E+01 -0.35000421625E+01  0.14546426333E+02  0.15160751621E+02  0.51100000000E-03 0.  1.
         12    1    3    3    0    0  0.63062726289E+01  0.39752610639E+01  0.22921127284E+01  0.77990740320E+01  0.00000000000E+00 0. -1.
</event>
<event>
 7    1  0.2580704E-010  0.4778724E+02  0.7816164E-02  0.1312668E+00
        -11   -1    0    0    0    0  0.00000000000E+00  0.00000000000E+00  0.45593999997E+02  0.45594000000E+02  0.51100000000E-03 0.  1.
         11   -1    0    0    0    0 -0.00000000000E+00 -0.00000000000E+00 -0.45593999997E+02  0.45594000000E+02  0.51100000000E-03 0. -1.
    9900012    2    1    2    0    0  0.55285775052E+01  0.38887251057E+02  0.18461909405E+02  0.47787244674E+02  0.19999879766E+02 0.  0.
         12    1    1    2    0    0 -0.55285775052E+01 -0.38887251057E+02 -0.18461909405E+02  0.43400755326E+02  0.00000000000E+00 0. -1.
         11    1    3    3    0    0  0.55255452974E+01  0.71679276620E+01  0.13973233664E+01  0.91576935226E+01  0.51100000000E-03 0. -1.
        -11    1    3    3    0    0  0.67400168493E+01  0.19879850877E+02  0.94080895748E+01  0.23003226899E+02  0.51100000000E-03 0.  1.
        -12    1    3    3    0    0 -0.67369846415E+01  0.11839472517E+02  0.76564964639E+01  0.15626324253E+02  0.00000000000E+00 0.  1.
</event>
<event>
 7    1  0.2580704E-010  0.4778727E+02  0.7816164E-02  0.1312668E+00
        -11   -1    0    0    0    0  0.00000000000E+00  0.00000000000E+00  0.45593999997E+02  0.45594000000E+02  0.51100000000E-03 0.  1.
         11   -1    0    0    0    0 -0.00000000000E+00 -0.00000000000E+00 -0.45593999997E+02  0.45594000000E+02  0.51100000000E-03 0. -1.
    9900012    2    1    2    0    0 -0.12579222791E+02  0.40481834418E+02  0.93063036771E+01  0.47787273600E+02  0.20000011653E+02 0.  0.
         12    1    1    2    0    0  0.12579222791E+02 -0.40481834418E+02 -0.93063036771E+01  0.43400726400E+02  0.00000000000E+00 0. -1.
         11    1    3    3    0    0  0.11458388600E+01  0.13241033864E+02  0.17298825612E+01  0.13402627296E+02  0.51100000000E-03 0. -1.
        -11    1    3    3    0    0  0.50119882907E+00  0.58591645221E+00  0.38680985923E+01  0.39441964119E+01  0.51100000000E-03 0.  1.
        -12    1    3    3    0    0 -0.14226260480E+02  0.26654884102E+02  0.37083225236E+01  0.30440449893E+02  0.00000000000E+00 0.  1.
</event>
<event>
 7    1  0.2580704E-010  0.4778727E+02  0.7816164E-02  0.1312668E+00
        -11   -1    0    0    0    0  0.00000000000E+00  0.00000000000E+00  0.45593999997E+02  0.45594000000E+02  0.51100000000E-03 0.  1.
         11   -1    0    0    0    0 -0.00000000000E+00 -0.00000000000E+00 -0.45593999997E+02  0.45594000000E+02  0.51100000000E-03 0. -1.
    9900012    2    1    2    0    0 -0.26287312400E+02  0.33398780108E+02 -0.87819112594E+01  0.47787271074E+02  0.20000000136E+02 0.  0.
         12    1    1    2    0    0  0.26287312400E+02 -0.33398780108E+02  0.87819112594E+01  0.43400728926E+02  0.00000000000E+00 0. -1.
         11    1    3    3    0    0  0.19174953936E+01  0.30014059478E+01 -0.73649563507E-01  0.35623939657E+01  0.51100000000E-03 0. -1.
        -11    1    3    3    0    0 -0.46565514461E+01  0.12830210211E+02 -0.53276402958E+01  0.14652014087E+02  0.51100000000E-03 0.  1.
         12    1    3    3    0    0 -0.23548256347E+02  0.17567163950E+02 -0.33806214001E+01  0.29572863021E+02  0.00000000000E+00 0. -1.
</event>
<event>
 7    1  0.2580704E-010  0.4778727E+02  0.7816164E-02  0.1312668E+00
        -11   -1    0    0    0    0  0.00000000000E+00  0.00000000000E+00  0.45593999997E+02  0.45594000000E+02  0.51100000000E-03 0. -1.
         11   -1    0    0    0    0 -0.00000000000E+00 -0.00000000000E+00 -0.45593999997E+02  0.45594000000E+02  0.51100000000E-03 0.  1.
    9900012    2    1    2    0    0 -0.39613621918E+02  0.40226352415E+01  0.17268542246E+02  0.47787272045E+02  0.20000004560E+02 0.  0.
         12    1    1    2    0    0  0.39613621918E+02 -0.40226352415E+01 -0.17268542246E+02  0.43400727955E+02  0.00000000000E+00 0. -1.
         11    1    3    3    0    0 -0.16467323403E+02 -0.18636958047E+01  0.12767472774E+02  0.20920192720E+02  0.51100000000E-03 0. -1.
        -11    1    3    3    0    0 -0.17704332018E+02  0.25304574221E+01  0.79850899743E+01  0.19585919665E+02  0.51100000000E-03 0.  1.
        -12    1    3    3    0    0 -0.54419664962E+01  0.33558736241E+01 -0.34840205022E+01  0.72811596595E+01  0.00000000000E+00 0.  1.
</event>
<event>
 7    1  0.2580704E-010  0.4778727E+02  0.7816164E-02  0.1312668E+00
        -11   -1    0    0    0    0  0.00000000000E+00  0.00000000000E+00  0.45593999997E+02  0.45594000000E+02  0.51100000000E-03 0.  1.
         11   -1    0    0    0    0 -0.00000000000E+00 -0.00000000000E+00 -0.45593999997E+02  0.45594000000E+02  0.51100000000E-03 0. -1.
    9900012    2    1    2    0    0  0.23329095834E+02 -0.36550521660E+02 -0.18535583962E+01  0.47787273914E+02  0.20000013083E+02 0.  0.
         12    1    1    2    0    0 -0.23329095834E+02  0.36550521660E+02  0.18535583962E+01  0.43400726086E+02  0.00000000000E+00 0. -1.
         11    1    3    3    0    0  0.93878574145E+00 -0.80268505851E+01 -0.15131574219E+01  0.82220006463E+01  0.51100000000E-03 0. -1.
        -11    1    3    3    0    0  0.20959774920E+02 -0.24720634981E+02 -0.56296502709E+01  0.32895515210E+02  0.51100000000E-03 0.  1.
         12    1    3    3    0    0  0.14305351731E+01 -0.38030360948E+01  0.52892492966E+01  0.66697580571E+01  0.00000000000E+00 0. -1.
</event>
<event>
 7    1  0.2580704E-010  0.4778728E+02  0.7816164E-02  0.1312668E+00
        -11   -1    0    0    0    0  0.00000000000E+00  0.00000000000E+00  0.45593999997E+02  0.45594000000E+02  0.51100000000E-03 0.  1.
         11   -1    0    0    0    0 -0.00000000000E+00 -0.00000000000E+00 -0.45593999997E+02  0.45594000000E+02  0.51100000000E-03 0. -1.
    9900012    2    1    2    0    0  0.12591694164E+02 -0.52320645421E+01  0.41203124877E+02  0.47787276954E+02  0.20000026943E+02 0.  0.
         12    1    1    2    0    0 -0.12591694164E+02  0.52320645421E+01 -0.41203124877E+02  0.43400723046E+02  0.00000000000E+00 0. -1.
         11    1    3    3    0    0 -0.23117596487E+01 -0.24004576522E+01  0.93714478443E+01  0.99463794706E+01  0.51100000000E-03 0. -1.
        -11    1    3    3    0    0  0.53294310440E+01 -0.73350691825E+01  0.20056209009E+02  0.22010397435E+02  0.51100000000E-03 0.  1.
         12    1    3    3    0    0  0.95740227690E+01  0.45034622926E+01  0.11775468024E+02  0.15830500048E+02  0.00000000000E+00 0. -1.
</event>
<event>
 7    1  0.2580704E-010  0.4778727E+02  0.7816164E-02  0.1312668E+00
        -11   -1    0    0    0    0  0.00000000000E+00  0.00000000000E+00  0.45593999997E+02  0.45594000000E+02  0.51100000000E-03 0.  1.
         11   -1    0    0    0    0 -0.00000000000E+00 -0.00000000000E+00 -0.45593999997E+02  0.45594000000E+02  0.51100000000E-03 0. -1.
    9900012    2    1    2    0    0  0.18267264950E+02  0.22784971894E+02  0.32105687897E+02  0.47787272952E+02  0.20000008699E+02 0.  0.
         12    1    1    2    0    0 -0.18267264950E+02 -0.22784971894E+02 -0.32105687897E+02  0.43400727048E+02  0.00000000000E+00 0. -1.
         11    1    3    3    0    0  0.17806243337E+01 -0.12469539811E+01  0.88869200772E+00  0.23484656681E+01  0.51100000000E-03 0. -1.
        -11    1    3    3    0    0 -0.24889002787E+01  0.56575201329E+01  0.90321898656E+01  0.10944524324E+02  0.51100000000E-03 0.  1.
        -12    1    3    3    0    0  0.18975540895E+02  0.18374405742E+02  0.22184806023E+02  0.34494282960E+02  0.00000000000E+00 0.  1.
</event>
<event>
 7    1  0.2580704E-010  0.4778727E+02  0.7816164E-02  0.1312668E+00
        -11   -1    0    0    0    0  0.00000000000E+00  0.00000000000E+00  0.45593999997E+02  0.45594000000E+02  0.51100000000E-03 0. -1.
         11   -1    0    0    0    0 -0.00000000000E+00 -0.00000000000E+00 -0.45593999997E+02  0.45594000000E+02  0.51100000000E-03 0.  1.
    9900012    2    1    2    0    0 -0.68760221449E+01  0.28533632095E+01 -0.42757479885E+02  0.47787269035E+02  0.19999990840E+02 0.  0.
         12    1    1    2    0    0  0.68760221449E+01 -0.28533632095E+01  0.42757479885E+02  0.43400730965E+02  0.00000000000E+00 0. -1.
         11    1    3    3    0    0  0.39716261352E+01 -0.47798455468E+01 -0.13781035648E+02  0.15117462796E+02  0.51100000000E-03 0. -1.
        -11    1    3    3    0    0 -0.24288423206E+01 -0.10779251092E+01 -0.81955583132E+01  0.86155890040E+01  0.51100000000E-03 0.  1.
        -12    1    3    3    0    0 -0.84188059595E+01  0.87111338656E+01 -0.20780885924E+02  0.24054217235E+02  0.00000000000E+00 0.  1.
</event>
<event>
 7    1  0.2580704E-010  0.4778727E+02  0.7816164E-02  0.1312668E+00
        -11   -1    0    0    0    0  0.00000000000E+00  0.00000000000E+00  0.45593999997E+02  0.45594000000E+02  0.51100000000E-03 0.  1.
         11   -1    0    0    0    0 -0.00000000000E+00 -0.00000000000E+00 -0.45593999997E+02  0.45594000000E+02  0.51100000000E-03 0. -1.
    9900012    2    1    2    0    0  0.50991536498E+00 -0.30631190270E+01  0.43289496472E+02  0.47787271704E+02  0.20000003006E+02 0.  0.
         12    1    1    2    0    0 -0.50991536498E+00  0.30631190270E+01 -0.43289496472E+02  0.43400728296E+02  0.00000000000E+00 0. -1.
         11    1    3    3    0    0  0.10751747418E+01 -0.48195491930E+01  0.61911583145E+01  0.79192484925E+01  0.51100000000E-03 0. -1.
        -11    1    3    3    0    0  0.14493494306E+01  0.53600517920E+01  0.48981069329E+01  0.74042029127E+01  0.51100000000E-03 0.  1.
         12    1    3    3    0    0 -0.20146088074E+01 -0.36036216260E+01  0.32200231224E+02  0.32463820299E+02  0.00000000000E+00 0. -1.
</event>
<event>
 7    1  0.2580704E-010  0.4778727E+02  0.7816164E-02  0.1312668E+00
        -11   -1    0    0    0    0  0.00000000000E+00  0.00000000000E+00  0.45593999997E+02  0.45594000000E+02  0.51100000000E-03 0. -1.
         11   -1    0    0    0    0 -0.00000000000E+00 -0.00000000000E+00 -0.45593999997E+02  0.45594000000E+02  0.51100000000E-03 0.  1.
    9900012    2    1    2    0    0 -0.24026544123E+02  0.33853190851E+02 -0.12661348554E+02  0.47787273042E+02  0.20000009106E+02 0.  0.
         12    1    1    2    0    0  0.24026544123E+02 -0.33853190851E+02  0.12661348554E+02  0.43400726958E+02  0.00000000000E+00 0. -1.
         11    1    3    3    0    0 -0.31978330768E+01  0.39724514250E+01 -0.16972387773E+01  0.53746745427E+01  0.51100000000E-03 0. -1.
        -11    1    3    3    0    0 -0.10915759025E+02  0.28125932348E+02 -0.11605627651E+02  0.32325105707E+02  0.51100000000E-03 0.  1.
         12    1    3    3    0    0 -0.99129520207E+01  0.17548070787E+01  0.64151787428E+00  0.10087492792E+02  0.00000000000E+00 0. -1.
</event>
<event>
 7    1  0.2580704E-010  0.4778727E+02  0.7816164E-02  0.1312668E+00
        -11   -1    0    0    0    0  0.00000000000E+00  0.00000000000E+00  0.45593999997E+02  0.45594000000E+02  0.51100000000E-03 0.  1.
         11   -1    0    0    0    0 -0.00000000000E+00 -0.00000000000E+00 -0.45593999997E+02  0.45594000000E+02  0.51100000000E-03 0. -1.
    9900012    2    1    2    0    0  0.35655293130E+02 -0.46538670120E+01  0.24303605941E+02  0.47787266503E+02  0.19999979293E+02 0.  0.
         12    1    1    2    0    0 -0.35655293130E+02  0.46538670120E+01 -0.24303605941E+02  0.43400733497E+02  0.00000000000E+00 0. -1.
         11    1    3    3    0    0  0.26837646127E+02  0.68846897967E-01  0.86690287903E+01  0.28203121281E+02  0.51100000000E-03 0. -1.
        -11    1    3    3    0    0  0.41524629876E+01 -0.33983261923E+01  0.32243224576E+01  0.62600179988E+01  0.51100000000E-03 0.  1.
        -12    1    3    3    0    0  0.46651840153E+01 -0.13243877177E+01  0.12410254693E+02  0.13324127223E+02  0.00000000000E+00 0.  1.
</event>
<event>
 7    1  0.2580704E-010  0.4778727E+02  0.7816164E-02  0.1312668E+00
        -11   -1    0    0    0    0  0.00000000000E+00  0.00000000000E+00  0.45593999997E+02  0.45594000000E+02  0.51100000000E-03 0. -1.
         11   -1    0    0    0    0 -0.00000000000E+00 -0.00000000000E+00 -0.45593999997E+02  0.45594000000E+02  0.51100000000E-03 0.  1.
    9900012    2    1    2    0    0 -0.31856718413E+02 -0.11225152822E+02 -0.27253785417E+02  0.47787269782E+02  0.19999994243E+02 0.  0.
         12    1    1    2    0    0  0.31856718413E+02  0.11225152822E+02  0.27253785417E+02  0.43400730218E+02  0.00000000000E+00 0. -1.
         11    1    3    3    0    0 -0.80844445671E+00 -0.42974780944E+01 -0.57434237638E+01  0.72186437232E+01  0.51100000000E-03 0. -1.
        -11    1    3    3    0    0 -0.10160937105E+02 -0.80461244465E+01 -0.48918537549E+01  0.13853338763E+02  0.51100000000E-03 0.  1.
         12    1    3    3    0    0 -0.20887336852E+02  0.11184497191E+01 -0.16618507898E+02  0.26715287295E+02  0.00000000000E+00 0. -1.
</event>
<event>
 7    1  0.2580704E-010  0.4778728E+02  0.7816164E-02  0.1312668E+00
        -11   -1    0    0    0    0  0.00000000000E+00  0.00000000000E+00  0.45593999997E+02  0.45594000000E+02  0.51100000000E-03 0.  1.
         11   -1    0    0    0    0 -0.00000000000E+00 -0.00000000000E+00 -0.45593999997E+02  0.45594000000E+02  0.51100000000E-03 0. -1.
    9900012    2    1    2    0    0  0.43133265781E+02  0.35052015907E+01  0.32951250432E+01  0.47787275304E+02  0.20000019420E+02 0.  0.
         12    1    1    2    0    0 -0.43133265781E+02 -0.35052015907E+01 -0.32951250432E+01  0.43400724696E+02  0.00000000000E+00 0. -1.
         11    1    3    3    0    0  0.21586098242E+02  0.95548674888E+01 -0.20602549006E+01  0.23695986592E+02  0.51100000000E-03 0.  1.
        -11    1    3    3    0    0  0.15349908448E+00 -0.13032583755E+01  0.12177206513E+01  0.17902201563E+01  0.51100000000E-03 0. -1.
         12    1    3    3    0    0  0.21393668454E+02 -0.47464075226E+01  0.41376592924E+01  0.22301068555E+02  0.00000000000E+00 0. -1.
</event>
<event>
 7    1  0.2580704E-010  0.4778726E+02  0.7816164E-02  0.1312668E+00
        -11   -1    0    0    0    0  0.00000000000E+00  0.00000000000E+00  0.45593999997E+02  0.45594000000E+02  0.51100000000E-03 0. -1.
         11   -1    0    0    0    0 -0.00000000000E+00 -0.00000000000E+00 -0.45593999997E+02  0.45594000000E+02  0.51100000000E-03 0.  1.
    9900012    2    1    2    0    0  0.12677410668E+02 -0.17188239410E+02 -0.37781895091E+02  0.47787263694E+02  0.19999966485E+02 0.  0.
         12    1    1    2    0    0 -0.12677410668E+02  0.17188239410E+02  0.37781895091E+02  0.43400736306E+02  0.00000000000E+00 0. -1.
         11    1    3    3    0    0  0.37150954652E+01 -0.28651982580E+01 -0.77565074111E+00  0.47553054273E+01  0.51100000000E-03 0. -1.
        -11    1    3    3    0    0  0.39388403470E+01  0.10961793433E+01 -0.22223399779E+01  0.46534790931E+01  0.51100000000E-03 0.  1.
        -12    1    3    3    0    0  0.50234748559E+01 -0.15419220495E+02 -0.34783904372E+02  0.38378479173E+02  0.00000000000E+00 0.  1.
</event>
<event>
 7    1  0.2580704E-010  0.4778727E+02  0.7816164E-02  0.1312668E+00
        -11   -1    0    0    0    0  0.00000000000E+00  0.00000000000E+00  0.45593999997E+02  0.45594000000E+02  0.51100000000E-03 0. -1.
         11   -1    0    0    0    0 -0.00000000000E+00 -0.00000000000E+00 -0.45593999997E+02  0.45594000000E+02  0.51100000000E-03 0.  1.
    9900012    2    1    2    0    0 -0.48949624676E+01  0.43122780839E+02 -0.29713061337E+00  0.47787272225E+02  0.20000005381E+02 0.  0.
         12    1    1    2    0    0  0.48949624676E+01 -0.43122780839E+02  0.29713061337E+00  0.43400727775E+02  0.00000000000E+00 0. -1.
         11    1    3    3    0    0 -0.39979424099E+01  0.33332290484E+02 -0.34007808649E+01  0.33743005841E+02  0.51100000000E-03 0. -1.
        -11    1    3    3    0    0  0.34507878245E+01  0.83318817356E+01  0.12781740046E+01  0.91083433682E+01  0.51100000000E-03 0.  1.
         12    1    3    3    0    0 -0.43478078822E+01  0.14586086187E+01  0.18254762470E+01  0.49359230151E+01  0.00000000000E+00 0. -1.
</event>
<event>
 7    1  0.2580704E-010  0.4778727E+02  0.7816164E-02  0.1312668E+00
        -11   -1    0    0    0    0  0.00000000000E+00  0.00000000000E+00  0.45593999997E+02  0.45594000000E+02  0.51100000000E-03 0.  1.
         11   -1    0    0    0    0 -0.00000000000E+00 -0.00000000000E+00 -0.45593999997E+02  0.45594000000E+02  0.51100000000E-03 0. -1.
    9900012    2    1    2    0    0 -0.87751857741E+01  0.74858388843E+01  0.41839949159E+02  0.47787274029E+02  0.20000013608E+02 0.  0.
         12    1    1    2    0    0  0.87751857741E+01 -0.74858388843E+01 -0.41839949159E+02  0.43400725971E+02  0.00000000000E+00 0. -1.
         11    1    3    3    0    0  0.31703603117E+00  0.25260833265E+01  0.90891129573E+01  0.94389397408E+01  0.51100000000E-03 0. -1.
        -11    1    3    3    0    0 -0.12203427834E+02 -0.19440656996E+01  0.19474409601E+02  0.23064164236E+02  0.51100000000E-03 0.  1.
        -12    1    3    3    0    0  0.31112060283E+01  0.69038212574E+01  0.13276426601E+02  0.15284170053E+02  0.00000000000E+00 0.  1.
</event>
<event>
 7    1  0.2580704E-010  0.4778727E+02  0.7816164E-02  0.1312668E+00
        -11   -1    0    0    0    0  0.00000000000E+00  0.00000000000E+00  0.45593999997E+02  0.45594000000E+02  0.51100000000E-03 0. -1.
         11   -1    0    0    0    0 -0.00000000000E+00 -0.00000000000E+00 -0.45593999997E+02  0.45594000000E+02  0.51100000000E-03 0.  1.
    9900012    2    1    2    0    0 -0.11244711715E+02 -0.20581810788E+02 -0.36518061180E+02  0.47787271098E+02  0.20000000246E+02 0.  0.
         12    1    1    2    0    0  0.11244711715E+02  0.20581810788E+02  0.36518061180E+02  0.43400728902E+02  0.00000000000E+00 0. -1.
         11    1    3    3    0    0 -0.28889767475E+01 -0.93225015597E+00  0.26578434753E+00  0.30472805223E+01  0.51100000000E-03 0. -1.
        -11    1    3    3    0    0 -0.19409082165E+01 -0.17962779000E+02 -0.21529710359E+02  0.28106173388E+02  0.51100000000E-03 0.  1.
        -12    1    3    3    0    0 -0.64148267505E+01 -0.16867816316E+01 -0.15254135168E+02  0.16633817188E+02  0.00000000000E+00 0.  1.
</event>
<event>
 7    1  0.2580704E-010  0.4778727E+02  0.7816164E-02  0.1312668E+00
        -11   -1    0    0    0    0  0.00000000000E+00  0.00000000000E+00  0.45593999997E+02  0.45594000000E+02  0.51100000000E-03 0.  1.
         11   -1    0    0    0    0 -0.00000000000E+00 -0.00000000000E+00 -0.45593999997E+02  0.45594000000E+02  0.51100000000E-03 0. -1.
    9900012    2    1    2    0    0 -0.63395828455E+01 -0.18902888922E+02  0.38550151178E+02  0.47787266411E+02  0.19999978872E+02 0.  0.
         12    1    1    2    0    0  0.63395828455E+01  0.18902888922E+02 -0.38550151178E+02  0.43400733589E+02  0.00000000000E+00 0. -1.
         11    1    3    3    0    0 -0.15949698374E+01 -0.81843451959E+01  0.29289440188E+02  0.30453222191E+02  0.51100000000E-03 0.  1.
        -11    1    3    3    0    0 -0.33586510417E+01 -0.35150255604E+01  0.87134986414E+01  0.99780258742E+01  0.51100000000E-03 0. -1.
        -12    1    3    3    0    0 -0.13859619664E+01 -0.72035181659E+01  0.54721234888E+00  0.73560183451E+01  0.00000000000E+00 0.  1.
</event>
<event>
 7    1  0.2580704E-010  0.4778727E+02  0.7816164E-02  0.1312668E+00
        -11   -1    0    0    0    0  0.00000000000E+00  0.00000000000E+00  0.45593999997E+02  0.45594000000E+02  0.51100000000E-03 0. -1.
         11   -1    0    0    0    0 -0.00000000000E+00 -0.00000000000E+00 -0.45593999997E+02  0.45594000000E+02  0.51100000000E-03 0.  1.
    9900012    2    1    2    0    0  0.27706864686E+02  0.32792715623E+02 -0.63710968308E+01  0.47787269321E+02  0.19999992142E+02 0.  0.
         12    1    1    2    0    0 -0.27706864686E+02 -0.32792715623E+02  0.63710968308E+01  0.43400730679E+02  0.00000000000E+00 0. -1.
         11    1    3    3    0    0  0.11438806596E+02  0.15388688393E+02  0.16503893916E+00  0.19175120988E+02  0.51100000000E-03 0. -1.
        -11    1    3    3    0    0  0.17389593185E+02  0.19055368941E+02 -0.65499400780E+01  0.26615911630E+02  0.51100000000E-03 0.  1.
         12    1    3    3    0    0 -0.11215350959E+01 -0.16513417102E+01  0.13804308041E-01  0.19962367029E+01  0.00000000000E+00 0. -1.
</event>
<event>
 7    1  0.2580704E-010  0.4778727E+02  0.7816164E-02  0.1312668E+00
        -11   -1    0    0    0    0  0.00000000000E+00  0.00000000000E+00  0.45593999997E+02  0.45594000000E+02  0.51100000000E-03 0. -1.
         11   -1    0    0    0    0 -0.00000000000E+00 -0.00000000000E+00 -0.45593999997E+02  0.45594000000E+02  0.51100000000E-03 0.  1.
    9900012    2    1    2    0    0  0.25772943739E+02  0.34418458672E+02 -0.58948060856E+01  0.47787266537E+02  0.19999979447E+02 0.  0.
         12    1    1    2    0    0 -0.25772943739E+02 -0.34418458672E+02  0.58948060856E+01  0.43400733463E+02  0.00000000000E+00 0. -1.
         11    1    3    3    0    0  0.64758729112E+01  0.28416409610E+01  0.10479470236E+01  0.71491290755E+01  0.51100000000E-03 0. -1.
        -11    1    3    3    0    0  0.14338737249E+02  0.11380796973E+02  0.11045558345E+01  0.18339628390E+02  0.51100000000E-03 0.  1.
        -12    1    3    3    0    0  0.49583335793E+01  0.20196020738E+02 -0.80473089438E+01  0.22298509071E+02  0.00000000000E+00 0.  1.
</event>
<event>
 7    1  0.2580704E-010  0.4778727E+02  0.7816164E-02  0.1312668E+00
        -11   -1    0    0    0    0  0.00000000000E+00  0.00000000000E+00  0.45593999997E+02  0.45594000000E+02  0.51100000000E-03 0.  1.
         11   -1    0    0    0    0 -0.00000000000E+00 -0.00000000000E+00 -0.45593999997E+02  0.45594000000E+02  0.51100000000E-03 0. -1.
    9900012    2    1    2    0    0 -0.12599593870E+02  0.32341080880E+02 -0.26056246000E+02  0.47787271506E+02  0.20000002106E+02 0.  0.
         12    1    1    2    0    0  0.12599593870E+02 -0.32341080880E+02  0.26056246000E+02  0.43400728494E+02  0.00000000000E+00 0. -1.
         11    1    3    3    0    0 -0.49013462639E+00  0.34046797333E+01 -0.43739250388E+01  0.55644673190E+01  0.51100000000E-03 0. -1.
        -11    1    3    3    0    0 -0.15181627456E+02  0.19042122625E+02 -0.92773917476E+01  0.26060587948E+02  0.51100000000E-03 0.  1.
        -12    1    3    3    0    0  0.30721682121E+01  0.98942785217E+01 -0.12404929213E+02  0.16162216240E+02  0.00000000000E+00 0.  1.
</event>
<event>
 7    1  0.2580704E-010  0.4778727E+02  0.7816164E-02  0.1312668E+00
        -11   -1    0    0    0    0  0.00000000000E+00  0.00000000000E+00  0.45593999997E+02  0.45594000000E+02  0.51100000000E-03 0.  1.
         11   -1    0    0    0    0 -0.00000000000E+00 -0.00000000000E+00 -0.45593999997E+02  0.45594000000E+02  0.51100000000E-03 0. -1.
    9900012    2    1    2    0    0 -0.34585365355E+01 -0.39372705104E+02  0.17929075763E+02  0.47787272588E+02  0.20000007038E+02 0.  0.
         12    1    1    2    0    0  0.34585365355E+01  0.39372705104E+02 -0.17929075763E+02  0.43400727412E+02  0.00000000000E+00 0. -1.
         11    1    3    3    0    0  0.43578450730E+01 -0.65780239229E+01  0.50152917392E+01  0.93495649044E+01  0.51100000000E-03 0.  1.
        -11    1    3    3    0    0  0.22374278239E+00  0.92840690295E+00 -0.70852019245E+00  0.11891178808E+01  0.51100000000E-03 0. -1.
        -12    1    3    3    0    0 -0.80401243909E+01 -0.33723088084E+02  0.13622304216E+02  0.37248589803E+02  0.00000000000E+00 0.  1.
</event>
<event>
 7    1  0.3452120E-010  0.4778727E+02  0.7816164E-02  0.1312668E+00
        -11   -1    0    0    0    0  0.00000000000E+00  0.00000000000E+00  0.45593999997E+02  0.45594000000E+02  0.51100000000E-03 0.  1.
         11   -1    0    0    0    0 -0.00000000000E+00 -0.00000000000E+00 -0.45593999997E+02  0.45594000000E+02  0.51100000000E-03 0. -1.
    9900012    2    1    2    0    0 -0.36039207607E+02  0.20231420900E+02  0.13247217575E+02  0.47787266711E+02  0.19999980240E+02 0.  0.
         12    1    1    2    0    0  0.36039207607E+02 -0.20231420900E+02 -0.13247217575E+02  0.43400733289E+02  0.00000000000E+00 0. -1.
         11    1    3    3    0    0 -0.71544501185E+01 -0.43211863425E+00  0.47361169145E+01  0.85909072106E+01  0.51100000000E-03 0. -1.
        -11    1    3    3    0    0 -0.12926320125E+02  0.56052947471E+01 -0.30202063273E+01  0.14409397201E+02  0.51100000000E-03 0.  1.
        -12    1    3    3    0    0 -0.15958437364E+02  0.15058244787E+02  0.11531306988E+02  0.24786962299E+02  0.00000000000E+00 0.  1.
</event>
<event>
 7    1  0.2580704E-010  0.4778726E+02  0.7816164E-02  0.1312668E+00
        -11   -1    0    0    0    0  0.00000000000E+00  0.00000000000E+00  0.45593999997E+02  0.45594000000E+02  0.51100000000E-03 0.  1.
         11   -1    0    0    0    0 -0.00000000000E+00 -0.00000000000E+00 -0.45593999997E+02  0.45594000000E+02  0.51100000000E-03 0. -1.
    9900012    2    1    2    0    0 -0.40877770405E+01  0.38348928965E+02  0.19906633141E+02  0.47787259028E+02  0.19999945211E+02 0.  0.
         12    1    1    2    0    0  0.40877770405E+01 -0.38348928965E+02 -0.19906633141E+02  0.43400740972E+02  0.00000000000E+00 0. -1.
         11    1    3    3    0    0  0.22553715645E+01  0.22954929836E+02  0.67403455316E+01  0.24030142796E+02  0.51100000000E-03 0. -1.
        -11    1    3    3    0    0  0.25286954520E+01  0.72497804423E+01  0.42809182152E+01  0.87908974614E+01  0.51100000000E-03 0.  1.
         12    1    3    3    0    0 -0.88718440570E+01  0.81442186870E+01  0.88853693946E+01  0.14966218770E+02  0.00000000000E+00 0. -1.
</event>
<event>
 7    1  0.2580704E-010  0.4778727E+02  0.7816164E-02  0.1312668E+00
        -11   -1    0    0    0    0  0.00000000000E+00  0.00000000000E+00  0.45593999997E+02  0.45594000000E+02  0.51100000000E-03 0.  1.
         11   -1    0    0    0    0 -0.00000000000E+00 -0.00000000000E+00 -0.45593999997E+02  0.45594000000E+02  0.51100000000E-03 0. -1.
    9900012    2    1    2    0    0 -0.70271204175E+01 -0.31840608796E+02  0.28642954991E+02  0.47787266590E+02  0.19999979692E+02 0.  0.
         12    1    1    2    0    0  0.70271204175E+01  0.31840608796E+02 -0.28642954991E+02  0.43400733410E+02  0.00000000000E+00 0. -1.
         11    1    3    3    0    0 -0.10281728801E+01  0.22253586313E+01  0.30114749981E+00  0.24698280480E+01  0.51100000000E-03 0. -1.
        -11    1    3    3    0    0  0.15449115358E+01 -0.97271185485E+01  0.87623083794E+01  0.13182626267E+02  0.51100000000E-03 0.  1.
        -12    1    3    3    0    0 -0.75438590732E+01 -0.24338848879E+02  0.19579499112E+02  0.32134812275E+02  0.00000000000E+00 0.  1.
</event>
<event>
 7    1  0.2580704E-010  0.4778727E+02  0.7816164E-02  0.1312668E+00
        -11   -1    0    0    0    0  0.00000000000E+00  0.00000000000E+00  0.45593999997E+02  0.45594000000E+02  0.51100000000E-03 0. -1.
         11   -1    0    0    0    0 -0.00000000000E+00 -0.00000000000E+00 -0.45593999997E+02  0.45594000000E+02  0.51100000000E-03 0.  1.
    9900012    2    1    2    0    0 -0.14689983033E+02  0.24228557125E+02 -0.32875591014E+02  0.47787273435E+02  0.20000010898E+02 0.  0.
         12    1    1    2    0    0  0.14689983033E+02 -0.24228557125E+02  0.32875591014E+02  0.43400726565E+02  0.00000000000E+00 0. -1.
         11    1    3    3    0    0 -0.62747389062E+01  0.31639917953E+01 -0.98194093049E+01  0.12074932372E+02  0.51100000000E-03 0. -1.
        -11    1    3    3    0    0 -0.91184586280E+01  0.18256306171E+02 -0.24965369174E+02  0.32244513657E+02  0.51100000000E-03 0.  1.
         12    1    3    3    0    0  0.70321450092E+00  0.28082591592E+01  0.19091874650E+01  0.34678274057E+01  0.00000000000E+00 0. -1.
</event>
<event>
 7    1  0.2580704E-010  0.4778727E+02  0.7816164E-02  0.1312668E+00
        -11   -1    0    0    0    0  0.00000000000E+00  0.00000000000E+00  0.45593999997E+02  0.45594000000E+02  0.51100000000E-03 0.  1.
         11   -1    0    0    0    0 -0.00000000000E+00 -0.00000000000E+00 -0.45593999997E+02  0.45594000000E+02  0.51100000000E-03 0. -1.
    9900012    2    1    2    0    0  0.21265469826E+02 -0.37505850901E+02  0.49713556139E+01  0.47787269184E+02  0.19999991518E+02 0.  0.
         12    1    1    2    0    0 -0.21265469826E+02  0.37505850901E+02 -0.49713556139E+01  0.43400730816E+02  0.00000000000E+00 0. -1.
         11    1    3    3    0    0  0.10079199328E+02 -0.14001060078E+02  0.14528156377E+01  0.17312729881E+02  0.51100000000E-03 0. -1.
        -11    1    3    3    0    0  0.12702340007E+02 -0.87340089395E+01  0.21203915364E+01  0.15560476032E+02  0.51100000000E-03 0.  1.
         12    1    3    3    0    0 -0.15160695085E+01 -0.14770781883E+02  0.13981484398E+01  0.14914063271E+02  0.00000000000E+00 0. -1.
</event>
<event>
 7    1  0.2580704E-010  0.4778727E+02  0.7816164E-02  0.1312668E+00
        -11   -1    0    0    0    0  0.00000000000E+00  0.00000000000E+00  0.45593999997E+02  0.45594000000E+02  0.51100000000E-03 0.  1.
         11   -1    0    0    0    0 -0.00000000000E+00 -0.00000000000E+00 -0.45593999997E+02  0.45594000000E+02  0.51100000000E-03 0. -1.
    9900012    2    1    2    0    0 -0.25187401559E+02  0.10751838107E+02  0.33669214311E+02  0.47787271754E+02  0.20000003234E+02 0.  0.
         12    1    1    2    0    0  0.25187401559E+02 -0.10751838107E+02 -0.33669214311E+02  0.43400728246E+02  0.00000000000E+00 0. -1.
         11    1    3    3    0    0 -0.50323376249E+01  0.20655134467E+01  0.11272130091E+02  0.12516057080E+02  0.51100000000E-03 0. -1.
        -11    1    3    3    0    0 -0.17825999589E+02  0.11472771028E+02  0.23328964471E+02  0.31521918088E+02  0.51100000000E-03 0.  1.
        -12    1    3    3    0    0 -0.23290643452E+01 -0.27864463676E+01 -0.93188025129E+00  0.37492965856E+01  0.00000000000E+00 0.  1.
</event>
<event>
 7    1  0.2580704E-010  0.4778727E+02  0.7816164E-02  0.1312668E+00
        -11   -1    0    0    0    0  0.00000000000E+00  0.00000000000E+00  0.45593999997E+02  0.45594000000E+02  0.51100000000E-03 0.  1.
         11   -1    0    0    0    0 -0.00000000000E+00 -0.00000000000E+00 -0.45593999997E+02  0.45594000000E+02  0.51100000000E-03 0. -1.
    9900012    2    1    2    0    0  0.22770068450E+02 -0.32944899961E+02  0.16726648654E+02  0.47787271598E+02  0.20000002522E+02 0.  0.
         12    1    1    2    0    0 -0.22770068450E+02  0.32944899961E+02 -0.16726648654E+02  0.43400728402E+02  0.00000000000E+00 0. -1.
         11    1    3    3    0    0  0.41886632400E+00 -0.42063783579E+00 -0.25485902497E+01  0.26168105985E+01  0.51100000000E-03 0. -1.
        -11    1    3    3    0    0  0.31901441601E+01 -0.21560196964E+01  0.54937755731E+01  0.67087264814E+01  0.51100000000E-03 0.  1.
        -12    1    3    3    0    0  0.19161057966E+02 -0.30368242428E+02  0.13781463331E+02  0.38461734518E+02  0.00000000000E+00 0.  1.
</event>
<event>
 7    1  0.2580704E-010  0.4778726E+02  0.7816164E-02  0.1312668E+00
        -11   -1    0    0    0    0  0.00000000000E+00  0.00000000000E+00  0.45593999997E+02  0.45594000000E+02  0.51100000000E-03 0. -1.
         11   -1    0    0    0    0 -0.00000000000E+00 -0.00000000000E+00 -0.45593999997E+02  0.45594000000E+02  0.51100000000E-03 0.  1.
    9900012    2    1    2    0    0 -0.16883957870E+02  0.39388124547E+02 -0.68652499374E+01  0.47787262156E+02  0.19999959473E+02 0.  0.
         12    1    1    2    0    0  0.16883957870E+02 -0.39388124547E+02  0.68652499374E+01  0.43400737844E+02  0.00000000000E+00 0. -1.
         11    1    3    3    0    0  0.98915806035E+00  0.53613576752E+01  0.34363062575E+01  0.64444387457E+01  0.51100000000E-03 0. -1.
        -11    1    3    3    0    0 -0.69782774433E+00  0.10348885273E+02 -0.53658613389E+01  0.11678135901E+02  0.51100000000E-03 0.  1.
         12    1    3    3    0    0 -0.17175288186E+02  0.23677881599E+02 -0.49356948561E+01  0.29664687509E+02  0.00000000000E+00 0. -1.
</event>
<event>
 7    1  0.2580704E-010  0.4778727E+02  0.7816164E-02  0.1312668E+00
        -11   -1    0    0    0    0  0.00000000000E+00  0.00000000000E+00  0.45593999997E+02  0.45594000000E+02  0.51100000000E-03 0.  1.
         11   -1    0    0    0    0 -0.00000000000E+00 -0.00000000000E+00 -0.45593999997E+02  0.45594000000E+02  0.51100000000E-03 0. -1.
    9900012    2    1    2    0    0  0.15328536334E+01 -0.35751842871E+02  0.24557668659E+02  0.47787274213E+02  0.20000014445E+02 0.  0.
         12    1    1    2    0    0 -0.15328536334E+01  0.35751842871E+02 -0.24557668659E+02  0.43400725787E+02  0.00000000000E+00 0. -1.
         11    1    3    3    0    0  0.45864576006E+01 -0.40875981230E+01  0.95584286187E+00  0.62175306654E+01  0.51100000000E-03 0. -1.
        -11    1    3    3    0    0  0.13414305030E+01 -0.35452542203E+01  0.85983476062E+01  0.93967997264E+01  0.51100000000E-03 0.  1.
        -12    1    3    3    0    0 -0.43950344703E+01 -0.28118990527E+02  0.15003478191E+02  0.32172943821E+02  0.00000000000E+00 0.  1.
</event>
<event>
 7    1  0.2580704E-010  0.4778727E+02  0.7816164E-02  0.1312668E+00
        -11   -1    0    0    0    0  0.00000000000E+00  0.00000000000E+00  0.45593999997E+02  0.45594000000E+02  0.51100000000E-03 0.  1.
         11   -1    0    0    0    0 -0.00000000000E+00 -0.00000000000E+00 -0.45593999997E+02  0.45594000000E+02  0.51100000000E-03 0. -1.
    9900012    2    1    2    0    0  0.26564893956E+02 -0.18502245090E+02  0.28906689943E+02  0.47787269733E+02  0.19999994020E+02 0.  0.
         12    1    1    2    0    0 -0.26564893956E+02  0.18502245090E+02 -0.28906689943E+02  0.43400730267E+02  0.00000000000E+00 0. -1.
         11    1    3    3    0    0 -0.78201014661E+00 -0.75963168367E-01  0.36853051378E+01  0.37681274517E+01  0.51100000000E-03 0. -1.
        -11    1    3    3    0    0  0.71759886897E+01 -0.97258315965E+01  0.23613760923E+01  0.12315141543E+02  0.51100000000E-03 0.  1.
        -12    1    3    3    0    0  0.20170915413E+02 -0.87004503248E+01  0.22860008713E+02  0.31704000738E+02  0.00000000000E+00 0.  1.
</event>
<event>
 7    1  0.2580704E-010  0.4778721E+02  0.7816164E-02  0.1312668E+00
        -11   -1    0    0    0    0  0.00000000000E+00  0.00000000000E+00  0.45593999997E+02  0.45594000000E+02  0.51100000000E-03 0.  1.
         11   -1    0    0    0    0 -0.00000000000E+00 -0.00000000000E+00 -0.45593999997E+02  0.45594000000E+02  0.51100000000E-03 0. -1.
    9900012    2    1    2    0    0 -0.25690937443E+02 -0.20237186676E+02  0.28531749433E+02  0.47787208337E+02  0.19999714089E+02 0.  0.
         12    1    1    2    0    0  0.25690937443E+02  0.20237186676E+02 -0.28531749433E+02  0.43400791663E+02  0.00000000000E+00 0. -1.
         11    1    3    3    0    0 -0.93288860924E+01 -0.19818253645E+01  0.46002679169E+01  0.10588588795E+02  0.51100000000E-03 0. -1.
        -11    1    3    3    0    0 -0.16673094255E+02 -0.84944289280E+01  0.15640152241E+02  0.24387737846E+02  0.51100000000E-03 0.  1.
         12    1    3    3    0    0  0.31104290450E+00 -0.97609323833E+01  0.82913292756E+01  0.12810881696E+02  0.00000000000E+00 0. -1.
</event>
<event>
 7    1  0.2580704E-010  0.4778733E+02  0.7816164E-02  0.1312667E+00
        -11   -1    0    0    0    0  0.00000000000E+00  0.00000000000E+00  0.45593999997E+02  0.45594000000E+02  0.51100000000E-03 0. -1.
         11   -1    0    0    0    0 -0.00000000000E+00 -0.00000000000E+00 -0.45593999997E+02  0.45594000000E+02  0.51100000000E-03 0.  1.
    9900012    2    1    2    0    0 -0.39228341964E+02  0.18546627145E+02  0.88178912316E+00  0.47787334755E+02  0.20000290479E+02 0.  0.
         12    1    1    2    0    0  0.39228341964E+02 -0.18546627145E+02 -0.88178912316E+00  0.43400665245E+02  0.00000000000E+00 0. -1.
         11    1    3    3    0    0 -0.13161838420E+02  0.14608098955E+01  0.49312911595E+01  0.14131015141E+02  0.51100000000E-03 0.  1.
        -11    1    3    3    0    0 -0.21984779695E+02  0.80935917147E+01 -0.16001694633E+01  0.23481850601E+02  0.51100000000E-03 0. -1.
         12    1    3    3    0    0 -0.40817238489E+01  0.89922255347E+01 -0.24493325730E+01  0.10174469013E+02  0.00000000000E+00 0. -1.
</event>
<event>
 7    1  0.2580704E-010  0.4778727E+02  0.7816164E-02  0.1312668E+00
        -11   -1    0    0    0    0  0.00000000000E+00  0.00000000000E+00  0.45593999997E+02  0.45594000000E+02  0.51100000000E-03 0.  1.
         11   -1    0    0    0    0 -0.00000000000E+00 -0.00000000000E+00 -0.45593999997E+02  0.45594000000E+02  0.51100000000E-03 0. -1.
    9900012    2    1    2    0    0 -0.19427039266E+02  0.15140316502E+02  0.35734916119E+02  0.47787271107E+02  0.20000000286E+02 0.  0.
         12    1    1    2    0    0  0.19427039266E+02 -0.15140316502E+02 -0.35734916119E+02  0.43400728893E+02  0.00000000000E+00 0. -1.
         11    1    3    3    0    0  0.26972257826E+00 -0.24711305338E+01  0.29620217426E+01  0.38668862731E+01  0.51100000000E-03 0. -1.
        -11    1    3    3    0    0  0.11467405496E+01  0.12158182418E-01  0.44541941043E+01  0.45994572603E+01  0.51100000000E-03 0.  1.
        -12    1    3    3    0    0 -0.20843502394E+02  0.17599288854E+02  0.28318700272E+02  0.39320927574E+02  0.00000000000E+00 0.  1.
</event>
<event>
 7    1  0.2580704E-010  0.4778726E+02  0.7816164E-02  0.1312668E+00
        -11   -1    0    0    0    0  0.00000000000E+00  0.00000000000E+00  0.45593999997E+02  0.45594000000E+02  0.51100000000E-03 0.  1.
         11   -1    0    0    0    0 -0.00000000000E+00 -0.00000000000E+00 -0.45593999997E+02  0.45594000000E+02  0.51100000000E-03 0. -1.
    9900012    2    1    2    0    0 -0.12594887063E+02  0.71161801145E+01  0.40918856562E+02  0.47787262427E+02  0.19999960709E+02 0.  0.
         12    1    1    2    0    0  0.12594887063E+02 -0.71161801145E+01 -0.40918856562E+02  0.43400737573E+02  0.00000000000E+00 0. -1.
         11    1    3    3    0    0 -0.48133560957E+01 -0.21349162254E+01  0.15182833992E+02  0.16069994166E+02  0.51100000000E-03 0. -1.
        -11    1    3    3    0    0 -0.11576548582E+02  0.55204836948E+01  0.15006271446E+02  0.19740324219E+02  0.51100000000E-03 0.  1.
         12    1    3    3    0    0  0.37950176148E+01  0.37306126451E+01  0.10729751124E+02  0.11976944042E+02  0.00000000000E+00 0. -1.
</event>
<event>
 7    1  0.2580704E-010  0.4778726E+02  0.7816164E-02  0.1312668E+00
        -11   -1    0    0    0    0  0.00000000000E+00  0.00000000000E+00  0.45593999997E+02  0.45594000000E+02  0.51100000000E-03 0.  1.
         11   -1    0    0    0    0 -0.00000000000E+00 -0.00000000000E+00 -0.45593999997E+02  0.45594000000E+02  0.51100000000E-03 0. -1.
    9900012    2    1    2    0    0 -0.25124387340E+01  0.14425562643E+02  0.40856023271E+02  0.47787264482E+02  0.19999970081E+02 0.  0.
         12    1    1    2    0    0  0.25124387340E+01 -0.14425562643E+02 -0.40856023271E+02  0.43400735518E+02  0.00000000000E+00 0. -1.
         11    1    3    3    0    0 -0.60504488346E+01  0.27821103890E+01  0.10013639335E+02  0.12025848922E+02  0.51100000000E-03 0. -1.
        -11    1    3    3    0    0 -0.22279035292E+01  0.11844893157E+02  0.17762103116E+02  0.21465259267E+02  0.51100000000E-03 0.  1.
        -12    1    3    3    0    0  0.57659136298E+01 -0.20144090288E+00  0.13080280820E+02  0.14296156293E+02  0.00000000000E+00 0.  1.
</event>
<event>
 7    1  0.2580704E-010  0.4778728E+02  0.7816164E-02  0.1312668E+00
        -11   -1    0    0    0    0  0.00000000000E+00  0.00000000000E+00  0.45593999997E+02  0.45594000000E+02  0.51100000000E-03 0.  1.
         11   -1    0    0    0    0 -0.00000000000E+00 -0.00000000000E+00 -0.45593999997E+02  0.45594000000E+02  0.51100000000E-03 0. -1.
    9900012    2    1    2    0    0  0.32574388860E+02 -0.11815140089E+02  0.26133012564E+02  0.47787277764E+02  0.20000030637E+02 0.  0.
         12    1    1    2    0    0 -0.32574388860E+02  0.11815140089E+02 -0.26133012564E+02  0.43400722236E+02  0.00000000000E+00 0. -1.
         11    1    3    3    0    0  0.53714408660E+00  0.59377913351E+00  0.19140230656E+01  0.20747486561E+01  0.51100000000E-03 0. -1.
        -11    1    3    3    0    0  0.26859136880E+02 -0.11413792786E+02  0.26994204729E+02  0.39753930484E+02  0.51100000000E-03 0.  1.
         12    1    3    3    0    0  0.51781078935E+01 -0.99512643630E+00 -0.27752152310E+01  0.59585986238E+01  0.00000000000E+00 0. -1.
</event>
<event>
 7    1  0.2580704E-010  0.4778727E+02  0.7816164E-02  0.1312668E+00
        -11   -1    0    0    0    0  0.00000000000E+00  0.00000000000E+00  0.45593999997E+02  0.45594000000E+02  0.51100000000E-03 0.  1.
         11   -1    0    0    0    0 -0.00000000000E+00 -0.00000000000E+00 -0.45593999997E+02  0.45594000000E+02  0.51100000000E-03 0. -1.
    9900012    2    1    2    0    0  0.92035483990E+01 -0.11857031287E+02  0.40722584531E+02  0.47787269765E+02  0.19999994167E+02 0.  0.
         12    1    1    2    0    0 -0.92035483990E+01  0.11857031287E+02 -0.40722584531E+02  0.43400730235E+02  0.00000000000E+00 0. -1.
         11    1    3    3    0    0 -0.22603341049E+01 -0.62819643966E+01  0.11921985401E+02  0.13664037585E+02  0.51100000000E-03 0. -1.
        -11    1    3    3    0    0  0.34385118994E+01 -0.85195970515E+01  0.19091666898E+02  0.21187228304E+02  0.51100000000E-03 0.  1.
        -12    1    3    3    0    0  0.80253706045E+01  0.29445301615E+01  0.97089322311E+01  0.12936003876E+02  0.00000000000E+00 0.  1.
</event>
<event>
 7    1  0.2580704E-010  0.4778727E+02  0.7816164E-02  0.1312668E+00
        -11   -1    0    0    0    0  0.00000000000E+00  0.00000000000E+00  0.45593999997E+02  0.45594000000E+02  0.51100000000E-03 0.  1.
         11   -1    0    0    0    0 -0.00000000000E+00 -0.00000000000E+00 -0.45593999997E+02  0.45594000000E+02  0.51100000000E-03 0. -1.
    9900012    2    1    2    0    0  0.10042815877E+02 -0.13626809865E+01  0.42200805268E+02  0.47787274021E+02  0.20000013572E+02 0.  0.
         12    1    1    2    0    0 -0.10042815877E+02  0.13626809865E+01 -0.42200805268E+02  0.43400725979E+02  0.00000000000E+00 0. -1.
         11    1    3    3    0    0  0.40426351591E+01 -0.67622269719E+01  0.74645260136E+01  0.10853099167E+02  0.51100000000E-03 0. -1.
        -11    1    3    3    0    0  0.37276173910E+01 -0.16676080880E+01  0.20237651160E+02  0.20645546079E+02  0.51100000000E-03 0.  1.
         12    1    3    3    0    0  0.22725633271E+01  0.70671540734E+01  0.14498628094E+02  0.16288628776E+02  0.00000000000E+00 0. -1.
</event>
<event>
 7    1  0.2580704E-010  0.4778727E+02  0.7816164E-02  0.1312668E+00
        -11   -1    0    0    0    0  0.00000000000E+00  0.00000000000E+00  0.45593999997E+02  0.45594000000E+02  0.51100000000E-03 0.  1.
         11   -1    0    0    0    0 -0.00000000000E+00 -0.00000000000E+00 -0.45593999997E+02  0.45594000000E+02  0.51100000000E-03 0. -1.
    9900012    2    1    2    0    0 -0.10030731923E+02  0.25445709395E+02  0.33697532096E+02  0.47787269835E+02  0.19999994484E+02 0.  0.
         12    1    1    2    0    0  0.10030731923E+02 -0.25445709395E+02 -0.33697532096E+02  0.43400730165E+02  0.00000000000E+00 0. -1.
         11    1    3    3    0    0 -0.55261566563E+01  0.56624847357E+01  0.50475516296E+01  0.93850902226E+01  0.51100000000E-03 0. -1.
        -11    1    3    3    0    0 -0.84944690469E+01  0.19838730298E+02  0.24265967283E+02  0.32474118813E+02  0.51100000000E-03 0.  1.
         12    1    3    3    0    0  0.39898937799E+01 -0.55505638332E-01  0.43840131833E+01  0.59280607995E+01  0.00000000000E+00 0. -1.
</event>
<event>
 7    1  0.2580704E-010  0.4778727E+02  0.7816164E-02  0.1312668E+00
        -11   -1    0    0    0    0  0.00000000000E+00  0.00000000000E+00  0.45593999997E+02  0.45594000000E+02  0.51100000000E-03 0. -1.
         11   -1    0    0    0    0 -0.00000000000E+00 -0.00000000000E+00 -0.45593999997E+02  0.45594000000E+02  0.51100000000E-03 0.  1.
    9900012    2    1    2    0    0  0.36451524172E+02 -0.16299658793E+02 -0.17006786462E+02  0.47787271009E+02  0.19999999837E+02 0.  0.
         12    1    1    2    0    0 -0.36451524172E+02  0.16299658793E+02  0.17006786462E+02  0.43400728991E+02  0.00000000000E+00 0. -1.
         11    1    3    3    0    0  0.12424123466E+02 -0.53254861427E+01  0.44866587108E+00  0.13524827092E+02  0.51100000000E-03 0. -1.
        -11    1    3    3    0    0  0.11293285193E+02 -0.11104704242E+01 -0.12545547305E+01  0.11416888493E+02  0.51100000000E-03 0.  1.
         12    1    3    3    0    0  0.12734115512E+02 -0.98637022265E+01 -0.16200897602E+02  0.22845555424E+02  0.00000000000E+00 0. -1.
</event>
<event>
 7    1  0.2580704E-010  0.4778727E+02  0.7816164E-02  0.1312668E+00
        -11   -1    0    0    0    0  0.00000000000E+00  0.00000000000E+00  0.45593999997E+02  0.45594000000E+02  0.51100000000E-03 0.  1.
         11   -1    0    0    0    0 -0.00000000000E+00 -0.00000000000E+00 -0.45593999997E+02  0.45594000000E+02  0.51100000000E-03 0. -1.
    9900012    2    1    2    0    0  0.10019381916E+02 -0.42136448547E+02 -0.27847656456E+01  0.47787271552E+02  0.20000002312E+02 0.  0.
         12    1    1    2    0    0 -0.10019381916E+02  0.42136448547E+02  0.27847656456E+01  0.43400728448E+02  0.00000000000E+00 0. -1.
         11    1    3    3    0    0  0.49084490756E+01 -0.14569167487E+02 -0.77064214381E+01  0.17197163872E+02  0.51100000000E-03 0. -1.
        -11    1    3    3    0    0 -0.26736067963E+01 -0.81014097193E+01  0.44455806185E+01  0.96199896070E+01  0.51100000000E-03 0.  1.
         12    1    3    3    0    0  0.77845396365E+01 -0.19465871341E+02  0.47607517402E+00  0.20970118073E+02  0.00000000000E+00 0. -1.
</event>
<event>
 7    1  0.2580704E-010  0.4778727E+02  0.7816164E-02  0.1312668E+00
        -11   -1    0    0    0    0  0.00000000000E+00  0.00000000000E+00  0.45593999997E+02  0.45594000000E+02  0.51100000000E-03 0.  1.
         11   -1    0    0    0    0 -0.00000000000E+00 -0.00000000000E+00 -0.45593999997E+02  0.45594000000E+02  0.51100000000E-03 0. -1.
    9900012    2    1    2    0    0 -0.22539866193E+02  0.11197049647E+02  0.35358218231E+02  0.47787273218E+02  0.20000009908E+02 0.  0.
         12    1    1    2    0    0  0.22539866193E+02 -0.11197049647E+02 -0.35358218231E+02  0.43400726782E+02  0.00000000000E+00 0. -1.
         11    1    3    3    0    0  0.23451888154E+01  0.26855011374E+01  0.70882211458E+01  0.79344001797E+01  0.51100000000E-03 0. -1.
        -11    1    3    3    0    0 -0.76634131915E+01  0.51554417428E+01  0.15890138495E+02  0.18379417373E+02  0.51100000000E-03 0.  1.
         12    1    3    3    0    0 -0.17221641817E+02  0.33561067664E+01  0.12379858589E+02  0.21473455665E+02  0.00000000000E+00 0. -1.
</event>
<event>
 7    1  0.2580704E-010  0.4778728E+02  0.7816164E-02  0.1312668E+00
        -11   -1    0    0    0    0  0.00000000000E+00  0.00000000000E+00  0.45593999997E+02  0.45594000000E+02  0.51100000000E-03 0.  1.
         11   -1    0    0    0    0 -0.00000000000E+00 -0.00000000000E+00 -0.45593999997E+02  0.45594000000E+02  0.51100000000E-03 0. -1.
    9900012    2    1    2    0    0 -0.27191610563E+02 -0.32977458361E+02  0.75316799367E+01  0.47787278259E+02  0.20000032893E+02 0.  0.
         12    1    1    2    0    0  0.27191610563E+02  0.32977458361E+02 -0.75316799367E+01  0.43400721741E+02  0.00000000000E+00 0. -1.
         11    1    3    3    0    0 -0.25193850523E+01 -0.10009068121E+02  0.18955744441E+01  0.10493900535E+02  0.51100000000E-03 0. -1.
        -11    1    3    3    0    0 -0.13542069070E+02 -0.21736989792E+02  0.29663630873E+01  0.25781459814E+02  0.51100000000E-03 0.  1.
         12    1    3    3    0    0 -0.11130156440E+02 -0.12314004478E+01  0.26697424053E+01  0.11511917910E+02  0.00000000000E+00 0. -1.
</event>
<event>
 7    1  0.2580704E-010  0.4778727E+02  0.7816164E-02  0.1312668E+00
        -11   -1    0    0    0    0  0.00000000000E+00  0.00000000000E+00  0.45593999997E+02  0.45594000000E+02  0.51100000000E-03 0.  1.
         11   -1    0    0    0    0 -0.00000000000E+00 -0.00000000000E+00 -0.45593999997E+02  0.45594000000E+02  0.51100000000E-03 0. -1.
    9900012    2    1    2    0    0  0.34075184018E+02  0.24829137920E+02  0.10296553077E+02  0.47787271193E+02  0.20000000677E+02 0.  0.
         12    1    1    2    0    0 -0.34075184018E+02 -0.24829137920E+02 -0.10296553077E+02  0.43400728807E+02  0.00000000000E+00 0. -1.
         11    1    3    3    0    0  0.22894855122E+01 -0.11350348545E+01 -0.30376840073E+00  0.25733875600E+01  0.51100000000E-03 0. -1.
        -11    1    3    3    0    0 -0.27128141293E+00  0.45362027857E+01  0.40803859505E+01  0.61073954419E+01  0.51100000000E-03 0.  1.
         12    1    3    3    0    0  0.32056979919E+02  0.21427969989E+02  0.65199355271E+01  0.39106488191E+02  0.00000000000E+00 0. -1.
</event>
<event>
 7    1  0.2580704E-010  0.4778727E+02  0.7816164E-02  0.1312668E+00
        -11   -1    0    0    0    0  0.00000000000E+00  0.00000000000E+00  0.45593999997E+02  0.45594000000E+02  0.51100000000E-03 0.  1.
         11   -1    0    0    0    0 -0.00000000000E+00 -0.00000000000E+00 -0.45593999997E+02  0.45594000000E+02  0.51100000000E-03 0. -1.
    9900012    2    1    2    0    0  0.32088134044E+02 -0.36108743732E+01  0.28998905894E+02  0.47787270706E+02  0.19999998459E+02 0.  0.
         12    1    1    2    0    0 -0.32088134044E+02  0.36108743732E+01 -0.28998905894E+02  0.43400729294E+02  0.00000000000E+00 0. -1.
         11    1    3    3    0    0 -0.14136122194E+01 -0.10522452000E+01  0.51030143228E+01  0.53987290085E+01  0.51100000000E-03 0. -1.
        -11    1    3    3    0    0  0.11851822340E+02 -0.39345790179E+01  0.13305899721E+02  0.18248111477E+02  0.51100000000E-03 0.  1.
         12    1    3    3    0    0  0.21649923924E+02  0.13759498446E+01  0.10589991850E+02  0.24140430221E+02  0.00000000000E+00 0. -1.
</event>
<event>
 7    1  0.2580704E-010  0.4778727E+02  0.7816164E-02  0.1312668E+00
        -11   -1    0    0    0    0  0.00000000000E+00  0.00000000000E+00  0.45593999997E+02  0.45594000000E+02  0.51100000000E-03 0. -1.
         11   -1    0    0    0    0 -0.00000000000E+00 -0.00000000000E+00 -0.45593999997E+02  0.45594000000E+02  0.51100000000E-03 0.  1.
    9900012    2    1    2    0    0  0.33476122534E+02 -0.26456664917E+02  0.79383437160E+01  0.47787271903E+02  0.20000003912E+02 0.  0.
         12    1    1    2    0    0 -0.33476122534E+02  0.26456664917E+02 -0.79383437160E+01  0.43400728097E+02  0.00000000000E+00 0. -1.
         11    1    3    3    0    0  0.26625681787E+01 -0.24080507368E+01  0.20487541101E+01  0.41334454541E+01  0.51100000000E-03 0. -1.
        -11    1    3    3    0    0  0.16240684810E+02 -0.18468026532E+02  0.11396885242E+02  0.27105660674E+02  0.51100000000E-03 0.  1.
         12    1    3    3    0    0  0.14572869546E+02 -0.55805876476E+01 -0.55072956358E+01  0.16548165775E+02  0.00000000000E+00 0. -1.
</event>
<event>
 7    1  0.2580704E-010  0.4778727E+02  0.7816164E-02  0.1312668E+00
        -11   -1    0    0    0    0  0.00000000000E+00  0.00000000000E+00  0.45593999997E+02  0.45594000000E+02  0.51100000000E-03 0.  1.
         11   -1    0    0    0    0 -0.00000000000E+00 -0.00000000000E+00 -0.45593999997E+02  0.45594000000E+02  0.51100000000E-03 0. -1.
    9900012    2    1    2    0    0  0.42722227559E+02  0.75875066669E+01  0.92966269220E+00  0.47787271230E+02  0.20000000847E+02 0.  0.
         12    1    1    2    0    0 -0.42722227559E+02 -0.75875066669E+01 -0.92966269220E+00  0.43400728770E+02  0.00000000000E+00 0. -1.
         11    1    3    3    0    0  0.20867309652E+02  0.19319472208E+01  0.52677410846E+01  0.21608473536E+02  0.51100000000E-03 0. -1.
        -11    1    3    3    0    0  0.10437309413E+02  0.39327745453E+01  0.40935918559E+01  0.11881146323E+02  0.51100000000E-03 0.  1.
         12    1    3    3    0    0  0.11417608494E+02  0.17227849008E+01 -0.84316702483E+01  0.14297651370E+02  0.00000000000E+00 0. -1.
</event>
<event>
 7    1  0.2580704E-010  0.4778727E+02  0.7816164E-02  0.1312668E+00
        -11   -1    0    0    0    0  0.00000000000E+00  0.00000000000E+00  0.45593999997E+02  0.45594000000E+02  0.51100000000E-03 0.  1.
         11   -1    0    0    0    0 -0.00000000000E+00 -0.00000000000E+00 -0.45593999997E+02  0.45594000000E+02  0.51100000000E-03 0. -1.
    9900012    2    1    2    0    0 -0.18685668337E+02 -0.27513239449E+01  0.39075560262E+02  0.47787269656E+02  0.19999993667E+02 0.  0.
         12    1    1    2    0    0  0.18685668337E+02  0.27513239449E+01 -0.39075560262E+02  0.43400730344E+02  0.00000000000E+00 0. -1.
         11    1    3    3    0    0 -0.21156072838E+01  0.37961706106E+01  0.47405674505E+01  0.64311496249E+01  0.51100000000E-03 0. -1.
        -11    1    3    3    0    0 -0.17237574451E+02 -0.10812545444E+01  0.23087599565E+02  0.28832973109E+02  0.51100000000E-03 0.  1.
         12    1    3    3    0    0  0.66751339784E+00 -0.54662400110E+01  0.11247393246E+02  0.12523146922E+02  0.00000000000E+00 0. -1.
</event>
<event>
 7    1  0.2580704E-010  0.4778727E+02  0.7816164E-02  0.1312668E+00
        -11   -1    0    0    0    0  0.00000000000E+00  0.00000000000E+00  0.45593999997E+02  0.45594000000E+02  0.51100000000E-03 0.  1.
         11   -1    0    0    0    0 -0.00000000000E+00 -0.00000000000E+00 -0.45593999997E+02  0.45594000000E+02  0.51100000000E-03 0. -1.
    9900012    2    1    2    0    0  0.95198082632E+01  0.42583593515E+01  0.42129118863E+02  0.47787273855E+02  0.20000012813E+02 0.  0.
         12    1    1    2    0    0 -0.95198082632E+01 -0.42583593515E+01 -0.42129118863E+02  0.43400726145E+02  0.00000000000E+00 0. -1.
         11    1    3    3    0    0 -0.26230130695E+00  0.91126453169E+01  0.23128209474E+02  0.24860072011E+02  0.51100000000E-03 0. -1.
        -11    1    3    3    0    0 -0.92462130517E+00 -0.11397310531E+01  0.17110324458E+01  0.22542279661E+01  0.51100000000E-03 0.  1.
        -12    1    3    3    0    0  0.10706730875E+02 -0.37145549123E+01  0.17289876943E+02  0.20672973878E+02  0.00000000000E+00 0.  1.
</event>
<event>
 7    1  0.2580704E-010  0.4778727E+02  0.7816164E-02  0.1312668E+00
        -11   -1    0    0    0    0  0.00000000000E+00  0.00000000000E+00  0.45593999997E+02  0.45594000000E+02  0.51100000000E-03 0.  1.
         11   -1    0    0    0    0 -0.00000000000E+00 -0.00000000000E+00 -0.45593999997E+02  0.45594000000E+02  0.51100000000E-03 0. -1.
    9900012    2    1    2    0    0  0.99852619276E+01  0.18944408913E+02  0.37749527817E+02  0.47787274946E+02  0.20000017788E+02 0.  0.
         12    1    1    2    0    0 -0.99852619276E+01 -0.18944408913E+02 -0.37749527817E+02  0.43400725054E+02  0.00000000000E+00 0. -1.
         11    1    3    3    0    0  0.66942278856E+01  0.18768089018E+02  0.18621764056E+02  0.27273136035E+02  0.51100000000E-03 0.  1.
        -11    1    3    3    0    0  0.43659525260E+01  0.12500920648E+01  0.73574964982E+01  0.86462145828E+01  0.51100000000E-03 0. -1.
        -12    1    3    3    0    0 -0.10749184839E+01 -0.10737721694E+01  0.11770267263E+02  0.11867924328E+02  0.00000000000E+00 0.  1.
</event>
<event>
 7    1  0.2580704E-010  0.4778728E+02  0.7816164E-02  0.1312668E+00
        -11   -1    0    0    0    0  0.00000000000E+00  0.00000000000E+00  0.45593999997E+02  0.45594000000E+02  0.51100000000E-03 0.  1.
         11   -1    0    0    0    0 -0.00000000000E+00 -0.00000000000E+00 -0.45593999997E+02  0.45594000000E+02  0.51100000000E-03 0. -1.
    9900012    2    1    2    0    0  0.41970618782E+02  0.10866722685E+02  0.20010943801E+01  0.47787275564E+02  0.20000020607E+02 0.  0.
         12    1    1    2    0    0 -0.41970618782E+02 -0.10866722685E+02 -0.20010943801E+01  0.43400724436E+02  0.00000000000E+00 0. -1.
         11    1    3    3    0    0  0.84671603648E+00  0.36484998074E+01 -0.76648724072E+00  0.38230853826E+01  0.51100000000E-03 0. -1.
        -11    1    3    3    0    0  0.16898622506E+02  0.84547823789E+01  0.51658558702E+01  0.19589100408E+02  0.51100000000E-03 0.  1.
         12    1    3    3    0    0  0.24225280239E+02 -0.12365595010E+01 -0.23982742493E+01  0.24375089773E+02  0.00000000000E+00 0. -1.
</event>
<event>
 7    1  0.2580704E-010  0.4778727E+02  0.7816164E-02  0.1312668E+00
        -11   -1    0    0    0    0  0.00000000000E+00  0.00000000000E+00  0.45593999997E+02  0.45594000000E+02  0.51100000000E-03 0. -1.
         11   -1    0    0    0    0 -0.00000000000E+00 -0.00000000000E+00 -0.45593999997E+02  0.45594000000E+02  0.51100000000E-03 0.  1.
    9900012    2    1    2    0    0 -0.85564885337E+00 -0.27441574670E+02 -0.33613259081E+02  0.47787270267E+02  0.19999996457E+02 0.  0.
         12    1    1    2    0    0  0.85564885337E+00  0.27441574670E+02  0.33613259081E+02  0.43400729733E+02  0.00000000000E+00 0. -1.
         11    1    3    3    0    0  0.55325084012E+01 -0.13348809491E+02 -0.16754081318E+02  0.22124615366E+02  0.51100000000E-03 0. -1.
        -11    1    3    3    0    0 -0.45167973612E+01 -0.15932242362E+02 -0.15605308356E+02  0.22754416148E+02  0.51100000000E-03 0.  1.
         12    1    3    3    0    0 -0.18713598934E+01  0.18394771832E+01 -0.12538694072E+01  0.29082387537E+01  0.00000000000E+00 0. -1.
</event>
<event>
 7    1  0.2580704E-010  0.4778727E+02  0.7816164E-02  0.1312668E+00
        -11   -1    0    0    0    0  0.00000000000E+00  0.00000000000E+00  0.45593999997E+02  0.45594000000E+02  0.51100000000E-03 0.  1.
         11   -1    0    0    0    0 -0.00000000000E+00 -0.00000000000E+00 -0.45593999997E+02  0.45594000000E+02  0.51100000000E-03 0. -1.
    9900012    2    1    2    0    0 -0.21254834489E+02  0.47462965899E+01  0.37541016508E+02  0.47787271424E+02  0.20000001731E+02 0.  0.
         12    1    1    2    0    0  0.21254834489E+02 -0.47462965899E+01 -0.37541016508E+02  0.43400728576E+02  0.00000000000E+00 0. -1.
         11    1    3    3    0    0 -0.23910965102E+01  0.56380631687E+01  0.15857306657E+01  0.63261078730E+01  0.51100000000E-03 0. -1.
        -11    1    3    3    0    0 -0.96340851918E+00 -0.12550739401E+01  0.87578055024E+01  0.88995799929E+01  0.51100000000E-03 0.  1.
        -12    1    3    3    0    0 -0.17900329459E+02  0.36330736137E+00  0.27197480340E+02  0.32561583558E+02  0.00000000000E+00 0.  1.
</event>
<event>
 7    1  0.2580704E-010  0.4778728E+02  0.7816164E-02  0.1312668E+00
        -11   -1    0    0    0    0  0.00000000000E+00  0.00000000000E+00  0.45593999997E+02  0.45594000000E+02  0.51100000000E-03 0. -1.
         11   -1    0    0    0    0 -0.00000000000E+00 -0.00000000000E+00 -0.45593999997E+02  0.45594000000E+02  0.51100000000E-03 0.  1.
    9900012    2    1    2    0    0  0.28988270898E+02 -0.17819570292E+02 -0.26940037294E+02  0.47787279448E+02  0.20000038317E+02 0.  0.
         12    1    1    2    0    0 -0.28988270898E+02  0.17819570292E+02  0.26940037294E+02  0.43400720552E+02  0.00000000000E+00 0. -1.
         11    1    3    3    0    0  0.72184372349E+00  0.19348281787E+01 -0.78426518830E+01  0.81099819520E+01  0.51100000000E-03 0. -1.
        -11    1    3    3    0    0  0.10403955069E+02 -0.91916109687E+01 -0.94412628308E+01  0.16788848602E+02  0.51100000000E-03 0.  1.
         12    1    3    3    0    0  0.17862472105E+02 -0.10562787502E+02 -0.96561225799E+01  0.22888448894E+02  0.00000000000E+00 0. -1.
</event>
<event>
 7    1  0.2580704E-010  0.4778727E+02  0.7816164E-02  0.1312668E+00
        -11   -1    0    0    0    0  0.00000000000E+00  0.00000000000E+00  0.45593999997E+02  0.45594000000E+02  0.51100000000E-03 0. -1.
         11   -1    0    0    0    0 -0.00000000000E+00 -0.00000000000E+00 -0.45593999997E+02  0.45594000000E+02  0.51100000000E-03 0.  1.
    9900012    2    1    2    0    0  0.26750273536E+02  0.18032888722E+02 -0.29032070097E+02  0.47787270696E+02  0.19999998413E+02 0.  0.
         12    1    1    2    0    0 -0.26750273536E+02 -0.18032888722E+02  0.29032070097E+02  0.43400729304E+02  0.00000000000E+00 0. -1.
         11    1    3    3    0    0  0.18356338134E+01  0.59193100555E+01 -0.99339610977E+00  0.62765132934E+01  0.51100000000E-03 0. -1.
        -11    1    3    3    0    0  0.17707740233E+02  0.68675937847E+01 -0.10175320020E+02  0.21546810584E+02  0.51100000000E-03 0.  1.
         12    1    3    3    0    0  0.72068994896E+01  0.52459848822E+01 -0.17863353967E+02  0.19963946819E+02  0.00000000000E+00 0. -1.
</event>
<event>
 7    1  0.2580704E-010  0.4778727E+02  0.7816164E-02  0.1312668E+00
        -11   -1    0    0    0    0  0.00000000000E+00  0.00000000000E+00  0.45593999997E+02  0.45594000000E+02  0.51100000000E-03 0.  1.
         11   -1    0    0    0    0 -0.00000000000E+00 -0.00000000000E+00 -0.45593999997E+02  0.45594000000E+02  0.51100000000E-03 0. -1.
    9900012    2    1    2    0    0 -0.22589370882E+02 -0.32727675697E+02  0.17385134981E+02  0.47787270148E+02  0.19999995912E+02 0.  0.
         12    1    1    2    0    0  0.22589370882E+02  0.32727675697E+02 -0.17385134981E+02  0.43400729852E+02  0.00000000000E+00 0. -1.
         11    1    3    3    0    0 -0.56349893122E+01 -0.13007236363E+02  0.33122452711E+01  0.14557206852E+02  0.51100000000E-03 0. -1.
        -11    1    3    3    0    0 -0.13495830313E+02 -0.95622594126E+01  0.13631867117E+01  0.16596159772E+02  0.51100000000E-03 0.  1.
         12    1    3    3    0    0 -0.34585512568E+01 -0.10158179922E+02  0.12709702998E+02  0.16633903523E+02  0.00000000000E+00 0. -1.
</event>
<event>
 7    1  0.2580704E-010  0.4778729E+02  0.7816164E-02  0.1312668E+00
        -11   -1    0    0    0    0  0.00000000000E+00  0.00000000000E+00  0.45593999997E+02  0.45594000000E+02  0.51100000000E-03 0.  1.
         11   -1    0    0    0    0 -0.00000000000E+00 -0.00000000000E+00 -0.45593999997E+02  0.45594000000E+02  0.51100000000E-03 0. -1.
    9900012    2    1    2    0    0 -0.23913401870E+02 -0.45093362272E+01  0.35936565218E+02  0.47787290076E+02  0.20000086772E+02 0.  0.
         12    1    1    2    0    0  0.23913401870E+02  0.45093362272E+01 -0.35936565218E+02  0.43400709924E+02  0.00000000000E+00 0. -1.
         11    1    3    3    0    0  0.12950865564E+01 -0.29959203969E+01  0.46505384576E+01  0.56815751707E+01  0.51100000000E-03 0. -1.
        -11    1    3    3    0    0 -0.50242602925E+00 -0.19880088082E+01  0.76171318673E+01  0.78883020404E+01  0.51100000000E-03 0.  1.
        -12    1    3    3    0    0 -0.24706062397E+02  0.47459297784E+00  0.23668894894E+02  0.34217412865E+02  0.00000000000E+00 0.  1.
</event>
<event>
 7    1  0.2580704E-010  0.4778724E+02  0.7816164E-02  0.1312668E+00
        -11   -1    0    0    0    0  0.00000000000E+00  0.00000000000E+00  0.45593999997E+02  0.45594000000E+02  0.51100000000E-03 0. -1.
         11   -1    0    0    0    0 -0.00000000000E+00 -0.00000000000E+00 -0.45593999997E+02  0.45594000000E+02  0.51100000000E-03 0.  1.
    9900012    2    1    2    0    0  0.23347617926E+02  0.32930384658E+02 -0.15940656186E+02  0.47787239451E+02  0.19999855953E+02 0.  0.
         12    1    1    2    0    0 -0.23347617926E+02 -0.32930384658E+02  0.15940656186E+02  0.43400760549E+02  0.00000000000E+00 0. -1.
         11    1    3    3    0    0 -0.10564520920E+00  0.47786198352E+01 -0.14815899589E+01  0.50041460317E+01  0.51100000000E-03 0. -1.
        -11    1    3    3    0    0  0.19405770049E+02  0.18334945937E+02 -0.17273151094E+02  0.31798048724E+02  0.51100000000E-03 0.  1.
        -12    1    3    3    0    0  0.40474930872E+01  0.98168188856E+01  0.28140848660E+01  0.10985044695E+02  0.00000000000E+00 0.  1.
</event>
<event>
 7    1  0.2580704E-010  0.4778727E+02  0.7816164E-02  0.1312668E+00
        -11   -1    0    0    0    0  0.00000000000E+00  0.00000000000E+00  0.45593999997E+02  0.45594000000E+02  0.51100000000E-03 0.  1.
         11   -1    0    0    0    0 -0.00000000000E+00 -0.00000000000E+00 -0.45593999997E+02  0.45594000000E+02  0.51100000000E-03 0. -1.
    9900012    2    1    2    0    0 -0.16049806360E+02  0.31075396611E+02  0.25697210857E+02  0.47787271843E+02  0.20000003640E+02 0.  0.
         12    1    1    2    0    0  0.16049806360E+02 -0.31075396611E+02 -0.25697210857E+02  0.43400728157E+02  0.00000000000E+00 0. -1.
         11    1    3    3    0    0 -0.91357170447E+00  0.19094193836E+01  0.82552437398E+01  0.85222969384E+01  0.51100000000E-03 0. -1.
        -11    1    3    3    0    0  0.39592263888E-01  0.14454275964E+01 -0.17662764727E+01  0.22826653988E+01  0.51100000000E-03 0.  1.
        -12    1    3    3    0    0 -0.15175826919E+02  0.27720549631E+02  0.19208243590E+02  0.36982309506E+02  0.00000000000E+00 0.  1.
</event>
<event>
 7    1  0.2580704E-010  0.4778728E+02  0.7816164E-02  0.1312668E+00
        -11   -1    0    0    0    0  0.00000000000E+00  0.00000000000E+00  0.45593999997E+02  0.45594000000E+02  0.51100000000E-03 0.  1.
         11   -1    0    0    0    0 -0.00000000000E+00 -0.00000000000E+00 -0.45593999997E+02  0.45594000000E+02  0.51100000000E-03 0. -1.
    9900012    2    1    2    0    0 -0.29050687185E+02 -0.28944649706E+02  0.14208712704E+02  0.47787277780E+02  0.20000030711E+02 0.  0.
         12    1    1    2    0    0  0.29050687185E+02  0.28944649706E+02 -0.14208712704E+02  0.43400722220E+02  0.00000000000E+00 0. -1.
         11    1    3    3    0    0 -0.16779193874E+01 -0.16291240029E+01 -0.26262720602E+00  0.23533873030E+01  0.51100000000E-03 0. -1.
        -11    1    3    3    0    0 -0.11411881631E+02 -0.45064755075E+01  0.12515394940E+02  0.17526393657E+02  0.51100000000E-03 0.  1.
        -12    1    3    3    0    0 -0.15960886167E+02 -0.22809050195E+02  0.19559449695E+01  0.27907496820E+02  0.00000000000E+00 0.  1.
</event>
<event>
 7    1  0.2580704E-010  0.4778727E+02  0.7816164E-02  0.1312668E+00
        -11   -1    0    0    0    0  0.00000000000E+00  0.00000000000E+00  0.45593999997E+02  0.45594000000E+02  0.51100000000E-03 0. -1.
         11   -1    0    0    0    0 -0.00000000000E+00 -0.00000000000E+00 -0.45593999997E+02  0.45594000000E+02  0.51100000000E-03 0.  1.
    9900012    2    1    2    0    0 -0.33671570669E+02  0.20132981695E+02 -0.18561030805E+02  0.47787268580E+02  0.19999988763E+02 0.  0.
         12    1    1    2    0    0  0.33671570669E+02 -0.20132981695E+02  0.18561030805E+02  0.43400731420E+02  0.00000000000E+00 0. -1.
         11    1    3    3    0    0 -0.20454051811E+02  0.13661530332E+02 -0.69469484045E+01  0.25559063733E+02  0.51100000000E-03 0. -1.
        -11    1    3    3    0    0 -0.10855981643E+02  0.99549973066E+01 -0.93934404163E+01  0.17469717568E+02  0.51100000000E-03 0.  1.
         12    1    3    3    0    0 -0.23615372158E+01 -0.34835459435E+01 -0.22206419842E+01  0.47584872790E+01  0.00000000000E+00 0. -1.
</event>
<event>
 7    1  0.2580704E-010  0.4778728E+02  0.7816164E-02  0.1312668E+00
        -11   -1    0    0    0    0  0.00000000000E+00  0.00000000000E+00  0.45593999997E+02  0.45594000000E+02  0.51100000000E-03 0.  1.
         11   -1    0    0    0    0 -0.00000000000E+00 -0.00000000000E+00 -0.45593999997E+02  0.45594000000E+02  0.51100000000E-03 0. -1.
    9900012    2    1    2    0    0 -0.10490028783E+02  0.78395844275E+01  0.41377805123E+02  0.47787279445E+02  0.20000038302E+02 0.  0.
         12    1    1    2    0    0  0.10490028783E+02 -0.78395844275E+01 -0.41377805123E+02  0.43400720555E+02  0.00000000000E+00 0. -1.
         11    1    3    3    0    0  0.10572790361E+01  0.34475978871E+01  0.22975734393E+01  0.42758173630E+01  0.51100000000E-03 0. -1.
        -11    1    3    3    0    0  0.19270286230E+01  0.34851782415E+01  0.18300893765E+02  0.18729191641E+02  0.51100000000E-03 0.  1.
         12    1    3    3    0    0 -0.13474336442E+02  0.90680829885E+00  0.20779337919E+02  0.24782270441E+02  0.00000000000E+00 0. -1.
</event>
<event>
 7    1  0.2580704E-010  0.4778727E+02  0.7816164E-02  0.1312668E+00
        -11   -1    0    0    0    0  0.00000000000E+00  0.00000000000E+00  0.45593999997E+02  0.45594000000E+02  0.51100000000E-03 0.  1.
         11   -1    0    0    0    0 -0.00000000000E+00 -0.00000000000E+00 -0.45593999997E+02  0.45594000000E+02  0.51100000000E-03 0. -1.
    9900012    2    1    2    0    0 -0.61553327153E+01  0.22652980017E+02  0.36504487772E+02  0.47787271296E+02  0.20000001148E+02 0.  0.
         12    1    1    2    0    0  0.61553327153E+01 -0.22652980017E+02 -0.36504487772E+02  0.43400728704E+02  0.00000000000E+00 0. -1.
         11    1    3    3    0    0 -0.10108393719E+02  0.52799194862E+01  0.11670089406E+02  0.16317112501E+02  0.51100000000E-03 0.  1.
        -11    1    3    3    0    0 -0.54217433836E+00  0.77367294232E+01  0.58644003638E+01  0.97232775888E+01  0.51100000000E-03 0. -1.
        -12    1    3    3    0    0  0.44952353420E+01  0.96363311080E+01  0.18969998002E+02  0.21746881207E+02  0.00000000000E+00 0.  1.
</event>
<event>
 7    1  0.2580704E-010  0.4778727E+02  0.7816164E-02  0.1312668E+00
        -11   -1    0    0    0    0  0.00000000000E+00  0.00000000000E+00  0.45593999997E+02  0.45594000000E+02  0.51100000000E-03 0. -1.
         11   -1    0    0    0    0 -0.00000000000E+00 -0.00000000000E+00 -0.45593999997E+02  0.45594000000E+02  0.51100000000E-03 0.  1.
    9900012    2    1    2    0    0 -0.29157471557E+02 -0.30230000634E+02 -0.10936728088E+02  0.47787272965E+02  0.20000008758E+02 0.  0.
         12    1    1    2    0    0  0.29157471557E+02  0.30230000634E+02  0.10936728088E+02  0.43400727035E+02  0.00000000000E+00 0. -1.
         11    1    3    3    0    0  0.10334135993E+01  0.76711836740E+00 -0.90723269455E-01  0.12902113120E+01  0.51100000000E-03 0. -1.
        -11    1    3    3    0    0 -0.16171708251E+02 -0.10688982641E+02 -0.99838232171E+01  0.21804935771E+02  0.51100000000E-03 0.  1.
         12    1    3    3    0    0 -0.14019176905E+02 -0.20308136360E+02 -0.86218160148E+00  0.24692125883E+02  0.00000000000E+00 0. -1.
</event>
<event>
 7    1  0.2580704E-010  0.4778727E+02  0.7816164E-02  0.1312668E+00
        -11   -1    0    0    0    0  0.00000000000E+00  0.00000000000E+00  0.45593999997E+02  0.45594000000E+02  0.51100000000E-03 0.  1.
         11   -1    0    0    0    0 -0.00000000000E+00 -0.00000000000E+00 -0.45593999997E+02  0.45594000000E+02  0.51100000000E-03 0. -1.
    9900012    2    1    2    0    0  0.36457855629E+02 -0.22261550776E+02  0.76727831990E+01  0.47787268646E+02  0.19999989064E+02 0.  0.
         12    1    1    2    0    0 -0.36457855629E+02  0.22261550776E+02 -0.76727831990E+01  0.43400731354E+02  0.00000000000E+00 0. -1.
         11    1    3    3    0    0  0.47524393317E+00 -0.25724330439E+01 -0.43084996974E+01  0.50404799836E+01  0.51100000000E-03 0. -1.
        -11    1    3    3    0    0  0.89187464701E+01 -0.48507020978E+01  0.24506657413E+01  0.10444094613E+02  0.51100000000E-03 0.  1.
         12    1    3    3    0    0  0.27063865226E+02 -0.14838415634E+02  0.95306171551E+01  0.32302694050E+02  0.00000000000E+00 0. -1.
</event>
<event>
 7    1  0.2642205E-010  0.4778727E+02  0.7816164E-02  0.1312668E+00
        -11   -1    0    0    0    0  0.00000000000E+00  0.00000000000E+00  0.45593999997E+02  0.45594000000E+02  0.51100000000E-03 0. -1.
         11   -1    0    0    0    0 -0.00000000000E+00 -0.00000000000E+00 -0.45593999997E+02  0.45594000000E+02  0.51100000000E-03 0.  1.
    9900012    2    1    2    0    0  0.14044648835E+02 -0.12982477963E+01 -0.41044923621E+02  0.47787270015E+02  0.19999995306E+02 0.  0.
         12    1    1    2    0    0 -0.14044648835E+02  0.12982477963E+01  0.41044923621E+02  0.43400729985E+02  0.00000000000E+00 0. -1.
         11    1    3    3    0    0 -0.57496921714E+00  0.59975276059E+00  0.69026861768E+00  0.10801685055E+01  0.51100000000E-03 0. -1.
        -11    1    3    3    0    0  0.23752320728E+01 -0.70748415997E+01 -0.18313030320E+02  0.19775292433E+02  0.51100000000E-03 0.  1.
        -12    1    3    3    0    0  0.12244385979E+02  0.51768410429E+01 -0.23422161918E+02  0.26931809076E+02  0.00000000000E+00 0.  1.
</event>
<event>
 7    1  0.2580704E-010  0.4778729E+02  0.7816164E-02  0.1312668E+00
        -11   -1    0    0    0    0  0.00000000000E+00  0.00000000000E+00  0.45593999997E+02  0.45594000000E+02  0.51100000000E-03 0.  1.
         11   -1    0    0    0    0 -0.00000000000E+00 -0.00000000000E+00 -0.45593999997E+02  0.45594000000E+02  0.51100000000E-03 0. -1.
    9900012    2    1    2    0    0  0.22176960625E+01 -0.13074060686E+02  0.41325199939E+02  0.47787292763E+02  0.20000099025E+02 0.  0.
         12    1    1    2    0    0 -0.22176960625E+01  0.13074060686E+02 -0.41325199939E+02  0.43400707237E+02  0.00000000000E+00 0. -1.
         11    1    3    3    0    0 -0.44528571593E+00  0.33100014833E+01  0.61301292820E+01  0.69808935290E+01  0.51100000000E-03 0. -1.
        -11    1    3    3    0    0 -0.39134031271E+01 -0.12962299917E+01  0.84656551618E+01  0.94160636046E+01  0.51100000000E-03 0.  1.
        -12    1    3    3    0    0  0.65763849055E+01 -0.15087832178E+02  0.26729415495E+02  0.31390335630E+02  0.00000000000E+00 0.  1.
</event>
<event>
 7    1  0.2580704E-010  0.4778727E+02  0.7816164E-02  0.1312668E+00
        -11   -1    0    0    0    0  0.00000000000E+00  0.00000000000E+00  0.45593999997E+02  0.45594000000E+02  0.51100000000E-03 0.  1.
         11   -1    0    0    0    0 -0.00000000000E+00 -0.00000000000E+00 -0.45593999997E+02  0.45594000000E+02  0.51100000000E-03 0. -1.
    9900012    2    1    2    0    0  0.37952056552E+01 -0.43199506395E+02  0.17384334332E+01  0.47787273168E+02  0.20000009681E+02 0.  0.
         12    1    1    2    0    0 -0.37952056552E+01  0.43199506395E+02 -0.17384334332E+01  0.43400726832E+02  0.00000000000E+00 0. -1.
         11    1    3    3    0    0 -0.20514265808E+01 -0.98864743884E+00  0.38909328744E+01  0.45083404562E+01  0.51100000000E-03 0. -1.
        -11    1    3    3    0    0  0.41169856170E+01 -0.13311073539E+02  0.18372555170E+01  0.14053816472E+02  0.51100000000E-03 0.  1.
         12    1    3    3    0    0  0.17296466189E+01 -0.28899785418E+02 -0.39897549582E+01  0.29225116240E+02  0.00000000000E+00 0. -1.
</event>
<event>
 7    1  0.2580704E-010  0.4778728E+02  0.7816164E-02  0.1312668E+00
        -11   -1    0    0    0    0  0.00000000000E+00  0.00000000000E+00  0.45593999997E+02  0.45594000000E+02  0.51100000000E-03 0. -1.
         11   -1    0    0    0    0 -0.00000000000E+00 -0.00000000000E+00 -0.45593999997E+02  0.45594000000E+02  0.51100000000E-03 0.  1.
    9900012    2    1    2    0    0  0.16670587831E+02 -0.40064615121E+02  0.73542565937E+00  0.47787277260E+02  0.20000028341E+02 0.  0.
         12    1    1    2    0    0 -0.16670587831E+02  0.40064615121E+02 -0.73542565937E+00  0.43400722740E+02  0.00000000000E+00 0. -1.
         11    1    3    3    0    0  0.66378174079E+01 -0.64897022279E+01  0.36253524563E+01  0.99659437908E+01  0.51100000000E-03 0. -1.
        -11    1    3    3    0    0  0.61830951720E+01 -0.45853434689E+01  0.24818656260E+01  0.80879971489E+01  0.51100000000E-03 0.  1.
        -12    1    3    3    0    0  0.38496752507E+01 -0.28989569424E+02 -0.53717924229E+01  0.29733336321E+02  0.00000000000E+00 0.  1.
</event>
<event>
 7    1  0.2580704E-010  0.4778727E+02  0.7816164E-02  0.1312668E+00
        -11   -1    0    0    0    0  0.00000000000E+00  0.00000000000E+00  0.45593999997E+02  0.45594000000E+02  0.51100000000E-03 0.  1.
         11   -1    0    0    0    0 -0.00000000000E+00 -0.00000000000E+00 -0.45593999997E+02  0.45594000000E+02  0.51100000000E-03 0. -1.
    9900012    2    1    2    0    0  0.32740767479E+00 -0.40372579614E+02  0.15923904231E+02  0.47787272973E+02  0.20000008794E+02 0.  0.
         12    1    1    2    0    0 -0.32740767479E+00  0.40372579614E+02 -0.15923904231E+02  0.43400727027E+02  0.00000000000E+00 0. -1.
         11    1    3    3    0    0  0.17529968736E+01 -0.20859524120E+02  0.11340852058E+02  0.23807722911E+02  0.51100000000E-03 0.  1.
        -11    1    3    3    0    0  0.28806422710E+01 -0.18677577546E+02  0.23100161879E+01  0.19039069776E+02  0.51100000000E-03 0. -1.
         12    1    3    3    0    0 -0.43062314698E+01 -0.83547794869E+00  0.22730359850E+01  0.49404802867E+01  0.00000000000E+00 0. -1.
</event>
<event>
 7    1  0.2580704E-010  0.4778727E+02  0.7816164E-02  0.1312668E+00
        -11   -1    0    0    0    0  0.00000000000E+00  0.00000000000E+00  0.45593999997E+02  0.45594000000E+02  0.51100000000E-03 0.  1.
         11   -1    0    0    0    0 -0.00000000000E+00 -0.00000000000E+00 -0.45593999997E+02  0.45594000000E+02  0.51100000000E-03 0. -1.
    9900012    2    1    2    0    0 -0.20554585177E+02  0.27579271321E+02  0.26467263810E+02  0.47787271527E+02  0.20000002200E+02 0.  0.
         12    1    1    2    0    0  0.20554585177E+02 -0.27579271321E+02 -0.26467263810E+02  0.43400728473E+02  0.00000000000E+00 0. -1.
         11    1    3    3    0    0  0.62765123614E-01  0.18273154917E+01 -0.20489107613E+01  0.27460984934E+01  0.51100000000E-03 0. -1.
        -11    1    3    3    0    0  0.36058504396E+00 -0.30244633767E+00  0.28242885725E+01  0.28632327120E+01  0.51100000000E-03 0.  1.
        -12    1    3    3    0    0 -0.20977935345E+02  0.26054402167E+02  0.25691885999E+02  0.42177940322E+02  0.00000000000E+00 0.  1.
</event>
<event>
 7    1  0.2580704E-010  0.4778728E+02  0.7816164E-02  0.1312668E+00
        -11   -1    0    0    0    0  0.00000000000E+00  0.00000000000E+00  0.45593999997E+02  0.45594000000E+02  0.51100000000E-03 0.  1.
         11   -1    0    0    0    0 -0.00000000000E+00 -0.00000000000E+00 -0.45593999997E+02  0.45594000000E+02  0.51100000000E-03 0. -1.
    9900012    2    1    2    0    0  0.12702571130E+02 -0.82593965919E+01  0.40670012245E+02  0.47787276027E+02  0.20000022719E+02 0.  0.
         12    1    1    2    0    0 -0.12702571130E+02  0.82593965919E+01 -0.40670012245E+02  0.43400723973E+02  0.00000000000E+00 0. -1.
         11    1    3    3    0    0 -0.28681184943E+01  0.21086544355E+01  0.58899569867E+01  0.68821596023E+01  0.51100000000E-03 0. -1.
        -11    1    3    3    0    0  0.45564133692E+01 -0.53511147062E+00  0.21021456818E+01  0.50464109826E+01  0.51100000000E-03 0.  1.
        -12    1    3    3    0    0  0.11014276255E+02 -0.98329395568E+01  0.32677909576E+02  0.35858705442E+02  0.00000000000E+00 0.  1.
</event>
<event>
 7    1  0.2580704E-010  0.4778727E+02  0.7816164E-02  0.1312668E+00
        -11   -1    0    0    0    0  0.00000000000E+00  0.00000000000E+00  0.45593999997E+02  0.45594000000E+02  0.51100000000E-03 0.  1.
         11   -1    0    0    0    0 -0.00000000000E+00 -0.00000000000E+00 -0.45593999997E+02  0.45594000000E+02  0.51100000000E-03 0. -1.
    9900012    2    1    2    0    0 -0.97907504011E-01  0.16631649412E+02  0.40087428461E+02  0.47787271105E+02  0.20000000275E+02 0.  0.
         12    1    1    2    0    0  0.97907504011E-01 -0.16631649412E+02 -0.40087428461E+02  0.43400728895E+02  0.00000000000E+00 0. -1.
         11    1    3    3    0    0 -0.57879323210E+01  0.11404276663E+02  0.12847938207E+02  0.18128077758E+02  0.51100000000E-03 0. -1.
        -11    1    3    3    0    0  0.84583275382E+00  0.45783342197E+01  0.47747867167E+01  0.66689703648E+01  0.51100000000E-03 0.  1.
        -12    1    3    3    0    0  0.48441920632E+01  0.64903852888E+00  0.22464703537E+02  0.22990222982E+02  0.00000000000E+00 0.  1.
</event>
<event>
 7    1  0.2580704E-010  0.4778727E+02  0.7816164E-02  0.1312668E+00
        -11   -1    0    0    0    0  0.00000000000E+00  0.00000000000E+00  0.45593999997E+02  0.45594000000E+02  0.51100000000E-03 0.  1.
         11   -1    0    0    0    0 -0.00000000000E+00 -0.00000000000E+00 -0.45593999997E+02  0.45594000000E+02  0.51100000000E-03 0. -1.
    9900012    2    1    2    0    0 -0.30972618717E+01  0.10915908060E+02  0.41891209401E+02  0.47787268382E+02  0.19999987862E+02 0.  0.
         12    1    1    2    0    0  0.30972618717E+01 -0.10915908060E+02 -0.41891209401E+02  0.43400731618E+02  0.00000000000E+00 0. -1.
         11    1    3    3    0    0  0.12952191566E+01  0.81325658538E+01  0.26670604953E+02  0.27913032599E+02  0.51100000000E-03 0. -1.
        -11    1    3    3    0    0 -0.39323831185E+01 -0.36805322887E+00  0.16094244635E+02  0.16571777539E+02  0.51100000000E-03 0.  1.
         12    1    3    3    0    0 -0.46009790985E+00  0.31513954349E+01 -0.87364018798E+00  0.33024582438E+01  0.00000000000E+00 0. -1.
</event>
<event>
 7    1  0.2580704E-010  0.4778727E+02  0.7816164E-02  0.1312668E+00
        -11   -1    0    0    0    0  0.00000000000E+00  0.00000000000E+00  0.45593999997E+02  0.45594000000E+02  0.51100000000E-03 0. -1.
         11   -1    0    0    0    0 -0.00000000000E+00 -0.00000000000E+00 -0.45593999997E+02  0.45594000000E+02  0.51100000000E-03 0.  1.
    9900012    2    1    2    0    0  0.59354475576E+01  0.39572907534E+02 -0.16804135751E+02  0.47787268131E+02  0.19999986718E+02 0.  0.
         12    1    1    2    0    0 -0.59354475576E+01 -0.39572907534E+02  0.16804135751E+02  0.43400731869E+02  0.00000000000E+00 0. -1.
         11    1    3    3    0    0  0.98360555188E+00  0.23861587134E+01 -0.40463243727E+01  0.47993723003E+01  0.51100000000E-03 0. -1.
        -11    1    3    3    0    0  0.51281779591E+01  0.18773844932E+02 -0.14815907287E+02  0.24459488378E+02  0.51100000000E-03 0.  1.
         12    1    3    3    0    0 -0.17633595338E+00  0.18412903889E+02  0.20580959086E+01  0.18528407453E+02  0.00000000000E+00 0. -1.
</event>
<event>
 7    1  0.2580704E-010  0.4778729E+02  0.7816164E-02  0.1312668E+00
        -11   -1    0    0    0    0  0.00000000000E+00  0.00000000000E+00  0.45593999997E+02  0.45594000000E+02  0.51100000000E-03 0. -1.
         11   -1    0    0    0    0 -0.00000000000E+00 -0.00000000000E+00 -0.45593999997E+02  0.45594000000E+02  0.51100000000E-03 0.  1.
    9900012    2    1    2    0    0 -0.40977466842E+02 -0.20476533229E+01  0.14151899698E+02  0.47787286435E+02  0.20000070170E+02 0.  0.
         12    1    1    2    0    0  0.40977466842E+02  0.20476533229E+01 -0.14151899698E+02  0.43400713565E+02  0.00000000000E+00 0. -1.
         11    1    3    3    0    0 -0.92350940097E+01  0.12112033368E+00  0.10739318167E+02  0.14164553874E+02  0.51100000000E-03 0. -1.
        -11    1    3    3    0    0 -0.21553202219E+02  0.17730584360E+01  0.59034713687E+01  0.22417297709E+02  0.51100000000E-03 0.  1.
        -12    1    3    3    0    0 -0.10189170613E+02 -0.39418320926E+01 -0.24908898372E+01  0.11205434851E+02  0.00000000000E+00 0.  1.
</event>
<event>
 7    1  0.2580704E-010  0.4778727E+02  0.7816164E-02  0.1312668E+00
        -11   -1    0    0    0    0  0.00000000000E+00  0.00000000000E+00  0.45593999997E+02  0.45594000000E+02  0.51100000000E-03 0.  1.
         11   -1    0    0    0    0 -0.00000000000E+00 -0.00000000000E+00 -0.45593999997E+02  0.45594000000E+02  0.51100000000E-03 0. -1.
    9900012    2    1    2    0    0  0.42563358587E+02 -0.47600983672E+01  0.70232124133E+01  0.47787267941E+02  0.19999985851E+02 0.  0.
         12    1    1    2    0    0 -0.42563358587E+02  0.47600983672E+01 -0.70232124133E+01  0.43400732059E+02  0.00000000000E+00 0. -1.
         11    1    3    3    0    0  0.13359522062E+02  0.34959510577E+01  0.38247351100E+01  0.14329239423E+02  0.51100000000E-03 0. -1.
        -11    1    3    3    0    0  0.18006861810E+02 -0.12257616346E+00  0.66481032661E+01  0.19195295634E+02  0.51100000000E-03 0.  1.
         12    1    3    3    0    0  0.11196974714E+02 -0.81334732615E+01 -0.34496259627E+01  0.14262732884E+02  0.00000000000E+00 0. -1.
</event>
<event>
 7    1  0.2580704E-010  0.4778727E+02  0.7816164E-02  0.1312668E+00
        -11   -1    0    0    0    0  0.00000000000E+00  0.00000000000E+00  0.45593999997E+02  0.45594000000E+02  0.51100000000E-03 0.  1.
         11   -1    0    0    0    0 -0.00000000000E+00 -0.00000000000E+00 -0.45593999997E+02  0.45594000000E+02  0.51100000000E-03 0. -1.
    9900012    2    1    2    0    0  0.14963070867E+02  0.32137898058E+02  0.25037679284E+02  0.47787269992E+02  0.19999995199E+02 0.  0.
         12    1    1    2    0    0 -0.14963070867E+02 -0.32137898058E+02 -0.25037679284E+02  0.43400730008E+02  0.00000000000E+00 0. -1.
         11    1    3    3    0    0  0.55838808795E+01  0.13737517611E+02  0.12949978159E+02  0.19687586199E+02  0.51100000000E-03 0. -1.
        -11    1    3    3    0    0  0.26382811050E+01  0.18259222199E+02  0.10278050096E+02  0.21118665596E+02  0.51100000000E-03 0.  1.
         12    1    3    3    0    0  0.67409088825E+01  0.14115824816E+00  0.18096510287E+01  0.69810181964E+01  0.00000000000E+00 0. -1.
</event>
<event>
 7    1  0.2580704E-010  0.4778727E+02  0.7816164E-02  0.1312668E+00
        -11   -1    0    0    0    0  0.00000000000E+00  0.00000000000E+00  0.45593999997E+02  0.45594000000E+02  0.51100000000E-03 0. -1.
         11   -1    0    0    0    0 -0.00000000000E+00 -0.00000000000E+00 -0.45593999997E+02  0.45594000000E+02  0.51100000000E-03 0.  1.
    9900012    2    1    2    0    0  0.36862361645E+02  0.22173574865E+02  0.57551600259E+01  0.47787274255E+02  0.20000014636E+02 0.  0.
         12    1    1    2    0    0 -0.36862361645E+02 -0.22173574865E+02 -0.57551600259E+01  0.43400725745E+02  0.00000000000E+00 0. -1.
         11    1    3    3    0    0  0.19767913552E+02  0.16739837305E+02  0.40209140489E+01  0.26213742755E+02  0.51100000000E-03 0.  1.
        -11    1    3    3    0    0  0.12352082357E+02  0.48126328081E+01  0.65498561322E+01  0.14786344671E+02  0.51100000000E-03 0. -1.
        -12    1    3    3    0    0  0.47423657358E+01  0.62110475190E+00 -0.48156101551E+01  0.67871868289E+01  0.00000000000E+00 0.  1.
</event>
<event>
 7    1  0.2580704E-010  0.4778725E+02  0.7816164E-02  0.1312668E+00
        -11   -1    0    0    0    0  0.00000000000E+00  0.00000000000E+00  0.45593999997E+02  0.45594000000E+02  0.51100000000E-03 0.  1.
         11   -1    0    0    0    0 -0.00000000000E+00 -0.00000000000E+00 -0.45593999997E+02  0.45594000000E+02  0.51100000000E-03 0. -1.
    9900012    2    1    2    0    0  0.39518060424E+02  0.17374586544E+02  0.44801215263E+01  0.47787252931E+02  0.19999917413E+02 0.  0.
         12    1    1    2    0    0 -0.39518060424E+02 -0.17374586544E+02 -0.44801215263E+01  0.43400747069E+02  0.00000000000E+00 0. -1.
         11    1    3    3    0    0  0.93376386934E+01  0.10942136900E+02 -0.32938386900E+01  0.14757073893E+02  0.51100000000E-03 0. -1.
        -11    1    3    3    0    0  0.75554643382E+01 -0.17534417431E+00 -0.14933331528E+01  0.77036245438E+01  0.51100000000E-03 0.  1.
        -12    1    3    3    0    0  0.22624957393E+02  0.66077938186E+01  0.92672933690E+01  0.25326554494E+02  0.00000000000E+00 0.  1.
</event>
<event>
 7    1  0.2580704E-010  0.4778728E+02  0.7816164E-02  0.1312668E+00
        -11   -1    0    0    0    0  0.00000000000E+00  0.00000000000E+00  0.45593999997E+02  0.45594000000E+02  0.51100000000E-03 0.  1.
         11   -1    0    0    0    0 -0.00000000000E+00 -0.00000000000E+00 -0.45593999997E+02  0.45594000000E+02  0.51100000000E-03 0. -1.
    9900012    2    1    2    0    0  0.12501585360E+02 -0.41451277116E+02  0.30206148070E+01  0.47787284281E+02  0.20000060352E+02 0.  0.
         12    1    1    2    0    0 -0.12501585360E+02  0.41451277116E+02 -0.30206148070E+01  0.43400715719E+02  0.00000000000E+00 0. -1.
         11    1    3    3    0    0  0.36872643190E+01  0.55613399842E+00  0.12595644070E+01  0.39359504492E+01  0.51100000000E-03 0. -1.
        -11    1    3    3    0    0  0.21516092330E-02 -0.11248397250E+02 -0.26389008339E+01  0.11553797782E+02  0.51100000000E-03 0.  1.
        -12    1    3    3    0    0  0.88121694314E+01 -0.30759013865E+02  0.43999512339E+01  0.32297536050E+02  0.00000000000E+00 0.  1.
</event>
<event>
 7    1  0.2580704E-010  0.4778727E+02  0.7816164E-02  0.1312668E+00
        -11   -1    0    0    0    0  0.00000000000E+00  0.00000000000E+00  0.45593999997E+02  0.45594000000E+02  0.51100000000E-03 0.  1.
         11   -1    0    0    0    0 -0.00000000000E+00 -0.00000000000E+00 -0.45593999997E+02  0.45594000000E+02  0.51100000000E-03 0. -1.
    9900012    2    1    2    0    0 -0.27145242555E+02  0.68041136146E+01  0.33173228534E+02  0.47787271356E+02  0.20000001418E+02 0.  0.
         12    1    1    2    0    0  0.27145242555E+02 -0.68041136146E+01 -0.33173228534E+02  0.43400728644E+02  0.00000000000E+00 0. -1.
         11    1    3    3    0    0 -0.15346914657E+02  0.10554577246E+02  0.10494494058E+02  0.21378991934E+02  0.51100000000E-03 0. -1.
        -11    1    3    3    0    0 -0.73251207861E+01  0.33937406862E+00  0.10532778850E+02  0.12834017292E+02  0.51100000000E-03 0.  1.
         12    1    3    3    0    0 -0.44732071127E+01 -0.40898376998E+01  0.12145955626E+02  0.13574262130E+02  0.00000000000E+00 0. -1.
</event>
<event>
 7    1  0.2580704E-010  0.4778727E+02  0.7816164E-02  0.1312668E+00
        -11   -1    0    0    0    0  0.00000000000E+00  0.00000000000E+00  0.45593999997E+02  0.45594000000E+02  0.51100000000E-03 0. -1.
         11   -1    0    0    0    0 -0.00000000000E+00 -0.00000000000E+00 -0.45593999997E+02  0.45594000000E+02  0.51100000000E-03 0.  1.
    9900012    2    1    2    0    0 -0.27033141578E+02  0.33392432366E+02 -0.61463582364E+01  0.47787274172E+02  0.20000014258E+02 0.  0.
         12    1    1    2    0    0  0.27033141578E+02 -0.33392432366E+02  0.61463582364E+01  0.43400725828E+02  0.00000000000E+00 0. -1.
         11    1    3    3    0    0 -0.55861314210E+01  0.34429257441E+01  0.41269817086E+01  0.77518114152E+01  0.51100000000E-03 0.  1.
        -11    1    3    3    0    0  0.13982660893E+01  0.13111027598E+01 -0.13068475321E+01  0.23199114717E+01  0.51100000000E-03 0. -1.
        -12    1    3    3    0    0 -0.22845276246E+02  0.28638403862E+02 -0.89664924129E+01  0.37715551285E+02  0.00000000000E+00 0.  1.
</event>
<event>
 7    1  0.2580704E-010  0.4778727E+02  0.7816164E-02  0.1312668E+00
        -11   -1    0    0    0    0  0.00000000000E+00  0.00000000000E+00  0.45593999997E+02  0.45594000000E+02  0.51100000000E-03 0.  1.
         11   -1    0    0    0    0 -0.00000000000E+00 -0.00000000000E+00 -0.45593999997E+02  0.45594000000E+02  0.51100000000E-03 0. -1.
    9900012    2    1    2    0    0  0.14209067201E+02 -0.31147900683E+02  0.26674589684E+02  0.47787273710E+02  0.20000012155E+02 0.  0.
         12    1    1    2    0    0 -0.14209067201E+02  0.31147900683E+02 -0.26674589684E+02  0.43400726290E+02  0.00000000000E+00 0. -1.
         11    1    3    3    0    0  0.14514386477E+01 -0.56810170433E+01  0.45622966681E+01  0.74293458624E+01  0.51100000000E-03 0. -1.
        -11    1    3    3    0    0  0.11974249391E+02 -0.22283655470E+02  0.25305573044E+02  0.35781503279E+02  0.51100000000E-03 0.  1.
         12    1    3    3    0    0  0.78337916168E+00 -0.31832281700E+01 -0.31932800282E+01  0.45764245685E+01  0.00000000000E+00 0. -1.
</event>
<event>
 7    1  0.2580704E-010  0.4778727E+02  0.7816164E-02  0.1312668E+00
        -11   -1    0    0    0    0  0.00000000000E+00  0.00000000000E+00  0.45593999997E+02  0.45594000000E+02  0.51100000000E-03 0.  1.
         11   -1    0    0    0    0 -0.00000000000E+00 -0.00000000000E+00 -0.45593999997E+02  0.45594000000E+02  0.51100000000E-03 0. -1.
    9900012    2    1    2    0    0 -0.10183270006E+02  0.12624641980E+02  0.40255961893E+02  0.47787273727E+02  0.20000012229E+02 0.  0.
         12    1    1    2    0    0  0.10183270006E+02 -0.12624641980E+02 -0.40255961893E+02  0.43400726273E+02  0.00000000000E+00 0. -1.
         11    1    3    3    0    0 -0.41602584692E+01  0.16420992462E+01  0.23752911960E+01  0.50642125737E+01  0.51100000000E-03 0. -1.
        -11    1    3    3    0    0 -0.77091324663E+01  0.63539227706E+01  0.90667467895E+01  0.13491069474E+02  0.51100000000E-03 0.  1.
        -12    1    3    3    0    0  0.16861209297E+01  0.46286199627E+01  0.28813923908E+02  0.29231991679E+02  0.00000000000E+00 0.  1.
</event>
<event>
 7    1  0.2580704E-010  0.4778728E+02  0.7816164E-02  0.1312668E+00
        -11   -1    0    0    0    0  0.00000000000E+00  0.00000000000E+00  0.45593999997E+02  0.45594000000E+02  0.51100000000E-03 0. -1.
         11   -1    0    0    0    0 -0.00000000000E+00 -0.00000000000E+00 -0.45593999997E+02  0.45594000000E+02  0.51100000000E-03 0.  1.
    9900012    2    1    2    0    0 -0.42141720314E+02 -0.69717119836E+01 -0.76872315809E+01  0.47787275486E+02  0.20000020249E+02 0.  0.
         12    1    1    2    0    0  0.42141720314E+02  0.69717119836E+01  0.76872315809E+01  0.43400724514E+02  0.00000000000E+00 0. -1.
         11    1    3    3    0    0 -0.43110882414E+01  0.13469913910E+01  0.11739257037E+00  0.45181466233E+01  0.51100000000E-03 0. -1.
        -11    1    3    3    0    0 -0.28742647702E+02  0.15973452803E+01 -0.77749299937E+01  0.29818464842E+02  0.51100000000E-03 0.  1.
         12    1    3    3    0    0 -0.90879843700E+01 -0.99160486550E+01 -0.29694157532E-01  0.13450664020E+02  0.00000000000E+00 0. -1.
</event>
<event>
 7    1  0.2580704E-010  0.4778727E+02  0.7816164E-02  0.1312668E+00
        -11   -1    0    0    0    0  0.00000000000E+00  0.00000000000E+00  0.45593999997E+02  0.45594000000E+02  0.51100000000E-03 0. -1.
         11   -1    0    0    0    0 -0.00000000000E+00 -0.00000000000E+00 -0.45593999997E+02  0.45594000000E+02  0.51100000000E-03 0.  1.
    9900012    2    1    2    0    0 -0.32589814493E+02 -0.14794871426E+02 -0.24548706445E+02  0.47787271696E+02  0.20000002970E+02 0.  0.
         12    1    1    2    0    0  0.32589814493E+02  0.14794871426E+02  0.24548706445E+02  0.43400728304E+02  0.00000000000E+00 0. -1.
         11    1    3    3    0    0  0.37205765213E+00 -0.28110941617E+00 -0.47290159836E+01  0.47519513712E+01  0.51100000000E-03 0. -1.
        -11    1    3    3    0    0 -0.71584898320E+01  0.21528049075E+01 -0.41994044295E+01  0.85740039345E+01  0.51100000000E-03 0.  1.
        -12    1    3    3    0    0 -0.25803382313E+02 -0.16666566917E+02 -0.15620286032E+02  0.34461316390E+02  0.00000000000E+00 0.  1.
</event>
<event>
 7    1  0.2580704E-010  0.4778727E+02  0.7816164E-02  0.1312668E+00
        -11   -1    0    0    0    0  0.00000000000E+00  0.00000000000E+00  0.45593999997E+02  0.45594000000E+02  0.51100000000E-03 0.  1.
         11   -1    0    0    0    0 -0.00000000000E+00 -0.00000000000E+00 -0.45593999997E+02  0.45594000000E+02  0.51100000000E-03 0. -1.
    9900012    2    1    2    0    0  0.27102278637E+02  0.29159467270E+02  0.17286266458E+02  0.47787273660E+02  0.20000011924E+02 0.  0.
         12    1    1    2    0    0 -0.27102278637E+02 -0.29159467270E+02 -0.17286266458E+02  0.43400726340E+02  0.00000000000E+00 0. -1.
         11    1    3    3    0    0  0.49443274484E+01  0.35054074673E+01 -0.18619435981E+01  0.63404329231E+01  0.51100000000E-03 0.  1.
        -11    1    3    3    0    0  0.47740250746E+00  0.42578438206E+01 -0.16194041594E+01  0.45803512144E+01  0.51100000000E-03 0. -1.
        -12    1    3    3    0    0  0.21680548681E+02  0.21396215982E+02  0.20767614216E+02  0.36866489522E+02  0.00000000000E+00 0.  1.
</event>
<event>
 7    1  0.2580704E-010  0.4778727E+02  0.7816164E-02  0.1312668E+00
        -11   -1    0    0    0    0  0.00000000000E+00  0.00000000000E+00  0.45593999997E+02  0.45594000000E+02  0.51100000000E-03 0. -1.
         11   -1    0    0    0    0 -0.00000000000E+00 -0.00000000000E+00 -0.45593999997E+02  0.45594000000E+02  0.51100000000E-03 0.  1.
    9900012    2    1    2    0    0  0.25274127448E+02 -0.16748929040E+02 -0.31053427411E+02  0.47787268483E+02  0.19999988322E+02 0.  0.
         12    1    1    2    0    0 -0.25274127448E+02  0.16748929040E+02  0.31053427411E+02  0.43400731517E+02  0.00000000000E+00 0. -1.
         11    1    3    3    0    0 -0.76304916068E+00 -0.14869878059E+01 -0.14556276449E+01  0.22163548583E+01  0.51100000000E-03 0. -1.
        -11    1    3    3    0    0  0.23568956680E+02 -0.83019344952E+01 -0.14824771765E+02  0.29054977086E+02  0.51100000000E-03 0.  1.
        -12    1    3    3    0    0  0.24682199288E+01 -0.69600067392E+01 -0.14773028001E+02  0.16515936538E+02  0.00000000000E+00 0.  1.
</event>
<event>
 7    1  0.2594800E-010  0.4778727E+02  0.7816164E-02  0.1312668E+00
        -11   -1    0    0    0    0  0.00000000000E+00  0.00000000000E+00  0.45593999997E+02  0.45594000000E+02  0.51100000000E-03 0. -1.
         11   -1    0    0    0    0 -0.00000000000E+00 -0.00000000000E+00 -0.45593999997E+02  0.45594000000E+02  0.51100000000E-03 0.  1.
    9900012    2    1    2    0    0  0.80888378909E+01  0.14857491805E+02 -0.39968099493E+02  0.47787270303E+02  0.19999996619E+02 0.  0.
         12    1    1    2    0    0 -0.80888378909E+01 -0.14857491805E+02  0.39968099493E+02  0.43400729697E+02  0.00000000000E+00 0. -1.
         11    1    3    3    0    0 -0.16103030302E+01  0.48801222083E+01 -0.34034878454E+01  0.61637974003E+01  0.51100000000E-03 0. -1.
        -11    1    3    3    0    0 -0.34261317975E+01  0.43048687489E+01 -0.11983597256E+02  0.13186238186E+02  0.51100000000E-03 0.  1.
        -12    1    3    3    0    0  0.13125272719E+02  0.56725008475E+01 -0.24581014392E+02  0.28437234717E+02  0.00000000000E+00 0.  1.
</event>
<event>
 7    1  0.2580704E-010  0.4778727E+02  0.7816164E-02  0.1312668E+00
        -11   -1    0    0    0    0  0.00000000000E+00  0.00000000000E+00  0.45593999997E+02  0.45594000000E+02  0.51100000000E-03 0.  1.
         11   -1    0    0    0    0 -0.00000000000E+00 -0.00000000000E+00 -0.45593999997E+02  0.45594000000E+02  0.51100000000E-03 0. -1.
    9900012    2    1    2    0    0  0.31250775935E+02 -0.23961680908E+02  0.18244178409E+02  0.47787271961E+02  0.20000004181E+02 0.  0.
         12    1    1    2    0    0 -0.31250775935E+02  0.23961680908E+02 -0.18244178409E+02  0.43400728039E+02  0.00000000000E+00 0. -1.
         11    1    3    3    0    0  0.72107615674E+01 -0.56651497039E+01  0.16855755425E+01  0.93236349521E+01  0.51100000000E-03 0. -1.
        -11    1    3    3    0    0  0.23007977605E+02 -0.20268672654E+02  0.11170400615E+02  0.32633785786E+02  0.51100000000E-03 0.  1.
         12    1    3    3    0    0  0.10320367629E+01  0.19721414498E+01  0.53882022515E+01  0.58298512229E+01  0.00000000000E+00 0. -1.
</event>
<event>
 7    1  0.2580704E-010  0.4778727E+02  0.7816164E-02  0.1312668E+00
        -11   -1    0    0    0    0  0.00000000000E+00  0.00000000000E+00  0.45593999997E+02  0.45594000000E+02  0.51100000000E-03 0.  1.
         11   -1    0    0    0    0 -0.00000000000E+00 -0.00000000000E+00 -0.45593999997E+02  0.45594000000E+02  0.51100000000E-03 0. -1.
    9900012    2    1    2    0    0 -0.35136591224E+02 -0.92833206431E+01  0.23724737239E+02  0.47787271410E+02  0.20000001669E+02 0.  0.
         12    1    1    2    0    0  0.35136591224E+02  0.92833206431E+01 -0.23724737239E+02  0.43400728590E+02  0.00000000000E+00 0. -1.
         11    1    3    3    0    0 -0.12232507857E+02 -0.48500670806E+01 -0.78206967688E+00  0.13182148247E+02  0.51100000000E-03 0. -1.
        -11    1    3    3    0    0  0.13548088347E+00 -0.69031322443E+00 -0.74193582668E-01  0.70738417175E+00  0.51100000000E-03 0.  1.
        -12    1    3    3    0    0 -0.23039564251E+02 -0.37429403381E+01  0.24581000499E+02  0.33897738992E+02  0.00000000000E+00 0.  1.
</event>
<event>
 7    1  0.2580704E-010  0.4778727E+02  0.7816164E-02  0.1312668E+00
        -11   -1    0    0    0    0  0.00000000000E+00  0.00000000000E+00  0.45593999997E+02  0.45594000000E+02  0.51100000000E-03 0.  1.
         11   -1    0    0    0    0 -0.00000000000E+00 -0.00000000000E+00 -0.45593999997E+02  0.45594000000E+02  0.51100000000E-03 0. -1.
    9900012    2    1    2    0    0 -0.97638801187E+01  0.23834175675E+02  0.34931671821E+02  0.47787274416E+02  0.20000015371E+02 0.  0.
         12    1    1    2    0    0  0.97638801187E+01 -0.23834175675E+02 -0.34931671821E+02  0.43400725584E+02  0.00000000000E+00 0. -1.
         11    1    3    3    0    0  0.25778037043E+01  0.33184051992E+01  0.49961533549E+01  0.65282795291E+01  0.51100000000E-03 0. -1.
        -11    1    3    3    0    0 -0.77532670897E+01  0.19842431705E+02  0.29784462199E+02  0.36618976437E+02  0.51100000000E-03 0.  1.
         12    1    3    3    0    0 -0.45884167333E+01  0.67333877075E+00  0.15105626643E+00  0.46400184497E+01  0.00000000000E+00 0. -1.
</event>
<event>
 7    1  0.2580704E-010  0.4778727E+02  0.7816164E-02  0.1312668E+00
        -11   -1    0    0    0    0  0.00000000000E+00  0.00000000000E+00  0.45593999997E+02  0.45594000000E+02  0.51100000000E-03 0. -1.
         11   -1    0    0    0    0 -0.00000000000E+00 -0.00000000000E+00 -0.45593999997E+02  0.45594000000E+02  0.51100000000E-03 0.  1.
    9900012    2    1    2    0    0  0.15672335337E+02  0.34661845012E+02 -0.20893967291E+02  0.47787268857E+02  0.19999990027E+02 0.  0.
         12    1    1    2    0    0 -0.15672335337E+02 -0.34661845012E+02  0.20893967291E+02  0.43400731143E+02  0.00000000000E+00 0. -1.
         11    1    3    3    0    0  0.46789591947E+01  0.16003165577E+02 -0.94675740682E+01  0.19173651886E+02  0.51100000000E-03 0. -1.
        -11    1    3    3    0    0  0.14638879752E+02  0.13630426743E+02 -0.91927678469E+01  0.22013457578E+02  0.51100000000E-03 0.  1.
         12    1    3    3    0    0 -0.36455036092E+01  0.50282526911E+01 -0.22336253763E+01  0.66001593929E+01  0.00000000000E+00 0. -1.
</event>
<event>
 7    1  0.2580704E-010  0.4778727E+02  0.7816164E-02  0.1312668E+00
        -11   -1    0    0    0    0  0.00000000000E+00  0.00000000000E+00  0.45593999997E+02  0.45594000000E+02  0.51100000000E-03 0. -1.
         11   -1    0    0    0    0 -0.00000000000E+00 -0.00000000000E+00 -0.45593999997E+02  0.45594000000E+02  0.51100000000E-03 0.  1.
    9900012    2    1    2    0    0  0.20196994817E+02  0.26059033240E+02  0.28224659363E+02  0.47787271789E+02  0.20000003397E+02 0.  0.
         12    1    1    2    0    0 -0.20196994817E+02 -0.26059033240E+02 -0.28224659363E+02  0.43400728211E+02  0.00000000000E+00 0. -1.
         11    1    3    3    0    0  0.80694834644E+01  0.11093834796E+02  0.97953143156E+01  0.16856390974E+02  0.51100000000E-03 0. -1.
        -11    1    3    3    0    0  0.72241880938E+01  0.17731298318E+02  0.13278574693E+02  0.23300394413E+02  0.51100000000E-03 0.  1.
         12    1    3    3    0    0  0.49033232584E+01 -0.27660998743E+01  0.51507703550E+01  0.76304864026E+01  0.00000000000E+00 0. -1.
</event>
<event>
 7    1  0.2580704E-010  0.4778727E+02  0.7816164E-02  0.1312668E+00
        -11   -1    0    0    0    0  0.00000000000E+00  0.00000000000E+00  0.45593999997E+02  0.45594000000E+02  0.51100000000E-03 0.  1.
         11   -1    0    0    0    0 -0.00000000000E+00 -0.00000000000E+00 -0.45593999997E+02  0.45594000000E+02  0.51100000000E-03 0. -1.
    9900012    2    1    2    0    0 -0.37450113904E+02  0.96052009201E+01  0.19719342041E+02  0.47787269976E+02  0.19999995127E+02 0.  0.
         12    1    1    2    0    0  0.37450113904E+02 -0.96052009201E+01 -0.19719342041E+02  0.43400730024E+02  0.00000000000E+00 0. -1.
         11    1    3    3    0    0 -0.18127013505E+02  0.11469845107E+02  0.80773885789E+01  0.22921391142E+02  0.51100000000E-03 0. -1.
        -11    1    3    3    0    0 -0.69869485892E+01  0.41631178470E+01  0.31499448165E+01  0.87218778600E+01  0.51100000000E-03 0.  1.
         12    1    3    3    0    0 -0.12336151809E+02 -0.60277620335E+01  0.84920086455E+01  0.16144000973E+02  0.00000000000E+00 0. -1.
</event>
<event>
 7    1  0.2580704E-010  0.4778727E+02  0.7816164E-02  0.1312668E+00
        -11   -1    0    0    0    0  0.00000000000E+00  0.00000000000E+00  0.45593999997E+02  0.45594000000E+02  0.51100000000E-03 0.  1.
         11   -1    0    0    0    0 -0.00000000000E+00 -0.00000000000E+00 -0.45593999997E+02  0.45594000000E+02  0.51100000000E-03 0. -1.
    9900012    2    1    2    0    0  0.20158950220E+02  0.15698192196E+02  0.35082851050E+02  0.47787274776E+02  0.20000017012E+02 0.  0.
         12    1    1    2    0    0 -0.20158950220E+02 -0.15698192196E+02 -0.35082851050E+02  0.43400725224E+02  0.00000000000E+00 0. -1.
         11    1    3    3    0    0  0.15104327203E+02  0.76478129261E+01  0.19183802678E+02  0.25586090523E+02  0.51100000000E-03 0. -1.
        -11    1    3    3    0    0  0.71632038487E+01  0.99008979513E+01  0.14787464085E+02  0.19183544092E+02  0.51100000000E-03 0.  1.
         12    1    3    3    0    0 -0.21085808311E+01 -0.18505186814E+01  0.11115842873E+01  0.30176401607E+01  0.00000000000E+00 0. -1.
</event>
<event>
 7    1  0.2580704E-010  0.4778727E+02  0.7816164E-02  0.1312668E+00
        -11   -1    0    0    0    0  0.00000000000E+00  0.00000000000E+00  0.45593999997E+02  0.45594000000E+02  0.51100000000E-03 0.  1.
         11   -1    0    0    0    0 -0.00000000000E+00 -0.00000000000E+00 -0.45593999997E+02  0.45594000000E+02  0.51100000000E-03 0. -1.
    9900012    2    1    2    0    0 -0.27546934100E+02 -0.14098790262E+02  0.30430474587E+02  0.47787271334E+02  0.20000001319E+02 0.  0.
         12    1    1    2    0    0  0.27546934100E+02  0.14098790262E+02 -0.30430474587E+02  0.43400728666E+02  0.00000000000E+00 0. -1.
         11    1    3    3    0    0 -0.65487076221E+01 -0.48743997426E+01  0.80348062104E+01  0.11454407687E+02  0.51100000000E-03 0.  1.
        -11    1    3    3    0    0 -0.16024241749E+02 -0.11522388215E+02  0.86760120650E+01  0.21559567236E+02  0.51100000000E-03 0. -1.
         12    1    3    3    0    0 -0.49739847291E+01  0.22979976961E+01  0.13719656312E+02  0.14773296410E+02  0.00000000000E+00 0. -1.
</event>
<event>
 7    1  0.2580704E-010  0.4778727E+02  0.7816164E-02  0.1312668E+00
        -11   -1    0    0    0    0  0.00000000000E+00  0.00000000000E+00  0.45593999997E+02  0.45594000000E+02  0.51100000000E-03 0.  1.
         11   -1    0    0    0    0 -0.00000000000E+00 -0.00000000000E+00 -0.45593999997E+02  0.45594000000E+02  0.51100000000E-03 0. -1.
    9900012    2    1    2    0    0  0.28338465760E+02  0.18833423148E+02 -0.26941726575E+02  0.47787273048E+02  0.20000009134E+02 0.  0.
         12    1    1    2    0    0 -0.28338465760E+02 -0.18833423148E+02  0.26941726575E+02  0.43400726952E+02  0.00000000000E+00 0. -1.
         11    1    3    3    0    0  0.13345423872E+02  0.84642928042E+01 -0.17912709628E+02  0.23887439324E+02  0.51100000000E-03 0. -1.
        -11    1    3    3    0    0  0.10885669682E+02  0.10609683469E+02 -0.11535372281E+02  0.19082138289E+02  0.51100000000E-03 0.  1.
         12    1    3    3    0    0  0.41073722065E+01 -0.24055312497E+00  0.25063553337E+01  0.48176954353E+01  0.00000000000E+00 0. -1.
</event>
<event>
 7    1  0.2580704E-010  0.4778729E+02  0.7816164E-02  0.1312668E+00
        -11   -1    0    0    0    0  0.00000000000E+00  0.00000000000E+00  0.45593999997E+02  0.45594000000E+02  0.51100000000E-03 0. -1.
         11   -1    0    0    0    0 -0.00000000000E+00 -0.00000000000E+00 -0.45593999997E+02  0.45594000000E+02  0.51100000000E-03 0.  1.
    9900012    2    1    2    0    0 -0.72442746719E+00  0.42502713099E+02  0.87530709041E+01  0.47787289566E+02  0.20000084447E+02 0.  0.
         12    1    1    2    0    0  0.72442746719E+00 -0.42502713099E+02 -0.87530709041E+01  0.43400710434E+02  0.00000000000E+00 0. -1.
         11    1    3    3    0    0  0.26417659622E+01  0.24082223020E+02 -0.15441998494E+01  0.24275851096E+02  0.51100000000E-03 0. -1.
        -11    1    3    3    0    0 -0.44668930302E+01  0.75951474651E+01  0.42876404208E+00  0.88217479688E+01  0.51100000000E-03 0.  1.
         12    1    3    3    0    0  0.11006996009E+01  0.10825342613E+02  0.98685067113E+01  0.14689690501E+02  0.00000000000E+00 0. -1.
</event>
<event>
 7    1  0.2580704E-010  0.4778727E+02  0.7816164E-02  0.1312668E+00
        -11   -1    0    0    0    0  0.00000000000E+00  0.00000000000E+00  0.45593999997E+02  0.45594000000E+02  0.51100000000E-03 0.  1.
         11   -1    0    0    0    0 -0.00000000000E+00 -0.00000000000E+00 -0.45593999997E+02  0.45594000000E+02  0.51100000000E-03 0. -1.
    9900012    2    1    2    0    0  0.29258224918E+02 -0.30821946021E+02 -0.88083573379E+01  0.47787271425E+02  0.20000001735E+02 0.  0.
         12    1    1    2    0    0 -0.29258224918E+02  0.30821946021E+02  0.88083573379E+01  0.43400728575E+02  0.00000000000E+00 0. -1.
         11    1    3    3    0    0  0.52649037153E+01 -0.95870755026E+01 -0.19686220039E+01  0.11113356859E+02  0.51100000000E-03 0.  1.
        -11    1    3    3    0    0  0.39385088997E+01 -0.70406280286E+01 -0.89070018872E+01  0.12017361535E+02  0.51100000000E-03 0. -1.
         12    1    3    3    0    0  0.20054812303E+02 -0.14194242490E+02  0.20672665532E+01  0.24656553031E+02  0.00000000000E+00 0. -1.
</event>
<event>
 7    1  0.2580704E-010  0.4778727E+02  0.7816164E-02  0.1312668E+00
        -11   -1    0    0    0    0  0.00000000000E+00  0.00000000000E+00  0.45593999997E+02  0.45594000000E+02  0.51100000000E-03 0. -1.
         11   -1    0    0    0    0 -0.00000000000E+00 -0.00000000000E+00 -0.45593999997E+02  0.45594000000E+02  0.51100000000E-03 0.  1.
    9900012    2    1    2    0    0  0.66643815418E+01  0.20460495730E+01 -0.42837166228E+02  0.47787272925E+02  0.20000008574E+02 0.  0.
         12    1    1    2    0    0 -0.66643815418E+01 -0.20460495730E+01  0.42837166228E+02  0.43400727075E+02  0.00000000000E+00 0. -1.
         11    1    3    3    0    0  0.24066790832E+01  0.36347809538E-02 -0.12852434750E+01  0.27283636987E+01  0.51100000000E-03 0. -1.
        -11    1    3    3    0    0  0.14522659427E+01 -0.65618554791E+01 -0.27766422389E+02  0.28568185736E+02  0.51100000000E-03 0.  1.
         12    1    3    3    0    0  0.28054365159E+01  0.86042702711E+01 -0.13785500364E+02  0.16490723490E+02  0.00000000000E+00 0. -1.
</event>
<event>
 7    1  0.2580704E-010  0.4778727E+02  0.7816164E-02  0.1312668E+00
        -11   -1    0    0    0    0  0.00000000000E+00  0.00000000000E+00  0.45593999997E+02  0.45594000000E+02  0.51100000000E-03 0. -1.
         11   -1    0    0    0    0 -0.00000000000E+00 -0.00000000000E+00 -0.45593999997E+02  0.45594000000E+02  0.51100000000E-03 0.  1.
    9900012    2    1    2    0    0 -0.30605717217E+02 -0.95135287297E+01 -0.29264417078E+02  0.47787271179E+02  0.20000000615E+02 0.  0.
         12    1    1    2    0    0  0.30605717217E+02  0.95135287297E+01  0.29264417078E+02  0.43400728821E+02  0.00000000000E+00 0. -1.
         11    1    3    3    0    0 -0.35171161792E+01  0.40104041809E+01 -0.14605773523E+01  0.55305274952E+01  0.51100000000E-03 0. -1.
        -11    1    3    3    0    0 -0.96745158082E+01 -0.11429963505E+01 -0.13075649075E+02  0.16305682929E+02  0.51100000000E-03 0.  1.
        -12    1    3    3    0    0 -0.17414085229E+02 -0.12380936560E+02 -0.14728190651E+02  0.25951060755E+02  0.00000000000E+00 0.  1.
</event>
<event>
 7    1  0.2580704E-010  0.4778727E+02  0.7816164E-02  0.1312668E+00
        -11   -1    0    0    0    0  0.00000000000E+00  0.00000000000E+00  0.45593999997E+02  0.45594000000E+02  0.51100000000E-03 0. -1.
         11   -1    0    0    0    0 -0.00000000000E+00 -0.00000000000E+00 -0.45593999997E+02  0.45594000000E+02  0.51100000000E-03 0.  1.
    9900012    2    1    2    0    0  0.36648519696E+02 -0.22250905253E+02  0.67384261026E+01  0.47787272277E+02  0.20000005621E+02 0.  0.
         12    1    1    2    0    0 -0.36648519696E+02  0.22250905253E+02 -0.67384261026E+01  0.43400727723E+02  0.00000000000E+00 0. -1.
         11    1    3    3    0    0  0.67001643792E+01 -0.79953967901E+01  0.15957536301E+01  0.10552961786E+02  0.51100000000E-03 0. -1.
        -11    1    3    3    0    0  0.27050955726E+01 -0.55976083794E+01 -0.37950118835E+01  0.72837405969E+01  0.51100000000E-03 0.  1.
         12    1    3    3    0    0  0.27243259744E+02 -0.86579000840E+01  0.89376843561E+01  0.29950569895E+02  0.00000000000E+00 0. -1.
</event>
<event>
 7    1  0.2580704E-010  0.4778726E+02  0.7816164E-02  0.1312668E+00
        -11   -1    0    0    0    0  0.00000000000E+00  0.00000000000E+00  0.45593999997E+02  0.45594000000E+02  0.51100000000E-03 0.  1.
         11   -1    0    0    0    0 -0.00000000000E+00 -0.00000000000E+00 -0.45593999997E+02  0.45594000000E+02  0.51100000000E-03 0. -1.
    9900012    2    1    2    0    0 -0.27701495116E+02  0.33260016533E+02  0.31658216268E+01  0.47787263163E+02  0.19999964065E+02 0.  0.
         12    1    1    2    0    0  0.27701495116E+02 -0.33260016533E+02 -0.31658216268E+01  0.43400736837E+02  0.00000000000E+00 0. -1.
         11    1    3    3    0    0 -0.44466858226E+01  0.13436946616E+02 -0.20263643087E+01  0.14297926484E+02  0.51100000000E-03 0. -1.
        -11    1    3    3    0    0 -0.10107508754E+02  0.83208089654E+01 -0.40793390268E+01  0.13712716806E+02  0.51100000000E-03 0.  1.
        -12    1    3    3    0    0 -0.13147300539E+02  0.11502260951E+02  0.92715249624E+01  0.19776619873E+02  0.00000000000E+00 0.  1.
</event>
<event>
 7    1  0.2580704E-010  0.4778729E+02  0.7816164E-02  0.1312668E+00
        -11   -1    0    0    0    0  0.00000000000E+00  0.00000000000E+00  0.45593999997E+02  0.45594000000E+02  0.51100000000E-03 0.  1.
         11   -1    0    0    0    0 -0.00000000000E+00 -0.00000000000E+00 -0.45593999997E+02  0.45594000000E+02  0.51100000000E-03 0. -1.
    9900012    2    1    2    0    0  0.22219111922E+02 -0.13447840459E+02  0.34771951695E+02  0.47787286040E+02  0.20000068370E+02 0.  0.
         12    1    1    2    0    0 -0.22219111922E+02  0.13447840459E+02 -0.34771951695E+02  0.43400713960E+02  0.00000000000E+00 0. -1.
         11    1    3    3    0    0  0.56098867073E+01 -0.63354113722E+01  0.36988656243E+01  0.92352516637E+01  0.51100000000E-03 0. -1.
        -11    1    3    3    0    0  0.36142885412E+01 -0.84930904881E+01  0.17020792660E+02  0.19362413350E+02  0.51100000000E-03 0.  1.
        -12    1    3    3    0    0  0.12994936673E+02  0.13806614011E+01  0.14052293410E+02  0.19189621026E+02  0.00000000000E+00 0.  1.
</event>
<event>
 7    1  0.2580704E-010  0.4778728E+02  0.7816164E-02  0.1312668E+00
        -11   -1    0    0    0    0  0.00000000000E+00  0.00000000000E+00  0.45593999997E+02  0.45594000000E+02  0.51100000000E-03 0. -1.
         11   -1    0    0    0    0 -0.00000000000E+00 -0.00000000000E+00 -0.45593999997E+02  0.45594000000E+02  0.51100000000E-03 0.  1.
    9900012    2    1    2    0    0  0.41338956808E+01 -0.38505688365E+02 -0.19591964846E+02  0.47787283226E+02  0.20000055540E+02 0.  0.
         12    1    1    2    0    0 -0.41338956808E+01  0.38505688365E+02  0.19591964846E+02  0.43400716774E+02  0.00000000000E+00 0. -1.
         11    1    3    3    0    0 -0.54206989951E+01 -0.27912315989E+01 -0.15201983701E+01  0.62837850679E+01  0.51100000000E-03 0. -1.
        -11    1    3    3    0    0  0.56192126029E-01 -0.79321313219E+01 -0.48953182269E+01  0.93212663124E+01  0.51100000000E-03 0.  1.
         12    1    3    3    0    0  0.94984025498E+01 -0.27782325444E+02 -0.13176448249E+02  0.32182231846E+02  0.00000000000E+00 0. -1.
</event>
<event>
 7    1  0.2580704E-010  0.4778727E+02  0.7816164E-02  0.1312668E+00
        -11   -1    0    0    0    0  0.00000000000E+00  0.00000000000E+00  0.45593999997E+02  0.45594000000E+02  0.51100000000E-03 0.  1.
         11   -1    0    0    0    0 -0.00000000000E+00 -0.00000000000E+00 -0.45593999997E+02  0.45594000000E+02  0.51100000000E-03 0. -1.
    9900012    2    1    2    0    0  0.81322235826E+00  0.31535220545E+02  0.29807575397E+02  0.47787274010E+02  0.20000013521E+02 0.  0.
         12    1    1    2    0    0 -0.81322235826E+00 -0.31535220545E+02 -0.29807575397E+02  0.43400725990E+02  0.00000000000E+00 0. -1.
         11    1    3    3    0    0  0.31975926317E+01  0.12866593220E+02  0.13337517260E+02  0.18805934878E+02  0.51100000000E-03 0. -1.
        -11    1    3    3    0    0  0.33975024507E+01  0.14702254296E+02  0.57007453747E+01  0.16130647922E+02  0.51100000000E-03 0.  1.
         12    1    3    3    0    0 -0.57818727241E+01  0.39663730286E+01  0.10769312762E+02  0.12850691210E+02  0.00000000000E+00 0. -1.
</event>
<event>
 7    1  0.2580704E-010  0.4778727E+02  0.7816164E-02  0.1312668E+00
        -11   -1    0    0    0    0  0.00000000000E+00  0.00000000000E+00  0.45593999997E+02  0.45594000000E+02  0.51100000000E-03 0.  1.
         11   -1    0    0    0    0 -0.00000000000E+00 -0.00000000000E+00 -0.45593999997E+02  0.45594000000E+02  0.51100000000E-03 0. -1.
    9900012    2    1    2    0    0 -0.22624014295E+02 -0.24154967678E+02  0.28076943555E+02  0.47787271369E+02  0.20000001479E+02 0.  0.
         12    1    1    2    0    0  0.22624014295E+02  0.24154967678E+02 -0.28076943555E+02  0.43400728631E+02  0.00000000000E+00 0. -1.
         11    1    3    3    0    0 -0.36805664608E+00  0.19503447917E+01  0.10557557919E+01  0.22480949835E+01  0.51100000000E-03 0. -1.
        -11    1    3    3    0    0 -0.14655210308E+02 -0.74130311896E+01  0.13359899837E+02  0.21171092189E+02  0.51100000000E-03 0.  1.
        -12    1    3    3    0    0 -0.76007473413E+01 -0.18692281280E+02  0.13661287926E+02  0.24368084196E+02  0.00000000000E+00 0.  1.
</event>
<event>
 7    1  0.2580704E-010  0.4778727E+02  0.7816164E-02  0.1312668E+00
        -11   -1    0    0    0    0  0.00000000000E+00  0.00000000000E+00  0.45593999997E+02  0.45594000000E+02  0.51100000000E-03 0.  1.
         11   -1    0    0    0    0 -0.00000000000E+00 -0.00000000000E+00 -0.45593999997E+02  0.45594000000E+02  0.51100000000E-03 0. -1.
    9900012    2    1    2    0    0  0.64991834857E+01 -0.12544310353E+02  0.41036866794E+02  0.47787267927E+02  0.19999985786E+02 0.  0.
         12    1    1    2    0    0 -0.64991834857E+01  0.12544310353E+02 -0.41036866794E+02  0.43400732073E+02  0.00000000000E+00 0. -1.
         11    1    3    3    0    0  0.43209909334E+01 -0.54982769976E+01  0.14142291107E+02  0.15776768066E+02  0.51100000000E-03 0. -1.
        -11    1    3    3    0    0  0.70312305364E+01 -0.33105567218E+01  0.24018607226E+02  0.25244632736E+02  0.51100000000E-03 0.  1.
         12    1    3    3    0    0 -0.48530379841E+01 -0.37354766338E+01  0.28759684610E+01  0.67658671245E+01  0.00000000000E+00 0. -1.
</event>
<event>
 7    1  0.2580704E-010  0.4778727E+02  0.7816164E-02  0.1312668E+00
        -11   -1    0    0    0    0  0.00000000000E+00  0.00000000000E+00  0.45593999997E+02  0.45594000000E+02  0.51100000000E-03 0.  1.
         11   -1    0    0    0    0 -0.00000000000E+00 -0.00000000000E+00 -0.45593999997E+02  0.45594000000E+02  0.51100000000E-03 0. -1.
    9900012    2    1    2    0    0 -0.25376643711E+02 -0.25782212517E+02  0.23977630113E+02  0.47787271042E+02  0.19999999988E+02 0.  0.
         12    1    1    2    0    0  0.25376643711E+02  0.25782212517E+02 -0.23977630113E+02  0.43400728958E+02  0.00000000000E+00 0. -1.
         11    1    3    3    0    0 -0.18215482781E+02 -0.19347726021E+02  0.10888347131E+02  0.28717493251E+02  0.51100000000E-03 0. -1.
        -11    1    3    3    0    0 -0.42579089104E+01 -0.56828555842E+01  0.17128355159E+01  0.73046862798E+01  0.51100000000E-03 0.  1.
         12    1    3    3    0    0 -0.29032520189E+01 -0.75163091174E+00  0.11376447466E+02  0.11765091510E+02  0.00000000000E+00 0. -1.
</event>
<event>
 7    1  0.2580704E-010  0.4778727E+02  0.7816164E-02  0.1312668E+00
        -11   -1    0    0    0    0  0.00000000000E+00  0.00000000000E+00  0.45593999997E+02  0.45594000000E+02  0.51100000000E-03 0.  1.
         11   -1    0    0    0    0 -0.00000000000E+00 -0.00000000000E+00 -0.45593999997E+02  0.45594000000E+02  0.51100000000E-03 0. -1.
    9900012    2    1    2    0    0 -0.52278131752E+01  0.23235780889E+02  0.36282110540E+02  0.47787273170E+02  0.20000009692E+02 0.  0.
         12    1    1    2    0    0  0.52278131752E+01 -0.23235780889E+02 -0.36282110540E+02  0.43400726830E+02  0.00000000000E+00 0. -1.
         11    1    3    3    0    0  0.24502298951E+01  0.13910650915E+01  0.31836841364E+00  0.28354977227E+01  0.51100000000E-03 0. -1.
        -11    1    3    3    0    0 -0.81869143544E+01  0.64155810620E+01  0.84417375556E+01  0.13395826971E+02  0.51100000000E-03 0.  1.
         12    1    3    3    0    0  0.50887128412E+00  0.15429134736E+02  0.27522004571E+02  0.31555948477E+02  0.00000000000E+00 0. -1.
</event>
<event>
 7    1  0.2580704E-010  0.4778727E+02  0.7816164E-02  0.1312668E+00
        -11   -1    0    0    0    0  0.00000000000E+00  0.00000000000E+00  0.45593999997E+02  0.45594000000E+02  0.51100000000E-03 0.  1.
         11   -1    0    0    0    0 -0.00000000000E+00 -0.00000000000E+00 -0.45593999997E+02  0.45594000000E+02  0.51100000000E-03 0. -1.
    9900012    2    1    2    0    0  0.19922502130E+02 -0.38183261484E+02  0.53624421807E+01  0.47787270342E+02  0.19999996798E+02 0.  0.
         12    1    1    2    0    0 -0.19922502130E+02  0.38183261484E+02 -0.53624421807E+01  0.43400729658E+02  0.00000000000E+00 0. -1.
         11    1    3    3    0    0  0.21435411729E+01  0.19894033006E+00 -0.17128310905E+01  0.27510246492E+01  0.51100000000E-03 0. -1.
        -11    1    3    3    0    0 -0.18799514706E+01 -0.11469330104E+01  0.12407154467E+01  0.25276566109E+01  0.51100000000E-03 0.  1.
        -12    1    3    3    0    0  0.19658912428E+02 -0.37235268804E+02  0.58345578245E+01  0.42508589082E+02  0.00000000000E+00 0.  1.
</event>
<event>
 7    1  0.2580704E-010  0.4778727E+02  0.7816164E-02  0.1312668E+00
        -11   -1    0    0    0    0  0.00000000000E+00  0.00000000000E+00  0.45593999997E+02  0.45594000000E+02  0.51100000000E-03 0. -1.
         11   -1    0    0    0    0 -0.00000000000E+00 -0.00000000000E+00 -0.45593999997E+02  0.45594000000E+02  0.51100000000E-03 0.  1.
    9900012    2    1    2    0    0 -0.36322627277E+01 -0.35328664189E+02  0.24946249324E+02  0.47787271881E+02  0.20000003815E+02 0.  0.
         12    1    1    2    0    0  0.36322627277E+01  0.35328664189E+02 -0.24946249324E+02  0.43400728119E+02  0.00000000000E+00 0. -1.
         11    1    3    3    0    0 -0.95649606374E+00 -0.20368514600E+02  0.13787596709E+02  0.24614814543E+02  0.51100000000E-03 0. -1.
        -11    1    3    3    0    0 -0.42797174804E-01 -0.16797925730E+02  0.10731349624E+02  0.19933238709E+02  0.51100000000E-03 0.  1.
         12    1    3    3    0    0 -0.26329694891E+01  0.18377761411E+01  0.42730299105E+00  0.32392186282E+01  0.00000000000E+00 0. -1.
</event>
<event>
 7    1  0.2580704E-010  0.4778727E+02  0.7816164E-02  0.1312668E+00
        -11   -1    0    0    0    0  0.00000000000E+00  0.00000000000E+00  0.45593999997E+02  0.45594000000E+02  0.51100000000E-03 0. -1.
         11   -1    0    0    0    0 -0.00000000000E+00 -0.00000000000E+00 -0.45593999997E+02  0.45594000000E+02  0.51100000000E-03 0.  1.
    9900012    2    1    2    0    0  0.35774205175E+02  0.15851763012E+02 -0.18776345206E+02  0.47787270907E+02  0.19999999374E+02 0.  0.
         12    1    1    2    0    0 -0.35774205175E+02 -0.15851763012E+02  0.18776345206E+02  0.43400729093E+02  0.00000000000E+00 0. -1.
         11    1    3    3    0    0  0.28550183830E+01 -0.15125565230E+01 -0.17360174664E+01  0.36677941746E+01  0.51100000000E-03 0. -1.
        -11    1    3    3    0    0  0.33184477455E+02  0.12088171154E+02 -0.15812538757E+02  0.38695862931E+02  0.51100000000E-03 0.  1.
         12    1    3    3    0    0 -0.26529066316E+00  0.52761483812E+01 -0.12277889829E+01  0.54236138010E+01  0.00000000000E+00 0. -1.
</event>
<event>
 7    1  0.2580704E-010  0.4778727E+02  0.7816164E-02  0.1312668E+00
        -11   -1    0    0    0    0  0.00000000000E+00  0.00000000000E+00  0.45593999997E+02  0.45594000000E+02  0.51100000000E-03 0. -1.
         11   -1    0    0    0    0 -0.00000000000E+00 -0.00000000000E+00 -0.45593999997E+02  0.45594000000E+02  0.51100000000E-03 0.  1.
    9900012    2    1    2    0    0  0.27643525066E+02 -0.30873152005E+02 -0.12896009259E+02  0.47787273651E+02  0.20000011885E+02 0.  0.
         12    1    1    2    0    0 -0.27643525066E+02  0.30873152005E+02  0.12896009259E+02  0.43400726349E+02  0.00000000000E+00 0. -1.
         11    1    3    3    0    0  0.14073612405E+02 -0.18590763188E+02 -0.13192181803E+01  0.23354301080E+02  0.51100000000E-03 0. -1.
        -11    1    3    3    0    0  0.44189404903E+01 -0.56808559934E+01  0.12981048089E+01  0.73132917507E+01  0.51100000000E-03 0.  1.
         12    1    3    3    0    0  0.91509721711E+01 -0.66015328231E+01 -0.12874895887E+02  0.17119680821E+02  0.00000000000E+00 0. -1.
</event>
<event>
 7    1  0.2580704E-010  0.4778730E+02  0.7816164E-02  0.1312668E+00
        -11   -1    0    0    0    0  0.00000000000E+00  0.00000000000E+00  0.45593999997E+02  0.45594000000E+02  0.51100000000E-03 0.  1.
         11   -1    0    0    0    0 -0.00000000000E+00 -0.00000000000E+00 -0.45593999997E+02  0.45594000000E+02  0.51100000000E-03 0. -1.
    9900012    2    1    2    0    0  0.31042496166E+02 -0.44384028102E+01  0.30004745508E+02  0.47787300228E+02  0.20000133058E+02 0.  0.
         12    1    1    2    0    0 -0.31042496166E+02  0.44384028102E+01 -0.30004745508E+02  0.43400699772E+02  0.00000000000E+00 0. -1.
         11    1    3    3    0    0  0.94673554501E+01  0.33821351881E+01  0.49335787561E+01  0.11198654261E+02  0.51100000000E-03 0. -1.
        -11    1    3    3    0    0  0.18608872624E+02 -0.27554133940E+01  0.12143443339E+02  0.22390749423E+02  0.51100000000E-03 0.  1.
         12    1    3    3    0    0  0.29662680915E+01 -0.50651246043E+01  0.12927723412E+02  0.14197896544E+02  0.00000000000E+00 0. -1.
</event>
<event>
 7    1  0.2580704E-010  0.4778728E+02  0.7816164E-02  0.1312668E+00
        -11   -1    0    0    0    0  0.00000000000E+00  0.00000000000E+00  0.45593999997E+02  0.45594000000E+02  0.51100000000E-03 0.  1.
         11   -1    0    0    0    0 -0.00000000000E+00 -0.00000000000E+00 -0.45593999997E+02  0.45594000000E+02  0.51100000000E-03 0. -1.
    9900012    2    1    2    0    0 -0.25418487508E+02  0.10967500747E+01  0.35161343626E+02  0.47787280495E+02  0.20000043090E+02 0.  0.
         12    1    1    2    0    0  0.25418487508E+02 -0.10967500747E+01 -0.35161343626E+02  0.43400719505E+02  0.00000000000E+00 0. -1.
         11    1    3    3    0    0 -0.15257894453E+02  0.76969750522E+01  0.16018241289E+02  0.23422869644E+02  0.51100000000E-03 0. -1.
        -11    1    3    3    0    0 -0.65976299549E+01 -0.35162058225E+00  0.43362892934E+01  0.79028958713E+01  0.51100000000E-03 0.  1.
        -12    1    3    3    0    0 -0.35629631008E+01 -0.62486043952E+01  0.14806813044E+02  0.16461514980E+02  0.00000000000E+00 0.  1.
</event>
<event>
 7    1  0.2580704E-010  0.4778728E+02  0.7816164E-02  0.1312668E+00
        -11   -1    0    0    0    0  0.00000000000E+00  0.00000000000E+00  0.45593999997E+02  0.45594000000E+02  0.51100000000E-03 0. -1.
         11   -1    0    0    0    0 -0.00000000000E+00 -0.00000000000E+00 -0.45593999997E+02  0.45594000000E+02  0.51100000000E-03 0.  1.
    9900012    2    1    2    0    0  0.17904942678E+02  0.34071001915E+02 -0.20054983618E+02  0.47787279825E+02  0.20000040034E+02 0.  0.
         12    1    1    2    0    0 -0.17904942678E+02 -0.34071001915E+02  0.20054983618E+02  0.43400720175E+02  0.00000000000E+00 0. -1.
         11    1    3    3    0    0  0.14779658845E+02  0.14744510682E+02 -0.18867114259E+02  0.28139063801E+02  0.51100000000E-03 0.  1.
        -11    1    3    3    0    0  0.75845509163E+00  0.26959605268E+01  0.85420975612E-01  0.28019197512E+01  0.51100000000E-03 0. -1.
        -12    1    3    3    0    0  0.23668287410E+01  0.16630530706E+02 -0.12732903342E+01  0.16846296273E+02  0.00000000000E+00 0.  1.
</event>
<event>
 7    1  0.2854300E-010  0.4778727E+02  0.7816164E-02  0.1312668E+00
        -11   -1    0    0    0    0  0.00000000000E+00  0.00000000000E+00  0.45593999997E+02  0.45594000000E+02  0.51100000000E-03 0.  1.
         11   -1    0    0    0    0 -0.00000000000E+00 -0.00000000000E+00 -0.45593999997E+02  0.45594000000E+02  0.51100000000E-03 0. -1.
    9900012    2    1    2    0    0 -0.10936187695E+02  0.41705594407E+02 -0.49665126002E+01  0.47787273583E+02  0.20000011574E+02 0.  0.
         12    1    1    2    0    0  0.10936187695E+02 -0.41705594407E+02  0.49665126002E+01  0.43400726417E+02  0.00000000000E+00 0. -1.
         11    1    3    3    0    0  0.14317015176E+01  0.41158397562E+01  0.25383565047E+01  0.50431299944E+01  0.51100000000E-03 0.  1.
        -11    1    3    3    0    0 -0.81951139118E+01  0.66891600620E+01  0.36665746984E+00  0.10584856746E+02  0.51100000000E-03 0. -1.
        -12    1    3    3    0    0 -0.41727753007E+01  0.30900594589E+02 -0.78715265747E+01  0.32159286843E+02  0.00000000000E+00 0.  1.
</event>
<event>
 7    1  0.2580704E-010  0.4778727E+02  0.7816164E-02  0.1312668E+00
        -11   -1    0    0    0    0  0.00000000000E+00  0.00000000000E+00  0.45593999997E+02  0.45594000000E+02  0.51100000000E-03 0.  1.
         11   -1    0    0    0    0 -0.00000000000E+00 -0.00000000000E+00 -0.45593999997E+02  0.45594000000E+02  0.51100000000E-03 0. -1.
    9900012    2    1    2    0    0 -0.26499384568E+02  0.34133588505E+02 -0.40378029877E+01  0.47787273052E+02  0.20000009153E+02 0.  0.
         12    1    1    2    0    0  0.26499384568E+02 -0.34133588505E+02  0.40378029877E+01  0.43400726948E+02  0.00000000000E+00 0. -1.
         11    1    3    3    0    0 -0.16636478196E+02  0.14287622793E+02 -0.32328536598E+01  0.22166639684E+02  0.51100000000E-03 0. -1.
        -11    1    3    3    0    0 -0.59479315522E+01  0.11492788604E+02 -0.68001148752E+01  0.14618606029E+02  0.51100000000E-03 0.  1.
        -12    1    3    3    0    0 -0.39149748191E+01  0.83531771074E+01  0.59951655472E+01  0.11002027339E+02  0.00000000000E+00 0.  1.
</event>
<event>
 7    1  0.2580704E-010  0.4778728E+02  0.7816164E-02  0.1312668E+00
        -11   -1    0    0    0    0  0.00000000000E+00  0.00000000000E+00  0.45593999997E+02  0.45594000000E+02  0.51100000000E-03 0.  1.
         11   -1    0    0    0    0 -0.00000000000E+00 -0.00000000000E+00 -0.45593999997E+02  0.45594000000E+02  0.51100000000E-03 0. -1.
    9900012    2    1    2    0    0  0.35504975595E+01  0.11547224441E+02  0.41685468176E+02  0.47787277860E+02  0.20000031076E+02 0.  0.
         12    1    1    2    0    0 -0.35504975595E+01 -0.11547224441E+02 -0.41685468176E+02  0.43400722140E+02  0.00000000000E+00 0. -1.
         11    1    3    3    0    0 -0.26045562454E+01  0.26917187601E+01  0.20920469969E+02  0.21253120409E+02  0.51100000000E-03 0. -1.
        -11    1    3    3    0    0 -0.31587307474E+01  0.56815033397E+01  0.64006070991E+01  0.91227644731E+01  0.51100000000E-03 0.  1.
        -12    1    3    3    0    0  0.93137845523E+01  0.31740023414E+01  0.14364391108E+02  0.17411392978E+02  0.00000000000E+00 0.  1.
</event>
<event>
 7    1  0.2580704E-010  0.4778728E+02  0.7816164E-02  0.1312668E+00
        -11   -1    0    0    0    0  0.00000000000E+00  0.00000000000E+00  0.45593999997E+02  0.45594000000E+02  0.51100000000E-03 0. -1.
         11   -1    0    0    0    0 -0.00000000000E+00 -0.00000000000E+00 -0.45593999997E+02  0.45594000000E+02  0.51100000000E-03 0.  1.
    9900012    2    1    2    0    0 -0.34064421855E+02  0.62694165527E+01 -0.26152090342E+02  0.47787282846E+02  0.20000053806E+02 0.  0.
         12    1    1    2    0    0  0.34064421855E+02 -0.62694165527E+01  0.26152090342E+02  0.43400717154E+02  0.00000000000E+00 0. -1.
         11    1    3    3    0    0 -0.95020986886E+00 -0.34711800027E+01 -0.38357544445E+01  0.52597530195E+01  0.51100000000E-03 0. -1.
        -11    1    3    3    0    0 -0.13430322819E+02 -0.15336519018E+01 -0.82628519073E+01  0.15842991544E+02  0.51100000000E-03 0.  1.
        -12    1    3    3    0    0 -0.19683889168E+02  0.11274248457E+02 -0.14053483990E+02  0.26684538282E+02  0.00000000000E+00 0.  1.
</event>
<event>
 7    1  0.2580704E-010  0.4778728E+02  0.7816164E-02  0.1312668E+00
        -11   -1    0    0    0    0  0.00000000000E+00  0.00000000000E+00  0.45593999997E+02  0.45594000000E+02  0.51100000000E-03 0.  1.
         11   -1    0    0    0    0 -0.00000000000E+00 -0.00000000000E+00 -0.45593999997E+02  0.45594000000E+02  0.51100000000E-03 0. -1.
    9900012    2    1    2    0    0 -0.23864031173E+02  0.14185313592E+02  0.33360272224E+02  0.47787275716E+02  0.20000021298E+02 0.  0.
         12    1    1    2    0    0  0.23864031173E+02 -0.14185313592E+02 -0.33360272224E+02  0.43400724284E+02  0.00000000000E+00 0. -1.
         11    1    3    3    0    0 -0.26155433549E+01  0.73856111458E-02  0.37562827013E+01  0.45772023750E+01  0.51100000000E-03 0. -1.
        -11    1    3    3    0    0 -0.21460707576E+02  0.17467489519E+02  0.23632480611E+02  0.36389137113E+02  0.51100000000E-03 0.  1.
         12    1    3    3    0    0  0.21221975766E+00 -0.32895615376E+01  0.59715089119E+01  0.68209362276E+01  0.00000000000E+00 0. -1.
</event>
<event>
 7    1  0.2580704E-010  0.4778728E+02  0.7816164E-02  0.1312668E+00
        -11   -1    0    0    0    0  0.00000000000E+00  0.00000000000E+00  0.45593999997E+02  0.45594000000E+02  0.51100000000E-03 0.  1.
         11   -1    0    0    0    0 -0.00000000000E+00 -0.00000000000E+00 -0.45593999997E+02  0.45594000000E+02  0.51100000000E-03 0. -1.
    9900012    2    1    2    0    0  0.14755481500E+02  0.32033693273E+02  0.25293104272E+02  0.47787275782E+02  0.20000021599E+02 0.  0.
         12    1    1    2    0    0 -0.14755481500E+02 -0.32033693273E+02 -0.25293104272E+02  0.43400724218E+02  0.00000000000E+00 0. -1.
         11    1    3    3    0    0  0.92548602958E+01  0.69165157883E+01  0.10717667450E+02  0.15759410699E+02  0.51100000000E-03 0. -1.
        -11    1    3    3    0    0  0.29866424626E+01  0.36240070569E+01  0.82324592867E+01  0.94777025969E+01  0.51100000000E-03 0.  1.
         12    1    3    3    0    0  0.25139787414E+01  0.21493170427E+02  0.63429775351E+01  0.22550162486E+02  0.00000000000E+00 0. -1.
</event>
<event>
 7    1  0.2580704E-010  0.4778727E+02  0.7816164E-02  0.1312668E+00
        -11   -1    0    0    0    0  0.00000000000E+00  0.00000000000E+00  0.45593999997E+02  0.45594000000E+02  0.51100000000E-03 0. -1.
         11   -1    0    0    0    0 -0.00000000000E+00 -0.00000000000E+00 -0.45593999997E+02  0.45594000000E+02  0.51100000000E-03 0.  1.
    9900012    2    1    2    0    0 -0.33621594172E+02  0.26877577834E+02 -0.55504372494E+01  0.47787272604E+02  0.20000007110E+02 0.  0.
         12    1    1    2    0    0  0.33621594172E+02 -0.26877577834E+02  0.55504372494E+01  0.43400727396E+02  0.00000000000E+00 0. -1.
         11    1    3    3    0    0 -0.14735484658E+02  0.19686663665E+02 -0.89704678824E+01  0.26175724033E+02  0.51100000000E-03 0.  1.
        -11    1    3    3    0    0 -0.97764603506E-01  0.32406614191E+00 -0.10594838243E+01  0.11122423374E+01  0.51100000000E-03 0. -1.
        -12    1    3    3    0    0 -0.18788344910E+02  0.68668480272E+01  0.44795144573E+01  0.20499306234E+02  0.00000000000E+00 0.  1.
</event>
<event>
 7    1  0.2580704E-010  0.4778727E+02  0.7816164E-02  0.1312668E+00
        -11   -1    0    0    0    0  0.00000000000E+00  0.00000000000E+00  0.45593999997E+02  0.45594000000E+02  0.51100000000E-03 0.  1.
         11   -1    0    0    0    0 -0.00000000000E+00 -0.00000000000E+00 -0.45593999997E+02  0.45594000000E+02  0.51100000000E-03 0. -1.
    9900012    2    1    2    0    0  0.16347697368E+02  0.22174623805E+02  0.33535983771E+02  0.47787270080E+02  0.19999995601E+02 0.  0.
         12    1    1    2    0    0 -0.16347697368E+02 -0.22174623805E+02 -0.33535983771E+02  0.43400729920E+02  0.00000000000E+00 0. -1.
         11    1    3    3    0    0  0.26439909485E+01  0.23117026778E+00  0.16502987843E+01  0.31253182506E+01  0.51100000000E-03 0. -1.
        -11    1    3    3    0    0  0.14757032053E+02  0.22369349715E+02  0.33366295585E+02  0.42795647945E+02  0.51100000000E-03 0.  1.
        -12    1    3    3    0    0 -0.10533256332E+01 -0.42589617728E+00 -0.14806105987E+01  0.18663038843E+01  0.00000000000E+00 0.  1.
</event>
<event>
 7    1  0.2580704E-010  0.4778728E+02  0.7816164E-02  0.1312668E+00
        -11   -1    0    0    0    0  0.00000000000E+00  0.00000000000E+00  0.45593999997E+02  0.45594000000E+02  0.51100000000E-03 0.  1.
         11   -1    0    0    0    0 -0.00000000000E+00 -0.00000000000E+00 -0.45593999997E+02  0.45594000000E+02  0.51100000000E-03 0. -1.
    9900012    2    1    2    0    0 -0.49558363701E+01  0.43017864259E+02 -0.29198545364E+01  0.47787279844E+02  0.20000040122E+02 0.  0.
         12    1    1    2    0    0  0.49558363701E+01 -0.43017864259E+02  0.29198545364E+01  0.43400720156E+02  0.00000000000E+00 0. -1.
         11    1    3    3    0    0  0.75329947551E+00  0.16017738333E+02  0.28695187655E+01  0.16290166961E+02  0.51100000000E-03 0. -1.
        -11    1    3    3    0    0 -0.96101245454E+01  0.22467310934E+02 -0.22303950108E+01  0.24537913859E+02  0.51100000000E-03 0.  1.
        -12    1    3    3    0    0  0.39009886998E+01  0.45328149923E+01 -0.35589782910E+01  0.69591990248E+01  0.00000000000E+00 0.  1.
</event>
<event>
 7    1  0.2580704E-010  0.4778728E+02  0.7816164E-02  0.1312668E+00
        -11   -1    0    0    0    0  0.00000000000E+00  0.00000000000E+00  0.45593999997E+02  0.45594000000E+02  0.51100000000E-03 0.  1.
         11   -1    0    0    0    0 -0.00000000000E+00 -0.00000000000E+00 -0.45593999997E+02  0.45594000000E+02  0.51100000000E-03 0. -1.
    9900012    2    1    2    0    0  0.24818829051E+01  0.31374238730E+02  0.29885117846E+02  0.47787275728E+02  0.20000021354E+02 0.  0.
         12    1    1    2    0    0 -0.24818829051E+01 -0.31374238730E+02 -0.29885117846E+02  0.43400724272E+02  0.00000000000E+00 0. -1.
         11    1    3    3    0    0  0.46417139831E+01  0.19018116711E+02  0.72901274578E+01  0.20889715903E+02  0.51100000000E-03 0.  1.
        -11    1    3    3    0    0 -0.55844219924E+00 -0.53703740975E+00 -0.64694601710E-01  0.77746544745E+00  0.51100000000E-03 0. -1.
         12    1    3    3    0    0 -0.16013888788E+01  0.12893159430E+02  0.22659684990E+02  0.26120094377E+02  0.00000000000E+00 0. -1.
</event>
<event>
 7    1  0.2580704E-010  0.4778726E+02  0.7816164E-02  0.1312668E+00
        -11   -1    0    0    0    0  0.00000000000E+00  0.00000000000E+00  0.45593999997E+02  0.45594000000E+02  0.51100000000E-03 0.  1.
         11   -1    0    0    0    0 -0.00000000000E+00 -0.00000000000E+00 -0.45593999997E+02  0.45594000000E+02  0.51100000000E-03 0. -1.
    9900012    2    1    2    0    0 -0.13711826570E+02  0.26515541684E+02  0.31504542310E+02  0.47787258937E+02  0.19999944797E+02 0.  0.
         12    1    1    2    0    0  0.13711826570E+02 -0.26515541684E+02 -0.31504542310E+02  0.43400741063E+02  0.00000000000E+00 0. -1.
         11    1    3    3    0    0 -0.64251322547E+01 -0.54321897127E+00  0.62632775714E+01  0.89892189616E+01  0.51100000000E-03 0. -1.
        -11    1    3    3    0    0 -0.14778530800E+00  0.73055992646E+01  0.22240310154E+01  0.76380583482E+01  0.51100000000E-03 0.  1.
        -12    1    3    3    0    0 -0.71389090073E+01  0.19753161391E+02  0.23017233723E+02  0.31159981627E+02  0.00000000000E+00 0.  1.
</event>
<event>
 7    1  0.2580704E-010  0.4778727E+02  0.7816164E-02  0.1312668E+00
        -11   -1    0    0    0    0  0.00000000000E+00  0.00000000000E+00  0.45593999997E+02  0.45594000000E+02  0.51100000000E-03 0.  1.
         11   -1    0    0    0    0 -0.00000000000E+00 -0.00000000000E+00 -0.45593999997E+02  0.45594000000E+02  0.51100000000E-03 0. -1.
    9900012    2    1    2    0    0 -0.15227184474E+02  0.37321102800E+02  0.16090098200E+02  0.47787272803E+02  0.20000008017E+02 0.  0.
         12    1    1    2    0    0  0.15227184474E+02 -0.37321102800E+02 -0.16090098200E+02  0.43400727197E+02  0.00000000000E+00 0. -1.
         11    1    3    3    0    0 -0.10754588349E+02  0.10065988670E+02 -0.64716479944E+00  0.14744630243E+02  0.51100000000E-03 0. -1.
        -11    1    3    3    0    0 -0.35238690940E+01  0.13825013257E+02  0.48108014985E+01  0.15056309517E+02  0.51100000000E-03 0.  1.
         12    1    3    3    0    0 -0.94872703137E+00  0.13430100872E+02  0.11926461501E+02  0.17986333043E+02  0.00000000000E+00 0. -1.
</event>
<event>
 7    1  0.2912309E-010  0.4778727E+02  0.7816164E-02  0.1312668E+00
        -11   -1    0    0    0    0  0.00000000000E+00  0.00000000000E+00  0.45593999997E+02  0.45594000000E+02  0.51100000000E-03 0.  1.
         11   -1    0    0    0    0 -0.00000000000E+00 -0.00000000000E+00 -0.45593999997E+02  0.45594000000E+02  0.51100000000E-03 0. -1.
    9900012    2    1    2    0    0 -0.12595989254E+00  0.43192558685E+02  0.42438645012E+01  0.47787269850E+02  0.19999994556E+02 0.  0.
         12    1    1    2    0    0  0.12595989254E+00 -0.43192558685E+02 -0.42438645012E+01  0.43400730150E+02  0.00000000000E+00 0. -1.
         11    1    3    3    0    0  0.21441611739E+01  0.16113572421E+01  0.29979105431E+01  0.40226070137E+01  0.51100000000E-03 0. -1.
        -11    1    3    3    0    0  0.50213756049E+01  0.21338540260E+02  0.32277414833E+01  0.22157748729E+02  0.51100000000E-03 0.  1.
        -12    1    3    3    0    0 -0.72914966713E+01  0.20242661183E+02 -0.19817875252E+01  0.21606914108E+02  0.00000000000E+00 0.  1.
</event>
<event>
 7    1  0.2580704E-010  0.4778727E+02  0.7816164E-02  0.1312668E+00
        -11   -1    0    0    0    0  0.00000000000E+00  0.00000000000E+00  0.45593999997E+02  0.45594000000E+02  0.51100000000E-03 0.  1.
         11   -1    0    0    0    0 -0.00000000000E+00 -0.00000000000E+00 -0.45593999997E+02  0.45594000000E+02  0.51100000000E-03 0. -1.
    9900012    2    1    2    0    0 -0.73270403112E+00  0.14492642622E+02  0.40902929162E+02  0.47787272363E+02  0.20000006012E+02 0.  0.
         12    1    1    2    0    0  0.73270403112E+00 -0.14492642622E+02 -0.40902929162E+02  0.43400727637E+02  0.00000000000E+00 0. -1.
         11    1    3    3    0    0  0.49710837689E+01  0.42273847106E+01  0.84798675153E+01  0.10700028442E+02  0.51100000000E-03 0. -1.
        -11    1    3    3    0    0  0.15420399306E+00  0.11288449439E+02  0.25938287072E+02  0.28288648007E+02  0.51100000000E-03 0.  1.
         12    1    3    3    0    0 -0.58579917931E+01 -0.10231915277E+01  0.64847745754E+01  0.87985959132E+01  0.00000000000E+00 0. -1.
</event>
<event>
 7    1  0.2580704E-010  0.4778727E+02  0.7816164E-02  0.1312668E+00
        -11   -1    0    0    0    0  0.00000000000E+00  0.00000000000E+00  0.45593999997E+02  0.45594000000E+02  0.51100000000E-03 0.  1.
         11   -1    0    0    0    0 -0.00000000000E+00 -0.00000000000E+00 -0.45593999997E+02  0.45594000000E+02  0.51100000000E-03 0. -1.
    9900012    2    1    2    0    0  0.23133811642E+01 -0.60503874713E+01  0.42914615500E+02  0.47787272535E+02  0.20000006798E+02 0.  0.
         12    1    1    2    0    0 -0.23133811642E+01  0.60503874713E+01 -0.42914615500E+02  0.43400727465E+02  0.00000000000E+00 0. -1.
         11    1    3    3    0    0 -0.12846302146E+01 -0.31499221548E+01  0.37112036211E+00  0.34219899114E+01  0.51100000000E-03 0. -1.
        -11    1    3    3    0    0 -0.22885834294E+01  0.33097139644E+01  0.13998963765E+02  0.14565809535E+02  0.51100000000E-03 0.  1.
         12    1    3    3    0    0  0.58865948082E+01 -0.62101792809E+01  0.28544531372E+02  0.29799473089E+02  0.00000000000E+00 0. -1.
</event>
<event>
 7    1  0.2580704E-010  0.4778727E+02  0.7816164E-02  0.1312668E+00
        -11   -1    0    0    0    0  0.00000000000E+00  0.00000000000E+00  0.45593999997E+02  0.45594000000E+02  0.51100000000E-03 0. -1.
         11   -1    0    0    0    0 -0.00000000000E+00 -0.00000000000E+00 -0.45593999997E+02  0.45594000000E+02  0.51100000000E-03 0.  1.
    9900012    2    1    2    0    0  0.17833821401E+02  0.35871017782E+02  0.16698749503E+02  0.47787270312E+02  0.19999996660E+02 0.  0.
         12    1    1    2    0    0 -0.17833821401E+02 -0.35871017782E+02 -0.16698749503E+02  0.43400729688E+02  0.00000000000E+00 0. -1.
         11    1    3    3    0    0  0.21384534921E+01 -0.13351338325E+01  0.36992390070E+01  0.44765986173E+01  0.51100000000E-03 0. -1.
        -11    1    3    3    0    0  0.34275566410E+01  0.78960998197E+01 -0.84967451613E+00  0.86497678544E+01  0.51100000000E-03 0.  1.
        -12    1    3    3    0    0  0.12267811268E+02  0.29310051795E+02  0.13849185012E+02  0.34660903840E+02  0.00000000000E+00 0.  1.
</event>
<event>
 7    1  0.2580704E-010  0.4778729E+02  0.7816164E-02  0.1312668E+00
        -11   -1    0    0    0    0  0.00000000000E+00  0.00000000000E+00  0.45593999997E+02  0.45594000000E+02  0.51100000000E-03 0. -1.
         11   -1    0    0    0    0 -0.00000000000E+00 -0.00000000000E+00 -0.45593999997E+02  0.45594000000E+02  0.51100000000E-03 0.  1.
    9900012    2    1    2    0    0  0.37810079382E+02 -0.20239735186E+02 -0.66612896882E+01  0.47787288444E+02  0.20000079331E+02 0.  0.
         12    1    1    2    0    0 -0.37810079382E+02  0.20239735186E+02  0.66612896882E+01  0.43400711556E+02  0.00000000000E+00 0. -1.
         11    1    3    3    0    0  0.86523557663E+00  0.54932976571E+00  0.75971915844E+00  0.12757622253E+01  0.51100000000E-03 0. -1.
        -11    1    3    3    0    0  0.32744891868E+02 -0.23904090671E+02 -0.77350694704E+01  0.41273051671E+02  0.51100000000E-03 0.  1.
        -12    1    3    3    0    0  0.41999519371E+01  0.31150257196E+01  0.31406062367E+00  0.52384745473E+01  0.00000000000E+00 0.  1.
</event>
<event>
 7    1  0.4157675E-010  0.4778727E+02  0.7816164E-02  0.1312668E+00
        -11   -1    0    0    0    0  0.00000000000E+00  0.00000000000E+00  0.45593999997E+02  0.45594000000E+02  0.51100000000E-03 0. -1.
         11   -1    0    0    0    0 -0.00000000000E+00 -0.00000000000E+00 -0.45593999997E+02  0.45594000000E+02  0.51100000000E-03 0.  1.
    9900012    2    1    2    0    0 -0.18043401568E+02  0.20186283308E+02 -0.33920096751E+02  0.47787270311E+02  0.19999996655E+02 0.  0.
         12    1    1    2    0    0  0.18043401568E+02 -0.20186283308E+02  0.33920096751E+02  0.43400729689E+02  0.00000000000E+00 0. -1.
         11    1    3    3    0    0  0.25555442804E+01  0.27147252412E+00 -0.22515989628E+01  0.34167531446E+01  0.51100000000E-03 0. -1.
        -11    1    3    3    0    0 -0.65357442035E+01  0.12977740037E+02 -0.10065927584E+02  0.17676554731E+02  0.51100000000E-03 0.  1.
        -12    1    3    3    0    0 -0.14063201645E+02  0.69370707469E+01 -0.21602570205E+02  0.26693962435E+02  0.00000000000E+00 0.  1.
</event>
<event>
 7    1  0.2580704E-010  0.4778727E+02  0.7816164E-02  0.1312668E+00
        -11   -1    0    0    0    0  0.00000000000E+00  0.00000000000E+00  0.45593999997E+02  0.45594000000E+02  0.51100000000E-03 0.  1.
         11   -1    0    0    0    0 -0.00000000000E+00 -0.00000000000E+00 -0.45593999997E+02  0.45594000000E+02  0.51100000000E-03 0. -1.
    9900012    2    1    2    0    0  0.64364809807E+00 -0.22699329125E+02  0.36985800095E+02  0.47787271500E+02  0.20000002079E+02 0.  0.
         12    1    1    2    0    0 -0.64364809807E+00  0.22699329125E+02 -0.36985800095E+02  0.43400728500E+02  0.00000000000E+00 0. -1.
         11    1    3    3    0    0 -0.27908457800E+01 -0.48811862594E+00  0.59875070060E+01  0.66239958007E+01  0.51100000000E-03 0. -1.
        -11    1    3    3    0    0  0.44486529938E+01 -0.12229653023E+02  0.27695662844E+02  0.30600729846E+02  0.51100000000E-03 0.  1.
         12    1    3    3    0    0 -0.10141591157E+01 -0.99815574764E+01  0.33026302457E+01  0.10562545853E+02  0.00000000000E+00 0. -1.
</event>
<event>
 7    1  0.2580704E-010  0.4778727E+02  0.7816164E-02  0.1312668E+00
        -11   -1    0    0    0    0  0.00000000000E+00  0.00000000000E+00  0.45593999997E+02  0.45594000000E+02  0.51100000000E-03 0.  1.
         11   -1    0    0    0    0 -0.00000000000E+00 -0.00000000000E+00 -0.45593999997E+02  0.45594000000E+02  0.51100000000E-03 0. -1.
    9900012    2    1    2    0    0  0.36610933923E+02 -0.22938016505E+01  0.23194850054E+02  0.47787273304E+02  0.20000010302E+02 0.  0.
         12    1    1    2    0    0 -0.36610933923E+02  0.22938016505E+01 -0.23194850054E+02  0.43400726696E+02  0.00000000000E+00 0. -1.
         11    1    3    3    0    0  0.81681050893E+01  0.23726408241E+00 -0.22424917179E+01  0.84736653439E+01  0.51100000000E-03 0. -1.
        -11    1    3    3    0    0  0.62734909184E+01 -0.43706010637E+01  0.52595206492E+01  0.92801616193E+01  0.51100000000E-03 0.  1.
        -12    1    3    3    0    0  0.22169337915E+02  0.18395353307E+01  0.20177821123E+02  0.30033446341E+02  0.00000000000E+00 0.  1.
</event>
<event>
 7    1  0.2580704E-010  0.4778727E+02  0.7816164E-02  0.1312668E+00
        -11   -1    0    0    0    0  0.00000000000E+00  0.00000000000E+00  0.45593999997E+02  0.45594000000E+02  0.51100000000E-03 0.  1.
         11   -1    0    0    0    0 -0.00000000000E+00 -0.00000000000E+00 -0.45593999997E+02  0.45594000000E+02  0.51100000000E-03 0. -1.
    9900012    2    1    2    0    0  0.32214447895E+02 -0.29061702191E+02 -0.11269048890E+01  0.47787273024E+02  0.20000009024E+02 0.  0.
         12    1    1    2    0    0 -0.32214447895E+02  0.29061702191E+02  0.11269048890E+01  0.43400726976E+02  0.00000000000E+00 0. -1.
         11    1    3    3    0    0  0.74657565006E+01 -0.40458134522E+01 -0.30765220009E+00  0.84971040216E+01  0.51100000000E-03 0. -1.
        -11    1    3    3    0    0  0.26763047314E+02 -0.22441184872E+02  0.19852394413E+01  0.34982976658E+02  0.51100000000E-03 0.  1.
         12    1    3    3    0    0 -0.20143559195E+01 -0.25747038674E+01 -0.28044921303E+01  0.43071923435E+01  0.00000000000E+00 0. -1.
</event>
<event>
 7    1  0.2580704E-010  0.4778727E+02  0.7816164E-02  0.1312668E+00
        -11   -1    0    0    0    0  0.00000000000E+00  0.00000000000E+00  0.45593999997E+02  0.45594000000E+02  0.51100000000E-03 0.  1.
         11   -1    0    0    0    0 -0.00000000000E+00 -0.00000000000E+00 -0.45593999997E+02  0.45594000000E+02  0.51100000000E-03 0. -1.
    9900012    2    1    2    0    0 -0.79225821315E+00  0.62845901859E+01  0.42935995573E+02  0.47787268869E+02  0.19999990082E+02 0.  0.
         12    1    1    2    0    0  0.79225821315E+00 -0.62845901859E+01 -0.42935995573E+02  0.43400731131E+02  0.00000000000E+00 0. -1.
         11    1    3    3    0    0 -0.25341226278E+01 -0.27309069601E+00  0.32888103007E+01  0.41608448031E+01  0.51100000000E-03 0. -1.
        -11    1    3    3    0    0  0.11433831594E+01  0.72405730310E+01  0.41189486844E+02  0.41836671111E+02  0.51100000000E-03 0.  1.
         12    1    3    3    0    0  0.59848125518E+00 -0.68289214906E+00 -0.15423015726E+01  0.17897529553E+01  0.00000000000E+00 0. -1.
</event>
<event>
 7    1  0.2580704E-010  0.4778728E+02  0.7816164E-02  0.1312668E+00
        -11   -1    0    0    0    0  0.00000000000E+00  0.00000000000E+00  0.45593999997E+02  0.45594000000E+02  0.51100000000E-03 0.  1.
         11   -1    0    0    0    0 -0.00000000000E+00 -0.00000000000E+00 -0.45593999997E+02  0.45594000000E+02  0.51100000000E-03 0. -1.
    9900012    2    1    2    0    0 -0.11562176609E+02 -0.36235752453E+02 -0.20902364318E+02  0.47787279754E+02  0.20000039712E+02 0.  0.
         12    1    1    2    0    0  0.11562176609E+02  0.36235752453E+02  0.20902364318E+02  0.43400720246E+02  0.00000000000E+00 0. -1.
         11    1    3    3    0    0  0.20116675549E+01 -0.19079144954E+02 -0.44112978401E+01  0.19685530915E+02  0.51100000000E-03 0. -1.
        -11    1    3    3    0    0 -0.79151092254E+00 -0.39496903045E+01 -0.12289287295E+01  0.42115091269E+01  0.51100000000E-03 0.  1.
         12    1    3    3    0    0 -0.12782333241E+02 -0.13206917195E+02 -0.15262137748E+02  0.23890239712E+02  0.00000000000E+00 0. -1.
</event>
<event>
 7    1  0.2580704E-010  0.4778727E+02  0.7816164E-02  0.1312668E+00
        -11   -1    0    0    0    0  0.00000000000E+00  0.00000000000E+00  0.45593999997E+02  0.45594000000E+02  0.51100000000E-03 0.  1.
         11   -1    0    0    0    0 -0.00000000000E+00 -0.00000000000E+00 -0.45593999997E+02  0.45594000000E+02  0.51100000000E-03 0. -1.
    9900012    2    1    2    0    0  0.18195539462E+02  0.74835992850E+01  0.38685155771E+02  0.47787271992E+02  0.20000004322E+02 0.  0.
         12    1    1    2    0    0 -0.18195539462E+02 -0.74835992850E+01 -0.38685155771E+02  0.43400728008E+02  0.00000000000E+00 0. -1.
         11    1    3    3    0    0  0.85069416433E+01 -0.34125851262E+01  0.15603585052E+02  0.18096564871E+02  0.51100000000E-03 0. -1.
        -11    1    3    3    0    0  0.59933392393E+01  0.34280063878E+01  0.19379903066E+02  0.20573088882E+02  0.51100000000E-03 0.  1.
         12    1    3    3    0    0  0.36952585793E+01  0.74681780234E+01  0.37016676523E+01  0.91176182398E+01  0.00000000000E+00 0. -1.
</event>
<event>
 7    1  0.2580704E-010  0.4778726E+02  0.7816164E-02  0.1312668E+00
        -11   -1    0    0    0    0  0.00000000000E+00  0.00000000000E+00  0.45593999997E+02  0.45594000000E+02  0.51100000000E-03 0.  1.
         11   -1    0    0    0    0 -0.00000000000E+00 -0.00000000000E+00 -0.45593999997E+02  0.45594000000E+02  0.51100000000E-03 0. -1.
    9900012    2    1    2    0    0  0.50831135496E+01 -0.32498267575E+02  0.28313397853E+02  0.47787263408E+02  0.19999965183E+02 0.  0.
         12    1    1    2    0    0 -0.50831135496E+01  0.32498267575E+02 -0.28313397853E+02  0.43400736592E+02  0.00000000000E+00 0. -1.
         11    1    3    3    0    0  0.24210352676E+01 -0.98718079047E+01  0.14218251104E+02  0.17477776397E+02  0.51100000000E-03 0.  1.
        -11    1    3    3    0    0 -0.17550744767E+01 -0.13060243485E+02  0.14716839948E+02  0.19754382415E+02  0.51100000000E-03 0. -1.
         12    1    3    3    0    0  0.44171527587E+01 -0.95662161849E+01 -0.62169319838E+00  0.10555104596E+02  0.00000000000E+00 0. -1.
</event>
<event>
 7    1  0.2580704E-010  0.4778727E+02  0.7816164E-02  0.1312668E+00
        -11   -1    0    0    0    0  0.00000000000E+00  0.00000000000E+00  0.45593999997E+02  0.45594000000E+02  0.51100000000E-03 0.  1.
         11   -1    0    0    0    0 -0.00000000000E+00 -0.00000000000E+00 -0.45593999997E+02  0.45594000000E+02  0.51100000000E-03 0. -1.
    9900012    2    1    2    0    0  0.16929459974E+01  0.26832891920E+02  0.34069834368E+02  0.47787265342E+02  0.19999974002E+02 0.  0.
         12    1    1    2    0    0 -0.16929459974E+01 -0.26832891920E+02 -0.34069834368E+02  0.43400734658E+02  0.00000000000E+00 0. -1.
         11    1    3    3    0    0 -0.27970912962E+01 -0.41932843522E+00  0.30689146423E+01  0.41734629984E+01  0.51100000000E-03 0. -1.
        -11    1    3    3    0    0 -0.39811744415E+01  0.14208862566E+02  0.11733721214E+02  0.18852632154E+02  0.51100000000E-03 0.  1.
        -12    1    3    3    0    0  0.84712117351E+01  0.13043357789E+02  0.19267198512E+02  0.24761170190E+02  0.00000000000E+00 0.  1.
</event>
<event>
 7    1  0.2580704E-010  0.4778729E+02  0.7816164E-02  0.1312668E+00
        -11   -1    0    0    0    0  0.00000000000E+00  0.00000000000E+00  0.45593999997E+02  0.45594000000E+02  0.51100000000E-03 0.  1.
         11   -1    0    0    0    0 -0.00000000000E+00 -0.00000000000E+00 -0.45593999997E+02  0.45594000000E+02  0.51100000000E-03 0. -1.
    9900012    2    1    2    0    0 -0.10737035189E+02  0.23174999601E+01  0.41987704483E+02  0.47787285047E+02  0.20000063843E+02 0.  0.
         12    1    1    2    0    0  0.10737035189E+02 -0.23174999601E+01 -0.41987704483E+02  0.43400714953E+02  0.00000000000E+00 0. -1.
         11    1    3    3    0    0 -0.91408443846E-01  0.51201248852E+01  0.53497976746E+01  0.74056984656E+01  0.51100000000E-03 0. -1.
        -11    1    3    3    0    0 -0.64026247645E+01  0.10250607452E+01  0.48843836465E+01  0.81179774127E+01  0.51100000000E-03 0.  1.
         12    1    3    3    0    0 -0.42430019804E+01 -0.38276856703E+01  0.31753523162E+02  0.32263609169E+02  0.00000000000E+00 0. -1.
</event>
<event>
 7    1  0.4435869E-010  0.4778727E+02  0.7816164E-02  0.1312668E+00
        -11   -1    0    0    0    0  0.00000000000E+00  0.00000000000E+00  0.45593999997E+02  0.45594000000E+02  0.51100000000E-03 0. -1.
         11   -1    0    0    0    0 -0.00000000000E+00 -0.00000000000E+00 -0.45593999997E+02  0.45594000000E+02  0.51100000000E-03 0.  1.
    9900012    2    1    2    0    0  0.22693468402E+02 -0.19335419111E+02 -0.31539992465E+02  0.47787273451E+02  0.20000010971E+02 0.  0.
         12    1    1    2    0    0 -0.22693468402E+02  0.19335419111E+02  0.31539992465E+02  0.43400726549E+02  0.00000000000E+00 0. -1.
         11    1    3    3    0    0 -0.10802690596E+01 -0.30787144323E+01 -0.34400570108E+01  0.47412504991E+01  0.51100000000E-03 0. -1.
        -11    1    3    3    0    0  0.97719270010E+01 -0.17393371288E+01 -0.21088578672E+01  0.10147075082E+02  0.51100000000E-03 0.  1.
        -12    1    3    3    0    0  0.14001810461E+02 -0.14517367550E+02 -0.25991077587E+02  0.32898947869E+02  0.00000000000E+00 0.  1.
</event>
<event>
 7    1  0.2580704E-010  0.4778727E+02  0.7816164E-02  0.1312668E+00
        -11   -1    0    0    0    0  0.00000000000E+00  0.00000000000E+00  0.45593999997E+02  0.45594000000E+02  0.51100000000E-03 0.  1.
         11   -1    0    0    0    0 -0.00000000000E+00 -0.00000000000E+00 -0.45593999997E+02  0.45594000000E+02  0.51100000000E-03 0. -1.
    9900012    2    1    2    0    0  0.30064352200E+01 -0.13646462627E+02  0.41089641627E+02  0.47787271389E+02  0.20000001570E+02 0.  0.
         12    1    1    2    0    0 -0.30064352200E+01  0.13646462627E+02 -0.41089641627E+02  0.43400728611E+02  0.00000000000E+00 0. -1.
         11    1    3    3    0    0  0.63318051996E+01 -0.12498339528E+01  0.12316665250E+02  0.13905181952E+02  0.51100000000E-03 0.  1.
        -11    1    3    3    0    0  0.22909350566E+01  0.14664609397E+01  0.65700902802E+01  0.71109055452E+01  0.51100000000E-03 0. -1.
        -12    1    3    3    0    0 -0.56163050362E+01 -0.13863089614E+02  0.22202886097E+02  0.26771183891E+02  0.00000000000E+00 0.  1.
</event>
<event>
 7    1  0.2580704E-010  0.4778727E+02  0.7816164E-02  0.1312668E+00
        -11   -1    0    0    0    0  0.00000000000E+00  0.00000000000E+00  0.45593999997E+02  0.45594000000E+02  0.51100000000E-03 0.  1.
         11   -1    0    0    0    0 -0.00000000000E+00 -0.00000000000E+00 -0.45593999997E+02  0.45594000000E+02  0.51100000000E-03 0. -1.
    9900012    2    1    2    0    0  0.27488308039E+02 -0.13713783166E+02  0.30658573947E+02  0.47787273232E+02  0.20000009972E+02 0.  0.
         12    1    1    2    0    0 -0.27488308039E+02  0.13713783166E+02 -0.30658573947E+02  0.43400726768E+02  0.00000000000E+00 0. -1.
         11    1    3    3    0    0  0.14069720104E+02 -0.26154782794E+01  0.14862801001E+02  0.20632513281E+02  0.51100000000E-03 0. -1.
        -11    1    3    3    0    0  0.10839778133E+02 -0.10581137087E+02  0.18138944726E+02  0.23632235782E+02  0.51100000000E-03 0.  1.
         12    1    3    3    0    0  0.25788098023E+01 -0.51716779885E+00 -0.23431717800E+01  0.35225241687E+01  0.00000000000E+00 0. -1.
</event>
<event>
 7    1  0.2580704E-010  0.4778729E+02  0.7816164E-02  0.1312668E+00
        -11   -1    0    0    0    0  0.00000000000E+00  0.00000000000E+00  0.45593999997E+02  0.45594000000E+02  0.51100000000E-03 0.  1.
         11   -1    0    0    0    0 -0.00000000000E+00 -0.00000000000E+00 -0.45593999997E+02  0.45594000000E+02  0.51100000000E-03 0. -1.
    9900012    2    1    2    0    0  0.39542450865E+02 -0.56205300898E+01  0.16983094894E+02  0.47787293887E+02  0.20000104150E+02 0.  0.
         12    1    1    2    0    0 -0.39542450865E+02  0.56205300898E+01 -0.16983094894E+02  0.43400706113E+02  0.00000000000E+00 0. -1.
         11    1    3    3    0    0  0.13147187103E+01  0.23186562880E+01 -0.17029507706E+01  0.31630197371E+01  0.51100000000E-03 0. -1.
        -11    1    3    3    0    0 -0.28183250757E+00 -0.13216501498E+01  0.12338507072E+01  0.18299116124E+01  0.51100000000E-03 0.  1.
        -12    1    3    3    0    0  0.38509564662E+02 -0.66175362280E+01  0.17452194957E+02  0.42794362538E+02  0.00000000000E+00 0.  1.
</event>
<event>
 7    1  0.2580704E-010  0.4778726E+02  0.7816164E-02  0.1312668E+00
        -11   -1    0    0    0    0  0.00000000000E+00  0.00000000000E+00  0.45593999997E+02  0.45594000000E+02  0.51100000000E-03 0.  1.
         11   -1    0    0    0    0 -0.00000000000E+00 -0.00000000000E+00 -0.45593999997E+02  0.45594000000E+02  0.51100000000E-03 0. -1.
    9900012    2    1    2    0    0  0.54137057671E+01  0.30054254495E+02  0.30839220000E+02  0.47787263674E+02  0.19999966397E+02 0.  0.
         12    1    1    2    0    0 -0.54137057671E+01 -0.30054254495E+02 -0.30839220000E+02  0.43400736326E+02  0.00000000000E+00 0. -1.
         11    1    3    3    0    0  0.93663655114E+01  0.90314435811E+01  0.13853353980E+02  0.19005556893E+02  0.51100000000E-03 0. -1.
        -11    1    3    3    0    0 -0.16923825549E+01 -0.54648516606E-01  0.12914182546E+00  0.16981822767E+01  0.51100000000E-03 0.  1.
        -12    1    3    3    0    0 -0.22602771894E+01  0.21077459431E+02  0.16856724195E+02  0.27083524505E+02  0.00000000000E+00 0.  1.
</event>
<event>
 7    1  0.2580704E-010  0.4778727E+02  0.7816164E-02  0.1312668E+00
        -11   -1    0    0    0    0  0.00000000000E+00  0.00000000000E+00  0.45593999997E+02  0.45594000000E+02  0.51100000000E-03 0. -1.
         11   -1    0    0    0    0 -0.00000000000E+00 -0.00000000000E+00 -0.45593999997E+02  0.45594000000E+02  0.51100000000E-03 0.  1.
    9900012    2    1    2    0    0  0.34498819622E+02 -0.71280349473E+01 -0.25350461098E+02  0.47787270566E+02  0.19999997819E+02 0.  0.
         12    1    1    2    0    0 -0.34498819622E+02  0.71280349473E+01  0.25350461098E+02  0.43400729434E+02  0.00000000000E+00 0. -1.
         11    1    3    3    0    0  0.11906712607E+01  0.22274856752E+01 -0.12769344861E+01  0.28301859351E+01  0.51100000000E-03 0. -1.
        -11    1    3    3    0    0  0.10859124753E+02  0.39860020997E+01 -0.10006463157E+02  0.15295035413E+02  0.51100000000E-03 0.  1.
        -12    1    3    3    0    0  0.22449023609E+02 -0.13341522722E+02 -0.14067063455E+02  0.29662049217E+02  0.00000000000E+00 0.  1.
</event>
<event>
 7    1  0.2580704E-010  0.4778726E+02  0.7816164E-02  0.1312668E+00
        -11   -1    0    0    0    0  0.00000000000E+00  0.00000000000E+00  0.45593999997E+02  0.45594000000E+02  0.51100000000E-03 0.  1.
         11   -1    0    0    0    0 -0.00000000000E+00 -0.00000000000E+00 -0.45593999997E+02  0.45594000000E+02  0.51100000000E-03 0. -1.
    9900012    2    1    2    0    0 -0.25296862960E+02 -0.34400374410E+02  0.77657550337E+01  0.47787262835E+02  0.19999962572E+02 0.  0.
         12    1    1    2    0    0  0.25296862960E+02  0.34400374410E+02 -0.77657550337E+01  0.43400737165E+02  0.00000000000E+00 0. -1.
         11    1    3    3    0    0 -0.88636476604E+01 -0.11232697775E+02 -0.29717540952E+00  0.14311745618E+02  0.51100000000E-03 0. -1.
        -11    1    3    3    0    0 -0.16398622753E+02 -0.24715031154E+02  0.50487198475E+01  0.30087159478E+02  0.51100000000E-03 0.  1.
         12    1    3    3    0    0 -0.34592547062E-01  0.15473545188E+01  0.30142105957E+01  0.33883577389E+01  0.00000000000E+00 0. -1.
</event>
<event>
 7    1  0.2580704E-010  0.4778728E+02  0.7816164E-02  0.1312668E+00
        -11   -1    0    0    0    0  0.00000000000E+00  0.00000000000E+00  0.45593999997E+02  0.45594000000E+02  0.51100000000E-03 0.  1.
         11   -1    0    0    0    0 -0.00000000000E+00 -0.00000000000E+00 -0.45593999997E+02  0.45594000000E+02  0.51100000000E-03 0. -1.
    9900012    2    1    2    0    0  0.28432015846E+02 -0.13105067602E+01  0.32764701830E+02  0.47787278358E+02  0.20000033345E+02 0.  0.
         12    1    1    2    0    0 -0.28432015846E+02  0.13105067602E+01 -0.32764701830E+02  0.43400721642E+02  0.00000000000E+00 0. -1.
         11    1    3    3    0    0 -0.22776826827E+01 -0.31711344859E+01  0.38436765558E+01  0.54788486069E+01  0.51100000000E-03 0. -1.
        -11    1    3    3    0    0  0.75841513787E+01  0.15361806835E+01  0.78105405415E+01  0.10994714505E+02  0.51100000000E-03 0.  1.
         12    1    3    3    0    0  0.23125547150E+02  0.32444704211E+00  0.21110484733E+02  0.31313715246E+02  0.00000000000E+00 0. -1.
</event>
<event>
 7    1  0.2580704E-010  0.4778727E+02  0.7816164E-02  0.1312668E+00
        -11   -1    0    0    0    0  0.00000000000E+00  0.00000000000E+00  0.45593999997E+02  0.45594000000E+02  0.51100000000E-03 0.  1.
         11   -1    0    0    0    0 -0.00000000000E+00 -0.00000000000E+00 -0.45593999997E+02  0.45594000000E+02  0.51100000000E-03 0. -1.
    9900012    2    1    2    0    0 -0.42701961999E+02  0.39616273592E+01 -0.66686714866E+01  0.47787271558E+02  0.20000002340E+02 0.  0.
         12    1    1    2    0    0  0.42701961999E+02 -0.39616273592E+01  0.66686714866E+01  0.43400728442E+02  0.00000000000E+00 0. -1.
         11    1    3    3    0    0 -0.87795729029E+01  0.61355483967E+01 -0.71858314769E+01  0.12898140516E+02  0.51100000000E-03 0. -1.
        -11    1    3    3    0    0 -0.13991177370E+02 -0.25344591658E+01 -0.32895662019E+01  0.14594443242E+02  0.51100000000E-03 0.  1.
        -12    1    3    3    0    0 -0.19931211726E+02  0.36053812833E+00  0.38067261923E+01  0.20294687800E+02  0.00000000000E+00 0.  1.
</event>
<event>
 7    1  0.2580704E-010  0.4778727E+02  0.7816164E-02  0.1312668E+00
        -11   -1    0    0    0    0  0.00000000000E+00  0.00000000000E+00  0.45593999997E+02  0.45594000000E+02  0.51100000000E-03 0.  1.
         11   -1    0    0    0    0 -0.00000000000E+00 -0.00000000000E+00 -0.45593999997E+02  0.45594000000E+02  0.51100000000E-03 0. -1.
    9900012    2    1    2    0    0  0.42013227849E+02  0.65651192936E+01 -0.86839592306E+01  0.47787271279E+02  0.20000001068E+02 0.  0.
         12    1    1    2    0    0 -0.42013227849E+02 -0.65651192936E+01  0.86839592306E+01  0.43400728721E+02  0.00000000000E+00 0. -1.
         11    1    3    3    0    0 -0.23487774711E-01 -0.35328550519E+01 -0.11639979079E+01  0.37197456747E+01  0.51100000000E-03 0. -1.
        -11    1    3    3    0    0  0.12065532565E+02  0.14293414690E+01 -0.32499296601E+01  0.12577047991E+02  0.51100000000E-03 0.  1.
         12    1    3    3    0    0  0.29971183059E+02  0.86686328766E+01 -0.42700316626E+01  0.31490477613E+02  0.00000000000E+00 0. -1.
</event>
<event>
 7    1  0.2580704E-010  0.4778727E+02  0.7816164E-02  0.1312668E+00
        -11   -1    0    0    0    0  0.00000000000E+00  0.00000000000E+00  0.45593999997E+02  0.45594000000E+02  0.51100000000E-03 0.  1.
         11   -1    0    0    0    0 -0.00000000000E+00 -0.00000000000E+00 -0.45593999997E+02  0.45594000000E+02  0.51100000000E-03 0. -1.
    9900012    2    1    2    0    0  0.53759939198E+01  0.12012052978E+02  0.41357375684E+02  0.47787271310E+02  0.20000001211E+02 0.  0.
         12    1    1    2    0    0 -0.53759939198E+01 -0.12012052978E+02 -0.41357375684E+02  0.43400728690E+02  0.00000000000E+00 0. -1.
         11    1    3    3    0    0  0.77050296940E+01  0.13292783243E+02  0.23329096013E+02  0.27934070415E+02  0.51100000000E-03 0. -1.
        -11    1    3    3    0    0  0.31485607081E+00  0.30886790111E+01  0.83801488933E+01  0.89367761589E+01  0.51100000000E-03 0.  1.
        -12    1    3    3    0    0 -0.26438918450E+01 -0.43694092758E+01  0.96481307776E+01  0.10916424736E+02  0.00000000000E+00 0.  1.
</event>
<event>
 7    1  0.2580704E-010  0.4778727E+02  0.7816164E-02  0.1312668E+00
        -11   -1    0    0    0    0  0.00000000000E+00  0.00000000000E+00  0.45593999997E+02  0.45594000000E+02  0.51100000000E-03 0.  1.
         11   -1    0    0    0    0 -0.00000000000E+00 -0.00000000000E+00 -0.45593999997E+02  0.45594000000E+02  0.51100000000E-03 0. -1.
    9900012    2    1    2    0    0  0.42220748312E+01  0.40527550136E+02  0.14943730749E+02  0.47787270460E+02  0.19999997335E+02 0.  0.
         12    1    1    2    0    0 -0.42220748312E+01 -0.40527550136E+02 -0.14943730749E+02  0.43400729540E+02  0.00000000000E+00 0. -1.
         11    1    3    3    0    0 -0.32516683866E+01  0.14049429839E+02  0.98356478955E+01  0.17455652262E+02  0.51100000000E-03 0. -1.
        -11    1    3    3    0    0 -0.27674849421E+01  0.94109425525E+01  0.11178686942E+00  0.98100616306E+01  0.51100000000E-03 0.  1.
        -12    1    3    3    0    0  0.10241228160E+02  0.17067177744E+02  0.49962959841E+01  0.20521556567E+02  0.00000000000E+00 0.  1.
</event>
<event>
 7    1  0.2580704E-010  0.4778727E+02  0.7816164E-02  0.1312668E+00
        -11   -1    0    0    0    0  0.00000000000E+00  0.00000000000E+00  0.45593999997E+02  0.45594000000E+02  0.51100000000E-03 0.  1.
         11   -1    0    0    0    0 -0.00000000000E+00 -0.00000000000E+00 -0.45593999997E+02  0.45594000000E+02  0.51100000000E-03 0. -1.
    9900012    2    1    2    0    0 -0.73645749819E+01  0.91554575260E+01  0.41779947303E+02  0.47787270008E+02  0.19999995275E+02 0.  0.
         12    1    1    2    0    0  0.73645749819E+01 -0.91554575260E+01 -0.41779947303E+02  0.43400729992E+02  0.00000000000E+00 0. -1.
         11    1    3    3    0    0 -0.21262347484E+01  0.26593752952E+00  0.20256038858E+02  0.20369062508E+02  0.51100000000E-03 0. -1.
        -11    1    3    3    0    0 -0.19334415771E+00  0.36956076022E+01  0.19572244376E+02  0.19919027278E+02  0.51100000000E-03 0.  1.
         12    1    3    3    0    0 -0.50449960757E+01  0.51939123943E+01  0.19516640687E+01  0.74991802219E+01  0.00000000000E+00 0. -1.
</event>
<event>
 7    1  0.2580704E-010  0.4778727E+02  0.7816164E-02  0.1312668E+00
        -11   -1    0    0    0    0  0.00000000000E+00  0.00000000000E+00  0.45593999997E+02  0.45594000000E+02  0.51100000000E-03 0.  1.
         11   -1    0    0    0    0 -0.00000000000E+00 -0.00000000000E+00 -0.45593999997E+02  0.45594000000E+02  0.51100000000E-03 0. -1.
    9900012    2    1    2    0    0  0.18149011894E+02 -0.10635867338E+02  0.37962021301E+02  0.47787269959E+02  0.19999995053E+02 0.  0.
         12    1    1    2    0    0 -0.18149011894E+02  0.10635867338E+02 -0.37962021301E+02  0.43400730041E+02  0.00000000000E+00 0. -1.
         11    1    3    3    0    0  0.38947626008E+01 -0.10034153513E+01  0.96470516104E+01  0.10451871752E+02  0.51100000000E-03 0. -1.
        -11    1    3    3    0    0  0.71158379894E+01  0.34586905654E+01  0.16543105846E+02  0.18337721832E+02  0.51100000000E-03 0.  1.
         12    1    3    3    0    0  0.71384113039E+01 -0.13091142552E+02  0.11771863845E+02  0.18997676375E+02  0.00000000000E+00 0. -1.
</event>
<event>
 7    1  0.2580704E-010  0.4778726E+02  0.7816164E-02  0.1312668E+00
        -11   -1    0    0    0    0  0.00000000000E+00  0.00000000000E+00  0.45593999997E+02  0.45594000000E+02  0.51100000000E-03 0. -1.
         11   -1    0    0    0    0 -0.00000000000E+00 -0.00000000000E+00 -0.45593999997E+02  0.45594000000E+02  0.51100000000E-03 0.  1.
    9900012    2    1    2    0    0 -0.36678058108E+02 -0.22915872150E+02  0.36341257277E+01  0.47787262532E+02  0.19999961189E+02 0.  0.
         12    1    1    2    0    0  0.36678058108E+02  0.22915872150E+02 -0.36341257277E+01  0.43400737468E+02  0.00000000000E+00 0. -1.
         11    1    3    3    0    0 -0.25704810003E+02 -0.67063194358E+01  0.11691662025E+01  0.26590955746E+02  0.51100000000E-03 0. -1.
        -11    1    3    3    0    0 -0.34989014418E+01 -0.32777460944E+01 -0.25628187946E+01  0.54363564264E+01  0.51100000000E-03 0.  1.
        -12    1    3    3    0    0 -0.74743466632E+01 -0.12931806620E+02  0.50277783197E+01  0.15759950359E+02  0.00000000000E+00 0.  1.
</event>
<event>
 7    1  0.2580704E-010  0.4778727E+02  0.7816164E-02  0.1312668E+00
        -11   -1    0    0    0    0  0.00000000000E+00  0.00000000000E+00  0.45593999997E+02  0.45594000000E+02  0.51100000000E-03 0. -1.
         11   -1    0    0    0    0 -0.00000000000E+00 -0.00000000000E+00 -0.45593999997E+02  0.45594000000E+02  0.51100000000E-03 0.  1.
    9900012    2    1    2    0    0 -0.18184540099E+02  0.39407118966E+02  0.15799969035E+00  0.47787268581E+02  0.19999988769E+02 0.  0.
         12    1    1    2    0    0  0.18184540099E+02 -0.39407118966E+02 -0.15799969035E+00  0.43400731419E+02  0.00000000000E+00 0. -1.
         11    1    3    3    0    0 -0.29043954519E+01 -0.54671620851E-02  0.18417577019E+01  0.34391299081E+01  0.51100000000E-03 0. -1.
        -11    1    3    3    0    0 -0.11125574549E+02  0.11804881593E+02 -0.25259430665E+01  0.16416882381E+02  0.51100000000E-03 0.  1.
        -12    1    3    3    0    0 -0.41545700976E+01  0.27607704535E+02  0.84218505491E+00  0.27931256292E+02  0.00000000000E+00 0.  1.
</event>
<event>
 7    1  0.2580704E-010  0.4778722E+02  0.7816164E-02  0.1312668E+00
        -11   -1    0    0    0    0  0.00000000000E+00  0.00000000000E+00  0.45593999997E+02  0.45594000000E+02  0.51100000000E-03 0.  1.
         11   -1    0    0    0    0 -0.00000000000E+00 -0.00000000000E+00 -0.45593999997E+02  0.45594000000E+02  0.51100000000E-03 0. -1.
    9900012    2    1    2    0    0  0.56269468173E+00  0.40650450844E+02  0.15193799333E+02  0.47787224462E+02  0.19999787612E+02 0.  0.
         12    1    1    2    0    0 -0.56269468173E+00 -0.40650450844E+02 -0.15193799333E+02  0.43400775538E+02  0.00000000000E+00 0. -1.
         11    1    3    3    0    0 -0.29180447209E+01  0.16966344695E+01  0.31536934206E+00  0.33901344515E+01  0.51100000000E-03 0. -1.
        -11    1    3    3    0    0 -0.28500347564E+01  0.11248918902E+02  0.10486772520E+02  0.15640756782E+02  0.51100000000E-03 0.  1.
        -12    1    3    3    0    0  0.63307741590E+01  0.27704897472E+02  0.43916574710E+01  0.28756333229E+02  0.00000000000E+00 0.  1.
</event>
<event>
 7    1  0.2580704E-010  0.4778727E+02  0.7816164E-02  0.1312668E+00
        -11   -1    0    0    0    0  0.00000000000E+00  0.00000000000E+00  0.45593999997E+02  0.45594000000E+02  0.51100000000E-03 0.  1.
         11   -1    0    0    0    0 -0.00000000000E+00 -0.00000000000E+00 -0.45593999997E+02  0.45594000000E+02  0.51100000000E-03 0. -1.
    9900012    2    1    2    0    0 -0.37577550866E+01 -0.13052481226E+02  0.41220573370E+02  0.47787266614E+02  0.19999979801E+02 0.  0.
         12    1    1    2    0    0  0.37577550866E+01  0.13052481226E+02 -0.41220573370E+02  0.43400733386E+02  0.00000000000E+00 0. -1.
         11    1    3    3    0    0  0.18936844889E+01 -0.55186872363E+01  0.16822050018E+01  0.60722124209E+01  0.51100000000E-03 0.  1.
        -11    1    3    3    0    0  0.61777276204E+00  0.18854573770E+01  0.58476979789E+01  0.61751246643E+01  0.51100000000E-03 0. -1.
        -12    1    3    3    0    0 -0.62692123376E+01 -0.94192513662E+01  0.33690670390E+02  0.35539929529E+02  0.00000000000E+00 0.  1.
</event>
<event>
 7    1  0.2580704E-010  0.4778727E+02  0.7816164E-02  0.1312668E+00
        -11   -1    0    0    0    0  0.00000000000E+00  0.00000000000E+00  0.45593999997E+02  0.45594000000E+02  0.51100000000E-03 0. -1.
         11   -1    0    0    0    0 -0.00000000000E+00 -0.00000000000E+00 -0.45593999997E+02  0.45594000000E+02  0.51100000000E-03 0.  1.
    9900012    2    1    2    0    0  0.15629173238E+02  0.27444398367E+02 -0.29768398069E+02  0.47787267501E+02  0.19999983846E+02 0.  0.
         12    1    1    2    0    0 -0.15629173238E+02 -0.27444398367E+02  0.29768398069E+02  0.43400732499E+02  0.00000000000E+00 0. -1.
         11    1    3    3    0    0  0.65579444852E+01  0.99751039556E+01 -0.58655347993E+01  0.13300895968E+02  0.51100000000E-03 0. -1.
        -11    1    3    3    0    0  0.64146281249E+01 -0.57419170227E+00 -0.81466957834E+01  0.10384883367E+02  0.51100000000E-03 0.  1.
        -12    1    3    3    0    0  0.26566006279E+01  0.18043486113E+02 -0.15756167486E+02  0.24101488167E+02  0.00000000000E+00 0.  1.
</event>
<event>
 7    1  0.2580704E-010  0.4778728E+02  0.7816164E-02  0.1312668E+00
        -11   -1    0    0    0    0  0.00000000000E+00  0.00000000000E+00  0.45593999997E+02  0.45594000000E+02  0.51100000000E-03 0.  1.
         11   -1    0    0    0    0 -0.00000000000E+00 -0.00000000000E+00 -0.45593999997E+02  0.45594000000E+02  0.51100000000E-03 0. -1.
    9900012    2    1    2    0    0  0.22887624673E+02 -0.53720175934E+00  0.36871274025E+02  0.47787276537E+02  0.20000025042E+02 0.  0.
         12    1    1    2    0    0 -0.22887624673E+02  0.53720175934E+00 -0.36871274025E+02  0.43400723463E+02  0.00000000000E+00 0. -1.
         11    1    3    3    0    0  0.47660646477E+01 -0.27659592622E+01  0.22013000297E+02  0.22692247249E+02  0.51100000000E-03 0. -1.
        -11    1    3    3    0    0  0.80445219773E+01  0.41205483972E+01  0.10762011594E+02  0.14053972632E+02  0.51100000000E-03 0.  1.
        -12    1    3    3    0    0  0.10077038048E+02 -0.18917908943E+01  0.40962621344E+01  0.11041056656E+02  0.00000000000E+00 0.  1.
</event>
<event>
 7    1  0.2580704E-010  0.4778728E+02  0.7816164E-02  0.1312668E+00
        -11   -1    0    0    0    0  0.00000000000E+00  0.00000000000E+00  0.45593999997E+02  0.45594000000E+02  0.51100000000E-03 0. -1.
         11   -1    0    0    0    0 -0.00000000000E+00 -0.00000000000E+00 -0.45593999997E+02  0.45594000000E+02  0.51100000000E-03 0.  1.
    9900012    2    1    2    0    0 -0.14699001763E+02 -0.26179526870E+02 -0.31339978661E+02  0.47787279470E+02  0.20000038418E+02 0.  0.
         12    1    1    2    0    0  0.14699001763E+02  0.26179526870E+02  0.31339978661E+02  0.43400720530E+02  0.00000000000E+00 0. -1.
         11    1    3    3    0    0 -0.29215481844E+00 -0.32671794245E+01 -0.24669723659E+01  0.41043597242E+01  0.51100000000E-03 0.  1.
        -11    1    3    3    0    0 -0.86023356136E+01 -0.24987465963E+02 -0.25150778641E+02  0.36481985963E+02  0.51100000000E-03 0. -1.
        -12    1    3    3    0    0 -0.58045113308E+01  0.20751185169E+01 -0.37222276542E+01  0.72009337837E+01  0.00000000000E+00 0.  1.
</event>
<event>
 7    1  0.2580704E-010  0.4778726E+02  0.7816164E-02  0.1312668E+00
        -11   -1    0    0    0    0  0.00000000000E+00  0.00000000000E+00  0.45593999997E+02  0.45594000000E+02  0.51100000000E-03 0.  1.
         11   -1    0    0    0    0 -0.00000000000E+00 -0.00000000000E+00 -0.45593999997E+02  0.45594000000E+02  0.51100000000E-03 0. -1.
    9900012    2    1    2    0    0 -0.98488526944E+01 -0.56130919761E+01  0.41894120212E+02  0.47787262572E+02  0.19999961372E+02 0.  0.
         12    1    1    2    0    0  0.98488526944E+01  0.56130919761E+01 -0.41894120212E+02  0.43400737428E+02  0.00000000000E+00 0. -1.
         11    1    3    3    0    0 -0.60355941946E+01 -0.30287013983E+01  0.21886689795E+02  0.22904772863E+02  0.51100000000E-03 0. -1.
        -11    1    3    3    0    0 -0.74643875150E+01 -0.56503324477E+01  0.94682227283E+01  0.13315050869E+02  0.51100000000E-03 0.  1.
         12    1    3    3    0    0  0.36511290152E+01  0.30659418699E+01  0.10539207688E+02  0.11567438841E+02  0.00000000000E+00 0. -1.
</event>
<event>
 7    1  0.2580704E-010  0.4778728E+02  0.7816164E-02  0.1312668E+00
        -11   -1    0    0    0    0  0.00000000000E+00  0.00000000000E+00  0.45593999997E+02  0.45594000000E+02  0.51100000000E-03 0. -1.
         11   -1    0    0    0    0 -0.00000000000E+00 -0.00000000000E+00 -0.45593999997E+02  0.45594000000E+02  0.51100000000E-03 0.  1.
    9900012    2    1    2    0    0 -0.31752857958E+02 -0.15366049573E+02 -0.25283648186E+02  0.47787281877E+02  0.20000049389E+02 0.  0.
         12    1    1    2    0    0  0.31752857958E+02  0.15366049573E+02  0.25283648186E+02  0.43400718123E+02  0.00000000000E+00 0. -1.
         11    1    3    3    0    0 -0.25500440690E+02 -0.12517840692E+02 -0.13198634738E+02  0.31323677469E+02  0.51100000000E-03 0. -1.
        -11    1    3    3    0    0 -0.72131416949E+01 -0.29729903060E+01 -0.12980275913E+02  0.15144492316E+02  0.51100000000E-03 0.  1.
        -12    1    3    3    0    0  0.96072442664E+00  0.12478142530E+00  0.89526246518E+00  0.13191120914E+01  0.00000000000E+00 0.  1.
</event>
<event>
 7    1  0.2580704E-010  0.4778727E+02  0.7816164E-02  0.1312668E+00
        -11   -1    0    0    0    0  0.00000000000E+00  0.00000000000E+00  0.45593999997E+02  0.45594000000E+02  0.51100000000E-03 0.  1.
         11   -1    0    0    0    0 -0.00000000000E+00 -0.00000000000E+00 -0.45593999997E+02  0.45594000000E+02  0.51100000000E-03 0. -1.
    9900012    2    1    2    0    0 -0.84692433090E+01  0.22574376025E+02  0.36087295440E+02  0.47787269276E+02  0.19999991939E+02 0.  0.
         12    1    1    2    0    0  0.84692433090E+01 -0.22574376025E+02 -0.36087295440E+02  0.43400730724E+02  0.00000000000E+00 0. -1.
         11    1    3    3    0    0 -0.50608980456E+01  0.85386372475E+00  0.53390177311E+01  0.74058681384E+01  0.51100000000E-03 0. -1.
        -11    1    3    3    0    0  0.37571863055E+01  0.78265578399E+00  0.65352537006E+01  0.75788218216E+01  0.51100000000E-03 0.  1.
        -12    1    3    3    0    0 -0.71655315689E+01  0.20937856517E+02  0.24213024008E+02  0.32802579316E+02  0.00000000000E+00 0.  1.
</event>
<event>
 7    1  0.2580704E-010  0.4778729E+02  0.7816164E-02  0.1312668E+00
        -11   -1    0    0    0    0  0.00000000000E+00  0.00000000000E+00  0.45593999997E+02  0.45594000000E+02  0.51100000000E-03 0.  1.
         11   -1    0    0    0    0 -0.00000000000E+00 -0.00000000000E+00 -0.45593999997E+02  0.45594000000E+02  0.51100000000E-03 0. -1.
    9900012    2    1    2    0    0  0.24029040706E+02  0.19157914642E+02  0.30646395071E+02  0.47787285472E+02  0.20000065782E+02 0.  0.
         12    1    1    2    0    0 -0.24029040706E+02 -0.19157914642E+02 -0.30646395071E+02  0.43400714528E+02  0.00000000000E+00 0. -1.
         11    1    3    3    0    0  0.12556580560E+01 -0.83162025069E+00 -0.14327227557E+01  0.20786928948E+01  0.51100000000E-03 0. -1.
        -11    1    3    3    0    0  0.15475594310E+02  0.68216944701E+01  0.12601293661E+02  0.21090806929E+02  0.51100000000E-03 0.  1.
        -12    1    3    3    0    0  0.72977883402E+01  0.13167840423E+02  0.19477824165E+02  0.24617785649E+02  0.00000000000E+00 0.  1.
</event>
<event>
 7    1  0.2580704E-010  0.4778727E+02  0.7816164E-02  0.1312668E+00
        -11   -1    0    0    0    0  0.00000000000E+00  0.00000000000E+00  0.45593999997E+02  0.45594000000E+02  0.51100000000E-03 0.  1.
         11   -1    0    0    0    0 -0.00000000000E+00 -0.00000000000E+00 -0.45593999997E+02  0.45594000000E+02  0.51100000000E-03 0. -1.
    9900012    2    1    2    0    0 -0.64860591785E+01 -0.31765884046E+02  0.28852784705E+02  0.47787268000E+02  0.19999986120E+02 0.  0.
         12    1    1    2    0    0  0.64860591785E+01  0.31765884046E+02 -0.28852784705E+02  0.43400732000E+02  0.00000000000E+00 0. -1.
         11    1    3    3    0    0 -0.45638002413E+01 -0.19167385784E+02  0.23021334980E+02  0.30301795573E+02  0.51100000000E-03 0. -1.
        -11    1    3    3    0    0  0.36298581106E+01 -0.56971245610E+01  0.53460227301E+01  0.86147000794E+01  0.51100000000E-03 0.  1.
         12    1    3    3    0    0 -0.55521170478E+01 -0.69013737013E+01  0.48542699497E+00  0.88707723477E+01  0.00000000000E+00 0. -1.
</event>
<event>
 7    1  0.2580704E-010  0.4778727E+02  0.7816164E-02  0.1312668E+00
        -11   -1    0    0    0    0  0.00000000000E+00  0.00000000000E+00  0.45593999997E+02  0.45594000000E+02  0.51100000000E-03 0.  1.
         11   -1    0    0    0    0 -0.00000000000E+00 -0.00000000000E+00 -0.45593999997E+02  0.45594000000E+02  0.51100000000E-03 0. -1.
    9900012    2    1    2    0    0 -0.41204296038E+01 -0.40373182642E+02  0.15383483826E+02  0.47787269691E+02  0.19999993827E+02 0.  0.
         12    1    1    2    0    0  0.41204296038E+01  0.40373182642E+02 -0.15383483826E+02  0.43400730309E+02  0.00000000000E+00 0. -1.
         11    1    3    3    0    0 -0.41060375753E+01 -0.62129458834E+01 -0.12029780086E+01  0.75436991900E+01  0.51100000000E-03 0. -1.
        -11    1    3    3    0    0  0.23533783480E+00 -0.23388259794E+00  0.40663631754E+01  0.40798767998E+01  0.51100000000E-03 0.  1.
        -12    1    3    3    0    0 -0.24972986326E+00 -0.33926354161E+02  0.12520098659E+02  0.36163693701E+02  0.00000000000E+00 0.  1.
</event>
<event>
 7    1  0.2580704E-010  0.4778727E+02  0.7816164E-02  0.1312668E+00
        -11   -1    0    0    0    0  0.00000000000E+00  0.00000000000E+00  0.45593999997E+02  0.45594000000E+02  0.51100000000E-03 0.  1.
         11   -1    0    0    0    0 -0.00000000000E+00 -0.00000000000E+00 -0.45593999997E+02  0.45594000000E+02  0.51100000000E-03 0. -1.
    9900012    2    1    2    0    0  0.40141334586E+02  0.40869631868E+01 -0.15987286304E+02  0.47787270354E+02  0.19999996852E+02 0.  0.
         12    1    1    2    0    0 -0.40141334586E+02 -0.40869631868E+01  0.15987286304E+02  0.43400729646E+02  0.00000000000E+00 0. -1.
         11    1    3    3    0    0  0.91780543293E+01 -0.29698438362E+01 -0.18209111298E+01  0.98169430724E+01  0.51100000000E-03 0. -1.
        -11    1    3    3    0    0  0.23146167400E+02 -0.20363155918E+01 -0.91634633407E+01  0.24977203749E+02  0.51100000000E-03 0.  1.
         12    1    3    3    0    0  0.78171128570E+01  0.90931226148E+01 -0.50029118338E+01  0.12993123532E+02  0.00000000000E+00 0. -1.
</event>
<event>
 7    1  0.2580704E-010  0.4778726E+02  0.7816164E-02  0.1312668E+00
        -11   -1    0    0    0    0  0.00000000000E+00  0.00000000000E+00  0.45593999997E+02  0.45594000000E+02  0.51100000000E-03 0.  1.
         11   -1    0    0    0    0 -0.00000000000E+00 -0.00000000000E+00 -0.45593999997E+02  0.45594000000E+02  0.51100000000E-03 0. -1.
    9900012    2    1    2    0    0  0.15812960749E+02  0.31929758205E+02  0.24780332673E+02  0.47787261826E+02  0.19999957970E+02 0.  0.
         12    1    1    2    0    0 -0.15812960749E+02 -0.31929758205E+02 -0.24780332673E+02  0.43400738174E+02  0.00000000000E+00 0. -1.
         11    1    3    3    0    0  0.12680449465E+01  0.52480320422E+00  0.46000534086E+01  0.48004008180E+01  0.51100000000E-03 0. -1.
        -11    1    3    3    0    0  0.39604778425E+01 -0.46454774798E+00  0.38669895713E+00  0.40063356943E+01  0.51100000000E-03 0.  1.
        -12    1    3    3    0    0  0.10584437960E+02  0.31869502749E+02  0.19793580307E+02  0.38980525314E+02  0.00000000000E+00 0.  1.
</event>
<event>
 7    1  0.2580704E-010  0.4778725E+02  0.7816164E-02  0.1312668E+00
        -11   -1    0    0    0    0  0.00000000000E+00  0.00000000000E+00  0.45593999997E+02  0.45594000000E+02  0.51100000000E-03 0.  1.
         11   -1    0    0    0    0 -0.00000000000E+00 -0.00000000000E+00 -0.45593999997E+02  0.45594000000E+02  0.51100000000E-03 0. -1.
    9900012    2    1    2    0    0  0.26249467095E+02  0.12508052649E+02  0.32220162055E+02  0.47787254077E+02  0.19999922639E+02 0.  0.
         12    1    1    2    0    0 -0.26249467095E+02 -0.12508052649E+02 -0.32220162055E+02  0.43400745923E+02  0.00000000000E+00 0. -1.
         11    1    3    3    0    0  0.12137232582E+01  0.65173650075E+01  0.46044988787E+01  0.80715909815E+01  0.51100000000E-03 0. -1.
        -11    1    3    3    0    0  0.14757492995E+02  0.86853224146E+01  0.21392572203E+02  0.27401835170E+02  0.51100000000E-03 0.  1.
         12    1    3    3    0    0  0.10278250842E+02 -0.26946347735E+01  0.62230909732E+01  0.12313827926E+02  0.00000000000E+00 0. -1.
</event>
<event>
 7    1  0.2580704E-010  0.4778727E+02  0.7816164E-02  0.1312668E+00
        -11   -1    0    0    0    0  0.00000000000E+00  0.00000000000E+00  0.45593999997E+02  0.45594000000E+02  0.51100000000E-03 0.  1.
         11   -1    0    0    0    0 -0.00000000000E+00 -0.00000000000E+00 -0.45593999997E+02  0.45594000000E+02  0.51100000000E-03 0. -1.
    9900012    2    1    2    0    0  0.18472469408E+02  0.31181069659E+02  0.23877446351E+02  0.47787266419E+02  0.19999978912E+02 0.  0.
         12    1    1    2    0    0 -0.18472469408E+02 -0.31181069659E+02 -0.23877446351E+02  0.43400733581E+02  0.00000000000E+00 0. -1.
         11    1    3    3    0    0 -0.29859309833E+01  0.15653775167E+01  0.23639125269E+01  0.41175567152E+01  0.51100000000E-03 0. -1.
        -11    1    3    3    0    0  0.48386689268E+01  0.27292619594E+01  0.68669186882E+01  0.88326757190E+01  0.51100000000E-03 0.  1.
         12    1    3    3    0    0  0.16619731464E+02  0.26886430183E+02  0.14646615136E+02  0.34837033985E+02  0.00000000000E+00 0. -1.
</event>
<event>
 7    1  0.2580704E-010  0.4778727E+02  0.7816164E-02  0.1312668E+00
        -11   -1    0    0    0    0  0.00000000000E+00  0.00000000000E+00  0.45593999997E+02  0.45594000000E+02  0.51100000000E-03 0. -1.
         11   -1    0    0    0    0 -0.00000000000E+00 -0.00000000000E+00 -0.45593999997E+02  0.45594000000E+02  0.51100000000E-03 0.  1.
    9900012    2    1    2    0    0 -0.22974698723E+02  0.26190939019E+02 -0.25880907353E+02  0.47787269205E+02  0.19999991615E+02 0.  0.
         12    1    1    2    0    0  0.22974698723E+02 -0.26190939019E+02  0.25880907353E+02  0.43400730795E+02  0.00000000000E+00 0. -1.
         11    1    3    3    0    0 -0.11561222661E+02  0.12089303252E+02 -0.88811502262E+01  0.18939058903E+02  0.51100000000E-03 0.  1.
        -11    1    3    3    0    0 -0.27940847796E+01  0.13483025421E+02 -0.14162346708E+02  0.19752745348E+02  0.51100000000E-03 0. -1.
         12    1    3    3    0    0 -0.86193912828E+01  0.61861034582E+00 -0.28374104189E+01  0.90954649541E+01  0.00000000000E+00 0. -1.
</event>
<event>
 7    1  0.2580704E-010  0.4778727E+02  0.7816164E-02  0.1312668E+00
        -11   -1    0    0    0    0  0.00000000000E+00  0.00000000000E+00  0.45593999997E+02  0.45594000000E+02  0.51100000000E-03 0.  1.
         11   -1    0    0    0    0 -0.00000000000E+00 -0.00000000000E+00 -0.45593999997E+02  0.45594000000E+02  0.51100000000E-03 0. -1.
    9900012    2    1    2    0    0  0.36604695188E+02 -0.21430411403E+01  0.23219110854E+02  0.47787269085E+02  0.19999991066E+02 0.  0.
         12    1    1    2    0    0 -0.36604695188E+02  0.21430411403E+01 -0.23219110854E+02  0.43400730915E+02  0.00000000000E+00 0. -1.
         11    1    3    3    0    0  0.16198094066E+02 -0.50935790809E+01  0.20157939199E+02  0.26356504173E+02  0.51100000000E-03 0. -1.
        -11    1    3    3    0    0  0.14666750432E+01 -0.10757437206E+01 -0.48290934903E-01  0.18195308490E+01  0.51100000000E-03 0.  1.
         12    1    3    3    0    0  0.18939926079E+02  0.40262816612E+01  0.31094625901E+01  0.19611234063E+02  0.00000000000E+00 0. -1.
</event>
<event>
 7    1  0.2580704E-010  0.4778726E+02  0.7816164E-02  0.1312668E+00
        -11   -1    0    0    0    0  0.00000000000E+00  0.00000000000E+00  0.45593999997E+02  0.45594000000E+02  0.51100000000E-03 0.  1.
         11   -1    0    0    0    0 -0.00000000000E+00 -0.00000000000E+00 -0.45593999997E+02  0.45594000000E+02  0.51100000000E-03 0. -1.
    9900012    2    1    2    0    0 -0.16809100652E+01 -0.22602722067E+02  0.37012372136E+02  0.47787260437E+02  0.19999951637E+02 0.  0.
         12    1    1    2    0    0  0.16809100652E+01  0.22602722067E+02 -0.37012372136E+02  0.43400739563E+02  0.00000000000E+00 0. -1.
         11    1    3    3    0    0 -0.61839343911E+01 -0.24742953640E+01  0.82482300890E+01  0.10601720708E+02  0.51100000000E-03 0. -1.
        -11    1    3    3    0    0 -0.39947668429E+00 -0.38309892430E+01  0.14427757430E+02  0.14933058794E+02  0.51100000000E-03 0.  1.
        -12    1    3    3    0    0  0.49025010102E+01 -0.16297437460E+02  0.14336384616E+02  0.22252480936E+02  0.00000000000E+00 0.  1.
</event>
<event>
 7    1  0.2580704E-010  0.4778726E+02  0.7816164E-02  0.1312668E+00
        -11   -1    0    0    0    0  0.00000000000E+00  0.00000000000E+00  0.45593999997E+02  0.45594000000E+02  0.51100000000E-03 0.  1.
         11   -1    0    0    0    0 -0.00000000000E+00 -0.00000000000E+00 -0.45593999997E+02  0.45594000000E+02  0.51100000000E-03 0. -1.
    9900012    2    1    2    0    0 -0.38984815129E+02  0.18678857502E+02 -0.38611683739E+01  0.47787260957E+02  0.19999954009E+02 0.  0.
         12    1    1    2    0    0  0.38984815129E+02 -0.18678857502E+02  0.38611683739E+01  0.43400739043E+02  0.00000000000E+00 0. -1.
         11    1    3    3    0    0 -0.10275382489E+02  0.39794991779E+01  0.69089086359E+01  0.13005880124E+02  0.51100000000E-03 0. -1.
        -11    1    3    3    0    0 -0.53786162635E+01  0.55409796664E+01 -0.64334534153E+00  0.77489265104E+01  0.51100000000E-03 0.  1.
         12    1    3    3    0    0 -0.23330816377E+02  0.91583786577E+01 -0.10126731668E+02  0.27032454323E+02  0.00000000000E+00 0. -1.
</event>
<event>
 7    1  0.2580704E-010  0.4778727E+02  0.7816164E-02  0.1312668E+00
        -11   -1    0    0    0    0  0.00000000000E+00  0.00000000000E+00  0.45593999997E+02  0.45594000000E+02  0.51100000000E-03 0.  1.
         11   -1    0    0    0    0 -0.00000000000E+00 -0.00000000000E+00 -0.45593999997E+02  0.45594000000E+02  0.51100000000E-03 0. -1.
    9900012    2    1    2    0    0 -0.43370954341E+02 -0.16048141546E+01  0.90073335222E-01  0.47787271640E+02  0.20000002717E+02 0.  0.
         12    1    1    2    0    0  0.43370954341E+02  0.16048141546E+01 -0.90073335222E-01  0.43400728360E+02  0.00000000000E+00 0. -1.
         11    1    3    3    0    0 -0.14190891147E+01 -0.11102195406E+01 -0.32799713801E+01  0.37422738889E+01  0.51100000000E-03 0. -1.
        -11    1    3    3    0    0 -0.34788544756E+01 -0.38820875605E+01 -0.46356324417E+00  0.52333472493E+01  0.51100000000E-03 0.  1.
        -12    1    3    3    0    0 -0.38473010751E+02  0.33874929465E+01  0.38336079595E+01  0.38811650502E+02  0.00000000000E+00 0.  1.
</event>
<event>
 7    1  0.2580704E-010  0.4778725E+02  0.7816164E-02  0.1312668E+00
        -11   -1    0    0    0    0  0.00000000000E+00  0.00000000000E+00  0.45593999997E+02  0.45594000000E+02  0.51100000000E-03 0.  1.
         11   -1    0    0    0    0 -0.00000000000E+00 -0.00000000000E+00 -0.45593999997E+02  0.45594000000E+02  0.51100000000E-03 0. -1.
    9900012    2    1    2    0    0  0.33659468943E+02  0.27361962069E+02  0.14099950420E+01  0.47787252267E+02  0.19999914384E+02 0.  0.
         12    1    1    2    0    0 -0.33659468943E+02 -0.27361962069E+02 -0.14099950420E+01  0.43400747733E+02  0.00000000000E+00 0. -1.
         11    1    3    3    0    0  0.91598290963E+01  0.12886784869E+02 -0.54990282223E+01  0.16739504323E+02  0.51100000000E-03 0. -1.
        -11    1    3    3    0    0  0.64212938923E+00  0.45228282105E+00 -0.18592707641E+01  0.20183602102E+01  0.51100000000E-03 0.  1.
        -12    1    3    3    0    0  0.23857510457E+02  0.14022894379E+02  0.87682940285E+01  0.29029387733E+02  0.00000000000E+00 0.  1.
</event>
<event>
 7    1  0.2580704E-010  0.4778727E+02  0.7816164E-02  0.1312668E+00
        -11   -1    0    0    0    0  0.00000000000E+00  0.00000000000E+00  0.45593999997E+02  0.45594000000E+02  0.51100000000E-03 0. -1.
         11   -1    0    0    0    0 -0.00000000000E+00 -0.00000000000E+00 -0.45593999997E+02  0.45594000000E+02  0.51100000000E-03 0.  1.
    9900012    2    1    2    0    0  0.20478429967E+02  0.14188544842E+02 -0.35537899648E+02  0.47787271780E+02  0.20000003354E+02 0.  0.
         12    1    1    2    0    0 -0.20478429967E+02 -0.14188544842E+02  0.35537899648E+02  0.43400728220E+02  0.00000000000E+00 0. -1.
         11    1    3    3    0    0 -0.74810356761E+00 -0.33971686568E+00 -0.64099075521E+01  0.64623510880E+01  0.51100000000E-03 0. -1.
        -11    1    3    3    0    0  0.98855912252E+01 -0.93632804217E+00 -0.12326874856E+02  0.15828880821E+02  0.51100000000E-03 0.  1.
        -12    1    3    3    0    0  0.11340942310E+02  0.15464589750E+02 -0.16801117239E+02  0.25496039871E+02  0.00000000000E+00 0.  1.
</event>
<event>
 7    1  0.2580704E-010  0.4778727E+02  0.7816164E-02  0.1312668E+00
        -11   -1    0    0    0    0  0.00000000000E+00  0.00000000000E+00  0.45593999997E+02  0.45594000000E+02  0.51100000000E-03 0.  1.
         11   -1    0    0    0    0 -0.00000000000E+00 -0.00000000000E+00 -0.45593999997E+02  0.45594000000E+02  0.51100000000E-03 0. -1.
    9900012    2    1    2    0    0 -0.39473668209E+02 -0.16538907998E+02  0.72053537390E+01  0.47787273253E+02  0.20000010070E+02 0.  0.
         12    1    1    2    0    0  0.39473668209E+02  0.16538907998E+02 -0.72053537390E+01  0.43400726747E+02  0.00000000000E+00 0. -1.
         11    1    3    3    0    0 -0.92863127155E+01 -0.18596294286E+01  0.12699063343E+01  0.95554428375E+01  0.51100000000E-03 0.  1.
        -11    1    3    3    0    0 -0.28967153351E+02 -0.16781956287E+02  0.19131416683E+01  0.33531927194E+02  0.51100000000E-03 0. -1.
         12    1    3    3    0    0 -0.12202021426E+01  0.21026777173E+01  0.40223057364E+01  0.46999032212E+01  0.00000000000E+00 0. -1.
</event>
<event>
 7    1  0.2580704E-010  0.4778726E+02  0.7816164E-02  0.1312668E+00
        -11   -1    0    0    0    0  0.00000000000E+00  0.00000000000E+00  0.45593999997E+02  0.45594000000E+02  0.51100000000E-03 0. -1.
         11   -1    0    0    0    0 -0.00000000000E+00 -0.00000000000E+00 -0.45593999997E+02  0.45594000000E+02  0.51100000000E-03 0.  1.
    9900012    2    1    2    0    0  0.30147896052E+02 -0.94086141773E+01 -0.29769219251E+02  0.47787261851E+02  0.19999958082E+02 0.  0.
         12    1    1    2    0    0 -0.30147896052E+02  0.94086141773E+01  0.29769219251E+02  0.43400738149E+02  0.00000000000E+00 0. -1.
         11    1    3    3    0    0  0.97659474899E+00 -0.41228226981E+01 -0.12437538416E+02  0.13139397490E+02  0.51100000000E-03 0. -1.
        -11    1    3    3    0    0  0.10005160477E+02  0.20876748032E+00 -0.48049256370E+01  0.11101086914E+02  0.51100000000E-03 0.  1.
         12    1    3    3    0    0  0.19166140825E+02 -0.54945589596E+01 -0.12526755199E+02  0.23546777446E+02  0.00000000000E+00 0. -1.
</event>
<event>
 7    1  0.2580704E-010  0.4778727E+02  0.7816164E-02  0.1312668E+00
        -11   -1    0    0    0    0  0.00000000000E+00  0.00000000000E+00  0.45593999997E+02  0.45594000000E+02  0.51100000000E-03 0.  1.
         11   -1    0    0    0    0 -0.00000000000E+00 -0.00000000000E+00 -0.45593999997E+02  0.45594000000E+02  0.51100000000E-03 0. -1.
    9900012    2    1    2    0    0 -0.32050737582E+02 -0.22947693836E+02 -0.18159759990E+02  0.47787270572E+02  0.19999997848E+02 0.  0.
         12    1    1    2    0    0  0.32050737582E+02  0.22947693836E+02  0.18159759990E+02  0.43400729428E+02  0.00000000000E+00 0. -1.
         11    1    3    3    0    0  0.44567476708E+00 -0.16279078973E+01 -0.41350392922E+01  0.44662355882E+01  0.51100000000E-03 0. -1.
        -11    1    3    3    0    0 -0.14393806367E+02 -0.13286321844E+02 -0.12959429020E+02  0.23487332983E+02  0.51100000000E-03 0.  1.
         12    1    3    3    0    0 -0.18102605982E+02 -0.80334640948E+01 -0.10652916777E+01  0.19833702001E+02  0.00000000000E+00 0. -1.
</event>
<event>
 7    1  0.2580704E-010  0.4778728E+02  0.7816164E-02  0.1312668E+00
        -11   -1    0    0    0    0  0.00000000000E+00  0.00000000000E+00  0.45593999997E+02  0.45594000000E+02  0.51100000000E-03 0.  1.
         11   -1    0    0    0    0 -0.00000000000E+00 -0.00000000000E+00 -0.45593999997E+02  0.45594000000E+02  0.51100000000E-03 0. -1.
    9900012    2    1    2    0    0  0.16398662383E+02 -0.40182723734E+02  0.23538161417E+00  0.47787276283E+02  0.20000023886E+02 0.  0.
         12    1    1    2    0    0 -0.16398662383E+02  0.40182723734E+02 -0.23538161417E+00  0.43400723717E+02  0.00000000000E+00 0. -1.
         11    1    3    3    0    0  0.10002073184E+02 -0.15599060382E+02  0.20042243212E+01  0.18638376221E+02  0.51100000000E-03 0. -1.
        -11    1    3    3    0    0  0.44837064974E+01 -0.24007096499E+02  0.23861791082E+01  0.24538503566E+02  0.51100000000E-03 0.  1.
        -12    1    3    3    0    0  0.19128827018E+01 -0.57656685305E+00 -0.41550218152E+01  0.46103964962E+01  0.00000000000E+00 0.  1.
</event>
<event>
 7    1  0.2580704E-010  0.4778727E+02  0.7816164E-02  0.1312668E+00
        -11   -1    0    0    0    0  0.00000000000E+00  0.00000000000E+00  0.45593999997E+02  0.45594000000E+02  0.51100000000E-03 0.  1.
         11   -1    0    0    0    0 -0.00000000000E+00 -0.00000000000E+00 -0.45593999997E+02  0.45594000000E+02  0.51100000000E-03 0. -1.
    9900012    2    1    2    0    0 -0.16131744481E+02 -0.17078727091E+02  0.36492566155E+02  0.47787268628E+02  0.19999988983E+02 0.  0.
         12    1    1    2    0    0  0.16131744481E+02  0.17078727091E+02 -0.36492566155E+02  0.43400731372E+02  0.00000000000E+00 0. -1.
         11    1    3    3    0    0 -0.32726989821E+00 -0.11668926715E+02  0.73444266404E+01  0.13791720676E+02  0.51100000000E-03 0. -1.
        -11    1    3    3    0    0 -0.16606874023E+01 -0.25012247043E+01  0.60770965488E+01  0.67782822599E+01  0.51100000000E-03 0.  1.
         12    1    3    3    0    0 -0.14143787181E+02 -0.29085756714E+01  0.23071042966E+02  0.27217265692E+02  0.00000000000E+00 0. -1.
</event>
<event>
 7    1  0.2580704E-010  0.4778727E+02  0.7816164E-02  0.1312668E+00
        -11   -1    0    0    0    0  0.00000000000E+00  0.00000000000E+00  0.45593999997E+02  0.45594000000E+02  0.51100000000E-03 0.  1.
         11   -1    0    0    0    0 -0.00000000000E+00 -0.00000000000E+00 -0.45593999997E+02  0.45594000000E+02  0.51100000000E-03 0. -1.
    9900012    2    1    2    0    0 -0.66744606746E+01  0.33679091373E+02  0.26547953182E+02  0.47787269140E+02  0.19999991319E+02 0.  0.
         12    1    1    2    0    0  0.66744606746E+01 -0.33679091373E+02 -0.26547953182E+02  0.43400730860E+02  0.00000000000E+00 0. -1.
         11    1    3    3    0    0 -0.28860096392E+01  0.25350540001E+01 -0.38604933180E+00  0.38606456414E+01  0.51100000000E-03 0. -1.
        -11    1    3    3    0    0 -0.64623302225E+01  0.29991863350E+02  0.20597128035E+02  0.36952878950E+02  0.51100000000E-03 0.  1.
        -12    1    3    3    0    0  0.26738791872E+01  0.11521740229E+01  0.63368744781E+01  0.69737445492E+01  0.00000000000E+00 0.  1.
</event>
<event>
 7    1  0.2580704E-010  0.4778727E+02  0.7816164E-02  0.1312668E+00
        -11   -1    0    0    0    0  0.00000000000E+00  0.00000000000E+00  0.45593999997E+02  0.45594000000E+02  0.51100000000E-03 0. -1.
         11   -1    0    0    0    0 -0.00000000000E+00 -0.00000000000E+00 -0.45593999997E+02  0.45594000000E+02  0.51100000000E-03 0.  1.
    9900012    2    1    2    0    0 -0.40548538177E+02  0.14368137246E+02  0.57442060459E+01  0.47787271673E+02  0.20000002866E+02 0.  0.
         12    1    1    2    0    0  0.40548538177E+02 -0.14368137246E+02 -0.57442060459E+01  0.43400728327E+02  0.00000000000E+00 0. -1.
         11    1    3    3    0    0 -0.10556306581E+02  0.92875203577E+01 -0.17290492452E+01  0.14166271725E+02  0.51100000000E-03 0. -1.
        -11    1    3    3    0    0 -0.33667537424E+01  0.19771997496E+01 -0.29152039421E+01  0.48726547074E+01  0.51100000000E-03 0.  1.
        -12    1    3    3    0    0 -0.26625477853E+02  0.31034171391E+01  0.10388459233E+02  0.28748345241E+02  0.00000000000E+00 0.  1.
</event>
<event>
 7    1  0.2580704E-010  0.4778732E+02  0.7816164E-02  0.1312668E+00
        -11   -1    0    0    0    0  0.00000000000E+00  0.00000000000E+00  0.45593999997E+02  0.45594000000E+02  0.51100000000E-03 0. -1.
         11   -1    0    0    0    0 -0.00000000000E+00 -0.00000000000E+00 -0.45593999997E+02  0.45594000000E+02  0.51100000000E-03 0.  1.
    9900012    2    1    2    0    0 -0.82992591030E+01  0.53541558970E+01 -0.42261974269E+02  0.47787318483E+02  0.20000216292E+02 0.  0.
         12    1    1    2    0    0  0.82992591030E+01 -0.53541558970E+01  0.42261974269E+02  0.43400681517E+02  0.00000000000E+00 0. -1.
         11    1    3    3    0    0 -0.68639574132E+01 -0.40542542235E+01 -0.17157683745E+02  0.18919223040E+02  0.51100000000E-03 0. -1.
        -11    1    3    3    0    0 -0.49292846199E+01  0.89747106747E+01 -0.21582514562E+02  0.23888244256E+02  0.51100000000E-03 0.  1.
        -12    1    3    3    0    0  0.34939829301E+01  0.43369944583E+00 -0.35217759620E+01  0.49798511877E+01  0.00000000000E+00 0.  1.
</event>
<event>
 7    1  0.2580704E-010  0.4778727E+02  0.7816164E-02  0.1312668E+00
        -11   -1    0    0    0    0  0.00000000000E+00  0.00000000000E+00  0.45593999997E+02  0.45594000000E+02  0.51100000000E-03 0.  1.
         11   -1    0    0    0    0 -0.00000000000E+00 -0.00000000000E+00 -0.45593999997E+02  0.45594000000E+02  0.51100000000E-03 0. -1.
    9900012    2    1    2    0    0 -0.10338878104E+02 -0.85626052939E+01  0.41272424102E+02  0.47787267274E+02  0.19999982809E+02 0.  0.
         12    1    1    2    0    0  0.10338878104E+02  0.85626052939E+01 -0.41272424102E+02  0.43400732726E+02  0.00000000000E+00 0. -1.
         11    1    3    3    0    0 -0.37298655033E+01  0.47880152046E+01  0.13009322724E+02  0.14355468096E+02  0.51100000000E-03 0. -1.
        -11    1    3    3    0    0 -0.71008057618E+01 -0.41052591486E+01  0.16812031870E+02  0.18706122287E+02  0.51100000000E-03 0.  1.
        -12    1    3    3    0    0  0.49179316079E+00 -0.92453613500E+01  0.11451069508E+02  0.14725676891E+02  0.00000000000E+00 0.  1.
</event>
<event>
 7    1  0.2580704E-010  0.4778727E+02  0.7816164E-02  0.1312668E+00
        -11   -1    0    0    0    0  0.00000000000E+00  0.00000000000E+00  0.45593999997E+02  0.45594000000E+02  0.51100000000E-03 0.  1.
         11   -1    0    0    0    0 -0.00000000000E+00 -0.00000000000E+00 -0.45593999997E+02  0.45594000000E+02  0.51100000000E-03 0. -1.
    9900012    2    1    2    0    0 -0.51377538286E+00  0.83645817647E+01  0.42583953893E+02  0.47787270486E+02  0.19999997453E+02 0.  0.
         12    1    1    2    0    0  0.51377538286E+00 -0.83645817647E+01 -0.42583953893E+02  0.43400729514E+02  0.00000000000E+00 0. -1.
         11    1    3    3    0    0  0.31949625975E+01 -0.69409711233E+00  0.26780882690E+01  0.42263120848E+01  0.51100000000E-03 0. -1.
        -11    1    3    3    0    0  0.36544871108E+01 -0.78147513684E+00  0.18536624507E+02  0.18909585606E+02  0.51100000000E-03 0.  1.
        -12    1    3    3    0    0 -0.73632250911E+01  0.98401540138E+01  0.21369241117E+02  0.24651372795E+02  0.00000000000E+00 0.  1.
</event>
<event>
 7    1  0.2580704E-010  0.4778727E+02  0.7816164E-02  0.1312668E+00
        -11   -1    0    0    0    0  0.00000000000E+00  0.00000000000E+00  0.45593999997E+02  0.45594000000E+02  0.51100000000E-03 0.  1.
         11   -1    0    0    0    0 -0.00000000000E+00 -0.00000000000E+00 -0.45593999997E+02  0.45594000000E+02  0.51100000000E-03 0. -1.
    9900012    2    1    2    0    0 -0.67812120175E+01  0.14437528766E+02  0.40363300692E+02  0.47787272863E+02  0.20000008292E+02 0.  0.
         12    1    1    2    0    0  0.67812120175E+01 -0.14437528766E+02 -0.40363300692E+02  0.43400727137E+02  0.00000000000E+00 0. -1.
         11    1    3    3    0    0 -0.23603834242E+01  0.30938053600E+00  0.76119739741E+01  0.79755422555E+01  0.51100000000E-03 0. -1.
        -11    1    3    3    0    0  0.57485398231E+01  0.43404954964E+01  0.52948363976E+01  0.89398492152E+01  0.51100000000E-03 0.  1.
        -12    1    3    3    0    0 -0.10169368416E+02  0.97876527333E+01  0.27456490320E+02  0.30871881392E+02  0.00000000000E+00 0.  1.
</event>
<event>
 7    1  0.2580704E-010  0.4778727E+02  0.7816164E-02  0.1312668E+00
        -11   -1    0    0    0    0  0.00000000000E+00  0.00000000000E+00  0.45593999997E+02  0.45594000000E+02  0.51100000000E-03 0.  1.
         11   -1    0    0    0    0 -0.00000000000E+00 -0.00000000000E+00 -0.45593999997E+02  0.45594000000E+02  0.51100000000E-03 0. -1.
    9900012    2    1    2    0    0 -0.39407462093E+02  0.40626552086E+01  0.17724847638E+02  0.47787268903E+02  0.19999990237E+02 0.  0.
         12    1    1    2    0    0  0.39407462093E+02 -0.40626552086E+01 -0.17724847638E+02  0.43400731097E+02  0.00000000000E+00 0. -1.
         11    1    3    3    0    0 -0.15656530856E+02 -0.74118020470E+01  0.59423097463E+01  0.18313186872E+02  0.51100000000E-03 0. -1.
        -11    1    3    3    0    0 -0.91355736176E+01  0.35148196517E+01  0.14765041290E+01  0.98991275985E+01  0.51100000000E-03 0.  1.
         12    1    3    3    0    0 -0.14615357620E+02  0.79596376039E+01  0.10306033762E+02  0.19574954433E+02  0.00000000000E+00 0. -1.
</event>
<event>
 7    1  0.2580704E-010  0.4778730E+02  0.7816164E-02  0.1312668E+00
        -11   -1    0    0    0    0  0.00000000000E+00  0.00000000000E+00  0.45593999997E+02  0.45594000000E+02  0.51100000000E-03 0.  1.
         11   -1    0    0    0    0 -0.00000000000E+00 -0.00000000000E+00 -0.45593999997E+02  0.45594000000E+02  0.51100000000E-03 0. -1.
    9900012    2    1    2    0    0 -0.40242334628E+02 -0.61887654227E+01  0.15029106512E+02  0.47787304656E+02  0.20000153250E+02 0.  0.
         12    1    1    2    0    0  0.40242334628E+02  0.61887654227E+01 -0.15029106512E+02  0.43400695344E+02  0.00000000000E+00 0. -1.
         11    1    3    3    0    0 -0.20679495588E+02  0.76570558453E+00  0.12777488419E+02  0.24320609642E+02  0.51100000000E-03 0. -1.
        -11    1    3    3    0    0 -0.12491415579E+02 -0.12232337929E+01  0.56321230724E+01  0.13756910069E+02  0.51100000000E-03 0.  1.
        -12    1    3    3    0    0 -0.70714234613E+01 -0.57312372144E+01 -0.33805049792E+01  0.97097849457E+01  0.00000000000E+00 0.  1.
</event>
<event>
 7    1  0.2580704E-010  0.4778727E+02  0.7816164E-02  0.1312668E+00
        -11   -1    0    0    0    0  0.00000000000E+00  0.00000000000E+00  0.45593999997E+02  0.45594000000E+02  0.51100000000E-03 0.  1.
         11   -1    0    0    0    0 -0.00000000000E+00 -0.00000000000E+00 -0.45593999997E+02  0.45594000000E+02  0.51100000000E-03 0. -1.
    9900012    2    1    2    0    0 -0.41441020677E+02  0.70998752036E-01 -0.12894179599E+02  0.47787273012E+02  0.20000008971E+02 0.  0.
         12    1    1    2    0    0  0.41441020677E+02 -0.70998752036E-01  0.12894179599E+02  0.43400726988E+02  0.00000000000E+00 0. -1.
         11    1    3    3    0    0  0.91447081552E-01  0.89217434491E+00 -0.36274126138E+01  0.37366375476E+01  0.51100000000E-03 0. -1.
        -11    1    3    3    0    0 -0.31033273873E+02  0.99266656168E+00 -0.11596725941E+02  0.33144132618E+02  0.51100000000E-03 0.  1.
         12    1    3    3    0    0 -0.10499193885E+02 -0.18138421546E+01  0.23299589559E+01  0.10906502846E+02  0.00000000000E+00 0. -1.
</event>
<event>
 7    1  0.2580704E-010  0.4778727E+02  0.7816164E-02  0.1312668E+00
        -11   -1    0    0    0    0  0.00000000000E+00  0.00000000000E+00  0.45593999997E+02  0.45594000000E+02  0.51100000000E-03 0.  1.
         11   -1    0    0    0    0 -0.00000000000E+00 -0.00000000000E+00 -0.45593999997E+02  0.45594000000E+02  0.51100000000E-03 0. -1.
    9900012    2    1    2    0    0  0.24103958156E+02  0.31975038662E+02  0.16739760696E+02  0.47787268619E+02  0.19999988940E+02 0.  0.
         12    1    1    2    0    0 -0.24103958156E+02 -0.31975038662E+02 -0.16739760696E+02  0.43400731381E+02  0.00000000000E+00 0. -1.
         11    1    3    3    0    0  0.13192117564E+01  0.29743335261E+01  0.47224583719E+01  0.57348577069E+01  0.51100000000E-03 0. -1.
        -11    1    3    3    0    0  0.46779136615E+01  0.15009855046E+01  0.72875650817E+01  0.87888815438E+01  0.51100000000E-03 0.  1.
         12    1    3    3    0    0  0.18106832738E+02  0.27499719632E+02  0.47297372425E+01  0.33263529368E+02  0.00000000000E+00 0. -1.
</event>
<event>
 7    1  0.2580704E-010  0.4778729E+02  0.7816164E-02  0.1312668E+00
        -11   -1    0    0    0    0  0.00000000000E+00  0.00000000000E+00  0.45593999997E+02  0.45594000000E+02  0.51100000000E-03 0.  1.
         11   -1    0    0    0    0 -0.00000000000E+00 -0.00000000000E+00 -0.45593999997E+02  0.45594000000E+02  0.51100000000E-03 0. -1.
    9900012    2    1    2    0    0  0.36889509816E+02 -0.20752669909E+02  0.95975251707E+01  0.47787288805E+02  0.20000080977E+02 0.  0.
         12    1    1    2    0    0 -0.36889509816E+02  0.20752669909E+02 -0.95975251707E+01  0.43400711195E+02  0.00000000000E+00 0. -1.
         11    1    3    3    0    0  0.43112720221E+00 -0.29164751036E+01  0.29256500206E+01  0.41534474835E+01  0.51100000000E-03 0. -1.
        -11    1    3    3    0    0  0.63756556224E+01 -0.84458880670E+01 -0.23777047954E+01  0.10845989591E+02  0.51100000000E-03 0.  1.
        -12    1    3    3    0    0  0.30082726992E+02 -0.93903067380E+01  0.90495799456E+01  0.32787851730E+02  0.00000000000E+00 0.  1.
</event>
<event>
 7    1  0.2580704E-010  0.4778727E+02  0.7816164E-02  0.1312668E+00
        -11   -1    0    0    0    0  0.00000000000E+00  0.00000000000E+00  0.45593999997E+02  0.45594000000E+02  0.51100000000E-03 0. -1.
         11   -1    0    0    0    0 -0.00000000000E+00 -0.00000000000E+00 -0.45593999997E+02  0.45594000000E+02  0.51100000000E-03 0.  1.
    9900012    2    1    2    0    0  0.18956585905E+02  0.93990153796E+01 -0.37893658041E+02  0.47787274672E+02  0.20000016540E+02 0.  0.
         12    1    1    2    0    0 -0.18956585905E+02 -0.93990153796E+01  0.37893658041E+02  0.43400725328E+02  0.00000000000E+00 0. -1.
         11    1    3    3    0    0  0.57336455348E+01  0.74857782070E+01 -0.98242704534E+01  0.13617189750E+02  0.51100000000E-03 0. -1.
        -11    1    3    3    0    0  0.68467791241E+01  0.79969350828E+01 -0.13184083103E+02  0.16871556022E+02  0.51100000000E-03 0.  1.
         12    1    3    3    0    0  0.63761612458E+01 -0.60836979102E+01 -0.14885304485E+02  0.17298528900E+02  0.00000000000E+00 0. -1.
</event>
<event>
 7    1  0.2580704E-010  0.4778727E+02  0.7816164E-02  0.1312668E+00
        -11   -1    0    0    0    0  0.00000000000E+00  0.00000000000E+00  0.45593999997E+02  0.45594000000E+02  0.51100000000E-03 0.  1.
         11   -1    0    0    0    0 -0.00000000000E+00 -0.00000000000E+00 -0.45593999997E+02  0.45594000000E+02  0.51100000000E-03 0. -1.
    9900012    2    1    2    0    0  0.42963342021E+02 -0.84167982282E+00 -0.60881909731E+01  0.47787271298E+02  0.20000001157E+02 0.  0.
         12    1    1    2    0    0 -0.42963342021E+02  0.84167982282E+00  0.60881909731E+01  0.43400728702E+02  0.00000000000E+00 0. -1.
         11    1    3    3    0    0  0.18471444983E+02 -0.44866638564E+01 -0.25139119676E+01  0.19174049806E+02  0.51100000000E-03 0. -1.
        -11    1    3    3    0    0  0.17759844631E+02  0.19160202065E+01  0.40291490527E+01  0.18311669970E+02  0.51100000000E-03 0.  1.
        -12    1    3    3    0    0  0.67320524074E+01  0.17289638270E+01 -0.76034280583E+01  0.10301551522E+02  0.00000000000E+00 0.  1.
</event>
<event>
 7    1  0.2580704E-010  0.4778727E+02  0.7816164E-02  0.1312668E+00
        -11   -1    0    0    0    0  0.00000000000E+00  0.00000000000E+00  0.45593999997E+02  0.45594000000E+02  0.51100000000E-03 0. -1.
         11   -1    0    0    0    0 -0.00000000000E+00 -0.00000000000E+00 -0.45593999997E+02  0.45594000000E+02  0.51100000000E-03 0.  1.
    9900012    2    1    2    0    0 -0.34768382205E+02 -0.24452788883E+02 -0.87660740924E+01  0.47787270279E+02  0.19999996511E+02 0.  0.
         12    1    1    2    0    0  0.34768382205E+02  0.24452788883E+02  0.87660740924E+01  0.43400729721E+02  0.00000000000E+00 0. -1.
         11    1    3    3    0    0 -0.16411914573E+01 -0.26887906168E+01 -0.24800876001E+00  0.31598438232E+01  0.51100000000E-03 0. -1.
        -11    1    3    3    0    0 -0.16455068381E+02 -0.19210369376E+01  0.19393907796E+01  0.16679954892E+02  0.51100000000E-03 0.  1.
         12    1    3    3    0    0 -0.16672122367E+02 -0.19842961328E+02 -0.10457456112E+02  0.27947471564E+02  0.00000000000E+00 0. -1.
</event>
<event>
 7    1  0.2580704E-010  0.4778728E+02  0.7816164E-02  0.1312668E+00
        -11   -1    0    0    0    0  0.00000000000E+00  0.00000000000E+00  0.45593999997E+02  0.45594000000E+02  0.51100000000E-03 0. -1.
         11   -1    0    0    0    0 -0.00000000000E+00 -0.00000000000E+00 -0.45593999997E+02  0.45594000000E+02  0.51100000000E-03 0.  1.
    9900012    2    1    2    0    0 -0.86672513427E+00 -0.28614155458E+02 -0.32620561303E+02  0.47787284282E+02  0.20000060358E+02 0.  0.
         12    1    1    2    0    0  0.86672513427E+00  0.28614155458E+02  0.32620561303E+02  0.43400715718E+02  0.00000000000E+00 0. -1.
         11    1    3    3    0    0 -0.36001598951E+00 -0.17006339499E+01 -0.40757396471E+01  0.44309616649E+01  0.51100000000E-03 0.  1.
        -11    1    3    3    0    0 -0.27249718221E+00 -0.24209637075E+02 -0.12813917365E+02  0.27393014812E+02  0.51100000000E-03 0. -1.
         12    1    3    3    0    0 -0.23421196255E+00 -0.27038844338E+01 -0.15730904291E+02  0.15963307805E+02  0.00000000000E+00 0. -1.
</event>
<event>
 7    1  0.2912180E-010  0.4778727E+02  0.7816164E-02  0.1312668E+00
        -11   -1    0    0    0    0  0.00000000000E+00  0.00000000000E+00  0.45593999997E+02  0.45594000000E+02  0.51100000000E-03 0. -1.
         11   -1    0    0    0    0 -0.00000000000E+00 -0.00000000000E+00 -0.45593999997E+02  0.45594000000E+02  0.51100000000E-03 0.  1.
    9900012    2    1    2    0    0  0.91094441115E+01  0.42381592050E+02 -0.21075532804E+01  0.47787273076E+02  0.20000009264E+02 0.  0.
         12    1    1    2    0    0 -0.91094441115E+01 -0.42381592050E+02  0.21075532804E+01  0.43400726924E+02  0.00000000000E+00 0. -1.
         11    1    3    3    0    0  0.37944431406E+01  0.17614298144E+01 -0.13589190587E+01  0.43985332791E+01  0.51100000000E-03 0. -1.
        -11    1    3    3    0    0  0.77702036702E+01  0.22073417451E+02 -0.55991336295E+01  0.24061631713E+02  0.51100000000E-03 0.  1.
        -12    1    3    3    0    0 -0.24552026993E+01  0.18546744784E+02  0.48504994078E+01  0.19327108084E+02  0.00000000000E+00 0.  1.
</event>
<event>
 7    1  0.2580704E-010  0.4778727E+02  0.7816164E-02  0.1312668E+00
        -11   -1    0    0    0    0  0.00000000000E+00  0.00000000000E+00  0.45593999997E+02  0.45594000000E+02  0.51100000000E-03 0. -1.
         11   -1    0    0    0    0 -0.00000000000E+00 -0.00000000000E+00 -0.45593999997E+02  0.45594000000E+02  0.51100000000E-03 0.  1.
    9900012    2    1    2    0    0  0.10576273842E+02  0.42033756326E+02 -0.22200984378E+01  0.47787273320E+02  0.20000010376E+02 0.  0.
         12    1    1    2    0    0 -0.10576273842E+02 -0.42033756326E+02  0.22200984378E+01  0.43400726680E+02  0.00000000000E+00 0. -1.
         11    1    3    3    0    0  0.95106313083E+01  0.22952186256E+02  0.43487587627E+01  0.25222344555E+02  0.51100000000E-03 0. -1.
        -11    1    3    3    0    0 -0.21314120726E+01  0.54780533510E+01  0.19569063123E+01  0.61952779208E+01  0.51100000000E-03 0.  1.
         12    1    3    3    0    0  0.31970546067E+01  0.13603516719E+02 -0.85257635129E+01  0.16369650844E+02  0.00000000000E+00 0. -1.
</event>
<event>
 7    1  0.2580704E-010  0.4778732E+02  0.7816164E-02  0.1312668E+00
        -11   -1    0    0    0    0  0.00000000000E+00  0.00000000000E+00  0.45593999997E+02  0.45594000000E+02  0.51100000000E-03 0.  1.
         11   -1    0    0    0    0 -0.00000000000E+00 -0.00000000000E+00 -0.45593999997E+02  0.45594000000E+02  0.51100000000E-03 0. -1.
    9900012    2    1    2    0    0  0.36268225685E+02 -0.15788545123E+02  0.17859365618E+02  0.47787316921E+02  0.20000209169E+02 0.  0.
         12    1    1    2    0    0 -0.36268225685E+02  0.15788545123E+02 -0.17859365618E+02  0.43400683079E+02  0.00000000000E+00 0. -1.
         11    1    3    3    0    0  0.29405797496E+01 -0.28383634398E+01  0.29722627468E+01  0.50534802243E+01  0.51100000000E-03 0. -1.
        -11    1    3    3    0    0  0.23106243702E+02 -0.17369875057E+02  0.11249952929E+02  0.31018905505E+02  0.51100000000E-03 0.  1.
         12    1    3    3    0    0  0.10221402234E+02  0.44196933743E+01  0.36371499413E+01  0.11714931192E+02  0.00000000000E+00 0. -1.
</event>
<event>
 7    1  0.2580704E-010  0.4778729E+02  0.7816164E-02  0.1312668E+00
        -11   -1    0    0    0    0  0.00000000000E+00  0.00000000000E+00  0.45593999997E+02  0.45594000000E+02  0.51100000000E-03 0.  1.
         11   -1    0    0    0    0 -0.00000000000E+00 -0.00000000000E+00 -0.45593999997E+02  0.45594000000E+02  0.51100000000E-03 0. -1.
    9900012    2    1    2    0    0 -0.20368164329E+02 -0.20180301686E+02  0.32580896288E+02  0.47787291512E+02  0.20000093322E+02 0.  0.
         12    1    1    2    0    0  0.20368164329E+02  0.20180301686E+02 -0.32580896288E+02  0.43400708488E+02  0.00000000000E+00 0. -1.
         11    1    3    3    0    0 -0.36600382353E+00 -0.14766681739E+01 -0.18643357668E+01  0.24062950374E+01  0.51100000000E-03 0. -1.
        -11    1    3    3    0    0  0.11050373029E+01  0.10184570224E+00  0.53248027307E+00  0.12308596550E+01  0.51100000000E-03 0.  1.
        -12    1    3    3    0    0 -0.21107197808E+02 -0.18805479215E+02  0.33912751782E+02  0.44150136820E+02  0.00000000000E+00 0.  1.
</event>
<event>
 7    1  0.2580704E-010  0.4778727E+02  0.7816164E-02  0.1312668E+00
        -11   -1    0    0    0    0  0.00000000000E+00  0.00000000000E+00  0.45593999997E+02  0.45594000000E+02  0.51100000000E-03 0. -1.
         11   -1    0    0    0    0 -0.00000000000E+00 -0.00000000000E+00 -0.45593999997E+02  0.45594000000E+02  0.51100000000E-03 0.  1.
    9900012    2    1    2    0    0  0.38561716987E+02 -0.10060011952E+02 -0.17187597145E+02  0.47787270133E+02  0.19999995842E+02 0.  0.
         12    1    1    2    0    0 -0.38561716987E+02  0.10060011952E+02  0.17187597145E+02  0.43400729867E+02  0.00000000000E+00 0. -1.
         11    1    3    3    0    0  0.11119729232E+02 -0.25940466134E+01 -0.98073883746E+00  0.11460336163E+02  0.51100000000E-03 0. -1.
        -11    1    3    3    0    0  0.75684113074E+01 -0.97393131666E+01 -0.80248844407E+01  0.14715088896E+02  0.51100000000E-03 0.  1.
         12    1    3    3    0    0  0.19873576447E+02  0.22733478282E+01 -0.81819738664E+01  0.21611845074E+02  0.00000000000E+00 0. -1.
</event>
<event>
 7    1  0.2580704E-010  0.4778727E+02  0.7816164E-02  0.1312668E+00
        -11   -1    0    0    0    0  0.00000000000E+00  0.00000000000E+00  0.45593999997E+02  0.45594000000E+02  0.51100000000E-03 0.  1.
         11   -1    0    0    0    0 -0.00000000000E+00 -0.00000000000E+00 -0.45593999997E+02  0.45594000000E+02  0.51100000000E-03 0. -1.
    9900012    2    1    2    0    0 -0.24129163908E+02  0.20336921754E+02  0.29796247720E+02  0.47787270565E+02  0.19999997812E+02 0.  0.
         12    1    1    2    0    0  0.24129163908E+02 -0.20336921754E+02 -0.29796247720E+02  0.43400729435E+02  0.00000000000E+00 0. -1.
         11    1    3    3    0    0 -0.31272045864E-01  0.38208363987E+01  0.77655699110E+01  0.86547007476E+01  0.51100000000E-03 0.  1.
        -11    1    3    3    0    0 -0.16265107819E+01  0.43167876703E+01  0.97092715706E+01  0.10749425464E+02  0.51100000000E-03 0. -1.
        -12    1    3    3    0    0 -0.22471381080E+02  0.12199297685E+02  0.12321406239E+02  0.28383144353E+02  0.00000000000E+00 0.  1.
</event>
<event>
 7    1  0.2580704E-010  0.4778727E+02  0.7816164E-02  0.1312668E+00
        -11   -1    0    0    0    0  0.00000000000E+00  0.00000000000E+00  0.45593999997E+02  0.45594000000E+02  0.51100000000E-03 0.  1.
         11   -1    0    0    0    0 -0.00000000000E+00 -0.00000000000E+00 -0.45593999997E+02  0.45594000000E+02  0.51100000000E-03 0. -1.
    9900012    2    1    2    0    0  0.19172437451E+02 -0.19575328496E+02  0.33657805761E+02  0.47787265764E+02  0.19999975925E+02 0.  0.
         12    1    1    2    0    0 -0.19172437451E+02  0.19575328496E+02 -0.33657805761E+02  0.43400734236E+02  0.00000000000E+00 0. -1.
         11    1    3    3    0    0  0.70387752693E+01 -0.64867459520E+01  0.19539608716E+02  0.21758183274E+02  0.51100000000E-03 0. -1.
        -11    1    3    3    0    0  0.12158988844E+02 -0.68247615412E+01  0.14007369643E+02  0.19764229921E+02  0.51100000000E-03 0.  1.
         12    1    3    3    0    0 -0.25326662208E-01 -0.62638210031E+01  0.11082740206E+00  0.62648525690E+01  0.00000000000E+00 0. -1.
</event>
<event>
 7    1  0.2580704E-010  0.4778727E+02  0.7816164E-02  0.1312668E+00
        -11   -1    0    0    0    0  0.00000000000E+00  0.00000000000E+00  0.45593999997E+02  0.45594000000E+02  0.51100000000E-03 0.  1.
         11   -1    0    0    0    0 -0.00000000000E+00 -0.00000000000E+00 -0.45593999997E+02  0.45594000000E+02  0.51100000000E-03 0. -1.
    9900012    2    1    2    0    0  0.45943834040E+01 -0.42270015552E+02 -0.87040623764E+01  0.47787271026E+02  0.19999999917E+02 0.  0.
         12    1    1    2    0    0 -0.45943834040E+01  0.42270015552E+02  0.87040623764E+01  0.43400728974E+02  0.00000000000E+00 0. -1.
         11    1    3    3    0    0 -0.18182987177E+01 -0.18594339752E+02 -0.69483561162E+01  0.19933272035E+02  0.51100000000E-03 0. -1.
        -11    1    3    3    0    0  0.39141530551E+01 -0.24124306679E+02  0.51923468694E+00  0.24445293449E+02  0.51100000000E-03 0.  1.
        -12    1    3    3    0    0  0.24985290665E+01  0.44863087913E+00 -0.22749409471E+01  0.34087055424E+01  0.00000000000E+00 0.  1.
</event>
<event>
 7    1  0.2580704E-010  0.4778727E+02  0.7816164E-02  0.1312668E+00
        -11   -1    0    0    0    0  0.00000000000E+00  0.00000000000E+00  0.45593999997E+02  0.45594000000E+02  0.51100000000E-03 0.  1.
         11   -1    0    0    0    0 -0.00000000000E+00 -0.00000000000E+00 -0.45593999997E+02  0.45594000000E+02  0.51100000000E-03 0. -1.
    9900012    2    1    2    0    0 -0.13922197609E+02 -0.38599452486E+02  0.14137818346E+02  0.47787271595E+02  0.20000002508E+02 0.  0.
         12    1    1    2    0    0  0.13922197609E+02  0.38599452486E+02 -0.14137818346E+02  0.43400728405E+02  0.00000000000E+00 0. -1.
         11    1    3    3    0    0 -0.47495018432E-01 -0.27204652048E+01 -0.12270931872E+01  0.29847855298E+01  0.51100000000E-03 0. -1.
        -11    1    3    3    0    0 -0.11859882425E+02 -0.36431314179E+02  0.10837714840E+02  0.39816498178E+02  0.51100000000E-03 0.  1.
         12    1    3    3    0    0 -0.20148201659E+01  0.55232689762E+00  0.45271966937E+01  0.49859878867E+01  0.00000000000E+00 0. -1.
</event>
<event>
 7    1  0.2580704E-010  0.4778727E+02  0.7816164E-02  0.1312668E+00
        -11   -1    0    0    0    0  0.00000000000E+00  0.00000000000E+00  0.45593999997E+02  0.45594000000E+02  0.51100000000E-03 0. -1.
         11   -1    0    0    0    0 -0.00000000000E+00 -0.00000000000E+00 -0.45593999997E+02  0.45594000000E+02  0.51100000000E-03 0.  1.
    9900012    2    1    2    0    0  0.16006973555E+02 -0.40299277677E+02  0.18352735679E+01  0.47787271748E+02  0.20000003210E+02 0.  0.
         12    1    1    2    0    0 -0.16006973555E+02  0.40299277677E+02 -0.18352735679E+01  0.43400728252E+02  0.00000000000E+00 0. -1.
         11    1    3    3    0    0 -0.33696671443E+01 -0.10709930685E+02  0.12905796497E+00  0.11228264700E+02  0.51100000000E-03 0. -1.
        -11    1    3    3    0    0  0.96087088666E+00 -0.13924819136E+00 -0.13809591319E+01  0.16881087953E+01  0.51100000000E-03 0.  1.
        -12    1    3    3    0    0  0.18415769813E+02 -0.29450098801E+02  0.30871747348E+01  0.34870898254E+02  0.00000000000E+00 0.  1.
</event>
<event>
 7    1  0.2580704E-010  0.4778727E+02  0.7816164E-02  0.1312668E+00
        -11   -1    0    0    0    0  0.00000000000E+00  0.00000000000E+00  0.45593999997E+02  0.45594000000E+02  0.51100000000E-03 0. -1.
         11   -1    0    0    0    0 -0.00000000000E+00 -0.00000000000E+00 -0.45593999997E+02  0.45594000000E+02  0.51100000000E-03 0.  1.
    9900012    2    1    2    0    0  0.13521396286E+02 -0.14542537206E+02 -0.38591576551E+02  0.47787270437E+02  0.19999997228E+02 0.  0.
         12    1    1    2    0    0 -0.13521396286E+02  0.14542537206E+02  0.38591576551E+02  0.43400729563E+02  0.00000000000E+00 0. -1.
         11    1    3    3    0    0  0.72337348053E+01 -0.65711855176E+01 -0.39699422669E+01  0.10548357228E+02  0.51100000000E-03 0. -1.
        -11    1    3    3    0    0 -0.15005016409E+01 -0.44839231949E+01 -0.81089992244E+01  0.93868493689E+01  0.51100000000E-03 0.  1.
        -12    1    3    3    0    0  0.77881631220E+01 -0.34874284935E+01 -0.26512635060E+02  0.27852063840E+02  0.00000000000E+00 0.  1.
</event>
<event>
 7    1  0.2580704E-010  0.4778731E+02  0.7816164E-02  0.1312668E+00
        -11   -1    0    0    0    0  0.00000000000E+00  0.00000000000E+00  0.45593999997E+02  0.45594000000E+02  0.51100000000E-03 0.  1.
         11   -1    0    0    0    0 -0.00000000000E+00 -0.00000000000E+00 -0.45593999997E+02  0.45594000000E+02  0.51100000000E-03 0. -1.
    9900012    2    1    2    0    0  0.40516290383E+02  0.15391010414E+02 -0.22731747163E+01  0.47787305175E+02  0.20000155616E+02 0.  0.
         12    1    1    2    0    0 -0.40516290383E+02 -0.15391010414E+02  0.22731747163E+01  0.43400694825E+02  0.00000000000E+00 0. -1.
         11    1    3    3    0    0 -0.60662460762E+00 -0.13199307415E+01 -0.14620695610E+01  0.20610332940E+01  0.51100000000E-03 0. -1.
        -11    1    3    3    0    0  0.16024982237E+02  0.94180649505E+00  0.44721219523E+00  0.16058862170E+02  0.51100000000E-03 0.  1.
        -12    1    3    3    0    0  0.25097932754E+02  0.15769134661E+02 -0.12583173506E+01  0.29667409712E+02  0.00000000000E+00 0.  1.
</event>
<event>
 7    1  0.2580704E-010  0.4778727E+02  0.7816164E-02  0.1312668E+00
        -11   -1    0    0    0    0  0.00000000000E+00  0.00000000000E+00  0.45593999997E+02  0.45594000000E+02  0.51100000000E-03 0.  1.
         11   -1    0    0    0    0 -0.00000000000E+00 -0.00000000000E+00 -0.45593999997E+02  0.45594000000E+02  0.51100000000E-03 0. -1.
    9900012    2    1    2    0    0  0.28712576417E+02  0.12962343278E+02  0.29852785664E+02  0.47787271900E+02  0.20000003901E+02 0.  0.
         12    1    1    2    0    0 -0.28712576417E+02 -0.12962343278E+02 -0.29852785664E+02  0.43400728100E+02  0.00000000000E+00 0. -1.
         11    1    3    3    0    0  0.13875959959E+02  0.45910168456E+01  0.59401711548E+01  0.15776733949E+02  0.51100000000E-03 0. -1.
        -11    1    3    3    0    0  0.32953938353E+01  0.56900397882E+01  0.16313426546E+01  0.67747658586E+01  0.51100000000E-03 0.  1.
        -12    1    3    3    0    0  0.11541222622E+02  0.26812866440E+01  0.22281271854E+02  0.25235772093E+02  0.00000000000E+00 0.  1.
</event>
<event>
 7    1  0.2580704E-010  0.4778726E+02  0.7816164E-02  0.1312668E+00
        -11   -1    0    0    0    0  0.00000000000E+00  0.00000000000E+00  0.45593999997E+02  0.45594000000E+02  0.51100000000E-03 0.  1.
         11   -1    0    0    0    0 -0.00000000000E+00 -0.00000000000E+00 -0.45593999997E+02  0.45594000000E+02  0.51100000000E-03 0. -1.
    9900012    2    1    2    0    0  0.54472879352E+00 -0.33016645928E+02  0.28164310814E+02  0.47787262202E+02  0.19999959683E+02 0.  0.
         12    1    1    2    0    0 -0.54472879352E+00  0.33016645928E+02 -0.28164310814E+02  0.43400737798E+02  0.00000000000E+00 0. -1.
         11    1    3    3    0    0  0.43792641273E+01 -0.31414637599E+01  0.84951005529E+01  0.10060491167E+02  0.51100000000E-03 0. -1.
        -11    1    3    3    0    0 -0.20106539896E+01 -0.10423825235E+02  0.13633055439E+02  0.17278861735E+02  0.51100000000E-03 0.  1.
        -12    1    3    3    0    0 -0.18238813442E+01 -0.19451356933E+02  0.60361548221E+01  0.20447909300E+02  0.00000000000E+00 0.  1.
</event>
<event>
 7    1  0.2580704E-010  0.4778727E+02  0.7816164E-02  0.1312668E+00
        -11   -1    0    0    0    0  0.00000000000E+00  0.00000000000E+00  0.45593999997E+02  0.45594000000E+02  0.51100000000E-03 0.  1.
         11   -1    0    0    0    0 -0.00000000000E+00 -0.00000000000E+00 -0.45593999997E+02  0.45594000000E+02  0.51100000000E-03 0. -1.
    9900012    2    1    2    0    0  0.35625739632E+02 -0.24095707220E+02  0.58160936176E+01  0.47787269871E+02  0.19999994651E+02 0.  0.
         12    1    1    2    0    0 -0.35625739632E+02  0.24095707220E+02 -0.58160936176E+01  0.43400730129E+02  0.00000000000E+00 0. -1.
         11    1    3    3    0    0  0.18053815964E+02 -0.82065364920E+01 -0.54362697347E+01  0.20563086854E+02  0.51100000000E-03 0. -1.
        -11    1    3    3    0    0  0.12741349146E+01  0.32866552784E+00 -0.49376823069E+00  0.14054352125E+01  0.51100000000E-03 0.  1.
        -12    1    3    3    0    0  0.16297788753E+02 -0.16217836256E+02  0.11746131583E+02  0.25818747805E+02  0.00000000000E+00 0.  1.
</event>
<event>
 7    1  0.2580704E-010  0.4778727E+02  0.7816164E-02  0.1312668E+00
        -11   -1    0    0    0    0  0.00000000000E+00  0.00000000000E+00  0.45593999997E+02  0.45594000000E+02  0.51100000000E-03 0.  1.
         11   -1    0    0    0    0 -0.00000000000E+00 -0.00000000000E+00 -0.45593999997E+02  0.45594000000E+02  0.51100000000E-03 0. -1.
    9900012    2    1    2    0    0  0.20086955919E+02 -0.41580320294E+00  0.38470307881E+02  0.47787270987E+02  0.19999999740E+02 0.  0.
         12    1    1    2    0    0 -0.20086955919E+02  0.41580320294E+00 -0.38470307881E+02  0.43400729013E+02  0.00000000000E+00 0. -1.
         11    1    3    3    0    0  0.30498750596E+01  0.26474398778E+01  0.28397995832E+01  0.49371183619E+01  0.51100000000E-03 0. -1.
        -11    1    3    3    0    0  0.12012189074E+02 -0.83377300079E+01  0.14897432800E+02  0.20874480408E+02  0.51100000000E-03 0.  1.
         12    1    3    3    0    0  0.50248917853E+01  0.52744869271E+01  0.20733075498E+02  0.21975672217E+02  0.00000000000E+00 0. -1.
</event>
<event>
 7    1  0.2580704E-010  0.4778727E+02  0.7816164E-02  0.1312668E+00
        -11   -1    0    0    0    0  0.00000000000E+00  0.00000000000E+00  0.45593999997E+02  0.45594000000E+02  0.51100000000E-03 0. -1.
         11   -1    0    0    0    0 -0.00000000000E+00 -0.00000000000E+00 -0.45593999997E+02  0.45594000000E+02  0.51100000000E-03 0.  1.
    9900012    2    1    2    0    0  0.19728483691E+02  0.36450543442E+02 -0.12875099307E+02  0.47787269958E+02  0.19999995048E+02 0.  0.
         12    1    1    2    0    0 -0.19728483691E+02 -0.36450543442E+02  0.12875099307E+02  0.43400730042E+02  0.00000000000E+00 0. -1.
         11    1    3    3    0    0  0.46007139498E+01  0.20669483307E+02 -0.30346220670E+01  0.21391658196E+02  0.51100000000E-03 0. -1.
        -11    1    3    3    0    0  0.52987670592E+01  0.13288193990E+02 -0.65591973937E+01  0.15737728635E+02  0.51100000000E-03 0.  1.
         12    1    3    3    0    0  0.98290026818E+01  0.24928661452E+01 -0.32812798462E+01  0.10657883128E+02  0.00000000000E+00 0. -1.
</event>
<event>
 7    1  0.2580704E-010  0.4778727E+02  0.7816164E-02  0.1312668E+00
        -11   -1    0    0    0    0  0.00000000000E+00  0.00000000000E+00  0.45593999997E+02  0.45594000000E+02  0.51100000000E-03 0. -1.
         11   -1    0    0    0    0 -0.00000000000E+00 -0.00000000000E+00 -0.45593999997E+02  0.45594000000E+02  0.51100000000E-03 0.  1.
    9900012    2    1    2    0    0  0.42304777117E+01  0.43040160845E+02 -0.36429262945E+01  0.47787270753E+02  0.19999998670E+02 0.  0.
         12    1    1    2    0    0 -0.42304777117E+01 -0.43040160845E+02  0.36429262945E+01  0.43400729247E+02  0.00000000000E+00 0. -1.
         11    1    3    3    0    0  0.30383720698E+01  0.15405318457E+02  0.78552818975E+01  0.17557363001E+02  0.51100000000E-03 0. -1.
        -11    1    3    3    0    0  0.15855081031E+01  0.37814966333E+01 -0.16069643402E+01  0.44040762237E+01  0.51100000000E-03 0.  1.
        -12    1    3    3    0    0 -0.39340246113E+00  0.23853345754E+02 -0.98912438518E+01  0.25825831528E+02  0.00000000000E+00 0.  1.
</event>
<event>
 7    1  0.2580704E-010  0.4778728E+02  0.7816164E-02  0.1312668E+00
        -11   -1    0    0    0    0  0.00000000000E+00  0.00000000000E+00  0.45593999997E+02  0.45594000000E+02  0.51100000000E-03 0.  1.
         11   -1    0    0    0    0 -0.00000000000E+00 -0.00000000000E+00 -0.45593999997E+02  0.45594000000E+02  0.51100000000E-03 0. -1.
    9900012    2    1    2    0    0 -0.18727147464E+02  0.21851703870E+02  0.32487226361E+02  0.47787275458E+02  0.20000020124E+02 0.  0.
         12    1    1    2    0    0  0.18727147464E+02 -0.21851703870E+02 -0.32487226361E+02  0.43400724542E+02  0.00000000000E+00 0. -1.
         11    1    3    3    0    0 -0.40421726395E+01 -0.45327182181E+00  0.14146721389E+02  0.14719862137E+02  0.51100000000E-03 0. -1.
        -11    1    3    3    0    0 -0.74642443203E+01  0.56501808812E+01  0.63574618533E+01  0.11316218836E+02  0.51100000000E-03 0.  1.
         12    1    3    3    0    0 -0.72207305044E+01  0.16654794810E+02  0.11983043118E+02  0.21751194486E+02  0.00000000000E+00 0. -1.
</event>
<event>
 7    1  0.2580704E-010  0.4778727E+02  0.7816164E-02  0.1312668E+00
        -11   -1    0    0    0    0  0.00000000000E+00  0.00000000000E+00  0.45593999997E+02  0.45594000000E+02  0.51100000000E-03 0.  1.
         11   -1    0    0    0    0 -0.00000000000E+00 -0.00000000000E+00 -0.45593999997E+02  0.45594000000E+02  0.51100000000E-03 0. -1.
    9900012    2    1    2    0    0  0.11731309708E+01  0.14888059156E+02  0.40750374759E+02  0.47787267463E+02  0.19999983672E+02 0.  0.
         12    1    1    2    0    0 -0.11731309708E+01 -0.14888059156E+02 -0.40750374759E+02  0.43400732537E+02  0.00000000000E+00 0. -1.
         11    1    3    3    0    0  0.29392245561E+01  0.92015969908E+01  0.64302024496E+01  0.11604134262E+02  0.51100000000E-03 0. -1.
        -11    1    3    3    0    0 -0.22641739064E+01  0.65836960013E+01  0.12258460277E+02  0.14097566639E+02  0.51100000000E-03 0.  1.
        -12    1    3    3    0    0  0.49808032120E+00 -0.89723383592E+00  0.22061712033E+02  0.22085566562E+02  0.00000000000E+00 0.  1.
</event>
<event>
 7    1  0.2580704E-010  0.4778727E+02  0.7816164E-02  0.1312668E+00
        -11   -1    0    0    0    0  0.00000000000E+00  0.00000000000E+00  0.45593999997E+02  0.45594000000E+02  0.51100000000E-03 0.  1.
         11   -1    0    0    0    0 -0.00000000000E+00 -0.00000000000E+00 -0.45593999997E+02  0.45594000000E+02  0.51100000000E-03 0. -1.
    9900012    2    1    2    0    0 -0.50685525904E+01  0.41175775538E+02  0.12747117433E+02  0.47787265912E+02  0.19999976601E+02 0.  0.
         12    1    1    2    0    0  0.50685525904E+01 -0.41175775538E+02 -0.12747117433E+02  0.43400734088E+02  0.00000000000E+00 0. -1.
         11    1    3    3    0    0 -0.33046965702E+01  0.40001913827E+01  0.97614754248E+00  0.52797173035E+01  0.51100000000E-03 0. -1.
        -11    1    3    3    0    0 -0.76645245357E+01  0.28214493457E+02  0.45855953256E+01  0.29594429580E+02  0.51100000000E-03 0.  1.
         12    1    3    3    0    0  0.59006685155E+01  0.89610906979E+01  0.71853745647E+01  0.12913119029E+02  0.00000000000E+00 0. -1.
</event>
<event>
 7    1  0.2580704E-010  0.4778728E+02  0.7816164E-02  0.1312668E+00
        -11   -1    0    0    0    0  0.00000000000E+00  0.00000000000E+00  0.45593999997E+02  0.45594000000E+02  0.51100000000E-03 0.  1.
         11   -1    0    0    0    0 -0.00000000000E+00 -0.00000000000E+00 -0.45593999997E+02  0.45594000000E+02  0.51100000000E-03 0. -1.
    9900012    2    1    2    0    0  0.69053800546E+01 -0.48170302559E+01  0.42576216816E+02  0.47787282350E+02  0.20000051546E+02 0.  0.
         12    1    1    2    0    0 -0.69053800546E+01  0.48170302559E+01 -0.42576216816E+02  0.43400717650E+02  0.00000000000E+00 0. -1.
         11    1    3    3    0    0  0.46326980373E+01  0.49502827923E+01  0.10089718701E+02  0.12156052590E+02  0.51100000000E-03 0. -1.
        -11    1    3    3    0    0  0.56416600492E+01 -0.17013461462E+01  0.13377922080E+02  0.14618197778E+02  0.51100000000E-03 0.  1.
        -12    1    3    3    0    0 -0.33689780319E+01 -0.80659669020E+01  0.19108576034E+02  0.21013031983E+02  0.00000000000E+00 0.  1.
</event>
<event>
 7    1  0.2580704E-010  0.4778728E+02  0.7816164E-02  0.1312668E+00
        -11   -1    0    0    0    0  0.00000000000E+00  0.00000000000E+00  0.45593999997E+02  0.45594000000E+02  0.51100000000E-03 0.  1.
         11   -1    0    0    0    0 -0.00000000000E+00 -0.00000000000E+00 -0.45593999997E+02  0.45594000000E+02  0.51100000000E-03 0. -1.
    9900012    2    1    2    0    0 -0.13355386112E+02 -0.12032193804E+02  0.39502939292E+02  0.47787282971E+02  0.20000054376E+02 0.  0.
         12    1    1    2    0    0  0.13355386112E+02  0.12032193804E+02 -0.39502939292E+02  0.43400717029E+02  0.00000000000E+00 0. -1.
         11    1    3    3    0    0  0.19822569227E+01  0.15382778662E+01  0.16868454962E+01  0.30234234388E+01  0.51100000000E-03 0. -1.
        -11    1    3    3    0    0 -0.29746997207E+01 -0.83619661832E+01  0.23617138900E+02  0.25229755586E+02  0.51100000000E-03 0.  1.
        -12    1    3    3    0    0 -0.12362943314E+02 -0.52085054874E+01  0.14198954896E+02  0.19534103945E+02  0.00000000000E+00 0.  1.
</event>
<event>
 7    1  0.2580704E-010  0.4778727E+02  0.7816164E-02  0.1312668E+00
        -11   -1    0    0    0    0  0.00000000000E+00  0.00000000000E+00  0.45593999997E+02  0.45594000000E+02  0.51100000000E-03 0.  1.
         11   -1    0    0    0    0 -0.00000000000E+00 -0.00000000000E+00 -0.45593999997E+02  0.45594000000E+02  0.51100000000E-03 0. -1.
    9900012    2    1    2    0    0  0.14887740079E+01 -0.10759923548E+01  0.43361837419E+02  0.47787272449E+02  0.20000006404E+02 0.  0.
         12    1    1    2    0    0 -0.14887740079E+01  0.10759923548E+01 -0.43361837419E+02  0.43400727551E+02  0.00000000000E+00 0. -1.
         11    1    3    3    0    0  0.40083549711E+01  0.13067258718E+01  0.13444480543E+02  0.14090014173E+02  0.51100000000E-03 0. -1.
        -11    1    3    3    0    0 -0.55780314449E+01  0.25002089103E+01  0.26050972110E+02  0.26758524390E+02  0.51100000000E-03 0.  1.
         12    1    3    3    0    0  0.30584504817E+01 -0.48829271369E+01  0.38663847659E+01  0.69387338853E+01  0.00000000000E+00 0. -1.
</event>
<event>
 7    1  0.2580704E-010  0.4778727E+02  0.7816164E-02  0.1312668E+00
        -11   -1    0    0    0    0  0.00000000000E+00  0.00000000000E+00  0.45593999997E+02  0.45594000000E+02  0.51100000000E-03 0. -1.
         11   -1    0    0    0    0 -0.00000000000E+00 -0.00000000000E+00 -0.45593999997E+02  0.45594000000E+02  0.51100000000E-03 0.  1.
    9900012    2    1    2    0    0 -0.40241588966E+02 -0.10572383872E+01  0.16220972648E+02  0.47787272021E+02  0.20000004450E+02 0.  0.
         12    1    1    2    0    0  0.40241588966E+02  0.10572383872E+01 -0.16220972648E+02  0.43400727979E+02  0.00000000000E+00 0. -1.
         11    1    3    3    0    0 -0.63713441082E+01 -0.46201938443E+01  0.38342300512E+01  0.87545152493E+01  0.51100000000E-03 0. -1.
        -11    1    3    3    0    0 -0.13418297352E+02  0.32951709038E+01  0.12420605214E+02  0.18579028211E+02  0.51100000000E-03 0.  1.
        -12    1    3    3    0    0 -0.20451947506E+02  0.26778455336E+00 -0.33862617247E-01  0.20453728560E+02  0.00000000000E+00 0.  1.
</event>
<event>
 7    1  0.2580704E-010  0.4778727E+02  0.7816164E-02  0.1312668E+00
        -11   -1    0    0    0    0  0.00000000000E+00  0.00000000000E+00  0.45593999997E+02  0.45594000000E+02  0.51100000000E-03 0. -1.
         11   -1    0    0    0    0 -0.00000000000E+00 -0.00000000000E+00 -0.45593999997E+02  0.45594000000E+02  0.51100000000E-03 0.  1.
    9900012    2    1    2    0    0 -0.25191276772E+02  0.34028371210E+02 -0.95442590381E+01  0.47787270131E+02  0.19999995834E+02 0.  0.
         12    1    1    2    0    0  0.25191276772E+02 -0.34028371210E+02  0.95442590381E+01  0.43400729869E+02  0.00000000000E+00 0. -1.
         11    1    3    3    0    0 -0.20083384724E+01  0.15979578950E+02 -0.67139983169E+01  0.17448728908E+02  0.51100000000E-03 0. -1.
        -11    1    3    3    0    0 -0.14486889851E+01 -0.38069882102E+00 -0.96440462916E+00  0.17814903642E+01  0.51100000000E-03 0.  1.
         12    1    3    3    0    0 -0.21734249315E+02  0.18429491080E+02 -0.18658560921E+01  0.28557050858E+02  0.00000000000E+00 0. -1.
</event>
<event>
 7    1  0.2580704E-010  0.4778727E+02  0.7816164E-02  0.1312668E+00
        -11   -1    0    0    0    0  0.00000000000E+00  0.00000000000E+00  0.45593999997E+02  0.45594000000E+02  0.51100000000E-03 0.  1.
         11   -1    0    0    0    0 -0.00000000000E+00 -0.00000000000E+00 -0.45593999997E+02  0.45594000000E+02  0.51100000000E-03 0. -1.
    9900012    2    1    2    0    0  0.10120979132E+02 -0.32742852328E+02  0.26628828782E+02  0.47787272823E+02  0.20000008110E+02 0.  0.
         12    1    1    2    0    0 -0.10120979132E+02  0.32742852328E+02 -0.26628828782E+02  0.43400727177E+02  0.00000000000E+00 0. -1.
         11    1    3    3    0    0  0.23404531432E+01 -0.10788474679E+02  0.53576011219E+01  0.12270810766E+02  0.51100000000E-03 0. -1.
        -11    1    3    3    0    0  0.11006494930E+02 -0.67831088812E+01  0.94189499488E+01  0.15995940583E+02  0.51100000000E-03 0.  1.
         12    1    3    3    0    0 -0.32259689421E+01 -0.15171268768E+02  0.11852277711E+02  0.19520521474E+02  0.00000000000E+00 0. -1.
</event>
<event>
 7    1  0.2580704E-010  0.4778727E+02  0.7816164E-02  0.1312668E+00
        -11   -1    0    0    0    0  0.00000000000E+00  0.00000000000E+00  0.45593999997E+02  0.45594000000E+02  0.51100000000E-03 0.  1.
         11   -1    0    0    0    0 -0.00000000000E+00 -0.00000000000E+00 -0.45593999997E+02  0.45594000000E+02  0.51100000000E-03 0. -1.
    9900012    2    1    2    0    0  0.15608865771E+02  0.11219553229E+02  0.38911542975E+02  0.47787271412E+02  0.20000001674E+02 0.  0.
         12    1    1    2    0    0 -0.15608865771E+02 -0.11219553229E+02 -0.38911542975E+02  0.43400728588E+02  0.00000000000E+00 0. -1.
         11    1    3    3    0    0 -0.43301727352E+00  0.19698326100E+01  0.40910436026E+00  0.20579385582E+01  0.51100000000E-03 0.  1.
        -11    1    3    3    0    0  0.17544177801E+02  0.10930725927E+02  0.26979004282E+02  0.33987433212E+02  0.51100000000E-03 0. -1.
         12    1    3    3    0    0 -0.15022947567E+01 -0.16810053077E+01  0.11523434333E+02  0.11741899642E+02  0.00000000000E+00 0. -1.
</event>
<event>
 7    1  0.2580704E-010  0.4778727E+02  0.7816164E-02  0.1312668E+00
        -11   -1    0    0    0    0  0.00000000000E+00  0.00000000000E+00  0.45593999997E+02  0.45594000000E+02  0.51100000000E-03 0. -1.
         11   -1    0    0    0    0 -0.00000000000E+00 -0.00000000000E+00 -0.45593999997E+02  0.45594000000E+02  0.51100000000E-03 0.  1.
    9900012    2    1    2    0    0 -0.79502090032E+01 -0.37265302629E+02 -0.20777743715E+02  0.47787271468E+02  0.20000001933E+02 0.  0.
         12    1    1    2    0    0  0.79502090032E+01  0.37265302629E+02  0.20777743715E+02  0.43400728532E+02  0.00000000000E+00 0. -1.
         11    1    3    3    0    0 -0.29484396706E+01 -0.32199503216E+02 -0.12963893400E+02  0.34836243141E+02  0.51100000000E-03 0. -1.
        -11    1    3    3    0    0 -0.42732995232E+01 -0.69990071685E+01 -0.67831203196E+01  0.10642270044E+02  0.51100000000E-03 0.  1.
         12    1    3    3    0    0 -0.72846980938E+00  0.19332077553E+01 -0.10307299950E+01  0.23087582834E+01  0.00000000000E+00 0. -1.
</event>
<event>
 7    1  0.2580704E-010  0.4778727E+02  0.7816164E-02  0.1312668E+00
        -11   -1    0    0    0    0  0.00000000000E+00  0.00000000000E+00  0.45593999997E+02  0.45594000000E+02  0.51100000000E-03 0. -1.
         11   -1    0    0    0    0 -0.00000000000E+00 -0.00000000000E+00 -0.45593999997E+02  0.45594000000E+02  0.51100000000E-03 0.  1.
    9900012    2    1    2    0    0  0.29943612068E+02  0.95215406392E+01 -0.29938995561E+02  0.47787273105E+02  0.20000009396E+02 0.  0.
         12    1    1    2    0    0 -0.29943612068E+02 -0.95215406392E+01  0.29938995561E+02  0.43400726895E+02  0.00000000000E+00 0. -1.
         11    1    3    3    0    0  0.96086549628E+01  0.69184652243E+01 -0.10435988054E+02  0.15782942000E+02  0.51100000000E-03 0.  1.
        -11    1    3    3    0    0  0.16411514442E+02  0.56025736287E+01 -0.72546288553E+01  0.18797773210E+02  0.51100000000E-03 0. -1.
        -12    1    3    3    0    0  0.39234426628E+01 -0.29994982139E+01 -0.12248378651E+02  0.13206557896E+02  0.00000000000E+00 0.  1.
</event>
<event>
 7    1  0.2580704E-010  0.4778727E+02  0.7816164E-02  0.1312668E+00
        -11   -1    0    0    0    0  0.00000000000E+00  0.00000000000E+00  0.45593999997E+02  0.45594000000E+02  0.51100000000E-03 0.  1.
         11   -1    0    0    0    0 -0.00000000000E+00 -0.00000000000E+00 -0.45593999997E+02  0.45594000000E+02  0.51100000000E-03 0. -1.
    9900012    2    1    2    0    0  0.63840969698E+01  0.39017900979E+02  0.17901677148E+02  0.47787270333E+02  0.19999996757E+02 0.  0.
         12    1    1    2    0    0 -0.63840969698E+01 -0.39017900979E+02 -0.17901677148E+02  0.43400729667E+02  0.00000000000E+00 0. -1.
         11    1    3    3    0    0 -0.28044563197E+01  0.52543954504E+01 -0.59501854500E+00  0.59856239548E+01  0.51100000000E-03 0. -1.
        -11    1    3    3    0    0 -0.28095994552E+01  0.13575394424E+02  0.86227842955E+01  0.16325979056E+02  0.51100000000E-03 0.  1.
        -12    1    3    3    0    0  0.11998152745E+02  0.20188111105E+02  0.98739113972E+01  0.25475667323E+02  0.00000000000E+00 0.  1.
</event>
<event>
 7    1  0.2580704E-010  0.4778727E+02  0.7816164E-02  0.1312668E+00
        -11   -1    0    0    0    0  0.00000000000E+00  0.00000000000E+00  0.45593999997E+02  0.45594000000E+02  0.51100000000E-03 0.  1.
         11   -1    0    0    0    0 -0.00000000000E+00 -0.00000000000E+00 -0.45593999997E+02  0.45594000000E+02  0.51100000000E-03 0. -1.
    9900012    2    1    2    0    0 -0.16264428284E+02 -0.33467472504E+02  0.22338756651E+02  0.47787269684E+02  0.19999993799E+02 0.  0.
         12    1    1    2    0    0  0.16264428284E+02  0.33467472504E+02 -0.22338756651E+02  0.43400730316E+02  0.00000000000E+00 0. -1.
         11    1    3    3    0    0 -0.38635048624E+01 -0.10998791075E+02  0.41276664480E+01  0.12366798515E+02  0.51100000000E-03 0. -1.
        -11    1    3    3    0    0 -0.27972574960E+01 -0.87307635386E+01  0.16098476746E+02  0.18525977310E+02  0.51100000000E-03 0.  1.
         12    1    3    3    0    0 -0.96036659256E+01 -0.13737917890E+02  0.21126134566E+01  0.16894493860E+02  0.00000000000E+00 0. -1.
</event>
<event>
 7    1  0.2580704E-010  0.4778727E+02  0.7816164E-02  0.1312668E+00
        -11   -1    0    0    0    0  0.00000000000E+00  0.00000000000E+00  0.45593999997E+02  0.45594000000E+02  0.51100000000E-03 0.  1.
         11   -1    0    0    0    0 -0.00000000000E+00 -0.00000000000E+00 -0.45593999997E+02  0.45594000000E+02  0.51100000000E-03 0. -1.
    9900012    2    1    2    0    0  0.28957114980E+02 -0.58836769455E+01  0.31788223456E+02  0.47787270596E+02  0.19999997953E+02 0.  0.
         12    1    1    2    0    0 -0.28957114980E+02  0.58836769455E+01 -0.31788223456E+02  0.43400729404E+02  0.00000000000E+00 0. -1.
         11    1    3    3    0    0  0.57596990870E+01  0.26200733347E+01  0.47039911625E+00  0.63450920751E+01  0.51100000000E-03 0. -1.
        -11    1    3    3    0    0 -0.43857139831E+00  0.51428264372E+00 -0.46496463830E+00  0.82038032951E+00  0.51100000000E-03 0.  1.
        -12    1    3    3    0    0  0.23635987292E+02 -0.90180329239E+01  0.31782788978E+02  0.40621798191E+02  0.00000000000E+00 0.  1.
</event>
<event>
 7    1  0.2580704E-010  0.4778725E+02  0.7816164E-02  0.1312668E+00
        -11   -1    0    0    0    0  0.00000000000E+00  0.00000000000E+00  0.45593999997E+02  0.45594000000E+02  0.51100000000E-03 0. -1.
         11   -1    0    0    0    0 -0.00000000000E+00 -0.00000000000E+00 -0.45593999997E+02  0.45594000000E+02  0.51100000000E-03 0.  1.
    9900012    2    1    2    0    0 -0.35753602544E+02  0.11514120670E+02 -0.21742362828E+02  0.47787246424E+02  0.19999887744E+02 0.  0.
         12    1    1    2    0    0  0.35753602544E+02 -0.11514120670E+02  0.21742362828E+02  0.43400753576E+02  0.00000000000E+00 0. -1.
         11    1    3    3    0    0 -0.26076679089E+01 -0.14472040368E+01  0.18312041990E+01  0.34996629162E+01  0.51100000000E-03 0. -1.
        -11    1    3    3    0    0 -0.27148458132E+01  0.16664784802E+00 -0.66631451780E+01  0.71969203983E+01  0.51100000000E-03 0.  1.
         12    1    3    3    0    0 -0.30431088822E+02  0.12794676859E+02 -0.16910421849E+02  0.37090663109E+02  0.00000000000E+00 0. -1.
</event>
<event>
 7    1  0.2580704E-010  0.4778731E+02  0.7816164E-02  0.1312668E+00
        -11   -1    0    0    0    0  0.00000000000E+00  0.00000000000E+00  0.45593999997E+02  0.45594000000E+02  0.51100000000E-03 0.  1.
         11   -1    0    0    0    0 -0.00000000000E+00 -0.00000000000E+00 -0.45593999997E+02  0.45594000000E+02  0.51100000000E-03 0. -1.
    9900012    2    1    2    0    0 -0.65254945627E+01  0.26472507945E+02  0.33767499008E+02  0.47787311694E+02  0.20000185337E+02 0.  0.
         12    1    1    2    0    0  0.65254945627E+01 -0.26472507945E+02 -0.33767499008E+02  0.43400688306E+02  0.00000000000E+00 0. -1.
         11    1    3    3    0    0 -0.38939146978E+01 -0.70805167063E+00  0.51938131344E+01  0.65299007633E+01  0.51100000000E-03 0. -1.
        -11    1    3    3    0    0 -0.50436083939E+01  0.52320964255E+01  0.10245372546E+02  0.12561069919E+02  0.51100000000E-03 0.  1.
        -12    1    3    3    0    0  0.24120285290E+01  0.21948463191E+02  0.18328313327E+02  0.28696341012E+02  0.00000000000E+00 0.  1.
</event>
<event>
 7    1  0.2580704E-010  0.4778727E+02  0.7816164E-02  0.1312668E+00
        -11   -1    0    0    0    0  0.00000000000E+00  0.00000000000E+00  0.45593999997E+02  0.45594000000E+02  0.51100000000E-03 0. -1.
         11   -1    0    0    0    0 -0.00000000000E+00 -0.00000000000E+00 -0.45593999997E+02  0.45594000000E+02  0.51100000000E-03 0.  1.
    9900012    2    1    2    0    0  0.25747264013E+01  0.77543411928E+01 -0.42624690861E+02  0.47787270809E+02  0.19999998925E+02 0.  0.
         12    1    1    2    0    0 -0.25747264013E+01 -0.77543411928E+01  0.42624690861E+02  0.43400729191E+02  0.00000000000E+00 0. -1.
         11    1    3    3    0    0 -0.35886050377E+00  0.69808115506E-01 -0.14172175188E+02  0.14176889781E+02  0.51100000000E-03 0. -1.
        -11    1    3    3    0    0 -0.11306265043E+01 -0.31450434436E+01 -0.52616326057E+00  0.33832621229E+01  0.51100000000E-03 0.  1.
        -12    1    3    3    0    0  0.40642134095E+01  0.10829576521E+02 -0.27926352412E+02  0.30227118905E+02  0.00000000000E+00 0.  1.
</event>
<event>
 7    1  0.2580704E-010  0.4778727E+02  0.7816164E-02  0.1312668E+00
        -11   -1    0    0    0    0  0.00000000000E+00  0.00000000000E+00  0.45593999997E+02  0.45594000000E+02  0.51100000000E-03 0. -1.
         11   -1    0    0    0    0 -0.00000000000E+00 -0.00000000000E+00 -0.45593999997E+02  0.45594000000E+02  0.51100000000E-03 0.  1.
    9900012    2    1    2    0    0  0.31727094662E+02 -0.27518115160E+02  0.10943862728E+02  0.47787270409E+02  0.19999997101E+02 0.  0.
         12    1    1    2    0    0 -0.31727094662E+02  0.27518115160E+02 -0.10943862728E+02  0.43400729591E+02  0.00000000000E+00 0. -1.
         11    1    3    3    0    0  0.11033980177E+02 -0.10491917593E+02 -0.88907245056E-01  0.15226193158E+02  0.51100000000E-03 0. -1.
        -11    1    3    3    0    0  0.13726370573E+02 -0.18923526133E+02  0.77438159011E+01  0.24626810093E+02  0.51100000000E-03 0.  1.
         12    1    3    3    0    0  0.69667439130E+01  0.18973285663E+01  0.32889540724E+01  0.79342671575E+01  0.00000000000E+00 0. -1.
</event>
<event>
 7    1  0.2580704E-010  0.4778726E+02  0.7816164E-02  0.1312668E+00
        -11   -1    0    0    0    0  0.00000000000E+00  0.00000000000E+00  0.45593999997E+02  0.45594000000E+02  0.51100000000E-03 0.  1.
         11   -1    0    0    0    0 -0.00000000000E+00 -0.00000000000E+00 -0.45593999997E+02  0.45594000000E+02  0.51100000000E-03 0. -1.
    9900012    2    1    2    0    0 -0.34587803164E+02 -0.25577931214E+02 -0.57512817379E+01  0.47787263433E+02  0.19999965296E+02 0.  0.
         12    1    1    2    0    0  0.34587803164E+02  0.25577931214E+02  0.57512817379E+01  0.43400736567E+02  0.00000000000E+00 0. -1.
         11    1    3    3    0    0 -0.25381353167E+02 -0.10404002927E+02 -0.78622553333E+01  0.28535441554E+02  0.51100000000E-03 0. -1.
        -11    1    3    3    0    0 -0.55298678782E+01 -0.45374396857E+01 -0.17318518231E+01  0.73598307487E+01  0.51100000000E-03 0.  1.
        -12    1    3    3    0    0 -0.36765821192E+01 -0.10636488601E+02  0.38428254185E+01  0.11891991130E+02  0.00000000000E+00 0.  1.
</event>
<event>
 7    1  0.2590359E-010  0.4778727E+02  0.7816164E-02  0.1312668E+00
        -11   -1    0    0    0    0  0.00000000000E+00  0.00000000000E+00  0.45593999997E+02  0.45594000000E+02  0.51100000000E-03 0. -1.
         11   -1    0    0    0    0 -0.00000000000E+00 -0.00000000000E+00 -0.45593999997E+02  0.45594000000E+02  0.51100000000E-03 0.  1.
    9900012    2    1    2    0    0  0.18744314054E+02 -0.88111321659E+01 -0.38139719908E+02  0.47787267356E+02  0.19999983182E+02 0.  0.
         12    1    1    2    0    0 -0.18744314054E+02  0.88111321659E+01  0.38139719908E+02  0.43400732644E+02  0.00000000000E+00 0. -1.
         11    1    3    3    0    0  0.45484548770E+01 -0.44243022094E+01 -0.34352208131E+01  0.72155134332E+01  0.51100000000E-03 0. -1.
        -11    1    3    3    0    0  0.17135567503E+02 -0.27455369284E+01 -0.26211942951E+02  0.31436151167E+02  0.51100000000E-03 0.  1.
        -12    1    3    3    0    0 -0.29397083263E+01 -0.16412930281E+01 -0.84925561440E+01  0.91356027555E+01  0.00000000000E+00 0.  1.
</event>
<event>
 7    1  0.2580704E-010  0.4778727E+02  0.7816164E-02  0.1312668E+00
        -11   -1    0    0    0    0  0.00000000000E+00  0.00000000000E+00  0.45593999997E+02  0.45594000000E+02  0.51100000000E-03 0.  1.
         11   -1    0    0    0    0 -0.00000000000E+00 -0.00000000000E+00 -0.45593999997E+02  0.45594000000E+02  0.51100000000E-03 0. -1.
    9900012    2    1    2    0    0  0.44469111292E+00 -0.30656769642E+02  0.30717875654E+02  0.47787272359E+02  0.20000005994E+02 0.  0.
         12    1    1    2    0    0 -0.44469111292E+00  0.30656769642E+02 -0.30717875654E+02  0.43400727641E+02  0.00000000000E+00 0. -1.
         11    1    3    3    0    0 -0.38116785965E+01 -0.97423072592E+01  0.76374008208E+01  0.12952657488E+02  0.51100000000E-03 0. -1.
        -11    1    3    3    0    0  0.28211460738E+01 -0.15934783982E+01 -0.14719246191E+01  0.35587358599E+01  0.51100000000E-03 0.  1.
        -12    1    3    3    0    0  0.14352236355E+01 -0.19320983984E+02  0.24552399453E+02  0.31275879011E+02  0.00000000000E+00 0.  1.
</event>
<event>
 7    1  0.2580704E-010  0.4778728E+02  0.7816164E-02  0.1312668E+00
        -11   -1    0    0    0    0  0.00000000000E+00  0.00000000000E+00  0.45593999997E+02  0.45594000000E+02  0.51100000000E-03 0.  1.
         11   -1    0    0    0    0 -0.00000000000E+00 -0.00000000000E+00 -0.45593999997E+02  0.45594000000E+02  0.51100000000E-03 0. -1.
    9900012    2    1    2    0    0 -0.22633688547E+02  0.12806100563E+02  0.34746837851E+02  0.47787276395E+02  0.20000024394E+02 0.  0.
         12    1    1    2    0    0  0.22633688547E+02 -0.12806100563E+02 -0.34746837851E+02  0.43400723605E+02  0.00000000000E+00 0. -1.
         11    1    3    3    0    0 -0.44917766799E+01  0.36828351434E+01 -0.15721774962E+01  0.60175638573E+01  0.51100000000E-03 0. -1.
        -11    1    3    3    0    0 -0.23249649663E+01  0.26638787480E+01  0.57451510111E+01  0.67459967743E+01  0.51100000000E-03 0.  1.
        -12    1    3    3    0    0 -0.15816946900E+02  0.64593866716E+01  0.30573864336E+02  0.35023715763E+02  0.00000000000E+00 0.  1.
</event>
<event>
 7    1  0.2580704E-010  0.4778722E+02  0.7816164E-02  0.1312668E+00
        -11   -1    0    0    0    0  0.00000000000E+00  0.00000000000E+00  0.45593999997E+02  0.45594000000E+02  0.51100000000E-03 0.  1.
         11   -1    0    0    0    0 -0.00000000000E+00 -0.00000000000E+00 -0.45593999997E+02  0.45594000000E+02  0.51100000000E-03 0. -1.
    9900012    2    1    2    0    0  0.36061708540E+02  0.10996099363E+02  0.21500381235E+02  0.47787223310E+02  0.19999782359E+02 0.  0.
         12    1    1    2    0    0 -0.36061708540E+02 -0.10996099363E+02 -0.21500381235E+02  0.43400776690E+02  0.00000000000E+00 0. -1.
         11    1    3    3    0    0  0.26525584912E+01  0.15654025000E+01  0.19800649571E+01  0.36615855898E+01  0.51100000000E-03 0. -1.
        -11    1    3    3    0    0  0.16140350194E+02  0.49542406474E+01  0.20133276731E+02  0.26275544466E+02  0.51100000000E-03 0.  1.
         12    1    3    3    0    0  0.17268799855E+02  0.44764562157E+01 -0.61296045281E+00  0.17850093255E+02  0.00000000000E+00 0. -1.
</event>
<event>
 7    1  0.2580704E-010  0.4778728E+02  0.7816164E-02  0.1312668E+00
        -11   -1    0    0    0    0  0.00000000000E+00  0.00000000000E+00  0.45593999997E+02  0.45594000000E+02  0.51100000000E-03 0. -1.
         11   -1    0    0    0    0 -0.00000000000E+00 -0.00000000000E+00 -0.45593999997E+02  0.45594000000E+02  0.51100000000E-03 0.  1.
    9900012    2    1    2    0    0 -0.28057883160E+02 -0.14879441709E+02 -0.29580066051E+02  0.47787275345E+02  0.20000019610E+02 0.  0.
         12    1    1    2    0    0  0.28057883160E+02  0.14879441709E+02  0.29580066051E+02  0.43400724655E+02  0.00000000000E+00 0. -1.
         11    1    3    3    0    0 -0.21884585621E+01 -0.76134102899E+01 -0.10397436975E+02  0.13071345112E+02  0.51100000000E-03 0. -1.
        -11    1    3    3    0    0 -0.96451667569E+01 -0.58789628826E+01 -0.13187799084E+02  0.17364028660E+02  0.51100000000E-03 0.  1.
         12    1    3    3    0    0 -0.16224257841E+02 -0.13870685366E+01 -0.59948299915E+01  0.17351901574E+02  0.00000000000E+00 0. -1.
</event>
<event>
 7    1  0.2580704E-010  0.4778727E+02  0.7816164E-02  0.1312668E+00
        -11   -1    0    0    0    0  0.00000000000E+00  0.00000000000E+00  0.45593999997E+02  0.45594000000E+02  0.51100000000E-03 0. -1.
         11   -1    0    0    0    0 -0.00000000000E+00 -0.00000000000E+00 -0.45593999997E+02  0.45594000000E+02  0.51100000000E-03 0.  1.
    9900012    2    1    2    0    0 -0.11098517527E+02  0.40545941202E+02  0.10792247207E+02  0.47787273750E+02  0.20000012335E+02 0.  0.
         12    1    1    2    0    0  0.11098517527E+02 -0.40545941202E+02 -0.10792247207E+02  0.43400726250E+02  0.00000000000E+00 0. -1.
         11    1    3    3    0    0  0.35621757867E+01  0.10274851163E+02  0.26553124095E+01  0.11194299756E+02  0.51100000000E-03 0. -1.
        -11    1    3    3    0    0  0.12915228076E+01  0.33870424208E+00  0.15423146831E+01  0.20399721981E+01  0.51100000000E-03 0.  1.
        -12    1    3    3    0    0 -0.15952216121E+02  0.29932385797E+02  0.65946201144E+01  0.34553001796E+02  0.00000000000E+00 0.  1.
</event>
<event>
 7    1  0.2580704E-010  0.4778727E+02  0.7816164E-02  0.1312668E+00
        -11   -1    0    0    0    0  0.00000000000E+00  0.00000000000E+00  0.45593999997E+02  0.45594000000E+02  0.51100000000E-03 0.  1.
         11   -1    0    0    0    0 -0.00000000000E+00 -0.00000000000E+00 -0.45593999997E+02  0.45594000000E+02  0.51100000000E-03 0. -1.
    9900012    2    1    2    0    0 -0.34446122103E+02  0.87216483975E+00  0.26388016762E+02  0.47787269269E+02  0.19999991903E+02 0.  0.
         12    1    1    2    0    0  0.34446122103E+02 -0.87216483975E+00 -0.26388016762E+02  0.43400730731E+02  0.00000000000E+00 0. -1.
         11    1    3    3    0    0 -0.16656443657E+01 -0.40508077613E+01  0.29009674838E+01  0.52534776362E+01  0.51100000000E-03 0. -1.
        -11    1    3    3    0    0 -0.93382336213E+01  0.37337869331E+01  0.11341866631E+01  0.10120778215E+02  0.51100000000E-03 0.  1.
        -12    1    3    3    0    0 -0.23442244116E+02  0.11891856679E+01  0.22352862615E+02  0.32413013417E+02  0.00000000000E+00 0.  1.
</event>
<event>
 7    1  0.2580704E-010  0.4778727E+02  0.7816164E-02  0.1312668E+00
        -11   -1    0    0    0    0  0.00000000000E+00  0.00000000000E+00  0.45593999997E+02  0.45594000000E+02  0.51100000000E-03 0.  1.
         11   -1    0    0    0    0 -0.00000000000E+00 -0.00000000000E+00 -0.45593999997E+02  0.45594000000E+02  0.51100000000E-03 0. -1.
    9900012    2    1    2    0    0 -0.32409490492E+02  0.26412814565E+02  0.11645219331E+02  0.47787274424E+02  0.20000015411E+02 0.  0.
         12    1    1    2    0    0  0.32409490492E+02 -0.26412814565E+02 -0.11645219331E+02  0.43400725576E+02  0.00000000000E+00 0. -1.
         11    1    3    3    0    0 -0.13731460060E+02  0.14102168377E+02  0.31875550632E+01  0.19939524966E+02  0.51100000000E-03 0. -1.
        -11    1    3    3    0    0 -0.81674731105E+01  0.13367840316E+02  0.29726050434E+01  0.15945004005E+02  0.51100000000E-03 0.  1.
         12    1    3    3    0    0 -0.10510557322E+02 -0.10571941277E+01  0.54850592248E+01  0.11902745454E+02  0.00000000000E+00 0. -1.
</event>
<event>
 7    1  0.2580704E-010  0.4778727E+02  0.7816164E-02  0.1312668E+00
        -11   -1    0    0    0    0  0.00000000000E+00  0.00000000000E+00  0.45593999997E+02  0.45594000000E+02  0.51100000000E-03 0. -1.
         11   -1    0    0    0    0 -0.00000000000E+00 -0.00000000000E+00 -0.45593999997E+02  0.45594000000E+02  0.51100000000E-03 0.  1.
    9900012    2    1    2    0    0 -0.40730177171E+02  0.61477433233E+01  0.13670444288E+02  0.47787272732E+02  0.20000007694E+02 0.  0.
         12    1    1    2    0    0  0.40730177171E+02 -0.61477433233E+01 -0.13670444288E+02  0.43400727268E+02  0.00000000000E+00 0. -1.
         11    1    3    3    0    0 -0.57639833524E+01  0.58934967692E+01  0.11530767160E-01  0.82436000312E+01  0.51100000000E-03 0. -1.
        -11    1    3    3    0    0 -0.24833997203E+02  0.56640656504E+01  0.11049090880E+02  0.27764932312E+02  0.51100000000E-03 0.  1.
         12    1    3    3    0    0 -0.10132196616E+02 -0.54098190963E+01  0.26098226403E+01  0.11778740388E+02  0.00000000000E+00 0. -1.
</event>
<event>
 7    1  0.2580704E-010  0.4778728E+02  0.7816164E-02  0.1312668E+00
        -11   -1    0    0    0    0  0.00000000000E+00  0.00000000000E+00  0.45593999997E+02  0.45594000000E+02  0.51100000000E-03 0.  1.
         11   -1    0    0    0    0 -0.00000000000E+00 -0.00000000000E+00 -0.45593999997E+02  0.45594000000E+02  0.51100000000E-03 0. -1.
    9900012    2    1    2    0    0  0.30548688535E+02  0.52855473852E+01  0.30372076531E+02  0.47787280937E+02  0.20000045102E+02 0.  0.
         12    1    1    2    0    0 -0.30548688535E+02 -0.52855473852E+01 -0.30372076531E+02  0.43400719063E+02  0.00000000000E+00 0. -1.
         11    1    3    3    0    0 -0.21207124306E+01 -0.60489848286E+00  0.15423435116E+01  0.26911237721E+01  0.51100000000E-03 0. -1.
        -11    1    3    3    0    0  0.88640436579E+01  0.61147895043E+01  0.10614485890E+02  0.15120490455E+02  0.51100000000E-03 0.  1.
        -12    1    3    3    0    0  0.23805357308E+02 -0.22434363627E+00  0.18215247130E+02  0.29975666709E+02  0.00000000000E+00 0.  1.
</event>
<event>
 7    1  0.2580704E-010  0.4778727E+02  0.7816164E-02  0.1312668E+00
        -11   -1    0    0    0    0  0.00000000000E+00  0.00000000000E+00  0.45593999997E+02  0.45594000000E+02  0.51100000000E-03 0.  1.
         11   -1    0    0    0    0 -0.00000000000E+00 -0.00000000000E+00 -0.45593999997E+02  0.45594000000E+02  0.51100000000E-03 0. -1.
    9900012    2    1    2    0    0  0.26544384198E+02  0.22902146851E+02  0.25583405032E+02  0.47787271022E+02  0.19999999896E+02 0.  0.
         12    1    1    2    0    0 -0.26544384198E+02 -0.22902146851E+02 -0.25583405032E+02  0.43400728978E+02  0.00000000000E+00 0. -1.
         11    1    3    3    0    0 -0.25916089449E+01 -0.52898336432E-01  0.73467078976E-01  0.25931897019E+01  0.51100000000E-03 0. -1.
        -11    1    3    3    0    0  0.57402923989E+01  0.64836505706E+01  0.67568239512E+01  0.10983776751E+02  0.51100000000E-03 0.  1.
         12    1    3    3    0    0  0.23395700744E+02  0.16471394617E+02  0.18753114002E+02  0.34210304569E+02  0.00000000000E+00 0. -1.
</event>
<event>
 7    1  0.2580704E-010  0.4778727E+02  0.7816164E-02  0.1312668E+00
        -11   -1    0    0    0    0  0.00000000000E+00  0.00000000000E+00  0.45593999997E+02  0.45594000000E+02  0.51100000000E-03 0. -1.
         11   -1    0    0    0    0 -0.00000000000E+00 -0.00000000000E+00 -0.45593999997E+02  0.45594000000E+02  0.51100000000E-03 0.  1.
    9900012    2    1    2    0    0  0.37928911857E+02 -0.20071468804E+02  0.64928695470E+01  0.47787267638E+02  0.19999984468E+02 0.  0.
         12    1    1    2    0    0 -0.37928911857E+02  0.20071468804E+02 -0.64928695470E+01  0.43400732362E+02  0.00000000000E+00 0. -1.
         11    1    3    3    0    0  0.36116101195E+01 -0.51057456434E+00  0.11690600064E+01  0.38302892320E+01  0.51100000000E-03 0. -1.
        -11    1    3    3    0    0  0.26151219693E+02 -0.11722708934E+02 -0.44501954742E+01  0.29001938490E+02  0.51100000000E-03 0.  1.
         12    1    3    3    0    0  0.81660820447E+01 -0.78381853059E+01  0.97740050148E+01  0.14955039916E+02  0.00000000000E+00 0. -1.
</event>
<event>
 7    1  0.2580704E-010  0.4778727E+02  0.7816164E-02  0.1312668E+00
        -11   -1    0    0    0    0  0.00000000000E+00  0.00000000000E+00  0.45593999997E+02  0.45594000000E+02  0.51100000000E-03 0. -1.
         11   -1    0    0    0    0 -0.00000000000E+00 -0.00000000000E+00 -0.45593999997E+02  0.45594000000E+02  0.51100000000E-03 0.  1.
    9900012    2    1    2    0    0 -0.32425846181E+02 -0.28362715847E+02 -0.52672553312E+01  0.47787272708E+02  0.20000007583E+02 0.  0.
         12    1    1    2    0    0  0.32425846181E+02  0.28362715847E+02  0.52672553312E+01  0.43400727292E+02  0.00000000000E+00 0. -1.
         11    1    3    3    0    0 -0.16230922266E+02 -0.19024959903E+02  0.15706816560E+01  0.25057114320E+02  0.51100000000E-03 0.  1.
        -11    1    3    3    0    0 -0.16325870888E+02 -0.10479383422E+02 -0.41949206343E+01  0.19848145922E+02  0.51100000000E-03 0. -1.
        -12    1    3    3    0    0  0.13094697352E+00  0.11416274776E+01 -0.26430163528E+01  0.28820124651E+01  0.00000000000E+00 0.  1.
</event>
<event>
 7    1  0.2580704E-010  0.4778728E+02  0.7816164E-02  0.1312668E+00
        -11   -1    0    0    0    0  0.00000000000E+00  0.00000000000E+00  0.45593999997E+02  0.45594000000E+02  0.51100000000E-03 0.  1.
         11   -1    0    0    0    0 -0.00000000000E+00 -0.00000000000E+00 -0.45593999997E+02  0.45594000000E+02  0.51100000000E-03 0. -1.
    9900012    2    1    2    0    0 -0.35787385416E+02 -0.22473452040E+02  0.98908929634E+01  0.47787276905E+02  0.20000026723E+02 0.  0.
         12    1    1    2    0    0  0.35787385416E+02  0.22473452040E+02 -0.98908929634E+01  0.43400723095E+02  0.00000000000E+00 0. -1.
         11    1    3    3    0    0 -0.47479479328E+01  0.62831297820E-01  0.46183067035E+01  0.66238745771E+01  0.51100000000E-03 0. -1.
        -11    1    3    3    0    0 -0.77307238710E+01 -0.87122887064E+01  0.76880800682E+01  0.13956168581E+02  0.51100000000E-03 0.  1.
         12    1    3    3    0    0 -0.23308713612E+02 -0.13823994632E+02 -0.24154938083E+01  0.27207233747E+02  0.00000000000E+00 0. -1.
</event>
<event>
 7    1  0.2580704E-010  0.4778727E+02  0.7816164E-02  0.1312668E+00
        -11   -1    0    0    0    0  0.00000000000E+00  0.00000000000E+00  0.45593999997E+02  0.45594000000E+02  0.51100000000E-03 0.  1.
         11   -1    0    0    0    0 -0.00000000000E+00 -0.00000000000E+00 -0.45593999997E+02  0.45594000000E+02  0.51100000000E-03 0. -1.
    9900012    2    1    2    0    0 -0.11597634151E+02  0.29024161103E+02  0.30111728056E+02  0.47787271755E+02  0.20000003242E+02 0.  0.
         12    1    1    2    0    0  0.11597634151E+02 -0.29024161103E+02 -0.30111728056E+02  0.43400728245E+02  0.00000000000E+00 0. -1.
         11    1    3    3    0    0  0.23110835416E+01  0.16869588270E+01  0.84721120309E+01  0.89422379607E+01  0.51100000000E-03 0. -1.
        -11    1    3    3    0    0 -0.13723846852E+01  0.25767196308E+01  0.67402140780E+01  0.73452984867E+01  0.51100000000E-03 0.  1.
        -12    1    3    3    0    0 -0.12536333007E+02  0.24760482645E+02  0.14899401947E+02  0.31499735308E+02  0.00000000000E+00 0.  1.
</event>
<event>
 7    1  0.2580704E-010  0.4778728E+02  0.7816164E-02  0.1312668E+00
        -11   -1    0    0    0    0  0.00000000000E+00  0.00000000000E+00  0.45593999997E+02  0.45594000000E+02  0.51100000000E-03 0.  1.
         11   -1    0    0    0    0 -0.00000000000E+00 -0.00000000000E+00 -0.45593999997E+02  0.45594000000E+02  0.51100000000E-03 0. -1.
    9900012    2    1    2    0    0 -0.39190074134E+02 -0.15994026826E+02  0.95891327328E+01  0.47787282595E+02  0.20000052661E+02 0.  0.
         12    1    1    2    0    0  0.39190074134E+02  0.15994026826E+02 -0.95891327328E+01  0.43400717405E+02  0.00000000000E+00 0. -1.
         11    1    3    3    0    0 -0.99404432536E+01  0.21189701890E+01  0.20484757006E+01  0.10368157970E+02  0.51100000000E-03 0. -1.
        -11    1    3    3    0    0 -0.50165024436E+01 -0.50383957630E+01  0.68535374306E+01  0.98753078030E+01  0.51100000000E-03 0.  1.
         12    1    3    3    0    0 -0.24233128437E+02 -0.13074601252E+02  0.68711960167E+00  0.27543816821E+02  0.00000000000E+00 0. -1.
</event>
<event>
 7    1  0.2580704E-010  0.4778727E+02  0.7816164E-02  0.1312668E+00
        -11   -1    0    0    0    0  0.00000000000E+00  0.00000000000E+00  0.45593999997E+02  0.45594000000E+02  0.51100000000E-03 0. -1.
         11   -1    0    0    0    0 -0.00000000000E+00 -0.00000000000E+00 -0.45593999997E+02  0.45594000000E+02  0.51100000000E-03 0.  1.
    9900012    2    1    2    0    0 -0.26838605344E+02  0.27477373680E+02 -0.20206587369E+02  0.47787274496E+02  0.20000015738E+02 0.  0.
         12    1    1    2    0    0  0.26838605344E+02 -0.27477373680E+02  0.20206587369E+02  0.43400725504E+02  0.00000000000E+00 0. -1.
         11    1    3    3    0    0  0.40558093327E+00  0.49777254396E+01 -0.20068447165E+01  0.53823482257E+01  0.51100000000E-03 0. -1.
        -11    1    3    3    0    0 -0.18450675433E+02  0.57143280363E+01 -0.10108663218E+02  0.21800597266E+02  0.51100000000E-03 0.  1.
        -12    1    3    3    0    0 -0.87935108446E+01  0.16785320204E+02 -0.80910794340E+01  0.20604329004E+02  0.00000000000E+00 0.  1.
</event>
<event>
 7    1  0.2580704E-010  0.4778727E+02  0.7816164E-02  0.1312668E+00
        -11   -1    0    0    0    0  0.00000000000E+00  0.00000000000E+00  0.45593999997E+02  0.45594000000E+02  0.51100000000E-03 0. -1.
         11   -1    0    0    0    0 -0.00000000000E+00 -0.00000000000E+00 -0.45593999997E+02  0.45594000000E+02  0.51100000000E-03 0.  1.
    9900012    2    1    2    0    0 -0.38441079692E+02 -0.77381764090E+01 -0.18601804087E+02  0.47787273079E+02  0.20000009275E+02 0.  0.
         12    1    1    2    0    0  0.38441079692E+02  0.77381764090E+01  0.18601804087E+02  0.43400726921E+02  0.00000000000E+00 0. -1.
         11    1    3    3    0    0 -0.61439457944E+01 -0.88412813638E-01  0.38123110988E+01  0.72311550201E+01  0.51100000000E-03 0. -1.
        -11    1    3    3    0    0 -0.18604814167E+01  0.88135504384E+00 -0.23130223406E+01  0.30964900169E+01  0.51100000000E-03 0.  1.
         12    1    3    3    0    0 -0.30436652481E+02 -0.85311186392E+01 -0.20101092845E+02  0.37459628042E+02  0.00000000000E+00 0. -1.
</event>
<event>
 7    1  0.2580704E-010  0.4778727E+02  0.7816164E-02  0.1312668E+00
        -11   -1    0    0    0    0  0.00000000000E+00  0.00000000000E+00  0.45593999997E+02  0.45594000000E+02  0.51100000000E-03 0.  1.
         11   -1    0    0    0    0 -0.00000000000E+00 -0.00000000000E+00 -0.45593999997E+02  0.45594000000E+02  0.51100000000E-03 0. -1.
    9900012    2    1    2    0    0  0.29329557733E+02  0.22709915264E+02 -0.22531319680E+02  0.47787267580E+02  0.19999984203E+02 0.  0.
         12    1    1    2    0    0 -0.29329557733E+02 -0.22709915264E+02  0.22531319680E+02  0.43400732420E+02  0.00000000000E+00 0. -1.
         11    1    3    3    0    0 -0.32423640960E+00 -0.25482424969E+00 -0.26208305585E+01  0.26530770296E+01  0.51100000000E-03 0. -1.
        -11    1    3    3    0    0  0.92798237864E+01  0.12754326809E+02 -0.15114478036E+02  0.21845718766E+02  0.51100000000E-03 0.  1.
         12    1    3    3    0    0  0.20373970357E+02  0.10210412704E+02 -0.47960110849E+01  0.23288471783E+02  0.00000000000E+00 0. -1.
</event>
<event>
 7    1  0.2580704E-010  0.4778726E+02  0.7816164E-02  0.1312668E+00
        -11   -1    0    0    0    0  0.00000000000E+00  0.00000000000E+00  0.45593999997E+02  0.45594000000E+02  0.51100000000E-03 0. -1.
         11   -1    0    0    0    0 -0.00000000000E+00 -0.00000000000E+00 -0.45593999997E+02  0.45594000000E+02  0.51100000000E-03 0.  1.
    9900012    2    1    2    0    0 -0.25032256295E+02  0.13164937244E+02 -0.32919526487E+02  0.47787255168E+02  0.19999927613E+02 0.  0.
         12    1    1    2    0    0  0.25032256295E+02 -0.13164937244E+02  0.32919526487E+02  0.43400744832E+02  0.00000000000E+00 0. -1.
         11    1    3    3    0    0 -0.92831961151E+01  0.12122743815E+01 -0.89908014645E+01  0.12980055875E+02  0.51100000000E-03 0. -1.
        -11    1    3    3    0    0 -0.18702174856E+02  0.80567591862E+01 -0.19895889824E+02  0.28469793555E+02  0.51100000000E-03 0.  1.
         12    1    3    3    0    0  0.29531146760E+01  0.38959036766E+01 -0.40328351987E+01  0.63374057379E+01  0.00000000000E+00 0. -1.
</event>
<event>
 7    1  0.2580704E-010  0.4778727E+02  0.7816164E-02  0.1312668E+00
        -11   -1    0    0    0    0  0.00000000000E+00  0.00000000000E+00  0.45593999997E+02  0.45594000000E+02  0.51100000000E-03 0. -1.
         11   -1    0    0    0    0 -0.00000000000E+00 -0.00000000000E+00 -0.45593999997E+02  0.45594000000E+02  0.51100000000E-03 0.  1.
    9900012    2    1    2    0    0  0.27738258911E+02  0.25478252529E+02 -0.21565496179E+02  0.47787274375E+02  0.20000015184E+02 0.  0.
         12    1    1    2    0    0 -0.27738258911E+02 -0.25478252529E+02  0.21565496179E+02  0.43400725625E+02  0.00000000000E+00 0. -1.
         11    1    3    3    0    0  0.23593148943E+02  0.85779682929E+01 -0.11127299874E+02  0.27459698101E+02  0.51100000000E-03 0. -1.
        -11    1    3    3    0    0  0.35798671360E+01  0.13917851756E+02 -0.91030937759E+01  0.17011418600E+02  0.51100000000E-03 0.  1.
         12    1    3    3    0    0  0.56524283283E+00  0.29824324796E+01 -0.13351025290E+01  0.33161576739E+01  0.00000000000E+00 0. -1.
</event>
<event>
 7    1  0.2580704E-010  0.4778727E+02  0.7816164E-02  0.1312668E+00
        -11   -1    0    0    0    0  0.00000000000E+00  0.00000000000E+00  0.45593999997E+02  0.45594000000E+02  0.51100000000E-03 0.  1.
         11   -1    0    0    0    0 -0.00000000000E+00 -0.00000000000E+00 -0.45593999997E+02  0.45594000000E+02  0.51100000000E-03 0. -1.
    9900012    2    1    2    0    0 -0.39058131937E+02 -0.18054320118E+02  0.56680648216E+01  0.47787273000E+02  0.20000008916E+02 0.  0.
         12    1    1    2    0    0  0.39058131937E+02  0.18054320118E+02 -0.56680648216E+01  0.43400727000E+02  0.00000000000E+00 0. -1.
         11    1    3    3    0    0 -0.16546659086E+01 -0.83736936758E+01  0.12357156732E+01  0.86245961373E+01  0.51100000000E-03 0. -1.
        -11    1    3    3    0    0 -0.28009303102E+01  0.45863901826E+00  0.61137801581E+00  0.29033332036E+01  0.51100000000E-03 0.  1.
         12    1    3    3    0    0 -0.34602535718E+02 -0.10139265460E+02  0.38209711326E+01  0.36259343659E+02  0.00000000000E+00 0. -1.
</event>
<event>
 7    1  0.2580704E-010  0.4778727E+02  0.7816164E-02  0.1312668E+00
        -11   -1    0    0    0    0  0.00000000000E+00  0.00000000000E+00  0.45593999997E+02  0.45594000000E+02  0.51100000000E-03 0. -1.
         11   -1    0    0    0    0 -0.00000000000E+00 -0.00000000000E+00 -0.45593999997E+02  0.45594000000E+02  0.51100000000E-03 0.  1.
    9900012    2    1    2    0    0 -0.12233831072E+02  0.28137532277E+02 -0.30695858824E+02  0.47787273113E+02  0.20000009432E+02 0.  0.
         12    1    1    2    0    0  0.12233831072E+02 -0.28137532277E+02  0.30695858824E+02  0.43400726887E+02  0.00000000000E+00 0. -1.
         11    1    3    3    0    0 -0.17556459379E+01 -0.16368623217E-02  0.89594440183E+00  0.19710433711E+01  0.51100000000E-03 0. -1.
        -11    1    3    3    0    0  0.97059491101E+00 -0.77023854331E+00  0.30019110879E+00  0.12749262166E+01  0.51100000000E-03 0.  1.
        -12    1    3    3    0    0 -0.11448780045E+02  0.28909407683E+02 -0.31891994335E+02  0.44541303525E+02  0.00000000000E+00 0.  1.
</event>
<event>
 7    1  0.2580704E-010  0.4778727E+02  0.7816164E-02  0.1312668E+00
        -11   -1    0    0    0    0  0.00000000000E+00  0.00000000000E+00  0.45593999997E+02  0.45594000000E+02  0.51100000000E-03 0.  1.
         11   -1    0    0    0    0 -0.00000000000E+00 -0.00000000000E+00 -0.45593999997E+02  0.45594000000E+02  0.51100000000E-03 0. -1.
    9900012    2    1    2    0    0 -0.30721689209E+02 -0.28406197575E+02  0.11527753430E+02  0.47787270194E+02  0.19999996122E+02 0.  0.
         12    1    1    2    0    0  0.30721689209E+02  0.28406197575E+02 -0.11527753430E+02  0.43400729806E+02  0.00000000000E+00 0. -1.
         11    1    3    3    0    0 -0.16073594808E+02 -0.10961617371E+02  0.89606773425E+01  0.21419879649E+02  0.51100000000E-03 0. -1.
        -11    1    3    3    0    0 -0.15584217829E+02 -0.11547156598E+02 -0.98234639816E+00  0.19420856715E+02  0.51100000000E-03 0.  1.
         12    1    3    3    0    0  0.93612342893E+00 -0.58974236064E+01  0.35494224859E+01  0.69465338300E+01  0.00000000000E+00 0. -1.
</event>
<event>
 7    1  0.2580704E-010  0.4778727E+02  0.7816164E-02  0.1312668E+00
        -11   -1    0    0    0    0  0.00000000000E+00  0.00000000000E+00  0.45593999997E+02  0.45594000000E+02  0.51100000000E-03 0. -1.
         11   -1    0    0    0    0 -0.00000000000E+00 -0.00000000000E+00 -0.45593999997E+02  0.45594000000E+02  0.51100000000E-03 0.  1.
    9900012    2    1    2    0    0  0.28274382582E+02 -0.21496596719E+02 -0.24941510964E+02  0.47787270167E+02  0.19999996000E+02 0.  0.
         12    1    1    2    0    0 -0.28274382582E+02  0.21496596719E+02  0.24941510964E+02  0.43400729833E+02  0.00000000000E+00 0. -1.
         11    1    3    3    0    0  0.71898798100E+00  0.14448592411E+01 -0.16018505133E+01  0.22738705486E+01  0.51100000000E-03 0. -1.
        -11    1    3    3    0    0  0.23823180649E+02 -0.11770395292E+02 -0.20039846266E+02  0.33281850613E+02  0.51100000000E-03 0.  1.
         12    1    3    3    0    0  0.37322139514E+01 -0.11171060668E+02 -0.32998141845E+01  0.12231549006E+02  0.00000000000E+00 0. -1.
</event>
<event>
 7    1  0.2580704E-010  0.4778727E+02  0.7816164E-02  0.1312668E+00
        -11   -1    0    0    0    0  0.00000000000E+00  0.00000000000E+00  0.45593999997E+02  0.45594000000E+02  0.51100000000E-03 0.  1.
         11   -1    0    0    0    0 -0.00000000000E+00 -0.00000000000E+00 -0.45593999997E+02  0.45594000000E+02  0.51100000000E-03 0. -1.
    9900012    2    1    2    0    0 -0.30966558044E+02 -0.21855545852E+02  0.21143103200E+02  0.47787269424E+02  0.19999992613E+02 0.  0.
         12    1    1    2    0    0  0.30966558044E+02  0.21855545852E+02 -0.21143103200E+02  0.43400730576E+02  0.00000000000E+00 0. -1.
         11    1    3    3    0    0 -0.58964000161E+01 -0.26216546326E+00  0.27128631801E+01  0.64958364185E+01  0.51100000000E-03 0. -1.
        -11    1    3    3    0    0 -0.13246674624E+02 -0.14724751734E+01  0.42779750679E+01  0.13997987094E+02  0.51100000000E-03 0.  1.
         12    1    3    3    0    0 -0.11823483404E+02 -0.20120905215E+02  0.14152264952E+02  0.27293445912E+02  0.00000000000E+00 0. -1.
</event>
<event>
 7    1  0.2580704E-010  0.4778727E+02  0.7816164E-02  0.1312668E+00
        -11   -1    0    0    0    0  0.00000000000E+00  0.00000000000E+00  0.45593999997E+02  0.45594000000E+02  0.51100000000E-03 0.  1.
         11   -1    0    0    0    0 -0.00000000000E+00 -0.00000000000E+00 -0.45593999997E+02  0.45594000000E+02  0.51100000000E-03 0. -1.
    9900012    2    1    2    0    0  0.23278471938E-02  0.21022212764E+02  0.37969589619E+02  0.47787272232E+02  0.20000005415E+02 0.  0.
         12    1    1    2    0    0 -0.23278471938E-02 -0.21022212764E+02 -0.37969589619E+02  0.43400727768E+02  0.00000000000E+00 0. -1.
         11    1    3    3    0    0  0.25555343234E+01 -0.60474029069E+00  0.28569358170E+01  0.38805346308E+01  0.51100000000E-03 0. -1.
        -11    1    3    3    0    0  0.38812808544E+01  0.14877480239E+02  0.28795602379E+02  0.32643383341E+02  0.51100000000E-03 0.  1.
        -12    1    3    3    0    0 -0.64344873306E+01  0.67494728162E+01  0.63170514231E+01  0.11263354260E+02  0.00000000000E+00 0.  1.
</event>
<event>
 7    1  0.2580704E-010  0.4778727E+02  0.7816164E-02  0.1312668E+00
        -11   -1    0    0    0    0  0.00000000000E+00  0.00000000000E+00  0.45593999997E+02  0.45594000000E+02  0.51100000000E-03 0.  1.
         11   -1    0    0    0    0 -0.00000000000E+00 -0.00000000000E+00 -0.45593999997E+02  0.45594000000E+02  0.51100000000E-03 0. -1.
    9900012    2    1    2    0    0  0.20043696649E+02  0.38436931119E+02  0.21156049145E+01  0.47787271511E+02  0.20000002129E+02 0.  0.
         12    1    1    2    0    0 -0.20043696649E+02 -0.38436931119E+02 -0.21156049145E+01  0.43400728489E+02  0.00000000000E+00 0. -1.
         11    1    3    3    0    0 -0.14631962063E+01  0.29101714499E+01 -0.26358589204E+01  0.41902020853E+01  0.51100000000E-03 0. -1.
        -11    1    3    3    0    0  0.28755768001E+01  0.62380609439E+01 -0.37955956549E+01  0.78478591291E+01  0.51100000000E-03 0.  1.
         12    1    3    3    0    0  0.18631316055E+02  0.29288698725E+02  0.85470594898E+01  0.35749210297E+02  0.00000000000E+00 0. -1.
</event>
<event>
 7    1  0.2580704E-010  0.4778727E+02  0.7816164E-02  0.1312668E+00
        -11   -1    0    0    0    0  0.00000000000E+00  0.00000000000E+00  0.45593999997E+02  0.45594000000E+02  0.51100000000E-03 0.  1.
         11   -1    0    0    0    0 -0.00000000000E+00 -0.00000000000E+00 -0.45593999997E+02  0.45594000000E+02  0.51100000000E-03 0. -1.
    9900012    2    1    2    0    0 -0.21742099830E+02 -0.37541771891E+02 -0.12327959779E+01  0.47787270425E+02  0.19999997175E+02 0.  0.
         12    1    1    2    0    0  0.21742099830E+02  0.37541771891E+02  0.12327959779E+01  0.43400729575E+02  0.00000000000E+00 0. -1.
         11    1    3    3    0    0 -0.81984155729E+01 -0.37198976797E+01 -0.62616046130E+01  0.10966282380E+02  0.51100000000E-03 0. -1.
        -11    1    3    3    0    0 -0.44667237684E+01 -0.90353893977E+01  0.12987388142E+01  0.10162509806E+02  0.51100000000E-03 0.  1.
         12    1    3    3    0    0 -0.90769604889E+01 -0.24786484813E+02  0.37300698209E+01  0.26658478238E+02  0.00000000000E+00 0. -1.
</event>
<event>
 7    1  0.2580704E-010  0.4778728E+02  0.7816164E-02  0.1312668E+00
        -11   -1    0    0    0    0  0.00000000000E+00  0.00000000000E+00  0.45593999997E+02  0.45594000000E+02  0.51100000000E-03 0.  1.
         11   -1    0    0    0    0 -0.00000000000E+00 -0.00000000000E+00 -0.45593999997E+02  0.45594000000E+02  0.51100000000E-03 0. -1.
    9900012    2    1    2    0    0 -0.93494697476E+01 -0.22536918285E+02  0.35892853712E+02  0.47787283209E+02  0.20000055465E+02 0.  0.
         12    1    1    2    0    0  0.93494697476E+01  0.22536918285E+02 -0.35892853712E+02  0.43400716791E+02  0.00000000000E+00 0. -1.
         11    1    3    3    0    0  0.29422720875E+01 -0.18748282707E+01  0.14857866127E+02  0.15261983233E+02  0.51100000000E-03 0. -1.
        -11    1    3    3    0    0 -0.92551010677E+01 -0.16090638514E+02  0.19279836033E+02  0.26763363415E+02  0.51100000000E-03 0.  1.
         12    1    3    3    0    0 -0.30366407674E+01 -0.45714515004E+01  0.17551515521E+01  0.57619365618E+01  0.00000000000E+00 0. -1.
</event>
<event>
 7    1  0.2580704E-010  0.4778727E+02  0.7816164E-02  0.1312668E+00
        -11   -1    0    0    0    0  0.00000000000E+00  0.00000000000E+00  0.45593999997E+02  0.45594000000E+02  0.51100000000E-03 0.  1.
         11   -1    0    0    0    0 -0.00000000000E+00 -0.00000000000E+00 -0.45593999997E+02  0.45594000000E+02  0.51100000000E-03 0. -1.
    9900012    2    1    2    0    0  0.52748516983E+00 -0.39198516082E+02  0.18623138595E+02  0.47787271956E+02  0.20000004155E+02 0.  0.
         12    1    1    2    0    0 -0.52748516983E+00  0.39198516082E+02 -0.18623138595E+02  0.43400728044E+02  0.00000000000E+00 0. -1.
         11    1    3    3    0    0 -0.26401731654E+01 -0.46602914694E+01  0.38421389926E+00  0.53699582405E+01  0.51100000000E-03 0. -1.
        -11    1    3    3    0    0 -0.38760553924E+01 -0.26614111285E+02  0.16818092366E+02  0.31720387072E+02  0.51100000000E-03 0.  1.
         12    1    3    3    0    0  0.70437137276E+01 -0.79241133276E+01  0.14208323298E+01  0.10696926643E+02  0.00000000000E+00 0. -1.
</event>
<event>
 7    1  0.2580704E-010  0.4778727E+02  0.7816164E-02  0.1312668E+00
        -11   -1    0    0    0    0  0.00000000000E+00  0.00000000000E+00  0.45593999997E+02  0.45594000000E+02  0.51100000000E-03 0. -1.
         11   -1    0    0    0    0 -0.00000000000E+00 -0.00000000000E+00 -0.45593999997E+02  0.45594000000E+02  0.51100000000E-03 0.  1.
    9900012    2    1    2    0    0  0.23874177624E+02 -0.22696188638E+02 -0.28258269609E+02  0.47787272619E+02  0.20000007180E+02 0.  0.
         12    1    1    2    0    0 -0.23874177624E+02  0.22696188638E+02  0.28258269609E+02  0.43400727381E+02  0.00000000000E+00 0. -1.
         11    1    3    3    0    0  0.16837783163E+02 -0.96444103049E+01 -0.10356197354E+02  0.21994917956E+02  0.51100000000E-03 0. -1.
        -11    1    3    3    0    0  0.81476390447E+01 -0.55868514365E+01 -0.14422744343E+02  0.17481775814E+02  0.51100000000E-03 0.  1.
         12    1    3    3    0    0 -0.11112445841E+01 -0.74649268964E+01 -0.34793279116E+01  0.83105788493E+01  0.00000000000E+00 0. -1.
</event>
<event>
 7    1  0.2580704E-010  0.4778727E+02  0.7816164E-02  0.1312668E+00
        -11   -1    0    0    0    0  0.00000000000E+00  0.00000000000E+00  0.45593999997E+02  0.45594000000E+02  0.51100000000E-03 0.  1.
         11   -1    0    0    0    0 -0.00000000000E+00 -0.00000000000E+00 -0.45593999997E+02  0.45594000000E+02  0.51100000000E-03 0. -1.
    9900012    2    1    2    0    0 -0.39644794082E+02 -0.96664770386E+01  0.14780824492E+02  0.47787271334E+02  0.20000001319E+02 0.  0.
         12    1    1    2    0    0  0.39644794082E+02  0.96664770386E+01 -0.14780824492E+02  0.43400728666E+02  0.00000000000E+00 0. -1.
         11    1    3    3    0    0 -0.37161903423E+01 -0.25877181933E+01  0.86993208572E+00  0.46111970466E+01  0.51100000000E-03 0. -1.
        -11    1    3    3    0    0 -0.23654409975E+02 -0.10844434726E+02  0.15422180317E+02  0.30248578839E+02  0.51100000000E-03 0.  1.
         12    1    3    3    0    0 -0.12274193765E+02  0.37656758807E+01 -0.15112879113E+01  0.12927495448E+02  0.00000000000E+00 0. -1.
</event>
<event>
 7    1  0.2580704E-010  0.4778727E+02  0.7816164E-02  0.1312668E+00
        -11   -1    0    0    0    0  0.00000000000E+00  0.00000000000E+00  0.45593999997E+02  0.45594000000E+02  0.51100000000E-03 0.  1.
         11   -1    0    0    0    0 -0.00000000000E+00 -0.00000000000E+00 -0.45593999997E+02  0.45594000000E+02  0.51100000000E-03 0. -1.
    9900012    2    1    2    0    0  0.31106748309E+02 -0.24660859906E+02  0.17545238909E+02  0.47787271780E+02  0.20000003352E+02 0.  0.
         12    1    1    2    0    0 -0.31106748309E+02  0.24660859906E+02 -0.17545238909E+02  0.43400728220E+02  0.00000000000E+00 0. -1.
         11    1    3    3    0    0  0.68377933026E+01 -0.61602832899E+01  0.11805087346E+02  0.14968787358E+02  0.51100000000E-03 0. -1.
        -11    1    3    3    0    0  0.82137621798E+01 -0.11864327215E+02  0.55041897469E+01  0.15444230458E+02  0.51100000000E-03 0.  1.
         12    1    3    3    0    0  0.16055192827E+02 -0.66362494019E+01  0.23596181618E+00  0.17374253964E+02  0.00000000000E+00 0. -1.
</event>
<event>
 7    1  0.2580704E-010  0.4778727E+02  0.7816164E-02  0.1312668E+00
        -11   -1    0    0    0    0  0.00000000000E+00  0.00000000000E+00  0.45593999997E+02  0.45594000000E+02  0.51100000000E-03 0.  1.
         11   -1    0    0    0    0 -0.00000000000E+00 -0.00000000000E+00 -0.45593999997E+02  0.45594000000E+02  0.51100000000E-03 0. -1.
    9900012    2    1    2    0    0 -0.18379584620E+02  0.29666103577E+01  0.39204766033E+02  0.47787267431E+02  0.19999983527E+02 0.  0.
         12    1    1    2    0    0  0.18379584620E+02 -0.29666103577E+01 -0.39204766033E+02  0.43400732569E+02  0.00000000000E+00 0. -1.
         11    1    3    3    0    0 -0.10791480504E+02 -0.60154056448E+01  0.15032957553E+02  0.19458442116E+02  0.51100000000E-03 0. -1.
        -11    1    3    3    0    0 -0.31804405510E+01 -0.11168868684E+01  0.87345618105E+01  0.93624360429E+01  0.51100000000E-03 0.  1.
        -12    1    3    3    0    0 -0.44076635645E+01  0.10098902871E+02  0.15437246670E+02  0.18966389272E+02  0.00000000000E+00 0.  1.
</event>
<event>
 7    1  0.2580704E-010  0.4778727E+02  0.7816164E-02  0.1312668E+00
        -11   -1    0    0    0    0  0.00000000000E+00  0.00000000000E+00  0.45593999997E+02  0.45594000000E+02  0.51100000000E-03 0. -1.
         11   -1    0    0    0    0 -0.00000000000E+00 -0.00000000000E+00 -0.45593999997E+02  0.45594000000E+02  0.51100000000E-03 0.  1.
    9900012    2    1    2    0    0  0.28888902589E+02  0.24142091376E+02 -0.21591995269E+02  0.47787268111E+02  0.19999986627E+02 0.  0.
         12    1    1    2    0    0 -0.28888902589E+02 -0.24142091376E+02  0.21591995269E+02  0.43400731889E+02  0.00000000000E+00 0. -1.
         11    1    3    3    0    0  0.41036920404E+01  0.79158983273E+00 -0.73709507198E-01  0.41799923658E+01  0.51100000000E-03 0. -1.
        -11    1    3    3    0    0  0.15198577417E+02  0.13885334518E+02 -0.21996118610E+02  0.30126873457E+02  0.51100000000E-03 0.  1.
        -12    1    3    3    0    0  0.95866331319E+01  0.94651670251E+01  0.47783284812E+00  0.13480402288E+02  0.00000000000E+00 0.  1.
</event>
<event>
 7    1  0.2580704E-010  0.4778727E+02  0.7816164E-02  0.1312668E+00
        -11   -1    0    0    0    0  0.00000000000E+00  0.00000000000E+00  0.45593999997E+02  0.45594000000E+02  0.51100000000E-03 0.  1.
         11   -1    0    0    0    0 -0.00000000000E+00 -0.00000000000E+00 -0.45593999997E+02  0.45594000000E+02  0.51100000000E-03 0. -1.
    9900012    2    1    2    0    0 -0.10849907649E+02  0.62122366531E+00  0.42018055178E+02  0.47787269871E+02  0.19999994649E+02 0.  0.
         12    1    1    2    0    0  0.10849907649E+02 -0.62122366531E+00 -0.42018055178E+02  0.43400730129E+02  0.00000000000E+00 0. -1.
         11    1    3    3    0    0 -0.70273152396E+01  0.56763413620E+00  0.77548431495E+01  0.10480599245E+02  0.51100000000E-03 0. -1.
        -11    1    3    3    0    0 -0.74806371478E+01  0.39350165141E+01  0.14003990685E+02  0.16357140412E+02  0.51100000000E-03 0.  1.
        -12    1    3    3    0    0  0.36580447384E+01 -0.38814269850E+01  0.20259221344E+02  0.20949530214E+02  0.00000000000E+00 0.  1.
</event>
<event>
 7    1  0.2580704E-010  0.4778727E+02  0.7816164E-02  0.1312668E+00
        -11   -1    0    0    0    0  0.00000000000E+00  0.00000000000E+00  0.45593999997E+02  0.45594000000E+02  0.51100000000E-03 0.  1.
         11   -1    0    0    0    0 -0.00000000000E+00 -0.00000000000E+00 -0.45593999997E+02  0.45594000000E+02  0.51100000000E-03 0. -1.
    9900012    2    1    2    0    0  0.36186794136E+01 -0.21922095805E+02  0.37282036775E+02  0.47787269692E+02  0.19999993835E+02 0.  0.
         12    1    1    2    0    0 -0.36186794136E+01  0.21922095805E+02 -0.37282036775E+02  0.43400730308E+02  0.00000000000E+00 0. -1.
         11    1    3    3    0    0 -0.20845581557E+01  0.14545395113E+01  0.34025407618E+01  0.42471580841E+01  0.51100000000E-03 0. -1.
        -11    1    3    3    0    0 -0.42389088164E+01 -0.65036864071E+01  0.97645270320E+01  0.12474464848E+02  0.51100000000E-03 0.  1.
         12    1    3    3    0    0  0.99421463857E+01 -0.16872948909E+02  0.24114968981E+02  0.31065646760E+02  0.00000000000E+00 0. -1.
</event>
<event>
 7    1  0.2580704E-010  0.4778727E+02  0.7816164E-02  0.1312668E+00
        -11   -1    0    0    0    0  0.00000000000E+00  0.00000000000E+00  0.45593999997E+02  0.45594000000E+02  0.51100000000E-03 0.  1.
         11   -1    0    0    0    0 -0.00000000000E+00 -0.00000000000E+00 -0.45593999997E+02  0.45594000000E+02  0.51100000000E-03 0. -1.
    9900012    2    1    2    0    0 -0.20376864847E+02  0.35921789098E+02  0.13342850742E+02  0.47787271678E+02  0.20000002888E+02 0.  0.
         12    1    1    2    0    0  0.20376864847E+02 -0.35921789098E+02 -0.13342850742E+02  0.43400728322E+02  0.00000000000E+00 0. -1.
         11    1    3    3    0    0  0.20136434854E+01  0.83511558376E+01  0.59030732599E+01  0.10423187520E+02  0.51100000000E-03 0. -1.
        -11    1    3    3    0    0 -0.68972295013E+01  0.42080603976E+01  0.43088758941E+01  0.91567438992E+01  0.51100000000E-03 0.  1.
        -12    1    3    3    0    0 -0.15493278831E+02  0.23362572863E+02  0.31309015880E+01  0.28207340258E+02  0.00000000000E+00 0.  1.
</event>
<event>
 7    1  0.2580704E-010  0.4778727E+02  0.7816164E-02  0.1312668E+00
        -11   -1    0    0    0    0  0.00000000000E+00  0.00000000000E+00  0.45593999997E+02  0.45594000000E+02  0.51100000000E-03 0.  1.
         11   -1    0    0    0    0 -0.00000000000E+00 -0.00000000000E+00 -0.45593999997E+02  0.45594000000E+02  0.51100000000E-03 0. -1.
    9900012    2    1    2    0    0  0.34212567577E+02  0.14649225494E+01  0.26664161790E+02  0.47787270717E+02  0.19999998508E+02 0.  0.
         12    1    1    2    0    0 -0.34212567577E+02 -0.14649225494E+01 -0.26664161790E+02  0.43400729283E+02  0.00000000000E+00 0. -1.
         11    1    3    3    0    0  0.55358723475E+01  0.50638343220E+01  0.10052555179E+02  0.12543610588E+02  0.51100000000E-03 0. -1.
        -11    1    3    3    0    0  0.18819786758E+02 -0.20031482403E+00  0.16161420543E+02  0.24807579767E+02  0.51100000000E-03 0.  1.
         12    1    3    3    0    0  0.98569084718E+01 -0.33985969486E+01  0.45018606753E+00  0.10436080363E+02  0.00000000000E+00 0. -1.
</event>
<event>
 7    1  0.2580704E-010  0.4778727E+02  0.7816164E-02  0.1312668E+00
        -11   -1    0    0    0    0  0.00000000000E+00  0.00000000000E+00  0.45593999997E+02  0.45594000000E+02  0.51100000000E-03 0.  1.
         11   -1    0    0    0    0 -0.00000000000E+00 -0.00000000000E+00 -0.45593999997E+02  0.45594000000E+02  0.51100000000E-03 0. -1.
    9900012    2    1    2    0    0 -0.31977949284E+01  0.42269807103E+02  0.93091740274E+01  0.47787271826E+02  0.20000003564E+02 0.  0.
         12    1    1    2    0    0  0.31977949284E+01 -0.42269807103E+02 -0.93091740274E+01  0.43400728174E+02  0.00000000000E+00 0. -1.
         11    1    3    3    0    0 -0.78374025072E+00  0.37987989879E+01  0.27270225147E+01  0.47414949739E+01  0.51100000000E-03 0. -1.
        -11    1    3    3    0    0 -0.98962428195E+01  0.15900660987E+02  0.20645372090E+01  0.18842212076E+02  0.51100000000E-03 0.  1.
         12    1    3    3    0    0  0.74821881419E+01  0.22570347128E+02  0.45176143038E+01  0.24203564776E+02  0.00000000000E+00 0. -1.
</event>
<event>
 7    1  0.2580704E-010  0.4778728E+02  0.7816164E-02  0.1312668E+00
        -11   -1    0    0    0    0  0.00000000000E+00  0.00000000000E+00  0.45593999997E+02  0.45594000000E+02  0.51100000000E-03 0.  1.
         11   -1    0    0    0    0 -0.00000000000E+00 -0.00000000000E+00 -0.45593999997E+02  0.45594000000E+02  0.51100000000E-03 0. -1.
    9900012    2    1    2    0    0  0.23115499446E+02 -0.42037793241E+01  0.36491427742E+02  0.47787281413E+02  0.20000047272E+02 0.  0.
         12    1    1    2    0    0 -0.23115499446E+02  0.42037793241E+01 -0.36491427742E+02  0.43400718587E+02  0.00000000000E+00 0. -1.
         11    1    3    3    0    0  0.83230351306E-01 -0.28562454099E+01 -0.96098141619E-01  0.28590733196E+01  0.51100000000E-03 0. -1.
        -11    1    3    3    0    0  0.65292383626E+01  0.11772404369E+01  0.27221744610E+01  0.71712678585E+01  0.51100000000E-03 0.  1.
        -12    1    3    3    0    0  0.16503030732E+02 -0.25247743511E+01  0.33865351423E+02  0.37756940234E+02  0.00000000000E+00 0.  1.
</event>
<event>
 7    1  0.2580704E-010  0.4778728E+02  0.7816164E-02  0.1312668E+00
        -11   -1    0    0    0    0  0.00000000000E+00  0.00000000000E+00  0.45593999997E+02  0.45594000000E+02  0.51100000000E-03 0. -1.
         11   -1    0    0    0    0 -0.00000000000E+00 -0.00000000000E+00 -0.45593999997E+02  0.45594000000E+02  0.51100000000E-03 0.  1.
    9900012    2    1    2    0    0 -0.35640072300E+02  0.11402579043E+01 -0.24740806829E+02  0.47787280372E+02  0.20000042528E+02 0.  0.
         12    1    1    2    0    0  0.35640072300E+02 -0.11402579043E+01  0.24740806829E+02  0.43400719628E+02  0.00000000000E+00 0. -1.
         11    1    3    3    0    0 -0.65071834314E+00  0.18061795014E+01 -0.50513216863E+01  0.54038476841E+01  0.51100000000E-03 0. -1.
        -11    1    3    3    0    0 -0.89382018619E+01 -0.60220618686E+01 -0.39476471180E+01  0.11477830793E+02  0.51100000000E-03 0.  1.
        -12    1    3    3    0    0 -0.26051152095E+02  0.53561402714E+01 -0.15741838025E+02  0.30905601895E+02  0.00000000000E+00 0.  1.
</event>
<event>
 7    1  0.2580704E-010  0.4778727E+02  0.7816164E-02  0.1312668E+00
        -11   -1    0    0    0    0  0.00000000000E+00  0.00000000000E+00  0.45593999997E+02  0.45594000000E+02  0.51100000000E-03 0.  1.
         11   -1    0    0    0    0 -0.00000000000E+00 -0.00000000000E+00 -0.45593999997E+02  0.45594000000E+02  0.51100000000E-03 0. -1.
    9900012    2    1    2    0    0  0.21672411604E+02 -0.11967568611E+01  0.37583214493E+02  0.47787266558E+02  0.19999979544E+02 0.  0.
         12    1    1    2    0    0 -0.21672411604E+02  0.11967568611E+01 -0.37583214493E+02  0.43400733442E+02  0.00000000000E+00 0. -1.
         11    1    3    3    0    0  0.58203308176E+01 -0.13171458722E+01  0.19622858935E+02  0.20510185692E+02  0.51100000000E-03 0. -1.
        -11    1    3    3    0    0 -0.84112913252E+00 -0.21502393873E+01  0.65098278600E+01  0.69071619837E+01  0.51100000000E-03 0.  1.
        -12    1    3    3    0    0  0.16693209919E+02  0.22706283984E+01  0.11450527697E+02  0.20369918882E+02  0.00000000000E+00 0.  1.
</event>
<event>
 7    1  0.2580704E-010  0.4778727E+02  0.7816164E-02  0.1312668E+00
        -11   -1    0    0    0    0  0.00000000000E+00  0.00000000000E+00  0.45593999997E+02  0.45594000000E+02  0.51100000000E-03 0. -1.
         11   -1    0    0    0    0 -0.00000000000E+00 -0.00000000000E+00 -0.45593999997E+02  0.45594000000E+02  0.51100000000E-03 0.  1.
    9900012    2    1    2    0    0 -0.39459616286E+02  0.34389060081E+01 -0.17740808265E+02  0.47787266482E+02  0.19999979200E+02 0.  0.
         12    1    1    2    0    0  0.39459616286E+02 -0.34389060081E+01  0.17740808265E+02  0.43400733518E+02  0.00000000000E+00 0. -1.
         11    1    3    3    0    0  0.25054320566E+00  0.12936675657E+01  0.26118906266E+00  0.13433419728E+01  0.51100000000E-03 0. -1.
        -11    1    3    3    0    0 -0.21748167329E+01  0.35182566036E+01  0.11353194732E+01  0.42891616800E+01  0.51100000000E-03 0.  1.
        -12    1    3    3    0    0 -0.37535342759E+02 -0.13730181611E+01 -0.19137316801E+02  0.42154762830E+02  0.00000000000E+00 0.  1.
</event>
<event>
 7    1  0.2580704E-010  0.4778727E+02  0.7816164E-02  0.1312668E+00
        -11   -1    0    0    0    0  0.00000000000E+00  0.00000000000E+00  0.45593999997E+02  0.45594000000E+02  0.51100000000E-03 0. -1.
         11   -1    0    0    0    0 -0.00000000000E+00 -0.00000000000E+00 -0.45593999997E+02  0.45594000000E+02  0.51100000000E-03 0.  1.
    9900012    2    1    2    0    0  0.14338807132E+01  0.42106406413E+02 -0.10421975978E+02  0.47787273530E+02  0.20000011331E+02 0.  0.
         12    1    1    2    0    0 -0.14338807132E+01 -0.42106406413E+02  0.10421975978E+02  0.43400726470E+02  0.00000000000E+00 0. -1.
         11    1    3    3    0    0  0.21862212731E+01 -0.92435762139E-01 -0.95927134402E+00  0.23892068972E+01  0.51100000000E-03 0. -1.
        -11    1    3    3    0    0 -0.36329692496E+01  0.11657501446E+02 -0.81744704808E+01  0.14694140786E+02  0.51100000000E-03 0.  1.
         12    1    3    3    0    0  0.28806286897E+01  0.30541340729E+02 -0.12882341530E+01  0.30703925847E+02  0.00000000000E+00 0. -1.
</event>
<event>
 7    1  0.2580704E-010  0.4778727E+02  0.7816164E-02  0.1312668E+00
        -11   -1    0    0    0    0  0.00000000000E+00  0.00000000000E+00  0.45593999997E+02  0.45594000000E+02  0.51100000000E-03 0.  1.
         11   -1    0    0    0    0 -0.00000000000E+00 -0.00000000000E+00 -0.45593999997E+02  0.45594000000E+02  0.51100000000E-03 0. -1.
    9900012    2    1    2    0    0  0.42474482476E+02  0.55856827749E+01  0.69528139177E+01  0.47787272644E+02  0.20000007292E+02 0.  0.
         12    1    1    2    0    0 -0.42474482476E+02 -0.55856827749E+01 -0.69528139177E+01  0.43400727356E+02  0.00000000000E+00 0. -1.
         11    1    3    3    0    0  0.10853338365E+02  0.22496465719E+01  0.10351125595E+01  0.11132264892E+02  0.51100000000E-03 0.  1.
        -11    1    3    3    0    0  0.17474555025E+02  0.69882396588E+01  0.10230956210E+02  0.21421205197E+02  0.51100000000E-03 0. -1.
         12    1    3    3    0    0  0.14146589086E+02 -0.36522034558E+01 -0.43132548517E+01  0.15233802555E+02  0.00000000000E+00 0. -1.
</event>
<event>
 7    1  0.2580704E-010  0.4778731E+02  0.7816164E-02  0.1312668E+00
        -11   -1    0    0    0    0  0.00000000000E+00  0.00000000000E+00  0.45593999997E+02  0.45594000000E+02  0.51100000000E-03 0. -1.
         11   -1    0    0    0    0 -0.00000000000E+00 -0.00000000000E+00 -0.45593999997E+02  0.45594000000E+02  0.51100000000E-03 0.  1.
    9900012    2    1    2    0    0  0.41932206949E+02 -0.61980246662E-01  0.11194010328E+02  0.47787312351E+02  0.20000188334E+02 0.  0.
         12    1    1    2    0    0 -0.41932206949E+02  0.61980246662E-01 -0.11194010328E+02  0.43400687649E+02  0.00000000000E+00 0. -1.
         11    1    3    3    0    0  0.45461045586E+01  0.19532339156E+01 -0.16323829133E+01  0.52102652162E+01  0.51100000000E-03 0. -1.
        -11    1    3    3    0    0  0.28495473275E+02  0.43201641986E+01  0.13095585239E+02  0.31656755502E+02  0.51100000000E-03 0.  1.
        -12    1    3    3    0    0  0.88906291146E+01 -0.63353783608E+01 -0.26919199691E+00  0.10920291633E+02  0.00000000000E+00 0.  1.
</event>
<event>
 7    1  0.2580704E-010  0.4778728E+02  0.7816164E-02  0.1312668E+00
        -11   -1    0    0    0    0  0.00000000000E+00  0.00000000000E+00  0.45593999997E+02  0.45594000000E+02  0.51100000000E-03 0.  1.
         11   -1    0    0    0    0 -0.00000000000E+00 -0.00000000000E+00 -0.45593999997E+02  0.45594000000E+02  0.51100000000E-03 0. -1.
    9900012    2    1    2    0    0  0.38969305820E+02 -0.91655923704E+01  0.16763293005E+02  0.47787275675E+02  0.20000021111E+02 0.  0.
         12    1    1    2    0    0 -0.38969305820E+02  0.91655923704E+01 -0.16763293005E+02  0.43400724325E+02  0.00000000000E+00 0. -1.
         11    1    3    3    0    0  0.15779142764E+02 -0.38118130419E+01  0.13711520176E+02  0.21248930581E+02  0.51100000000E-03 0. -1.
        -11    1    3    3    0    0  0.14700062085E+02 -0.65873131152E+01  0.63939311974E+01  0.17331095631E+02  0.51100000000E-03 0.  1.
         12    1    3    3    0    0  0.84901009709E+01  0.12335337868E+01 -0.33421583680E+01  0.92072494621E+01  0.00000000000E+00 0. -1.
</event>
<event>
 7    1  0.3035378E-010  0.4778727E+02  0.7816164E-02  0.1312668E+00
        -11   -1    0    0    0    0  0.00000000000E+00  0.00000000000E+00  0.45593999997E+02  0.45594000000E+02  0.51100000000E-03 0. -1.
         11   -1    0    0    0    0 -0.00000000000E+00 -0.00000000000E+00 -0.45593999997E+02  0.45594000000E+02  0.51100000000E-03 0.  1.
    9900012    2    1    2    0    0  0.15861540167E+02 -0.81429218002E+01 -0.39569276541E+02  0.47787270998E+02  0.19999999790E+02 0.  0.
         12    1    1    2    0    0 -0.15861540167E+02  0.81429218002E+01  0.39569276541E+02  0.43400729002E+02  0.00000000000E+00 0. -1.
         11    1    3    3    0    0  0.39835875425E+00 -0.68116921036E+01 -0.93838299457E+01  0.11602331823E+02  0.51100000000E-03 0. -1.
        -11    1    3    3    0    0  0.50348955823E+00  0.34374832983E+01 -0.10162111852E+02  0.10739567529E+02  0.51100000000E-03 0.  1.
        -12    1    3    3    0    0  0.14959691854E+02 -0.47687129950E+01 -0.20023334744E+02  0.25445371647E+02  0.00000000000E+00 0.  1.
</event>
<event>
 7    1  0.2580704E-010  0.4778727E+02  0.7816164E-02  0.1312668E+00
        -11   -1    0    0    0    0  0.00000000000E+00  0.00000000000E+00  0.45593999997E+02  0.45594000000E+02  0.51100000000E-03 0.  1.
         11   -1    0    0    0    0 -0.00000000000E+00 -0.00000000000E+00 -0.45593999997E+02  0.45594000000E+02  0.51100000000E-03 0. -1.
    9900012    2    1    2    0    0 -0.59591045919E+01  0.42879647963E+02 -0.30737897895E+01  0.47787270505E+02  0.19999997542E+02 0.  0.
         12    1    1    2    0    0  0.59591045919E+01 -0.42879647963E+02  0.30737897895E+01  0.43400729495E+02  0.00000000000E+00 0. -1.
         11    1    3    3    0    0  0.58388028578E+01  0.13798385062E+02 -0.38010518750E+01  0.15457523888E+02  0.51100000000E-03 0. -1.
        -11    1    3    3    0    0 -0.38080093002E+01  0.16055362025E+02 -0.25623958242E+01  0.16698546560E+02  0.51100000000E-03 0.  1.
        -12    1    3    3    0    0 -0.79898981495E+01  0.13025900876E+02  0.32896579097E+01  0.15631200057E+02  0.00000000000E+00 0.  1.
</event>
<event>
 7    1  0.2580704E-010  0.4778727E+02  0.7816164E-02  0.1312668E+00
        -11   -1    0    0    0    0  0.00000000000E+00  0.00000000000E+00  0.45593999997E+02  0.45594000000E+02  0.51100000000E-03 0.  1.
         11   -1    0    0    0    0 -0.00000000000E+00 -0.00000000000E+00 -0.45593999997E+02  0.45594000000E+02  0.51100000000E-03 0. -1.
    9900012    2    1    2    0    0 -0.15988751484E+02 -0.19071936155E+02  0.35556211268E+02  0.47787273250E+02  0.20000010054E+02 0.  0.
         12    1    1    2    0    0  0.15988751484E+02  0.19071936155E+02 -0.35556211268E+02  0.43400726750E+02  0.00000000000E+00 0. -1.
         11    1    3    3    0    0 -0.94202361474E+00 -0.46219249824E+01  0.98137444330E+01  0.10888488375E+02  0.51100000000E-03 0. -1.
        -11    1    3    3    0    0 -0.23021203851E+01 -0.35848643496E+01  0.17910995679E+02  0.18410724515E+02  0.51100000000E-03 0.  1.
         12    1    3    3    0    0 -0.12744607484E+02 -0.10865146823E+02  0.78314711558E+01  0.18488060360E+02  0.00000000000E+00 0. -1.
</event>
<event>
 7    1  0.2580704E-010  0.4778727E+02  0.7816164E-02  0.1312668E+00
        -11   -1    0    0    0    0  0.00000000000E+00  0.00000000000E+00  0.45593999997E+02  0.45594000000E+02  0.51100000000E-03 0. -1.
         11   -1    0    0    0    0 -0.00000000000E+00 -0.00000000000E+00 -0.45593999997E+02  0.45594000000E+02  0.51100000000E-03 0.  1.
    9900012    2    1    2    0    0 -0.34611775951E+02  0.10317980400E+02 -0.24066310050E+02  0.47787273814E+02  0.20000012628E+02 0.  0.
         12    1    1    2    0    0  0.34611775951E+02 -0.10317980400E+02  0.24066310050E+02  0.43400726186E+02  0.00000000000E+00 0. -1.
         11    1    3    3    0    0 -0.62983128815E+01  0.37251779828E+01 -0.10195318890E+02  0.12549510894E+02  0.51100000000E-03 0. -1.
        -11    1    3    3    0    0 -0.22532961005E+02  0.78549553777E+01 -0.16239680566E+02  0.28864543661E+02  0.51100000000E-03 0.  1.
         12    1    3    3    0    0 -0.57805020649E+01 -0.12621529603E+01  0.23686894055E+01  0.63732192585E+01  0.00000000000E+00 0. -1.
</event>
<event>
 7    1  0.2580704E-010  0.4778727E+02  0.7816164E-02  0.1312668E+00
        -11   -1    0    0    0    0  0.00000000000E+00  0.00000000000E+00  0.45593999997E+02  0.45594000000E+02  0.51100000000E-03 0.  1.
         11   -1    0    0    0    0 -0.00000000000E+00 -0.00000000000E+00 -0.45593999997E+02  0.45594000000E+02  0.51100000000E-03 0. -1.
    9900012    2    1    2    0    0  0.13771267982E+02 -0.39693072441E+02 -0.10882809058E+02  0.47787270114E+02  0.19999995759E+02 0.  0.
         12    1    1    2    0    0 -0.13771267982E+02  0.39693072441E+02  0.10882809058E+02  0.43400729886E+02  0.00000000000E+00 0. -1.
         11    1    3    3    0    0  0.39942130347E+01 -0.93465918658E+00 -0.58942769569E+01  0.71812134537E+01  0.51100000000E-03 0. -1.
        -11    1    3    3    0    0  0.50912784234E+01 -0.10954549440E+02 -0.21211524509E+01  0.12264687415E+02  0.51100000000E-03 0.  1.
         12    1    3    3    0    0  0.46857765239E+01 -0.27803863814E+02 -0.28673796500E+01  0.28341369245E+02  0.00000000000E+00 0. -1.
</event>
<event>
 7    1  0.2580704E-010  0.4778728E+02  0.7816164E-02  0.1312668E+00
        -11   -1    0    0    0    0  0.00000000000E+00  0.00000000000E+00  0.45593999997E+02  0.45594000000E+02  0.51100000000E-03 0.  1.
         11   -1    0    0    0    0 -0.00000000000E+00 -0.00000000000E+00 -0.45593999997E+02  0.45594000000E+02  0.51100000000E-03 0. -1.
    9900012    2    1    2    0    0 -0.18076536852E+02 -0.18050742097E+02  0.35086067073E+02  0.47787279068E+02  0.20000036581E+02 0.  0.
         12    1    1    2    0    0  0.18076536852E+02  0.18050742097E+02 -0.35086067073E+02  0.43400720932E+02  0.00000000000E+00 0. -1.
         11    1    3    3    0    0 -0.20871749662E+01  0.21509675240E+01  0.65947202986E+01  0.72438454364E+01  0.51100000000E-03 0. -1.
        -11    1    3    3    0    0 -0.53836564661E+01 -0.16713573643E+02  0.15583433519E+02  0.23477024968E+02  0.51100000000E-03 0.  1.
        -12    1    3    3    0    0 -0.10605705420E+02 -0.34881359782E+01  0.12907913255E+02  0.17066408663E+02  0.00000000000E+00 0.  1.
</event>
<event>
 7    1  0.2580704E-010  0.4778728E+02  0.7816164E-02  0.1312668E+00
        -11   -1    0    0    0    0  0.00000000000E+00  0.00000000000E+00  0.45593999997E+02  0.45594000000E+02  0.51100000000E-03 0. -1.
         11   -1    0    0    0    0 -0.00000000000E+00 -0.00000000000E+00 -0.45593999997E+02  0.45594000000E+02  0.51100000000E-03 0.  1.
    9900012    2    1    2    0    0 -0.12850351191E+02  0.41449139806E+02  0.67784456794E+00  0.47787283536E+02  0.20000056953E+02 0.  0.
         12    1    1    2    0    0  0.12850351191E+02 -0.41449139806E+02 -0.67784456794E+00  0.43400716464E+02  0.00000000000E+00 0. -1.
         11    1    3    3    0    0  0.26369832205E+00  0.21977601973E+02  0.29981689201E+01  0.22182730725E+02  0.51100000000E-03 0. -1.
        -11    1    3    3    0    0 -0.51476575869E+01  0.14758119712E+02 -0.41443261787E+01  0.16170216938E+02  0.51100000000E-03 0.  1.
         12    1    3    3    0    0 -0.79663919262E+01  0.47134181199E+01  0.18240018266E+01  0.94343358726E+01  0.00000000000E+00 0. -1.
</event>
<event>
 7    1  0.2580704E-010  0.4778727E+02  0.7816164E-02  0.1312668E+00
        -11   -1    0    0    0    0  0.00000000000E+00  0.00000000000E+00  0.45593999997E+02  0.45594000000E+02  0.51100000000E-03 0.  1.
         11   -1    0    0    0    0 -0.00000000000E+00 -0.00000000000E+00 -0.45593999997E+02  0.45594000000E+02  0.51100000000E-03 0. -1.
    9900012    2    1    2    0    0 -0.36073332040E+02  0.41980940610E+01 -0.23763717407E+02  0.47787267941E+02  0.19999985852E+02 0.  0.
         12    1    1    2    0    0  0.36073332040E+02 -0.41980940610E+01  0.23763717407E+02  0.43400732059E+02  0.00000000000E+00 0. -1.
         11    1    3    3    0    0 -0.35029419234E+01 -0.28851232446E+01  0.42698147278E+00  0.45581631930E+01  0.51100000000E-03 0. -1.
        -11    1    3    3    0    0 -0.17683628399E+02  0.37059468186E+01 -0.50764850952E+01  0.18767404092E+02  0.51100000000E-03 0.  1.
        -12    1    3    3    0    0 -0.14886761717E+02  0.33772704870E+01 -0.19114213785E+02  0.24461700656E+02  0.00000000000E+00 0.  1.
</event>
<event>
 7    1  0.2580704E-010  0.4778727E+02  0.7816164E-02  0.1312668E+00
        -11   -1    0    0    0    0  0.00000000000E+00  0.00000000000E+00  0.45593999997E+02  0.45594000000E+02  0.51100000000E-03 0.  1.
         11   -1    0    0    0    0 -0.00000000000E+00 -0.00000000000E+00 -0.45593999997E+02  0.45594000000E+02  0.51100000000E-03 0. -1.
    9900012    2    1    2    0    0  0.76719095926E+01 -0.72024122189E+01  0.42105709580E+02  0.47787265930E+02  0.19999976683E+02 0.  0.
         12    1    1    2    0    0 -0.76719095926E+01  0.72024122189E+01 -0.42105709580E+02  0.43400734070E+02  0.00000000000E+00 0. -1.
         11    1    3    3    0    0  0.18274672786E+01  0.15507836721E+01  0.11469017805E+01  0.26570567565E+01  0.51100000000E-03 0. -1.
        -11    1    3    3    0    0 -0.22964976630E+00  0.33679519621E+01  0.21036978971E+01  0.39776104055E+01  0.51100000000E-03 0.  1.
        -12    1    3    3    0    0  0.60740920803E+01 -0.12121147853E+02  0.38855109902E+02  0.41152598768E+02  0.00000000000E+00 0.  1.
</event>
<event>
 7    1  0.2580704E-010  0.4778727E+02  0.7816164E-02  0.1312668E+00
        -11   -1    0    0    0    0  0.00000000000E+00  0.00000000000E+00  0.45593999997E+02  0.45594000000E+02  0.51100000000E-03 0.  1.
         11   -1    0    0    0    0 -0.00000000000E+00 -0.00000000000E+00 -0.45593999997E+02  0.45594000000E+02  0.51100000000E-03 0. -1.
    9900012    2    1    2    0    0 -0.29299687846E+01  0.22558034583E+02  0.36961787824E+02  0.47787269586E+02  0.19999993349E+02 0.  0.
         12    1    1    2    0    0  0.29299687846E+01 -0.22558034583E+02 -0.36961787824E+02  0.43400730414E+02  0.00000000000E+00 0. -1.
         11    1    3    3    0    0 -0.24881645416E+01  0.94841577323E+00  0.18713307214E+01  0.32545866397E+01  0.51100000000E-03 0. -1.
        -11    1    3    3    0    0  0.80421470612E+01  0.11959573612E+02  0.16155659304E+02  0.21649777323E+02  0.51100000000E-03 0.  1.
        -12    1    3    3    0    0 -0.84839513042E+01  0.96500451976E+01  0.18934797799E+02  0.22882905623E+02  0.00000000000E+00 0.  1.
</event>
<event>
 7    1  0.2580704E-010  0.4778727E+02  0.7816164E-02  0.1312668E+00
        -11   -1    0    0    0    0  0.00000000000E+00  0.00000000000E+00  0.45593999997E+02  0.45594000000E+02  0.51100000000E-03 0.  1.
         11   -1    0    0    0    0 -0.00000000000E+00 -0.00000000000E+00 -0.45593999997E+02  0.45594000000E+02  0.51100000000E-03 0. -1.
    9900012    2    1    2    0    0 -0.12681159440E+02  0.10846407830E+02  0.40064537289E+02  0.47787268258E+02  0.19999987296E+02 0.  0.
         12    1    1    2    0    0  0.12681159440E+02 -0.10846407830E+02 -0.40064537289E+02  0.43400731742E+02  0.00000000000E+00 0. -1.
         11    1    3    3    0    0 -0.16298643484E+02  0.10469244177E+02  0.28374239238E+02  0.34356197485E+02  0.51100000000E-03 0. -1.
        -11    1    3    3    0    0  0.83208357570E+00 -0.24677094810E+01  0.40370094003E+01  0.48041022386E+01  0.51100000000E-03 0.  1.
        -12    1    3    3    0    0  0.27854004684E+01  0.28448731338E+01  0.76532886506E+01  0.86269685340E+01  0.00000000000E+00 0.  1.
</event>
<event>
 7    1  0.2580704E-010  0.4778727E+02  0.7816164E-02  0.1312668E+00
        -11   -1    0    0    0    0  0.00000000000E+00  0.00000000000E+00  0.45593999997E+02  0.45594000000E+02  0.51100000000E-03 0.  1.
         11   -1    0    0    0    0 -0.00000000000E+00 -0.00000000000E+00 -0.45593999997E+02  0.45594000000E+02  0.51100000000E-03 0. -1.
    9900012    2    1    2    0    0  0.81714648381E+01 -0.39352014784E+02  0.16378933495E+02  0.47787269965E+02  0.19999995079E+02 0.  0.
         12    1    1    2    0    0 -0.81714648381E+01  0.39352014784E+02 -0.16378933495E+02  0.43400730035E+02  0.00000000000E+00 0. -1.
         11    1    3    3    0    0  0.21756065488E+01 -0.11844973248E+01  0.35849045123E+01  0.43575036880E+01  0.51100000000E-03 0. -1.
        -11    1    3    3    0    0  0.78845543846E+01 -0.14089656999E+02  0.10295749968E+02  0.19149075692E+02  0.51100000000E-03 0.  1.
         12    1    3    3    0    0 -0.18886960954E+01 -0.24077860460E+02  0.24982790148E+01  0.24280690585E+02  0.00000000000E+00 0. -1.
</event>
<event>
 7    1  0.2580704E-010  0.4778727E+02  0.7816164E-02  0.1312668E+00
        -11   -1    0    0    0    0  0.00000000000E+00  0.00000000000E+00  0.45593999997E+02  0.45594000000E+02  0.51100000000E-03 0. -1.
         11   -1    0    0    0    0 -0.00000000000E+00 -0.00000000000E+00 -0.45593999997E+02  0.45594000000E+02  0.51100000000E-03 0.  1.
    9900012    2    1    2    0    0  0.14029457726E+02  0.38383621546E+02 -0.14611463740E+02  0.47787274664E+02  0.20000016503E+02 0.  0.
         12    1    1    2    0    0 -0.14029457726E+02 -0.38383621546E+02  0.14611463740E+02  0.43400725336E+02  0.00000000000E+00 0. -1.
         11    1    3    3    0    0 -0.24980840765E+01  0.48183319703E+01 -0.22652566259E+01  0.58811678153E+01  0.51100000000E-03 0. -1.
        -11    1    3    3    0    0 -0.14422973398E+01 -0.48761593753E+00 -0.73064900562E+00  0.16887389229E+01  0.51100000000E-03 0.  1.
        -12    1    3    3    0    0  0.17969839143E+02  0.34052905513E+02 -0.11615558109E+02  0.40217367926E+02  0.00000000000E+00 0.  1.
</event>
<event>
 7    1  0.2580704E-010  0.4778727E+02  0.7816164E-02  0.1312668E+00
        -11   -1    0    0    0    0  0.00000000000E+00  0.00000000000E+00  0.45593999997E+02  0.45594000000E+02  0.51100000000E-03 0.  1.
         11   -1    0    0    0    0 -0.00000000000E+00 -0.00000000000E+00 -0.45593999997E+02  0.45594000000E+02  0.51100000000E-03 0. -1.
    9900012    2    1    2    0    0 -0.13441618832E+02  0.29050361948E+02  0.29309089882E+02  0.47787269639E+02  0.19999993594E+02 0.  0.
         12    1    1    2    0    0  0.13441618832E+02 -0.29050361948E+02 -0.29309089882E+02  0.43400730361E+02  0.00000000000E+00 0. -1.
         11    1    3    3    0    0 -0.39534151090E+01  0.13233480327E+01  0.62944780049E+01  0.75499135529E+01  0.51100000000E-03 0. -1.
        -11    1    3    3    0    0 -0.29758546885E+00  0.12833340547E+02  0.17856834639E+02  0.21992037884E+02  0.51100000000E-03 0.  1.
         12    1    3    3    0    0 -0.91906182536E+01  0.14893673368E+02  0.51577772387E+01  0.18245318203E+02  0.00000000000E+00 0. -1.
</event>
<event>
 7    1  0.2580704E-010  0.4778727E+02  0.7816164E-02  0.1312668E+00
        -11   -1    0    0    0    0  0.00000000000E+00  0.00000000000E+00  0.45593999997E+02  0.45594000000E+02  0.51100000000E-03 0.  1.
         11   -1    0    0    0    0 -0.00000000000E+00 -0.00000000000E+00 -0.45593999997E+02  0.45594000000E+02  0.51100000000E-03 0. -1.
    9900012    2    1    2    0    0 -0.94662329732E+01 -0.38762631288E+02  0.17072569714E+02  0.47787265125E+02  0.19999973012E+02 0.  0.
         12    1    1    2    0    0  0.94662329732E+01  0.38762631288E+02 -0.17072569714E+02  0.43400734875E+02  0.00000000000E+00 0. -1.
         11    1    3    3    0    0 -0.28990272203E+01 -0.42964426465E+01  0.45862993566E+01  0.69208323407E+01  0.51100000000E-03 0. -1.
        -11    1    3    3    0    0 -0.73330167280E+01 -0.57065689502E+01  0.68645963763E+01  0.11552521248E+02  0.51100000000E-03 0.  1.
        -12    1    3    3    0    0  0.76581097504E+00 -0.28759619691E+02  0.56216739810E+01  0.29313911536E+02  0.00000000000E+00 0.  1.
</event>
<event>
 7    1  0.2580704E-010  0.4778727E+02  0.7816164E-02  0.1312668E+00
        -11   -1    0    0    0    0  0.00000000000E+00  0.00000000000E+00  0.45593999997E+02  0.45594000000E+02  0.51100000000E-03 0.  1.
         11   -1    0    0    0    0 -0.00000000000E+00 -0.00000000000E+00 -0.45593999997E+02  0.45594000000E+02  0.51100000000E-03 0. -1.
    9900012    2    1    2    0    0  0.32336568570E+02  0.26369424299E+02  0.11942478726E+02  0.47787274166E+02  0.20000014234E+02 0.  0.
         12    1    1    2    0    0 -0.32336568570E+02 -0.26369424299E+02 -0.11942478726E+02  0.43400725834E+02  0.00000000000E+00 0. -1.
         11    1    3    3    0    0  0.38026278700E+01  0.10181070566E+02 -0.57269770590E-01  0.10868185528E+02  0.51100000000E-03 0. -1.
        -11    1    3    3    0    0  0.13231518178E+02  0.13860358528E+02  0.89232810147E+01  0.21137822881E+02  0.51100000000E-03 0.  1.
        -12    1    3    3    0    0  0.15302422523E+02  0.23279952048E+01  0.30764674818E+01  0.15781265757E+02  0.00000000000E+00 0.  1.
</event>
<event>
 7    1  0.2580704E-010  0.4778727E+02  0.7816164E-02  0.1312668E+00
        -11   -1    0    0    0    0  0.00000000000E+00  0.00000000000E+00  0.45593999997E+02  0.45594000000E+02  0.51100000000E-03 0. -1.
         11   -1    0    0    0    0 -0.00000000000E+00 -0.00000000000E+00 -0.45593999997E+02  0.45594000000E+02  0.51100000000E-03 0.  1.
    9900012    2    1    2    0    0  0.71721095002E+01 -0.10570681086E+02 -0.41478241229E+02  0.47787274790E+02  0.20000017076E+02 0.  0.
         12    1    1    2    0    0 -0.71721095002E+01  0.10570681086E+02  0.41478241229E+02  0.43400725210E+02  0.00000000000E+00 0. -1.
         11    1    3    3    0    0  0.90684514720E+00 -0.83160430181E+01 -0.93861783550E+01  0.12572958442E+02  0.51100000000E-03 0. -1.
        -11    1    3    3    0    0  0.21627802902E+00 -0.13737474528E+01  0.90278371062E+00  0.16580039020E+01  0.51100000000E-03 0.  1.
        -12    1    3    3    0    0  0.60489863240E+01 -0.88089061532E+00 -0.32994846585E+02  0.33556312446E+02  0.00000000000E+00 0.  1.
</event>
<event>
 7    1  0.2580704E-010  0.4778727E+02  0.7816164E-02  0.1312668E+00
        -11   -1    0    0    0    0  0.00000000000E+00  0.00000000000E+00  0.45593999997E+02  0.45594000000E+02  0.51100000000E-03 0.  1.
         11   -1    0    0    0    0 -0.00000000000E+00 -0.00000000000E+00 -0.45593999997E+02  0.45594000000E+02  0.51100000000E-03 0. -1.
    9900012    2    1    2    0    0  0.10570819119E+02 -0.17818196926E+02  0.38136506893E+02  0.47787268248E+02  0.19999987252E+02 0.  0.
         12    1    1    2    0    0 -0.10570819119E+02  0.17818196926E+02 -0.38136506893E+02  0.43400731752E+02  0.00000000000E+00 0. -1.
         11    1    3    3    0    0  0.31931852234E+01  0.18767408776E+01  0.28339144824E+01  0.46636530475E+01  0.51100000000E-03 0. -1.
        -11    1    3    3    0    0 -0.21788514181E+01  0.50608020526E+00  0.19004165111E+01  0.29351480121E+01  0.51100000000E-03 0.  1.
        -12    1    3    3    0    0  0.95564853133E+01 -0.20201018009E+02  0.33402175900E+02  0.40188467189E+02  0.00000000000E+00 0.  1.
</event>
<event>
 7    1  0.2580704E-010  0.4778727E+02  0.7816164E-02  0.1312668E+00
        -11   -1    0    0    0    0  0.00000000000E+00  0.00000000000E+00  0.45593999997E+02  0.45594000000E+02  0.51100000000E-03 0.  1.
         11   -1    0    0    0    0 -0.00000000000E+00 -0.00000000000E+00 -0.45593999997E+02  0.45594000000E+02  0.51100000000E-03 0. -1.
    9900012    2    1    2    0    0 -0.35043168929E+02 -0.17877112975E+02  0.18330532577E+02  0.47787270957E+02  0.19999999603E+02 0.  0.
         12    1    1    2    0    0  0.35043168929E+02  0.17877112975E+02 -0.18330532577E+02  0.43400729043E+02  0.00000000000E+00 0. -1.
         11    1    3    3    0    0 -0.84349271499E+01  0.33878768540E+01  0.28973799828E+01  0.95404673171E+01  0.51100000000E-03 0.  1.
        -11    1    3    3    0    0 -0.52824799059E+01 -0.43564060796E+01 -0.22028755294E+00  0.68506492213E+01  0.51100000000E-03 0. -1.
        -12    1    3    3    0    0 -0.21325761873E+02 -0.16908583749E+02  0.15653440147E+02  0.31396154419E+02  0.00000000000E+00 0.  1.
</event>
<event>
 7    1  0.2580704E-010  0.4778727E+02  0.7816164E-02  0.1312668E+00
        -11   -1    0    0    0    0  0.00000000000E+00  0.00000000000E+00  0.45593999997E+02  0.45594000000E+02  0.51100000000E-03 0.  1.
         11   -1    0    0    0    0 -0.00000000000E+00 -0.00000000000E+00 -0.45593999997E+02  0.45594000000E+02  0.51100000000E-03 0. -1.
    9900012    2    1    2    0    0 -0.15089015936E+02  0.40536578651E+02 -0.35679844375E+01  0.47787272776E+02  0.20000007895E+02 0.  0.
         12    1    1    2    0    0  0.15089015936E+02 -0.40536578651E+02  0.35679844375E+01  0.43400727224E+02  0.00000000000E+00 0. -1.
         11    1    3    3    0    0 -0.56110166019E+01  0.31692324349E+02 -0.78066588929E+01  0.33118436757E+02  0.51100000000E-03 0. -1.
        -11    1    3    3    0    0 -0.11964640077E+01  0.45136871968E+01  0.18520396425E+01  0.50234399897E+01  0.51100000000E-03 0.  1.
        -12    1    3    3    0    0 -0.82815353267E+01  0.43305671053E+01  0.23866348130E+01  0.96453960288E+01  0.00000000000E+00 0.  1.
</event>
<event>
 7    1  0.2580704E-010  0.4778727E+02  0.7816164E-02  0.1312668E+00
        -11   -1    0    0    0    0  0.00000000000E+00  0.00000000000E+00  0.45593999997E+02  0.45594000000E+02  0.51100000000E-03 0.  1.
         11   -1    0    0    0    0 -0.00000000000E+00 -0.00000000000E+00 -0.45593999997E+02  0.45594000000E+02  0.51100000000E-03 0. -1.
    9900012    2    1    2    0    0  0.27682389274E+02  0.18368716121E+01  0.33375657215E+02  0.47787271115E+02  0.20000000321E+02 0.  0.
         12    1    1    2    0    0 -0.27682389274E+02 -0.18368716121E+01 -0.33375657215E+02  0.43400728885E+02  0.00000000000E+00 0. -1.
         11    1    3    3    0    0  0.20175369013E+02 -0.41837841406E+01  0.11575942789E+02  0.23633705090E+02  0.51100000000E-03 0. -1.
        -11    1    3    3    0    0  0.61416575267E+01  0.25211849352E+01  0.13561528506E+02  0.15099383641E+02  0.51100000000E-03 0.  1.
         12    1    3    3    0    0  0.13653627345E+01  0.34994708175E+01  0.82381859197E+01  0.90541823842E+01  0.00000000000E+00 0. -1.
</event>
<event>
 7    1  0.2580704E-010  0.4778727E+02  0.7816164E-02  0.1312668E+00
        -11   -1    0    0    0    0  0.00000000000E+00  0.00000000000E+00  0.45593999997E+02  0.45594000000E+02  0.51100000000E-03 0.  1.
         11   -1    0    0    0    0 -0.00000000000E+00 -0.00000000000E+00 -0.45593999997E+02  0.45594000000E+02  0.51100000000E-03 0. -1.
    9900012    2    1    2    0    0 -0.19145169127E+02  0.14627748344E+02  0.36098679696E+02  0.47787271914E+02  0.20000003966E+02 0.  0.
         12    1    1    2    0    0  0.19145169127E+02 -0.14627748344E+02 -0.36098679696E+02  0.43400728086E+02  0.00000000000E+00 0. -1.
         11    1    3    3    0    0 -0.14375659086E+02  0.83515113743E+01  0.13999373727E+02  0.21734529703E+02  0.51100000000E-03 0. -1.
        -11    1    3    3    0    0 -0.74126394439E+01  0.21602532415E+01  0.18289910088E+02  0.19852826722E+02  0.51100000000E-03 0.  1.
         12    1    3    3    0    0  0.26431294024E+01  0.41159837285E+01  0.38093958821E+01  0.61999154896E+01  0.00000000000E+00 0. -1.
</event>
<event>
 7    1  0.2580704E-010  0.4778729E+02  0.7816164E-02  0.1312668E+00
        -11   -1    0    0    0    0  0.00000000000E+00  0.00000000000E+00  0.45593999997E+02  0.45594000000E+02  0.51100000000E-03 0.  1.
         11   -1    0    0    0    0 -0.00000000000E+00 -0.00000000000E+00 -0.45593999997E+02  0.45594000000E+02  0.51100000000E-03 0. -1.
    9900012    2    1    2    0    0  0.56916404713E+01  0.17298075188E+02  0.39395480376E+02  0.47787285139E+02  0.20000064260E+02 0.  0.
         12    1    1    2    0    0 -0.56916404713E+01 -0.17298075188E+02 -0.39395480376E+02  0.43400714861E+02  0.00000000000E+00 0. -1.
         11    1    3    3    0    0 -0.12106838104E+01 -0.16349155670E+01  0.14048302595E+01  0.24722970127E+01  0.51100000000E-03 0. -1.
        -11    1    3    3    0    0 -0.28857743362E+01  0.12683507718E+02  0.18237355569E+02  0.22400897302E+02  0.51100000000E-03 0.  1.
         12    1    3    3    0    0  0.97880986179E+01  0.62494830368E+01  0.19753294547E+02  0.22914090823E+02  0.00000000000E+00 0. -1.
</event>
<event>
 7    1  0.2580704E-010  0.4778727E+02  0.7816164E-02  0.1312668E+00
        -11   -1    0    0    0    0  0.00000000000E+00  0.00000000000E+00  0.45593999997E+02  0.45594000000E+02  0.51100000000E-03 0.  1.
         11   -1    0    0    0    0 -0.00000000000E+00 -0.00000000000E+00 -0.45593999997E+02  0.45594000000E+02  0.51100000000E-03 0. -1.
    9900012    2    1    2    0    0 -0.33702532663E+00 -0.54201299897E+01  0.43059636805E+02  0.47787265940E+02  0.19999976728E+02 0.  0.
         12    1    1    2    0    0  0.33702532663E+00  0.54201299897E+01 -0.43059636805E+02  0.43400734060E+02  0.00000000000E+00 0. -1.
         11    1    3    3    0    0 -0.77426366443E+01 -0.54066700460E+01  0.10938441546E+02  0.14450951765E+02  0.51100000000E-03 0. -1.
        -11    1    3    3    0    0  0.22649487223E+00 -0.17203286143E+00  0.11447088233E+02  0.11450621141E+02  0.51100000000E-03 0.  1.
         12    1    3    3    0    0  0.71791164454E+01  0.15857291775E+00  0.20674107025E+02  0.21885693034E+02  0.00000000000E+00 0. -1.
</event>
<event>
 7    1  0.2580704E-010  0.4778726E+02  0.7816164E-02  0.1312668E+00
        -11   -1    0    0    0    0  0.00000000000E+00  0.00000000000E+00  0.45593999997E+02  0.45594000000E+02  0.51100000000E-03 0.  1.
         11   -1    0    0    0    0 -0.00000000000E+00 -0.00000000000E+00 -0.45593999997E+02  0.45594000000E+02  0.51100000000E-03 0. -1.
    9900012    2    1    2    0    0 -0.88520219952E+01 -0.10389093201E+02  0.41198697964E+02  0.47787259628E+02  0.19999947947E+02 0.  0.
         12    1    1    2    0    0  0.88520219952E+01  0.10389093201E+02 -0.41198697964E+02  0.43400740372E+02  0.00000000000E+00 0. -1.
         11    1    3    3    0    0  0.24185141651E+01 -0.15119508555E+01  0.18745976964E+02  0.18961720881E+02  0.51100000000E-03 0. -1.
        -11    1    3    3    0    0  0.18072485992E+01 -0.21384172856E+01  0.13696205447E+01  0.31168632765E+01  0.51100000000E-03 0.  1.
        -12    1    3    3    0    0 -0.13077784760E+02 -0.67387250597E+01  0.21083100455E+02  0.25708675470E+02  0.00000000000E+00 0.  1.
</event>
<event>
 7    1  0.2580704E-010  0.4778734E+02  0.7816164E-02  0.1312667E+00
        -11   -1    0    0    0    0  0.00000000000E+00  0.00000000000E+00  0.45593999997E+02  0.45594000000E+02  0.51100000000E-03 0.  1.
         11   -1    0    0    0    0 -0.00000000000E+00 -0.00000000000E+00 -0.45593999997E+02  0.45594000000E+02  0.51100000000E-03 0. -1.
    9900012    2    1    2    0    0  0.23093023579E+02 -0.52104641378E+01  0.36375554277E+02  0.47787336140E+02  0.20000296795E+02 0.  0.
         12    1    1    2    0    0 -0.23093023579E+02  0.52104641378E+01 -0.36375554277E+02  0.43400663860E+02  0.00000000000E+00 0. -1.
         11    1    3    3    0    0  0.15013011990E+02 -0.80898994375E+00  0.73105986982E+01  0.16717949854E+02  0.51100000000E-03 0. -1.
        -11    1    3    3    0    0  0.54046882152E+01 -0.19377987638E+01  0.89857158402E+01  0.10663433226E+02  0.51100000000E-03 0.  1.
        -12    1    3    3    0    0  0.26753233733E+01 -0.24636754302E+01  0.20079239738E+02  0.20405953059E+02  0.00000000000E+00 0.  1.
</event>
<event>
 7    1  0.2580704E-010  0.4778727E+02  0.7816164E-02  0.1312668E+00
        -11   -1    0    0    0    0  0.00000000000E+00  0.00000000000E+00  0.45593999997E+02  0.45594000000E+02  0.51100000000E-03 0. -1.
         11   -1    0    0    0    0 -0.00000000000E+00 -0.00000000000E+00 -0.45593999997E+02  0.45594000000E+02  0.51100000000E-03 0.  1.
    9900012    2    1    2    0    0  0.77029042601E+01  0.34920420099E+02 -0.24593754806E+02  0.47787271327E+02  0.20000001288E+02 0.  0.
         12    1    1    2    0    0 -0.77029042601E+01 -0.34920420099E+02  0.24593754806E+02  0.43400728673E+02  0.00000000000E+00 0. -1.
         11    1    3    3    0    0 -0.43897203422E+01  0.75020301245E+01 -0.62844955309E+01  0.10725902527E+02  0.51100000000E-03 0. -1.
        -11    1    3    3    0    0  0.25097242917E+01  0.19772209613E+02 -0.10523388352E+02  0.22538427001E+02  0.51100000000E-03 0.  1.
        -12    1    3    3    0    0  0.95829003106E+01  0.76461803612E+01 -0.77858709230E+01  0.14522941799E+02  0.00000000000E+00 0.  1.
</event>
<event>
 7    1  0.2580704E-010  0.4778727E+02  0.7816164E-02  0.1312668E+00
        -11   -1    0    0    0    0  0.00000000000E+00  0.00000000000E+00  0.45593999997E+02  0.45594000000E+02  0.51100000000E-03 0.  1.
         11   -1    0    0    0    0 -0.00000000000E+00 -0.00000000000E+00 -0.45593999997E+02  0.45594000000E+02  0.51100000000E-03 0. -1.
    9900012    2    1    2    0    0  0.23231270557E+02 -0.30976137334E+02  0.19606384967E+02  0.47787270198E+02  0.19999996143E+02 0.  0.
         12    1    1    2    0    0 -0.23231270557E+02  0.30976137334E+02 -0.19606384967E+02  0.43400729802E+02  0.00000000000E+00 0. -1.
         11    1    3    3    0    0  0.13910774065E+02 -0.78585988486E+01  0.62222730881E+01  0.17145958521E+02  0.51100000000E-03 0.  1.
        -11    1    3    3    0    0  0.69562553526E+01 -0.96514992577E+01  0.12002399682E+02  0.16899660494E+02  0.51100000000E-03 0. -1.
        -12    1    3    3    0    0  0.23642411396E+01 -0.13466039228E+02  0.13817121977E+01  0.13741651183E+02  0.00000000000E+00 0.  1.
</event>
<event>
 7    1  0.2580704E-010  0.4778731E+02  0.7816164E-02  0.1312668E+00
        -11   -1    0    0    0    0  0.00000000000E+00  0.00000000000E+00  0.45593999997E+02  0.45594000000E+02  0.51100000000E-03 0.  1.
         11   -1    0    0    0    0 -0.00000000000E+00 -0.00000000000E+00 -0.45593999997E+02  0.45594000000E+02  0.51100000000E-03 0. -1.
    9900012    2    1    2    0    0 -0.27598377426E+02  0.23861361113E+02  0.23507118120E+02  0.47787313450E+02  0.20000193342E+02 0.  0.
         12    1    1    2    0    0  0.27598377426E+02 -0.23861361113E+02 -0.23507118120E+02  0.43400686550E+02  0.00000000000E+00 0. -1.
         11    1    3    3    0    0 -0.11749078726E+02  0.12964746711E+02  0.73899809076E+01  0.18993086275E+02  0.51100000000E-03 0.  1.
        -11    1    3    3    0    0 -0.86426431943E+01  0.46875263129E+01 -0.28177723335E+00  0.98360349221E+01  0.51100000000E-03 0. -1.
         12    1    3    3    0    0 -0.72066555057E+01  0.62090880893E+01  0.16398914446E+02  0.18958192252E+02  0.00000000000E+00 0. -1.
</event>
<event>
 7    1  0.2580704E-010  0.4778727E+02  0.7816164E-02  0.1312668E+00
        -11   -1    0    0    0    0  0.00000000000E+00  0.00000000000E+00  0.45593999997E+02  0.45594000000E+02  0.51100000000E-03 0.  1.
         11   -1    0    0    0    0 -0.00000000000E+00 -0.00000000000E+00 -0.45593999997E+02  0.45594000000E+02  0.51100000000E-03 0. -1.
    9900012    2    1    2    0    0  0.33817802586E+02  0.17438613502E+02  0.20877599288E+02  0.47787272303E+02  0.20000005738E+02 0.  0.
         12    1    1    2    0    0 -0.33817802586E+02 -0.17438613502E+02 -0.20877599288E+02  0.43400727697E+02  0.00000000000E+00 0. -1.
         11    1    3    3    0    0 -0.11275141662E+01 -0.13421146564E+01  0.97497758505E+00  0.20057770311E+01  0.51100000000E-03 0. -1.
        -11    1    3    3    0    0  0.25172803802E+01  0.22880489244E+00  0.49163155523E+01  0.55280386270E+01  0.51100000000E-03 0.  1.
        -12    1    3    3    0    0  0.32428036372E+02  0.18551923266E+02  0.14986306151E+02  0.40253456645E+02  0.00000000000E+00 0.  1.
</event>
<event>
 7    1  0.2580704E-010  0.4778727E+02  0.7816164E-02  0.1312668E+00
        -11   -1    0    0    0    0  0.00000000000E+00  0.00000000000E+00  0.45593999997E+02  0.45594000000E+02  0.51100000000E-03 0.  1.
         11   -1    0    0    0    0 -0.00000000000E+00 -0.00000000000E+00 -0.45593999997E+02  0.45594000000E+02  0.51100000000E-03 0. -1.
    9900012    2    1    2    0    0 -0.92005690287E+01  0.55736695227E+01  0.42046491733E+02  0.47787265796E+02  0.19999976070E+02 0.  0.
         12    1    1    2    0    0  0.92005690287E+01 -0.55736695227E+01 -0.42046491733E+02  0.43400734204E+02  0.00000000000E+00 0. -1.
         11    1    3    3    0    0  0.21640323144E+01 -0.26990447671E+01  0.14669799465E+02  0.15072189460E+02  0.51100000000E-03 0. -1.
        -11    1    3    3    0    0 -0.61061016162E+01 -0.19025061355E+01  0.85379232148E+01  0.10667714827E+02  0.51100000000E-03 0.  1.
         12    1    3    3    0    0 -0.52584997269E+01  0.10175220425E+02  0.18838769053E+02  0.22047361509E+02  0.00000000000E+00 0. -1.
</event>
<event>
 7    1  0.2580704E-010  0.4778727E+02  0.7816164E-02  0.1312668E+00
        -11   -1    0    0    0    0  0.00000000000E+00  0.00000000000E+00  0.45593999997E+02  0.45594000000E+02  0.51100000000E-03 0.  1.
         11   -1    0    0    0    0 -0.00000000000E+00 -0.00000000000E+00 -0.45593999997E+02  0.45594000000E+02  0.51100000000E-03 0. -1.
    9900012    2    1    2    0    0 -0.17522495168E+02 -0.38481328992E+02  0.97863670448E+01  0.47787268464E+02  0.19999988236E+02 0.  0.
         12    1    1    2    0    0  0.17522495168E+02  0.38481328992E+02 -0.97863670448E+01  0.43400731536E+02  0.00000000000E+00 0. -1.
         11    1    3    3    0    0 -0.11992193083E+02 -0.13624139936E+02  0.28012294276E+01  0.18365096528E+02  0.51100000000E-03 0.  1.
        -11    1    3    3    0    0 -0.95078697070E+01 -0.18022765169E+02  0.69020036438E+01  0.21514118742E+02  0.51100000000E-03 0. -1.
         12    1    3    3    0    0  0.39775676219E+01 -0.68344238874E+01  0.83133973326E-01  0.79080531939E+01  0.00000000000E+00 0. -1.
</event>
<event>
 7    1  0.2580704E-010  0.4778728E+02  0.7816164E-02  0.1312668E+00
        -11   -1    0    0    0    0  0.00000000000E+00  0.00000000000E+00  0.45593999997E+02  0.45594000000E+02  0.51100000000E-03 0. -1.
         11   -1    0    0    0    0 -0.00000000000E+00 -0.00000000000E+00 -0.45593999997E+02  0.45594000000E+02  0.51100000000E-03 0.  1.
    9900012    2    1    2    0    0  0.13629564530E+02  0.68544177364E+01 -0.40630958947E+02  0.47787275390E+02  0.20000019812E+02 0.  0.
         12    1    1    2    0    0 -0.13629564530E+02 -0.68544177364E+01  0.40630958947E+02  0.43400724610E+02  0.00000000000E+00 0. -1.
         11    1    3    3    0    0  0.18721632279E+01  0.37936257714E+01 -0.21178085989E+02  0.21596479298E+02  0.51100000000E-03 0. -1.
        -11    1    3    3    0    0  0.65385407395E+01 -0.13434502277E+01 -0.18015340422E+02  0.19212232153E+02  0.51100000000E-03 0.  1.
        -12    1    3    3    0    0  0.52188605622E+01  0.44042421926E+01 -0.14375325358E+01  0.69785639389E+01  0.00000000000E+00 0.  1.
</event>
<event>
 7    1  0.3316205E-010  0.4778727E+02  0.7816164E-02  0.1312668E+00
        -11   -1    0    0    0    0  0.00000000000E+00  0.00000000000E+00  0.45593999997E+02  0.45594000000E+02  0.51100000000E-03 0. -1.
         11   -1    0    0    0    0 -0.00000000000E+00 -0.00000000000E+00 -0.45593999997E+02  0.45594000000E+02  0.51100000000E-03 0.  1.
    9900012    2    1    2    0    0 -0.12662171150E+02 -0.25544675866E+02 -0.32722505269E+02  0.47787269656E+02  0.19999993668E+02 0.  0.
         12    1    1    2    0    0  0.12662171150E+02  0.25544675866E+02  0.32722505269E+02  0.43400730344E+02  0.00000000000E+00 0. -1.
         11    1    3    3    0    0  0.79985727036E+00  0.23113015809E+00 -0.25099528988E+01  0.26444388097E+01  0.51100000000E-03 0. -1.
        -11    1    3    3    0    0 -0.79355264112E+01 -0.23133535309E+02 -0.14869837509E+02  0.28622458020E+02  0.51100000000E-03 0.  1.
        -12    1    3    3    0    0 -0.55265020087E+01 -0.26422707154E+01 -0.15342714862E+02  0.16520372826E+02  0.00000000000E+00 0.  1.
</event>
<event>
 7    1  0.2580704E-010  0.4778727E+02  0.7816164E-02  0.1312668E+00
        -11   -1    0    0    0    0  0.00000000000E+00  0.00000000000E+00  0.45593999997E+02  0.45594000000E+02  0.51100000000E-03 0.  1.
         11   -1    0    0    0    0 -0.00000000000E+00 -0.00000000000E+00 -0.45593999997E+02  0.45594000000E+02  0.51100000000E-03 0. -1.
    9900012    2    1    2    0    0  0.32656450687E+02  0.27066596008E+02  0.91966789895E+01  0.47787270797E+02  0.19999998870E+02 0.  0.
         12    1    1    2    0    0 -0.32656450687E+02 -0.27066596008E+02 -0.91966789895E+01  0.43400729203E+02  0.00000000000E+00 0. -1.
         11    1    3    3    0    0  0.11714034434E+02  0.42415233843E+01 -0.35683641090E+00  0.12463404664E+02  0.51100000000E-03 0. -1.
        -11    1    3    3    0    0  0.15057509995E+02  0.61410352165E+01  0.55730129599E+01  0.17190095825E+02  0.51100000000E-03 0.  1.
         12    1    3    3    0    0  0.58849062585E+01  0.16684037407E+02  0.39805024405E+01  0.18133770307E+02  0.00000000000E+00 0. -1.
</event>
<event>
 7    1  0.2580704E-010  0.4778727E+02  0.7816164E-02  0.1312668E+00
        -11   -1    0    0    0    0  0.00000000000E+00  0.00000000000E+00  0.45593999997E+02  0.45594000000E+02  0.51100000000E-03 0. -1.
         11   -1    0    0    0    0 -0.00000000000E+00 -0.00000000000E+00 -0.45593999997E+02  0.45594000000E+02  0.51100000000E-03 0.  1.
    9900012    2    1    2    0    0  0.40748789991E+02  0.63704644185E+01 -0.13512102830E+02  0.47787266993E+02  0.19999981528E+02 0.  0.
         12    1    1    2    0    0 -0.40748789991E+02 -0.63704644185E+01  0.13512102830E+02  0.43400733007E+02  0.00000000000E+00 0. -1.
         11    1    3    3    0    0  0.26986054901E+02  0.11923090269E+02 -0.56311916896E+01  0.30035271945E+02  0.51100000000E-03 0. -1.
        -11    1    3    3    0    0  0.41587014873E-01  0.12416590763E-01 -0.17104150161E+01  0.17109656454E+01  0.51100000000E-03 0.  1.
         12    1    3    3    0    0  0.13721148075E+02 -0.55650424413E+01 -0.61704961246E+01  0.16041029403E+02  0.00000000000E+00 0. -1.
</event>
<event>
 7    1  0.2580704E-010  0.4778727E+02  0.7816164E-02  0.1312668E+00
        -11   -1    0    0    0    0  0.00000000000E+00  0.00000000000E+00  0.45593999997E+02  0.45594000000E+02  0.51100000000E-03 0. -1.
         11   -1    0    0    0    0 -0.00000000000E+00 -0.00000000000E+00 -0.45593999997E+02  0.45594000000E+02  0.51100000000E-03 0.  1.
    9900012    2    1    2    0    0  0.34394518498E+02  0.15795865548E+02 -0.21239854807E+02  0.47787266097E+02  0.19999977441E+02 0.  0.
         12    1    1    2    0    0 -0.34394518498E+02 -0.15795865548E+02  0.21239854807E+02  0.43400733903E+02  0.00000000000E+00 0. -1.
         11    1    3    3    0    0  0.14177885634E+01  0.60020780727E+01 -0.79939908357E+01  0.10096482325E+02  0.51100000000E-03 0. -1.
        -11    1    3    3    0    0  0.19744790506E+01  0.27803272839E+01 -0.21140101289E+01  0.40122096671E+01  0.51100000000E-03 0.  1.
        -12    1    3    3    0    0  0.31002250884E+02  0.70134601910E+01 -0.11131853842E+02  0.33678574104E+02  0.00000000000E+00 0.  1.
</event>
<event>
 7    1  0.2580704E-010  0.4778726E+02  0.7816164E-02  0.1312668E+00
        -11   -1    0    0    0    0  0.00000000000E+00  0.00000000000E+00  0.45593999997E+02  0.45594000000E+02  0.51100000000E-03 0. -1.
         11   -1    0    0    0    0 -0.00000000000E+00 -0.00000000000E+00 -0.45593999997E+02  0.45594000000E+02  0.51100000000E-03 0.  1.
    9900012    2    1    2    0    0  0.12648125205E+02  0.30146912890E+02 -0.28544931581E+02  0.47787256378E+02  0.19999933129E+02 0.  0.
         12    1    1    2    0    0 -0.12648125205E+02 -0.30146912890E+02  0.28544931581E+02  0.43400743622E+02  0.00000000000E+00 0. -1.
         11    1    3    3    0    0  0.33785999091E+01  0.15551673679E+00 -0.46684742025E+01  0.57648741913E+01  0.51100000000E-03 0. -1.
        -11    1    3    3    0    0  0.71324743282E+01  0.35138607079E+01 -0.44347475122E+01  0.91041964432E+01  0.51100000000E-03 0.  1.
         12    1    3    3    0    0  0.21370509674E+01  0.26477535446E+02 -0.19441709866E+02  0.32918185743E+02  0.00000000000E+00 0. -1.
</event>
<event>
 7    1  0.2580704E-010  0.4778727E+02  0.7816164E-02  0.1312668E+00
        -11   -1    0    0    0    0  0.00000000000E+00  0.00000000000E+00  0.45593999997E+02  0.45594000000E+02  0.51100000000E-03 0.  1.
         11   -1    0    0    0    0 -0.00000000000E+00 -0.00000000000E+00 -0.45593999997E+02  0.45594000000E+02  0.51100000000E-03 0. -1.
    9900012    2    1    2    0    0 -0.36073331181E+02  0.20347296608E+02  0.12974040370E+02  0.47787269300E+02  0.19999992045E+02 0.  0.
         12    1    1    2    0    0  0.36073331181E+02 -0.20347296608E+02 -0.12974040370E+02  0.43400730700E+02  0.00000000000E+00 0. -1.
         11    1    3    3    0    0  0.41257666488E+00  0.30031070488E+01  0.22027647658E+01  0.37471381514E+01  0.51100000000E-03 0. -1.
        -11    1    3    3    0    0 -0.13665489473E+02  0.27587576251E+01  0.96089651332E+01  0.16931879912E+02  0.51100000000E-03 0.  1.
        -12    1    3    3    0    0 -0.22820418374E+02  0.14585431934E+02  0.11623104714E+01  0.27108251236E+02  0.00000000000E+00 0.  1.
</event>
<event>
 7    1  0.2580704E-010  0.4778727E+02  0.7816164E-02  0.1312668E+00
        -11   -1    0    0    0    0  0.00000000000E+00  0.00000000000E+00  0.45593999997E+02  0.45594000000E+02  0.51100000000E-03 0.  1.
         11   -1    0    0    0    0 -0.00000000000E+00 -0.00000000000E+00 -0.45593999997E+02  0.45594000000E+02  0.51100000000E-03 0. -1.
    9900012    2    1    2    0    0  0.30615834854E+02  0.24943549017E+00  0.30760880325E+02  0.47787270510E+02  0.19999997563E+02 0.  0.
         12    1    1    2    0    0 -0.30615834854E+02 -0.24943549017E+00 -0.30760880325E+02  0.43400729490E+02  0.00000000000E+00 0. -1.
         11    1    3    3    0    0  0.14037926783E+02 -0.57420791640E-01  0.10636543580E+02  0.17612573495E+02  0.51100000000E-03 0. -1.
        -11    1    3    3    0    0  0.12082256693E+02  0.34182739763E+00  0.22157999510E+02  0.25240339049E+02  0.51100000000E-03 0.  1.
         12    1    3    3    0    0  0.44956513790E+01 -0.34971115814E-01 -0.20336627651E+01  0.49343579666E+01  0.00000000000E+00 0. -1.
</event>
<event>
 7    1  0.2580704E-010  0.4778726E+02  0.7816164E-02  0.1312668E+00
        -11   -1    0    0    0    0  0.00000000000E+00  0.00000000000E+00  0.45593999997E+02  0.45594000000E+02  0.51100000000E-03 0. -1.
         11   -1    0    0    0    0 -0.00000000000E+00 -0.00000000000E+00 -0.45593999997E+02  0.45594000000E+02  0.51100000000E-03 0.  1.
    9900012    2    1    2    0    0  0.35114559952E+02  0.25282810540E+02  0.33721367905E+01  0.47787261113E+02  0.19999954717E+02 0.  0.
         12    1    1    2    0    0 -0.35114559952E+02 -0.25282810540E+02 -0.33721367905E+01  0.43400738887E+02  0.00000000000E+00 0. -1.
         11    1    3    3    0    0  0.28342212029E+02  0.24967288776E+02 -0.25687173459E+01  0.37858219722E+02  0.51100000000E-03 0. -1.
        -11    1    3    3    0    0  0.36421892020E+01  0.63078352974E+00  0.62046975317E+00  0.37481212654E+01  0.51100000000E-03 0.  1.
         12    1    3    3    0    0  0.31301587217E+01 -0.31526176598E+00  0.53203843832E+01  0.61809201248E+01  0.00000000000E+00 0. -1.
</event>
<event>
 7    1  0.2580704E-010  0.4778727E+02  0.7816164E-02  0.1312668E+00
        -11   -1    0    0    0    0  0.00000000000E+00  0.00000000000E+00  0.45593999997E+02  0.45594000000E+02  0.51100000000E-03 0.  1.
         11   -1    0    0    0    0 -0.00000000000E+00 -0.00000000000E+00 -0.45593999997E+02  0.45594000000E+02  0.51100000000E-03 0. -1.
    9900012    2    1    2    0    0  0.17117924963E+02 -0.29480910021E+02  0.26860300299E+02  0.47787272554E+02  0.20000006883E+02 0.  0.
         12    1    1    2    0    0 -0.17117924963E+02  0.29480910021E+02 -0.26860300299E+02  0.43400727446E+02  0.00000000000E+00 0. -1.
         11    1    3    3    0    0 -0.16450295805E+01 -0.69615783304E+01  0.55532612499E+00  0.71748228227E+01  0.51100000000E-03 0. -1.
        -11    1    3    3    0    0 -0.49765402693E+00 -0.18902385956E+00  0.29428569877E+01  0.29906181737E+01  0.51100000000E-03 0.  1.
        -12    1    3    3    0    0  0.19260608571E+02 -0.22330307831E+02  0.23362117186E+02  0.37621831558E+02  0.00000000000E+00 0.  1.
</event>
<event>
 7    1  0.2580704E-010  0.4778727E+02  0.7816164E-02  0.1312668E+00
        -11   -1    0    0    0    0  0.00000000000E+00  0.00000000000E+00  0.45593999997E+02  0.45594000000E+02  0.51100000000E-03 0.  1.
         11   -1    0    0    0    0 -0.00000000000E+00 -0.00000000000E+00 -0.45593999997E+02  0.45594000000E+02  0.51100000000E-03 0. -1.
    9900012    2    1    2    0    0  0.29453267578E+02  0.80204043326E+01  0.30851278132E+02  0.47787271676E+02  0.20000002881E+02 0.  0.
         12    1    1    2    0    0 -0.29453267578E+02 -0.80204043326E+01 -0.30851278132E+02  0.43400728324E+02  0.00000000000E+00 0. -1.
         11    1    3    3    0    0  0.24641843081E+02  0.37810965747E+00  0.28078760434E+02  0.37360141664E+02  0.51100000000E-03 0. -1.
        -11    1    3    3    0    0  0.26979844220E+01  0.21355519421E+01  0.29407786799E+01  0.45263541117E+01  0.51100000000E-03 0.  1.
         12    1    3    3    0    0  0.21134400744E+01  0.55067427330E+01 -0.16826098243E+00  0.59007759010E+01  0.00000000000E+00 0. -1.
</event>
<event>
 7    1  0.2580704E-010  0.4778727E+02  0.7816164E-02  0.1312668E+00
        -11   -1    0    0    0    0  0.00000000000E+00  0.00000000000E+00  0.45593999997E+02  0.45594000000E+02  0.51100000000E-03 0. -1.
         11   -1    0    0    0    0 -0.00000000000E+00 -0.00000000000E+00 -0.45593999997E+02  0.45594000000E+02  0.51100000000E-03 0.  1.
    9900012    2    1    2    0    0 -0.32936191283E+02  0.25158891104E+02 -0.12878689092E+02  0.47787272695E+02  0.20000007528E+02 0.  0.
         12    1    1    2    0    0  0.32936191283E+02 -0.25158891104E+02  0.12878689092E+02  0.43400727305E+02  0.00000000000E+00 0. -1.
         11    1    3    3    0    0 -0.64563605102E+01 -0.16411717998E+00  0.49942906386E+00  0.64777276214E+01  0.51100000000E-03 0. -1.
        -11    1    3    3    0    0 -0.27947132254E+02  0.25123397091E+02 -0.12592917495E+02  0.39633431014E+02  0.51100000000E-03 0.  1.
         12    1    3    3    0    0  0.14673014812E+01  0.19961119302E+00 -0.78520066060E+00  0.16761140601E+01  0.00000000000E+00 0. -1.
</event>
<event>
 7    1  0.2580704E-010  0.4778727E+02  0.7816164E-02  0.1312668E+00
        -11   -1    0    0    0    0  0.00000000000E+00  0.00000000000E+00  0.45593999997E+02  0.45594000000E+02  0.51100000000E-03 0.  1.
         11   -1    0    0    0    0 -0.00000000000E+00 -0.00000000000E+00 -0.45593999997E+02  0.45594000000E+02  0.51100000000E-03 0. -1.
    9900012    2    1    2    0    0 -0.17168122227E+02 -0.34337019002E+02  0.20244700893E+02  0.47787271792E+02  0.20000003408E+02 0.  0.
         12    1    1    2    0    0  0.17168122227E+02  0.34337019002E+02 -0.20244700893E+02  0.43400728208E+02  0.00000000000E+00 0. -1.
         11    1    3    3    0    0 -0.11589676544E+02 -0.16191016089E+02  0.10361251394E+02  0.22446049432E+02  0.51100000000E-03 0. -1.
        -11    1    3    3    0    0 -0.41000707198E+01 -0.85750089440E+01 -0.22985102224E+01  0.97787784412E+01  0.51100000000E-03 0.  1.
         12    1    3    3    0    0 -0.14783749637E+01 -0.95709939687E+01  0.12181959721E+02  0.15562443919E+02  0.00000000000E+00 0. -1.
</event>
<event>
 7    1  0.2986750E-010  0.4778730E+02  0.7816164E-02  0.1312668E+00
        -11   -1    0    0    0    0  0.00000000000E+00  0.00000000000E+00  0.45593999997E+02  0.45594000000E+02  0.51100000000E-03 0. -1.
         11   -1    0    0    0    0 -0.00000000000E+00 -0.00000000000E+00 -0.45593999997E+02  0.45594000000E+02  0.51100000000E-03 0.  1.
    9900012    2    1    2    0    0  0.30141600055E+02  0.26179318924E+02  0.17021976798E+02  0.47787303147E+02  0.20000146368E+02 0.  0.
         12    1    1    2    0    0 -0.30141600055E+02 -0.26179318924E+02 -0.17021976798E+02  0.43400696853E+02  0.00000000000E+00 0. -1.
         11    1    3    3    0    0 -0.76939755572E+00  0.57638027561E+01  0.37838843534E+01  0.69376635743E+01  0.51100000000E-03 0.  1.
        -11    1    3    3    0    0  0.97543105028E+01  0.78614977738E+01  0.10013780030E+02  0.16038251507E+02  0.51100000000E-03 0. -1.
        -12    1    3    3    0    0  0.21156687108E+02  0.12554018394E+02  0.32243124144E+01  0.24811388066E+02  0.00000000000E+00 0.  1.
</event>
<event>
 7    1  0.2580704E-010  0.4778727E+02  0.7816164E-02  0.1312668E+00
        -11   -1    0    0    0    0  0.00000000000E+00  0.00000000000E+00  0.45593999997E+02  0.45594000000E+02  0.51100000000E-03 0.  1.
         11   -1    0    0    0    0 -0.00000000000E+00 -0.00000000000E+00 -0.45593999997E+02  0.45594000000E+02  0.51100000000E-03 0. -1.
    9900012    2    1    2    0    0 -0.18811798592E+02  0.38355164022E+02  0.76564362930E+01  0.47787269706E+02  0.19999993896E+02 0.  0.
         12    1    1    2    0    0  0.18811798592E+02 -0.38355164022E+02 -0.76564362930E+01  0.43400730294E+02  0.00000000000E+00 0. -1.
         11    1    3    3    0    0 -0.19228282210E+02  0.28100267527E+02  0.63647868225E+01  0.34639029769E+02  0.51100000000E-03 0. -1.
        -11    1    3    3    0    0 -0.16430832892E+01  0.97968430358E+00  0.29376316925E+01  0.35055932810E+01  0.51100000000E-03 0.  1.
         12    1    3    3    0    0  0.20595669074E+01  0.92752121916E+01 -0.16459822220E+01  0.96426466553E+01  0.00000000000E+00 0. -1.
</event>
<event>
 7    1  0.2580704E-010  0.4778726E+02  0.7816164E-02  0.1312668E+00
        -11   -1    0    0    0    0  0.00000000000E+00  0.00000000000E+00  0.45593999997E+02  0.45594000000E+02  0.51100000000E-03 0. -1.
         11   -1    0    0    0    0 -0.00000000000E+00 -0.00000000000E+00 -0.45593999997E+02  0.45594000000E+02  0.51100000000E-03 0.  1.
    9900012    2    1    2    0    0 -0.38546738503E+02  0.12022601010E+02 -0.15913206906E+02  0.47787261086E+02  0.19999954596E+02 0.  0.
         12    1    1    2    0    0  0.38546738503E+02 -0.12022601010E+02  0.15913206906E+02  0.43400738914E+02  0.00000000000E+00 0. -1.
         11    1    3    3    0    0 -0.61229645898E+01  0.40136990415E+01  0.15738845883E+01  0.74884970670E+01  0.51100000000E-03 0. -1.
        -11    1    3    3    0    0 -0.11231681877E+02  0.88079381785E+01 -0.11307500901E+02  0.18209613659E+02  0.51100000000E-03 0.  1.
        -12    1    3    3    0    0 -0.21192092036E+02 -0.79903620958E+00 -0.61795905933E+01  0.22089150360E+02  0.00000000000E+00 0.  1.
</event>
<event>
 7    1  0.2580704E-010  0.4778727E+02  0.7816164E-02  0.1312668E+00
        -11   -1    0    0    0    0  0.00000000000E+00  0.00000000000E+00  0.45593999997E+02  0.45594000000E+02  0.51100000000E-03 0.  1.
         11   -1    0    0    0    0 -0.00000000000E+00 -0.00000000000E+00 -0.45593999997E+02  0.45594000000E+02  0.51100000000E-03 0. -1.
    9900012    2    1    2    0    0 -0.38459449811E+02 -0.20214186170E+01  0.20010192895E+02  0.47787271519E+02  0.20000002164E+02 0.  0.
         12    1    1    2    0    0  0.38459449811E+02  0.20214186170E+01 -0.20010192895E+02  0.43400728481E+02  0.00000000000E+00 0. -1.
         11    1    3    3    0    0 -0.11302940021E+02  0.77499231718E+00  0.13984628770E+02  0.17997969561E+02  0.51100000000E-03 0. -1.
        -11    1    3    3    0    0 -0.50696697951E+01 -0.44740910949E+01  0.31282038020E+01  0.74501478002E+01  0.51100000000E-03 0.  1.
         12    1    3    3    0    0 -0.22086839995E+02  0.16776801607E+01  0.28973603234E+01  0.22339154158E+02  0.00000000000E+00 0. -1.
</event>
<event>
 7    1  0.2580704E-010  0.4778727E+02  0.7816164E-02  0.1312668E+00
        -11   -1    0    0    0    0  0.00000000000E+00  0.00000000000E+00  0.45593999997E+02  0.45594000000E+02  0.51100000000E-03 0.  1.
         11   -1    0    0    0    0 -0.00000000000E+00 -0.00000000000E+00 -0.45593999997E+02  0.45594000000E+02  0.51100000000E-03 0. -1.
    9900012    2    1    2    0    0  0.39320806981E+02 -0.10600650044E+02  0.15004110948E+02  0.47787274334E+02  0.20000014999E+02 0.  0.
         12    1    1    2    0    0 -0.39320806981E+02  0.10600650044E+02 -0.15004110948E+02  0.43400725666E+02  0.00000000000E+00 0. -1.
         11    1    3    3    0    0  0.27632609504E+02 -0.14858720775E+02  0.12636509503E+02  0.33823424778E+02  0.51100000000E-03 0. -1.
        -11    1    3    3    0    0  0.96494830061E+01  0.22416312264E+01  0.39777927347E+01  0.10675217475E+02  0.51100000000E-03 0.  1.
        -12    1    3    3    0    0  0.20387144710E+01  0.20164395048E+01 -0.16101912898E+01  0.32886320805E+01  0.00000000000E+00 0.  1.
</event>
<event>
 7    1  0.2580704E-010  0.4778726E+02  0.7816164E-02  0.1312668E+00
        -11   -1    0    0    0    0  0.00000000000E+00  0.00000000000E+00  0.45593999997E+02  0.45594000000E+02  0.51100000000E-03 0.  1.
         11   -1    0    0    0    0 -0.00000000000E+00 -0.00000000000E+00 -0.45593999997E+02  0.45594000000E+02  0.51100000000E-03 0. -1.
    9900012    2    1    2    0    0 -0.43043872479E+02  0.41134115728E+01 -0.37321217579E+01  0.47787264458E+02  0.19999969969E+02 0.  0.
         12    1    1    2    0    0  0.43043872479E+02 -0.41134115728E+01  0.37321217579E+01  0.43400735542E+02  0.00000000000E+00 0. -1.
         11    1    3    3    0    0 -0.82806970932E+01  0.19029468549E+01 -0.70427006197E+01  0.11035886161E+02  0.51100000000E-03 0. -1.
        -11    1    3    3    0    0 -0.26306784578E+02  0.62881446342E+01  0.91958156380E+00  0.27063505100E+02  0.51100000000E-03 0.  1.
         12    1    3    3    0    0 -0.84563908079E+01 -0.40776799163E+01  0.23909972980E+01  0.96878731966E+01  0.00000000000E+00 0. -1.
</event>
<event>
 7    1  0.2580704E-010  0.4778726E+02  0.7816164E-02  0.1312668E+00
        -11   -1    0    0    0    0  0.00000000000E+00  0.00000000000E+00  0.45593999997E+02  0.45594000000E+02  0.51100000000E-03 0.  1.
         11   -1    0    0    0    0 -0.00000000000E+00 -0.00000000000E+00 -0.45593999997E+02  0.45594000000E+02  0.51100000000E-03 0. -1.
    9900012    2    1    2    0    0 -0.10779578040E+02 -0.38212801723E+02  0.17527304168E+02  0.47787263720E+02  0.19999966603E+02 0.  0.
         12    1    1    2    0    0  0.10779578040E+02  0.38212801723E+02 -0.17527304168E+02  0.43400736280E+02  0.00000000000E+00 0. -1.
         11    1    3    3    0    0 -0.37450360351E+01 -0.50768506479E+01  0.89681014038E+01  0.10964786840E+02  0.51100000000E-03 0. -1.
        -11    1    3    3    0    0  0.10885603984E+01 -0.90122710895E+01  0.67335151949E+01  0.11302487384E+02  0.51100000000E-03 0.  1.
         12    1    3    3    0    0 -0.81231024029E+01 -0.24123679986E+02  0.18256875697E+01  0.25519989495E+02  0.00000000000E+00 0. -1.
</event>
<event>
 7    1  0.2580704E-010  0.4778728E+02  0.7816164E-02  0.1312668E+00
        -11   -1    0    0    0    0  0.00000000000E+00  0.00000000000E+00  0.45593999997E+02  0.45594000000E+02  0.51100000000E-03 0. -1.
         11   -1    0    0    0    0 -0.00000000000E+00 -0.00000000000E+00 -0.45593999997E+02  0.45594000000E+02  0.51100000000E-03 0.  1.
    9900012    2    1    2    0    0 -0.33562336191E+02 -0.13086469305E+02  0.24206126268E+02  0.47787278366E+02  0.20000033380E+02 0.  0.
         12    1    1    2    0    0  0.33562336191E+02  0.13086469305E+02 -0.24206126268E+02  0.43400721634E+02  0.00000000000E+00 0. -1.
         11    1    3    3    0    0 -0.69632588952E+01 -0.61838920405E+01  0.34824436093E+01  0.99425805988E+01  0.51100000000E-03 0. -1.
        -11    1    3    3    0    0 -0.33625988346E+01 -0.76413731260E+01  0.43914518926E+01  0.94330538087E+01  0.51100000000E-03 0.  1.
         12    1    3    3    0    0 -0.23236478461E+02  0.73879586138E+00  0.16332230766E+02  0.28411643958E+02  0.00000000000E+00 0. -1.
</event>
<event>
 7    1  0.2580704E-010  0.4778727E+02  0.7816164E-02  0.1312668E+00
        -11   -1    0    0    0    0  0.00000000000E+00  0.00000000000E+00  0.45593999997E+02  0.45594000000E+02  0.51100000000E-03 0.  1.
         11   -1    0    0    0    0 -0.00000000000E+00 -0.00000000000E+00 -0.45593999997E+02  0.45594000000E+02  0.51100000000E-03 0. -1.
    9900012    2    1    2    0    0  0.73659734069E+01  0.16217812161E+02  0.39577118172E+02  0.47787270994E+02  0.19999999769E+02 0.  0.
         12    1    1    2    0    0 -0.73659734069E+01 -0.16217812161E+02 -0.39577118172E+02  0.43400729006E+02  0.00000000000E+00 0. -1.
         11    1    3    3    0    0  0.56213468473E+01 -0.19903199236E+00  0.13702717184E+02  0.14812279116E+02  0.51100000000E-03 0. -1.
        -11    1    3    3    0    0 -0.54962044535E+00 -0.17968977043E+01  0.39911180788E+01  0.44113430805E+01  0.51100000000E-03 0.  1.
         12    1    3    3    0    0  0.22942470049E+01  0.18213741857E+02  0.21883282909E+02  0.28563648798E+02  0.00000000000E+00 0. -1.
</event>
<event>
 7    1  0.2580704E-010  0.4778727E+02  0.7816164E-02  0.1312668E+00
        -11   -1    0    0    0    0  0.00000000000E+00  0.00000000000E+00  0.45593999997E+02  0.45594000000E+02  0.51100000000E-03 0. -1.
         11   -1    0    0    0    0 -0.00000000000E+00 -0.00000000000E+00 -0.45593999997E+02  0.45594000000E+02  0.51100000000E-03 0.  1.
    9900012    2    1    2    0    0 -0.41941566519E+02  0.52424193194E+01 -0.98511555004E+01  0.47787271584E+02  0.20000002459E+02 0.  0.
         12    1    1    2    0    0  0.41941566519E+02 -0.52424193194E+01  0.98511555004E+01  0.43400728416E+02  0.00000000000E+00 0. -1.
         11    1    3    3    0    0 -0.30942098983E+01  0.29607844558E+01 -0.17163280117E+00  0.42860048493E+01  0.51100000000E-03 0. -1.
        -11    1    3    3    0    0 -0.29275728770E+02  0.18746087114E+01  0.74237555094E+00  0.29345077518E+02  0.51100000000E-03 0.  1.
         12    1    3    3    0    0 -0.95716278507E+01  0.40702615225E+00 -0.10421898250E+02  0.14156189217E+02  0.00000000000E+00 0. -1.
</event>
<event>
 7    1  0.2580704E-010  0.4778727E+02  0.7816164E-02  0.1312668E+00
        -11   -1    0    0    0    0  0.00000000000E+00  0.00000000000E+00  0.45593999997E+02  0.45594000000E+02  0.51100000000E-03 0. -1.
         11   -1    0    0    0    0 -0.00000000000E+00 -0.00000000000E+00 -0.45593999997E+02  0.45594000000E+02  0.51100000000E-03 0.  1.
    9900012    2    1    2    0    0 -0.27997650048E+02  0.32490856923E+02 -0.66406970536E+01  0.47787273633E+02  0.20000011804E+02 0.  0.
         12    1    1    2    0    0  0.27997650048E+02 -0.32490856923E+02  0.66406970536E+01  0.43400726367E+02  0.00000000000E+00 0. -1.
         11    1    3    3    0    0  0.33918282820E+00 -0.11313843177E+00 -0.42043390511E+01  0.42195156610E+01  0.51100000000E-03 0. -1.
        -11    1    3    3    0    0 -0.19253335473E+01  0.46716183499E+01 -0.49065468015E+00  0.50765804979E+01  0.51100000000E-03 0.  1.
        -12    1    3    3    0    0 -0.26411499329E+02  0.27932377005E+02 -0.19457033224E+01  0.38491177474E+02  0.00000000000E+00 0.  1.
</event>
<event>
 7    1  0.2580704E-010  0.4778727E+02  0.7816164E-02  0.1312668E+00
        -11   -1    0    0    0    0  0.00000000000E+00  0.00000000000E+00  0.45593999997E+02  0.45594000000E+02  0.51100000000E-03 0. -1.
         11   -1    0    0    0    0 -0.00000000000E+00 -0.00000000000E+00 -0.45593999997E+02  0.45594000000E+02  0.51100000000E-03 0.  1.
    9900012    2    1    2    0    0 -0.25527364709E+02 -0.28975326258E+02 -0.19809271645E+02  0.47787272773E+02  0.20000007882E+02 0.  0.
         12    1    1    2    0    0  0.25527364709E+02  0.28975326258E+02  0.19809271645E+02  0.43400727227E+02  0.00000000000E+00 0. -1.
         11    1    3    3    0    0 -0.21505719510E+01 -0.87334889398E+00 -0.55542394375E+01  0.60197403596E+01  0.51100000000E-03 0. -1.
        -11    1    3    3    0    0 -0.18610234251E+02 -0.14526360365E+02 -0.13855451924E+02  0.27373883770E+02  0.51100000000E-03 0.  1.
         12    1    3    3    0    0 -0.47665585068E+01 -0.13575616998E+02 -0.39958028295E+00  0.14393648644E+02  0.00000000000E+00 0. -1.
</event>
<event>
 7    1  0.2580704E-010  0.4778727E+02  0.7816164E-02  0.1312668E+00
        -11   -1    0    0    0    0  0.00000000000E+00  0.00000000000E+00  0.45593999997E+02  0.45594000000E+02  0.51100000000E-03 0. -1.
         11   -1    0    0    0    0 -0.00000000000E+00 -0.00000000000E+00 -0.45593999997E+02  0.45594000000E+02  0.51100000000E-03 0.  1.
    9900012    2    1    2    0    0 -0.30461976174E+02  0.11869169647E+02 -0.28544947704E+02  0.47787271665E+02  0.20000002831E+02 0.  0.
         12    1    1    2    0    0  0.30461976174E+02 -0.11869169647E+02  0.28544947704E+02  0.43400728335E+02  0.00000000000E+00 0. -1.
         11    1    3    3    0    0 -0.69927271471E+01 -0.33106459335E+01 -0.71571063798E+01  0.10539581654E+02  0.51100000000E-03 0. -1.
        -11    1    3    3    0    0  0.11349679188E+01 -0.37581677195E+00 -0.18028874237E+01  0.21632830943E+01  0.51100000000E-03 0.  1.
        -12    1    3    3    0    0 -0.24604216946E+02  0.15555632353E+02 -0.19584953901E+02  0.35084406917E+02  0.00000000000E+00 0.  1.
</event>
<event>
 7    1  0.2580704E-010  0.4778727E+02  0.7816164E-02  0.1312668E+00
        -11   -1    0    0    0    0  0.00000000000E+00  0.00000000000E+00  0.45593999997E+02  0.45594000000E+02  0.51100000000E-03 0. -1.
         11   -1    0    0    0    0 -0.00000000000E+00 -0.00000000000E+00 -0.45593999997E+02  0.45594000000E+02  0.51100000000E-03 0.  1.
    9900012    2    1    2    0    0  0.26816442561E+02 -0.32080774839E+02 -0.11632946773E+02  0.47787272397E+02  0.20000006165E+02 0.  0.
         12    1    1    2    0    0 -0.26816442561E+02  0.32080774839E+02  0.11632946773E+02  0.43400727603E+02  0.00000000000E+00 0. -1.
         11    1    3    3    0    0 -0.20407335511E+01 -0.15139768464E+01 -0.35076014967E+01  0.43312801617E+01  0.51100000000E-03 0. -1.
        -11    1    3    3    0    0  0.66478762239E+01 -0.41283917752E+01  0.57912230816E+00  0.78468630577E+01  0.51100000000E-03 0.  1.
        -12    1    3    3    0    0  0.22209299888E+02 -0.26438406217E+02 -0.87044675840E+01  0.35609129177E+02  0.00000000000E+00 0.  1.
</event>
<event>
 7    1  0.2580704E-010  0.4778727E+02  0.7816164E-02  0.1312668E+00
        -11   -1    0    0    0    0  0.00000000000E+00  0.00000000000E+00  0.45593999997E+02  0.45594000000E+02  0.51100000000E-03 0.  1.
         11   -1    0    0    0    0 -0.00000000000E+00 -0.00000000000E+00 -0.45593999997E+02  0.45594000000E+02  0.51100000000E-03 0. -1.
    9900012    2    1    2    0    0 -0.23624302571E+02  0.20947680465E+02  0.29777685209E+02  0.47787268149E+02  0.19999986797E+02 0.  0.
         12    1    1    2    0    0  0.23624302571E+02 -0.20947680465E+02 -0.29777685209E+02  0.43400731851E+02  0.00000000000E+00 0. -1.
         11    1    3    3    0    0  0.40916024482E+00  0.57860888546E+00  0.53084025743E+01  0.53554961021E+01  0.51100000000E-03 0.  1.
        -11    1    3    3    0    0 -0.69969717057E+01 -0.52677308747E+00  0.18948833980E+01  0.72681281146E+01  0.51100000000E-03 0. -1.
        -12    1    3    3    0    0 -0.17036491110E+02  0.20895844667E+02  0.22574399236E+02  0.35163643932E+02  0.00000000000E+00 0.  1.
</event>
<event>
 7    1  0.2580704E-010  0.4778727E+02  0.7816164E-02  0.1312668E+00
        -11   -1    0    0    0    0  0.00000000000E+00  0.00000000000E+00  0.45593999997E+02  0.45594000000E+02  0.51100000000E-03 0.  1.
         11   -1    0    0    0    0 -0.00000000000E+00 -0.00000000000E+00 -0.45593999997E+02  0.45594000000E+02  0.51100000000E-03 0. -1.
    9900012    2    1    2    0    0  0.23255881516E+01  0.43301399701E+02 -0.17898866526E+01  0.47787271083E+02  0.20000000175E+02 0.  0.
         12    1    1    2    0    0 -0.23255881516E+01 -0.43301399701E+02  0.17898866526E+01  0.43400728917E+02  0.00000000000E+00 0. -1.
         11    1    3    3    0    0 -0.33621118184E+00  0.42957264383E+01 -0.24382438256E+01  0.49508925262E+01  0.51100000000E-03 0. -1.
        -11    1    3    3    0    0  0.65046776561E+01  0.21337553770E+02  0.74500194260E+01  0.23518180670E+02  0.51100000000E-03 0.  1.
        -12    1    3    3    0    0 -0.38428783226E+01  0.17668119492E+02 -0.68016622529E+01  0.19318197887E+02  0.00000000000E+00 0.  1.
</event>
<event>
 7    1  0.2580704E-010  0.4778727E+02  0.7816164E-02  0.1312668E+00
        -11   -1    0    0    0    0  0.00000000000E+00  0.00000000000E+00  0.45593999997E+02  0.45594000000E+02  0.51100000000E-03 0. -1.
         11   -1    0    0    0    0 -0.00000000000E+00 -0.00000000000E+00 -0.45593999997E+02  0.45594000000E+02  0.51100000000E-03 0.  1.
    9900012    2    1    2    0    0 -0.19218499467E+01  0.19758586185E+00 -0.43357709418E+02  0.47787268285E+02  0.19999987419E+02 0.  0.
         12    1    1    2    0    0  0.19218499467E+01 -0.19758586185E+00  0.43357709418E+02  0.43400731715E+02  0.00000000000E+00 0. -1.
         11    1    3    3    0    0  0.46561568914E+01 -0.49327699482E+01 -0.17645898732E+02  0.18904754923E+02  0.51100000000E-03 0. -1.
        -11    1    3    3    0    0 -0.29845519067E+01 -0.23292387203E+01 -0.34172735222E+01  0.51000648708E+01  0.51100000000E-03 0.  1.
        -12    1    3    3    0    0 -0.35934549315E+01  0.74595945304E+01 -0.22294537164E+02  0.23782448492E+02  0.00000000000E+00 0.  1.
</event>
<event>
 7    1  0.2580704E-010  0.4778727E+02  0.7816164E-02  0.1312668E+00
        -11   -1    0    0    0    0  0.00000000000E+00  0.00000000000E+00  0.45593999997E+02  0.45594000000E+02  0.51100000000E-03 0.  1.
         11   -1    0    0    0    0 -0.00000000000E+00 -0.00000000000E+00 -0.45593999997E+02  0.45594000000E+02  0.51100000000E-03 0. -1.
    9900012    2    1    2    0    0  0.11244057056E+02  0.39601719714E+02  0.13744024046E+02  0.47787271661E+02  0.20000002811E+02 0.  0.
         12    1    1    2    0    0 -0.11244057056E+02 -0.39601719714E+02 -0.13744024046E+02  0.43400728339E+02  0.00000000000E+00 0. -1.
         11    1    3    3    0    0  0.22902826236E+01  0.15127003301E+02  0.11714391561E+01  0.15344181090E+02  0.51100000000E-03 0. -1.
        -11    1    3    3    0    0 -0.34320556475E+01  0.11213041040E+02  0.41688998196E+01  0.12445522138E+02  0.51100000000E-03 0.  1.
        -12    1    3    3    0    0  0.12385830080E+02  0.13261675373E+02  0.84036850698E+01  0.19997568433E+02  0.00000000000E+00 0.  1.
</event>
<event>
 7    1  0.2580704E-010  0.4778727E+02  0.7816164E-02  0.1312668E+00
        -11   -1    0    0    0    0  0.00000000000E+00  0.00000000000E+00  0.45593999997E+02  0.45594000000E+02  0.51100000000E-03 0. -1.
         11   -1    0    0    0    0 -0.00000000000E+00 -0.00000000000E+00 -0.45593999997E+02  0.45594000000E+02  0.51100000000E-03 0.  1.
    9900012    2    1    2    0    0  0.21243229799E+02 -0.34051261309E+02 -0.16518485143E+02  0.47787267743E+02  0.19999984948E+02 0.  0.
         12    1    1    2    0    0 -0.21243229799E+02  0.34051261309E+02  0.16518485143E+02  0.43400732257E+02  0.00000000000E+00 0. -1.
         11    1    3    3    0    0  0.85686997845E+01 -0.27852405623E+01 -0.30906534746E+01  0.95253514448E+01  0.51100000000E-03 0. -1.
        -11    1    3    3    0    0  0.11057403167E+02 -0.12305797104E+02 -0.85262411809E+01  0.18611705889E+02  0.51100000000E-03 0.  1.
        -12    1    3    3    0    0  0.16171268472E+01 -0.18960223643E+02 -0.49015904877E+01  0.19650210409E+02  0.00000000000E+00 0.  1.
</event>
<event>
 7    1  0.2580704E-010  0.4778727E+02  0.7816164E-02  0.1312668E+00
        -11   -1    0    0    0    0  0.00000000000E+00  0.00000000000E+00  0.45593999997E+02  0.45594000000E+02  0.51100000000E-03 0.  1.
         11   -1    0    0    0    0 -0.00000000000E+00 -0.00000000000E+00 -0.45593999997E+02  0.45594000000E+02  0.51100000000E-03 0. -1.
    9900012    2    1    2    0    0  0.53677546369E+01 -0.26398145491E+02  0.34028640414E+02  0.47787271393E+02  0.20000001587E+02 0.  0.
         12    1    1    2    0    0 -0.53677546369E+01  0.26398145491E+02 -0.34028640414E+02  0.43400728607E+02  0.00000000000E+00 0. -1.
         11    1    3    3    0    0 -0.29509507276E+01 -0.92512644858E+01  0.53699124665E+01  0.11096394232E+02  0.51100000000E-03 0. -1.
        -11    1    3    3    0    0  0.19436967383E+01 -0.16238780844E+02  0.18832926551E+02  0.24943036765E+02  0.51100000000E-03 0.  1.
         12    1    3    3    0    0  0.63750086262E+01 -0.90810016143E+00  0.98258013968E+01  0.11747840396E+02  0.00000000000E+00 0. -1.
</event>
<event>
 7    1  0.2580704E-010  0.4778727E+02  0.7816164E-02  0.1312668E+00
        -11   -1    0    0    0    0  0.00000000000E+00  0.00000000000E+00  0.45593999997E+02  0.45594000000E+02  0.51100000000E-03 0. -1.
         11   -1    0    0    0    0 -0.00000000000E+00 -0.00000000000E+00 -0.45593999997E+02  0.45594000000E+02  0.51100000000E-03 0.  1.
    9900012    2    1    2    0    0 -0.85772356030E+01  0.30467403235E+02 -0.29694973843E+02  0.47787273025E+02  0.20000009030E+02 0.  0.
         12    1    1    2    0    0  0.85772356030E+01 -0.30467403235E+02  0.29694973843E+02  0.43400726975E+02  0.00000000000E+00 0. -1.
         11    1    3    3    0    0 -0.99441808603E+01  0.14041569859E+02 -0.60019983479E+01  0.18222963576E+02  0.51100000000E-03 0. -1.
        -11    1    3    3    0    0 -0.80269460899E+00  0.11711340908E+01 -0.57062403529E+01  0.58802255841E+01  0.51100000000E-03 0.  1.
        -12    1    3    3    0    0  0.21696398663E+01  0.15254699285E+02 -0.17986735142E+02  0.23684083864E+02  0.00000000000E+00 0.  1.
</event>
<event>
 7    1  0.2580704E-010  0.4778727E+02  0.7816164E-02  0.1312668E+00
        -11   -1    0    0    0    0  0.00000000000E+00  0.00000000000E+00  0.45593999997E+02  0.45594000000E+02  0.51100000000E-03 0.  1.
         11   -1    0    0    0    0 -0.00000000000E+00 -0.00000000000E+00 -0.45593999997E+02  0.45594000000E+02  0.51100000000E-03 0. -1.
    9900012    2    1    2    0    0  0.39483016267E+02  0.17990204285E+02 -0.10330041842E+01  0.47787272801E+02  0.20000008008E+02 0.  0.
         12    1    1    2    0    0 -0.39483016267E+02 -0.17990204285E+02  0.10330041842E+01  0.43400727199E+02  0.00000000000E+00 0. -1.
         11    1    3    3    0    0  0.16654598132E+02  0.91583984142E+01  0.86273231191E+01  0.20873011400E+02  0.51100000000E-03 0.  1.
        -11    1    3    3    0    0  0.24266933416E+01  0.29658114848E+01 -0.82025818009E+00  0.39188904145E+01  0.51100000000E-03 0. -1.
        -12    1    3    3    0    0  0.20401724793E+02  0.58659943862E+01 -0.88400691232E+01  0.22995370986E+02  0.00000000000E+00 0.  1.
</event>
<event>
 7    1  0.2580704E-010  0.4778727E+02  0.7816164E-02  0.1312668E+00
        -11   -1    0    0    0    0  0.00000000000E+00  0.00000000000E+00  0.45593999997E+02  0.45594000000E+02  0.51100000000E-03 0.  1.
         11   -1    0    0    0    0 -0.00000000000E+00 -0.00000000000E+00 -0.45593999997E+02  0.45594000000E+02  0.51100000000E-03 0. -1.
    9900012    2    1    2    0    0 -0.10477958344E+02 -0.26126752794E+02  0.33033746885E+02  0.47787271252E+02  0.20000000945E+02 0.  0.
         12    1    1    2    0    0  0.10477958344E+02  0.26126752794E+02 -0.33033746885E+02  0.43400728748E+02  0.00000000000E+00 0. -1.
         11    1    3    3    0    0 -0.37897822098E+01 -0.29738310262E+01  0.51359067216E+01  0.70415664652E+01  0.51100000000E-03 0. -1.
        -11    1    3    3    0    0 -0.47502554701E+01 -0.10631404408E+02  0.25243958530E+02  0.27800164194E+02  0.51100000000E-03 0.  1.
         12    1    3    3    0    0 -0.19379206639E+01 -0.12521517360E+02  0.26538816338E+01  0.12945540592E+02  0.00000000000E+00 0. -1.
</event>
<event>
 7    1  0.2872357E-010  0.4778727E+02  0.7816164E-02  0.1312668E+00
        -11   -1    0    0    0    0  0.00000000000E+00  0.00000000000E+00  0.45593999997E+02  0.45594000000E+02  0.51100000000E-03 0.  1.
         11   -1    0    0    0    0 -0.00000000000E+00 -0.00000000000E+00 -0.45593999997E+02  0.45594000000E+02  0.51100000000E-03 0. -1.
    9900012    2    1    2    0    0 -0.36490288089E+02 -0.29513667189E+01  0.23310326792E+02  0.47787273906E+02  0.20000013047E+02 0.  0.
         12    1    1    2    0    0  0.36490288089E+02  0.29513667189E+01 -0.23310326792E+02  0.43400726094E+02  0.00000000000E+00 0. -1.
         11    1    3    3    0    0 -0.69504693959E+01 -0.46613709954E+01  0.14417984008E+01  0.84921250150E+01  0.51100000000E-03 0. -1.
        -11    1    3    3    0    0 -0.18242386461E+01  0.42693886763E+01  0.17926282298E+01  0.49768506647E+01  0.51100000000E-03 0.  1.
        -12    1    3    3    0    0 -0.27715580047E+02 -0.25593843998E+01  0.20075900162E+02  0.34318298226E+02  0.00000000000E+00 0.  1.
</event>
<event>
 7    1  0.2580704E-010  0.4778729E+02  0.7816164E-02  0.1312668E+00
        -11   -1    0    0    0    0  0.00000000000E+00  0.00000000000E+00  0.45593999997E+02  0.45594000000E+02  0.51100000000E-03 0.  1.
         11   -1    0    0    0    0 -0.00000000000E+00 -0.00000000000E+00 -0.45593999997E+02  0.45594000000E+02  0.51100000000E-03 0. -1.
    9900012    2    1    2    0    0  0.11166945886E+02 -0.12132965942E+02  0.40146138021E+02  0.47787286401E+02  0.20000070015E+02 0.  0.
         12    1    1    2    0    0 -0.11166945886E+02  0.12132965942E+02 -0.40146138021E+02  0.43400713599E+02  0.00000000000E+00 0. -1.
         11    1    3    3    0    0  0.63046927607E+01 -0.24887282470E+01  0.29364348906E+01  0.73868511033E+01  0.51100000000E-03 0. -1.
        -11    1    3    3    0    0  0.72120867876E+01 -0.39841119887E+01  0.12718761208E+02  0.15154346937E+02  0.51100000000E-03 0.  1.
         12    1    3    3    0    0 -0.23498336621E+01 -0.56601257065E+01  0.24490941922E+02  0.25246088360E+02  0.00000000000E+00 0. -1.
</event>
<event>
 7    1  0.2580704E-010  0.4778727E+02  0.7816164E-02  0.1312668E+00
        -11   -1    0    0    0    0  0.00000000000E+00  0.00000000000E+00  0.45593999997E+02  0.45594000000E+02  0.51100000000E-03 0.  1.
         11   -1    0    0    0    0 -0.00000000000E+00 -0.00000000000E+00 -0.45593999997E+02  0.45594000000E+02  0.51100000000E-03 0. -1.
    9900012    2    1    2    0    0  0.26749631687E+02 -0.14181821849E+02  0.31095920077E+02  0.47787272912E+02  0.20000008516E+02 0.  0.
         12    1    1    2    0    0 -0.26749631687E+02  0.14181821849E+02 -0.31095920077E+02  0.43400727088E+02  0.00000000000E+00 0. -1.
         11    1    3    3    0    0  0.12053226846E+02 -0.30535588235E+01  0.15105016667E+02  0.19564407164E+02  0.51100000000E-03 0. -1.
        -11    1    3    3    0    0  0.12928994737E+02 -0.24058043100E+01  0.13789116004E+02  0.19054829302E+02  0.51100000000E-03 0.  1.
         12    1    3    3    0    0  0.17674101032E+01 -0.87224587150E+01  0.22017874060E+01  0.91680364468E+01  0.00000000000E+00 0. -1.
</event>
<event>
 7    1  0.2580704E-010  0.4778728E+02  0.7816164E-02  0.1312668E+00
        -11   -1    0    0    0    0  0.00000000000E+00  0.00000000000E+00  0.45593999997E+02  0.45594000000E+02  0.51100000000E-03 0.  1.
         11   -1    0    0    0    0 -0.00000000000E+00 -0.00000000000E+00 -0.45593999997E+02  0.45594000000E+02  0.51100000000E-03 0. -1.
    9900012    2    1    2    0    0  0.27688011542E+02  0.29155579147E+02  0.16338573811E+02  0.47787276818E+02  0.20000026324E+02 0.  0.
         12    1    1    2    0    0 -0.27688011542E+02 -0.29155579147E+02 -0.16338573811E+02  0.43400723182E+02  0.00000000000E+00 0. -1.
         11    1    3    3    0    0  0.15002196525E+02  0.12636268911E+02  0.61218237907E+01  0.20547941974E+02  0.51100000000E-03 0. -1.
        -11    1    3    3    0    0  0.10274402982E+02  0.10783737853E+02  0.13589149238E+02  0.20162275070E+02  0.51100000000E-03 0.  1.
         12    1    3    3    0    0  0.24114120354E+01  0.57355723826E+01 -0.33723992182E+01  0.70770597742E+01  0.00000000000E+00 0. -1.
</event>
<event>
 7    1  0.2580704E-010  0.4778727E+02  0.7816164E-02  0.1312668E+00
        -11   -1    0    0    0    0  0.00000000000E+00  0.00000000000E+00  0.45593999997E+02  0.45594000000E+02  0.51100000000E-03 0.  1.
         11   -1    0    0    0    0 -0.00000000000E+00 -0.00000000000E+00 -0.45593999997E+02  0.45594000000E+02  0.51100000000E-03 0. -1.
    9900012    2    1    2    0    0 -0.41597270935E+01  0.21924288645E+02  0.37224255658E+02  0.47787274530E+02  0.20000015891E+02 0.  0.
         12    1    1    2    0    0  0.41597270935E+01 -0.21924288645E+02 -0.37224255658E+02  0.43400725470E+02  0.00000000000E+00 0. -1.
         11    1    3    3    0    0 -0.57399200242E+01  0.18966890175E+01  0.10121377135E+02  0.11789248766E+02  0.51100000000E-03 0. -1.
        -11    1    3    3    0    0  0.31746881690E+01  0.12480728917E+01  0.99335875307E+01  0.10502975407E+02  0.51100000000E-03 0.  1.
        -12    1    3    3    0    0 -0.15944952383E+01  0.18779526736E+02  0.17169290992E+02  0.25495050356E+02  0.00000000000E+00 0.  1.
</event>
<event>
 7    1  0.2580704E-010  0.4778727E+02  0.7816164E-02  0.1312668E+00
        -11   -1    0    0    0    0  0.00000000000E+00  0.00000000000E+00  0.45593999997E+02  0.45594000000E+02  0.51100000000E-03 0.  1.
         11   -1    0    0    0    0 -0.00000000000E+00 -0.00000000000E+00 -0.45593999997E+02  0.45594000000E+02  0.51100000000E-03 0. -1.
    9900012    2    1    2    0    0  0.20688155032E+02 -0.25880076685E+02  0.28032931160E+02  0.47787270084E+02  0.19999995620E+02 0.  0.
         12    1    1    2    0    0 -0.20688155032E+02  0.25880076685E+02 -0.28032931160E+02  0.43400729916E+02  0.00000000000E+00 0. -1.
         11    1    3    3    0    0  0.48535206716E+01 -0.25408837376E+01  0.13552010165E+01  0.56435204557E+01  0.51100000000E-03 0. -1.
        -11    1    3    3    0    0  0.17170121028E+02 -0.24971194658E+02  0.23586696136E+02  0.38401899089E+02  0.51100000000E-03 0.  1.
        -12    1    3    3    0    0 -0.13354866677E+01  0.16320017108E+01  0.30910340071E+01  0.37418505390E+01  0.00000000000E+00 0.  1.
</event>
<event>
 7    1  0.2580704E-010  0.4778728E+02  0.7816164E-02  0.1312668E+00
        -11   -1    0    0    0    0  0.00000000000E+00  0.00000000000E+00  0.45593999997E+02  0.45594000000E+02  0.51100000000E-03 0. -1.
         11   -1    0    0    0    0 -0.00000000000E+00 -0.00000000000E+00 -0.45593999997E+02  0.45594000000E+02  0.51100000000E-03 0.  1.
    9900012    2    1    2    0    0 -0.36449306395E+02  0.51175525094E+01 -0.22997420323E+02  0.47787278555E+02  0.20000034245E+02 0.  0.
         12    1    1    2    0    0  0.36449306395E+02 -0.51175525094E+01  0.22997420323E+02  0.43400721445E+02  0.00000000000E+00 0. -1.
         11    1    3    3    0    0 -0.25782898018E+01 -0.37046900716E+00 -0.32664521269E+00  0.26251710312E+01  0.51100000000E-03 0. -1.
        -11    1    3    3    0    0 -0.20443866133E+02  0.25512339678E+01 -0.24998928595E+01  0.20753552029E+02  0.51100000000E-03 0.  1.
         12    1    3    3    0    0 -0.13427150460E+02  0.29367875488E+01 -0.20170882251E+02  0.24408555496E+02  0.00000000000E+00 0. -1.
</event>
<event>
 7    1  0.2580704E-010  0.4778727E+02  0.7816164E-02  0.1312668E+00
        -11   -1    0    0    0    0  0.00000000000E+00  0.00000000000E+00  0.45593999997E+02  0.45594000000E+02  0.51100000000E-03 0.  1.
         11   -1    0    0    0    0 -0.00000000000E+00 -0.00000000000E+00 -0.45593999997E+02  0.45594000000E+02  0.51100000000E-03 0. -1.
    9900012    2    1    2    0    0 -0.38795149097E+02 -0.78853219602E+01  0.17787109921E+02  0.47787272180E+02  0.20000005180E+02 0.  0.
         12    1    1    2    0    0  0.38795149097E+02  0.78853219602E+01 -0.17787109921E+02  0.43400727820E+02  0.00000000000E+00 0. -1.
         11    1    3    3    0    0 -0.31370353895E+01 -0.47683418896E+01  0.15428582471E+01  0.59125702738E+01  0.51100000000E-03 0. -1.
        -11    1    3    3    0    0 -0.17542482170E+02 -0.48246279911E+01  0.11449872246E+01  0.18229830277E+02  0.51100000000E-03 0.  1.
         12    1    3    3    0    0 -0.18115631538E+02  0.17076479206E+01  0.15099264450E+02  0.23644871629E+02  0.00000000000E+00 0. -1.
</event>
<event>
 7    1  0.2580704E-010  0.4778728E+02  0.7816164E-02  0.1312668E+00
        -11   -1    0    0    0    0  0.00000000000E+00  0.00000000000E+00  0.45593999997E+02  0.45594000000E+02  0.51100000000E-03 0.  1.
         11   -1    0    0    0    0 -0.00000000000E+00 -0.00000000000E+00 -0.45593999997E+02  0.45594000000E+02  0.51100000000E-03 0. -1.
    9900012    2    1    2    0    0 -0.40826231408E+02 -0.53183578141E+01  0.13731596672E+02  0.47787275951E+02  0.20000022372E+02 0.  0.
         12    1    1    2    0    0  0.40826231408E+02  0.53183578141E+01 -0.13731596672E+02  0.43400724049E+02  0.00000000000E+00 0. -1.
         11    1    3    3    0    0 -0.10452591083E+02  0.62641042647E+01  0.50890912367E+01  0.13205851448E+02  0.51100000000E-03 0. -1.
        -11    1    3    3    0    0  0.43369180870E+00  0.22069270757E+00  0.20866259011E+00  0.52946595145E+00  0.51100000000E-03 0.  1.
        -12    1    3    3    0    0 -0.30807332133E+02 -0.11803154786E+02  0.84338428451E+01  0.34051958552E+02  0.00000000000E+00 0.  1.
</event>
<event>
 7    1  0.2580704E-010  0.4778728E+02  0.7816164E-02  0.1312668E+00
        -11   -1    0    0    0    0  0.00000000000E+00  0.00000000000E+00  0.45593999997E+02  0.45594000000E+02  0.51100000000E-03 0.  1.
         11   -1    0    0    0    0 -0.00000000000E+00 -0.00000000000E+00 -0.45593999997E+02  0.45594000000E+02  0.51100000000E-03 0. -1.
    9900012    2    1    2    0    0 -0.25377578707E+02 -0.83274443030E+00  0.35198122512E+02  0.47787276588E+02  0.20000025274E+02 0.  0.
         12    1    1    2    0    0  0.25377578707E+02  0.83274443030E+00 -0.35198122512E+02  0.43400723412E+02  0.00000000000E+00 0. -1.
         11    1    3    3    0    0 -0.21915483351E+02 -0.66302092455E+01  0.20842022437E+02  0.30961879541E+02  0.51100000000E-03 0. -1.
        -11    1    3    3    0    0 -0.42924267362E+01  0.17531907626E+01  0.72031601187E+01  0.85664532388E+01  0.51100000000E-03 0.  1.
         12    1    3    3    0    0  0.83033138010E+00  0.40442740526E+01  0.71529399564E+01  0.82589438085E+01  0.00000000000E+00 0. -1.
</event>
<event>
 7    1  0.2580704E-010  0.4778727E+02  0.7816164E-02  0.1312668E+00
        -11   -1    0    0    0    0  0.00000000000E+00  0.00000000000E+00  0.45593999997E+02  0.45594000000E+02  0.51100000000E-03 0.  1.
         11   -1    0    0    0    0 -0.00000000000E+00 -0.00000000000E+00 -0.45593999997E+02  0.45594000000E+02  0.51100000000E-03 0. -1.
    9900012    2    1    2    0    0 -0.35088599833E+02 -0.53414145587E+00  0.25536794916E+02  0.47787273739E+02  0.20000012288E+02 0.  0.
         12    1    1    2    0    0  0.35088599833E+02  0.53414145587E+00 -0.25536794916E+02  0.43400726261E+02  0.00000000000E+00 0. -1.
         11    1    3    3    0    0  0.19926687612E+00  0.77270961083E+00 -0.49976313306E+00  0.94156830919E+00  0.51100000000E-03 0. -1.
        -11    1    3    3    0    0 -0.23910845849E+02  0.24709196552E+01  0.82857852422E+01  0.25426132827E+02  0.51100000000E-03 0.  1.
         12    1    3    3    0    0 -0.11377020860E+02 -0.37777707219E+01  0.17750772807E+02  0.21419572604E+02  0.00000000000E+00 0. -1.
</event>
<event>
 7    1  0.2580704E-010  0.4778727E+02  0.7816164E-02  0.1312668E+00
        -11   -1    0    0    0    0  0.00000000000E+00  0.00000000000E+00  0.45593999997E+02  0.45594000000E+02  0.51100000000E-03 0. -1.
         11   -1    0    0    0    0 -0.00000000000E+00 -0.00000000000E+00 -0.45593999997E+02  0.45594000000E+02  0.51100000000E-03 0.  1.
    9900012    2    1    2    0    0 -0.40665967523E+02 -0.51433699951E+01 -0.14263524169E+02  0.47787270845E+02  0.19999999089E+02 0.  0.
         12    1    1    2    0    0  0.40665967523E+02  0.51433699951E+01  0.14263524169E+02  0.43400729155E+02  0.00000000000E+00 0. -1.
         11    1    3    3    0    0 -0.34438963188E-01 -0.18647421075E+01 -0.35505914449E+01  0.40106295066E+01  0.51100000000E-03 0. -1.
        -11    1    3    3    0    0 -0.11526024953E+02 -0.49361424722E+01 -0.70776690142E+01  0.14398199633E+02  0.51100000000E-03 0.  1.
        -12    1    3    3    0    0 -0.29105503607E+02  0.16575145846E+01 -0.36352637102E+01  0.29378441706E+02  0.00000000000E+00 0.  1.
</event>
<event>
 7    1  0.2580704E-010  0.4778726E+02  0.7816164E-02  0.1312668E+00
        -11   -1    0    0    0    0  0.00000000000E+00  0.00000000000E+00  0.45593999997E+02  0.45594000000E+02  0.51100000000E-03 0.  1.
         11   -1    0    0    0    0 -0.00000000000E+00 -0.00000000000E+00 -0.45593999997E+02  0.45594000000E+02  0.51100000000E-03 0. -1.
    9900012    2    1    2    0    0  0.81988934426E+01  0.31511302489E+02  0.28695643761E+02  0.47787262574E+02  0.19999961380E+02 0.  0.
         12    1    1    2    0    0 -0.81988934426E+01 -0.31511302489E+02 -0.28695643761E+02  0.43400737426E+02  0.00000000000E+00 0. -1.
         11    1    3    3    0    0  0.56577531277E+01  0.75520884583E+01  0.44697457945E+01  0.10441400206E+02  0.51100000000E-03 0. -1.
        -11    1    3    3    0    0  0.40620492022E+01  0.72598888187E+01  0.17313756306E+02  0.19208653963E+02  0.51100000000E-03 0.  1.
        -12    1    3    3    0    0 -0.15209088873E+01  0.16699325212E+02  0.69121416608E+01  0.18137208405E+02  0.00000000000E+00 0.  1.
</event>
<event>
 7    1  0.3542004E-010  0.4778727E+02  0.7816164E-02  0.1312668E+00
        -11   -1    0    0    0    0  0.00000000000E+00  0.00000000000E+00  0.45593999997E+02  0.45594000000E+02  0.51100000000E-03 0. -1.
         11   -1    0    0    0    0 -0.00000000000E+00 -0.00000000000E+00 -0.45593999997E+02  0.45594000000E+02  0.51100000000E-03 0.  1.
    9900012    2    1    2    0    0 -0.22687624047E+02 -0.36571585927E+02 -0.56048363466E+01  0.47787269908E+02  0.19999994816E+02 0.  0.
         12    1    1    2    0    0  0.22687624047E+02  0.36571585927E+02  0.56048363466E+01  0.43400730092E+02  0.00000000000E+00 0. -1.
         11    1    3    3    0    0 -0.74735509495E+00 -0.56548147613E+00  0.27414395944E+01  0.28972055931E+01  0.51100000000E-03 0. -1.
        -11    1    3    3    0    0 -0.32377515099E+01 -0.17245980667E+02 -0.45656701030E+01  0.18131525798E+02  0.51100000000E-03 0.  1.
        -12    1    3    3    0    0 -0.18702517442E+02 -0.18760123784E+02 -0.37806058380E+01  0.26758538517E+02  0.00000000000E+00 0.  1.
</event>
<event>
 7    1  0.2580704E-010  0.4778727E+02  0.7816164E-02  0.1312668E+00
        -11   -1    0    0    0    0  0.00000000000E+00  0.00000000000E+00  0.45593999997E+02  0.45594000000E+02  0.51100000000E-03 0. -1.
         11   -1    0    0    0    0 -0.00000000000E+00 -0.00000000000E+00 -0.45593999997E+02  0.45594000000E+02  0.51100000000E-03 0.  1.
    9900012    2    1    2    0    0  0.16420092424E+02 -0.26386138666E+02 -0.30294810979E+02  0.47787270500E+02  0.19999997517E+02 0.  0.
         12    1    1    2    0    0 -0.16420092424E+02  0.26386138666E+02  0.30294810979E+02  0.43400729500E+02  0.00000000000E+00 0. -1.
         11    1    3    3    0    0  0.24137252221E+01 -0.85470579153E+01 -0.15961675009E+02  0.18266180164E+02  0.51100000000E-03 0. -1.
        -11    1    3    3    0    0  0.14706630615E+01 -0.57759772510E+01 -0.99200338531E+01  0.11572892247E+02  0.51100000000E-03 0.  1.
         12    1    3    3    0    0  0.12535704140E+02 -0.12063103500E+02 -0.44131021170E+01  0.17948198089E+02  0.00000000000E+00 0. -1.
</event>
<event>
 7    1  0.2580704E-010  0.4778727E+02  0.7816164E-02  0.1312668E+00
        -11   -1    0    0    0    0  0.00000000000E+00  0.00000000000E+00  0.45593999997E+02  0.45594000000E+02  0.51100000000E-03 0. -1.
         11   -1    0    0    0    0 -0.00000000000E+00 -0.00000000000E+00 -0.45593999997E+02  0.45594000000E+02  0.51100000000E-03 0.  1.
    9900012    2    1    2    0    0  0.34104972943E+02 -0.26210091704E+02 -0.57883458595E+01  0.47787273804E+02  0.20000012581E+02 0.  0.
         12    1    1    2    0    0 -0.34104972943E+02  0.26210091704E+02  0.57883458595E+01  0.43400726196E+02  0.00000000000E+00 0. -1.
         11    1    3    3    0    0  0.51833235184E+01  0.47699998530E+00  0.80883913837E+00  0.52676932993E+01  0.51100000000E-03 0. -1.
        -11    1    3    3    0    0  0.11352582940E+02 -0.63364375287E+01  0.40279095061E+01  0.13610864602E+02  0.51100000000E-03 0.  1.
        -12    1    3    3    0    0  0.17569066485E+02 -0.20350654160E+02 -0.10625094504E+02  0.28908715902E+02  0.00000000000E+00 0.  1.
</event>
<event>
 7    1  0.2580704E-010  0.4778726E+02  0.7816164E-02  0.1312668E+00
        -11   -1    0    0    0    0  0.00000000000E+00  0.00000000000E+00  0.45593999997E+02  0.45594000000E+02  0.51100000000E-03 0.  1.
         11   -1    0    0    0    0 -0.00000000000E+00 -0.00000000000E+00 -0.45593999997E+02  0.45594000000E+02  0.51100000000E-03 0. -1.
    9900012    2    1    2    0    0  0.24479623683E+02  0.35836968098E+02 -0.28927947501E+00  0.47787263362E+02  0.19999964974E+02 0.  0.
         12    1    1    2    0    0 -0.24479623683E+02 -0.35836968098E+02  0.28927947501E+00  0.43400736638E+02  0.00000000000E+00 0. -1.
         11    1    3    3    0    0  0.62226263876E+01  0.10291114083E+02 -0.85304702327E+01  0.14744389810E+02  0.51100000000E-03 0. -1.
        -11    1    3    3    0    0  0.71294099849E+01  0.58400108500E+01  0.94061876218E+00  0.92638532684E+01  0.51100000000E-03 0.  1.
         12    1    3    3    0    0  0.11127587310E+02  0.19705843165E+02  0.73005719956E+01  0.23779020284E+02  0.00000000000E+00 0. -1.
</event>
<event>
 7    1  0.2580704E-010  0.4778727E+02  0.7816164E-02  0.1312668E+00
        -11   -1    0    0    0    0  0.00000000000E+00  0.00000000000E+00  0.45593999997E+02  0.45594000000E+02  0.51100000000E-03 0.  1.
         11   -1    0    0    0    0 -0.00000000000E+00 -0.00000000000E+00 -0.45593999997E+02  0.45594000000E+02  0.51100000000E-03 0. -1.
    9900012    2    1    2    0    0 -0.42304893075E+02  0.87600073427E+01  0.41451124765E+01  0.47787266548E+02  0.19999979498E+02 0.  0.
         12    1    1    2    0    0  0.42304893075E+02 -0.87600073427E+01 -0.41451124765E+01  0.43400733452E+02  0.00000000000E+00 0. -1.
         11    1    3    3    0    0 -0.33194259816E+01  0.28704027350E+01 -0.28419516608E+00  0.43975638554E+01  0.51100000000E-03 0. -1.
        -11    1    3    3    0    0 -0.36035930544E+02  0.23400661612E+01 -0.11734915286E+01  0.36130890972E+02  0.51100000000E-03 0.  1.
         12    1    3    3    0    0 -0.29495365497E+01  0.35495384465E+01  0.56027991712E+01  0.72588117206E+01  0.00000000000E+00 0. -1.
</event>
<event>
 7    1  0.2580704E-010  0.4778727E+02  0.7816164E-02  0.1312668E+00
        -11   -1    0    0    0    0  0.00000000000E+00  0.00000000000E+00  0.45593999997E+02  0.45594000000E+02  0.51100000000E-03 0.  1.
         11   -1    0    0    0    0 -0.00000000000E+00 -0.00000000000E+00 -0.45593999997E+02  0.45594000000E+02  0.51100000000E-03 0. -1.
    9900012    2    1    2    0    0 -0.54933001898E+01 -0.39953824298E+02  0.16035552444E+02  0.47787269992E+02  0.19999995203E+02 0.  0.
         12    1    1    2    0    0  0.54933001898E+01  0.39953824298E+02 -0.16035552444E+02  0.43400730008E+02  0.00000000000E+00 0. -1.
         11    1    3    3    0    0 -0.57663800255E+01 -0.39631516282E+02  0.95645786578E+01  0.41175106394E+02  0.51100000000E-03 0. -1.
        -11    1    3    3    0    0  0.28584430185E+00 -0.69492972854E+00  0.21967993042E+01  0.23217583286E+01  0.51100000000E-03 0.  1.
         12    1    3    3    0    0 -0.12764466092E-01  0.37262171264E+00  0.42741744820E+01  0.42904052693E+01  0.00000000000E+00 0. -1.
</event>
<event>
 7    1  0.2580704E-010  0.4778726E+02  0.7816164E-02  0.1312668E+00
        -11   -1    0    0    0    0  0.00000000000E+00  0.00000000000E+00  0.45593999997E+02  0.45594000000E+02  0.51100000000E-03 0. -1.
         11   -1    0    0    0    0 -0.00000000000E+00 -0.00000000000E+00 -0.45593999997E+02  0.45594000000E+02  0.51100000000E-03 0.  1.
    9900012    2    1    2    0    0  0.15058452119E+02  0.18661479332E+02 -0.36174801469E+02  0.47787262076E+02  0.19999959107E+02 0.  0.
         12    1    1    2    0    0 -0.15058452119E+02 -0.18661479332E+02  0.36174801469E+02  0.43400737924E+02  0.00000000000E+00 0. -1.
         11    1    3    3    0    0  0.52752865601E+01  0.93276097052E+01 -0.25338893965E+01  0.11011518825E+02  0.51100000000E-03 0. -1.
        -11    1    3    3    0    0  0.13255255520E+01  0.53051939971E+01 -0.11467373871E+02  0.12704438795E+02  0.51100000000E-03 0.  1.
         12    1    3    3    0    0  0.84576400071E+01  0.40286756297E+01 -0.22173538202E+02  0.24071304456E+02  0.00000000000E+00 0. -1.
</event>
<event>
 7    1  0.2580704E-010  0.4778724E+02  0.7816164E-02  0.1312668E+00
        -11   -1    0    0    0    0  0.00000000000E+00  0.00000000000E+00  0.45593999997E+02  0.45594000000E+02  0.51100000000E-03 0.  1.
         11   -1    0    0    0    0 -0.00000000000E+00 -0.00000000000E+00 -0.45593999997E+02  0.45594000000E+02  0.51100000000E-03 0. -1.
    9900012    2    1    2    0    0 -0.16371431508E+02 -0.30921094279E+02  0.25680502096E+02  0.47787239305E+02  0.19999855286E+02 0.  0.
         12    1    1    2    0    0  0.16371431508E+02  0.30921094279E+02 -0.25680502096E+02  0.43400760695E+02  0.00000000000E+00 0. -1.
         11    1    3    3    0    0 -0.76138395237E+01 -0.33645065551E+01  0.79302044356E+01  0.11496895203E+02  0.51100000000E-03 0.  1.
        -11    1    3    3    0    0  0.32931126958E+00 -0.95943019228E+01  0.11975667606E+02  0.15348475174E+02  0.51100000000E-03 0. -1.
         12    1    3    3    0    0 -0.90869032539E+01 -0.17962285801E+02  0.57746300548E+01  0.20941868928E+02  0.00000000000E+00 0. -1.
</event>
<event>
 7    1  0.2580704E-010  0.4778727E+02  0.7816164E-02  0.1312668E+00
        -11   -1    0    0    0    0  0.00000000000E+00  0.00000000000E+00  0.45593999997E+02  0.45594000000E+02  0.51100000000E-03 0. -1.
         11   -1    0    0    0    0 -0.00000000000E+00 -0.00000000000E+00 -0.45593999997E+02  0.45594000000E+02  0.51100000000E-03 0.  1.
    9900012    2    1    2    0    0 -0.50072530750E+01 -0.26991819443E+02 -0.33615359553E+02  0.47787270766E+02  0.19999998730E+02 0.  0.
         12    1    1    2    0    0  0.50072530750E+01  0.26991819443E+02  0.33615359553E+02  0.43400729234E+02  0.00000000000E+00 0. -1.
         11    1    3    3    0    0 -0.59057476924E+01 -0.18799657666E+02 -0.22078358720E+02  0.29593224025E+02  0.51100000000E-03 0. -1.
        -11    1    3    3    0    0  0.28828293190E+01 -0.99546125904E+01 -0.58079870242E+01  0.11880140161E+02  0.51100000000E-03 0.  1.
         12    1    3    3    0    0 -0.19843347015E+01  0.17624508139E+01 -0.57290138085E+01  0.63139065797E+01  0.00000000000E+00 0. -1.
</event>
<event>
 7    1  0.2580704E-010  0.4778727E+02  0.7816164E-02  0.1312668E+00
        -11   -1    0    0    0    0  0.00000000000E+00  0.00000000000E+00  0.45593999997E+02  0.45594000000E+02  0.51100000000E-03 0.  1.
         11   -1    0    0    0    0 -0.00000000000E+00 -0.00000000000E+00 -0.45593999997E+02  0.45594000000E+02  0.51100000000E-03 0. -1.
    9900012    2    1    2    0    0  0.50611105255E+01  0.26491412809E+02  0.34003141303E+02  0.47787269467E+02  0.19999992806E+02 0.  0.
         12    1    1    2    0    0 -0.50611105255E+01 -0.26491412809E+02 -0.34003141303E+02  0.43400730533E+02  0.00000000000E+00 0. -1.
         11    1    3    3    0    0 -0.14893114290E+01  0.12518882797E+01 -0.54606065211E+00  0.20207561195E+01  0.51100000000E-03 0. -1.
        -11    1    3    3    0    0  0.59419707543E+01  0.36673681126E+01  0.15423257199E+02  0.16930253046E+02  0.51100000000E-03 0.  1.
        -12    1    3    3    0    0  0.60845120013E+00  0.21572156417E+02  0.19125944756E+02  0.28836260301E+02  0.00000000000E+00 0.  1.
</event>
<event>
 7    1  0.2580704E-010  0.4778727E+02  0.7816164E-02  0.1312668E+00
        -11   -1    0    0    0    0  0.00000000000E+00  0.00000000000E+00  0.45593999997E+02  0.45594000000E+02  0.51100000000E-03 0.  1.
         11   -1    0    0    0    0 -0.00000000000E+00 -0.00000000000E+00 -0.45593999997E+02  0.45594000000E+02  0.51100000000E-03 0. -1.
    9900012    2    1    2    0    0  0.18526726922E+02 -0.31616784906E+02  0.23254302487E+02  0.47787270946E+02  0.19999999553E+02 0.  0.
         12    1    1    2    0    0 -0.18526726922E+02  0.31616784906E+02 -0.23254302487E+02  0.43400729054E+02  0.00000000000E+00 0. -1.
         11    1    3    3    0    0  0.52592685926E+01 -0.31988852984E+01  0.38318282451E+01  0.72509089942E+01  0.51100000000E-03 0.  1.
        -11    1    3    3    0    0 -0.35844416363E+01 -0.98487114990E+01  0.50548117024E+01  0.11635998524E+02  0.51100000000E-03 0. -1.
         12    1    3    3    0    0  0.16851899966E+02 -0.18569188108E+02  0.14367662540E+02  0.28900363429E+02  0.00000000000E+00 0. -1.
</event>
<event>
 7    1  0.2580704E-010  0.4778727E+02  0.7816164E-02  0.1312668E+00
        -11   -1    0    0    0    0  0.00000000000E+00  0.00000000000E+00  0.45593999997E+02  0.45594000000E+02  0.51100000000E-03 0.  1.
         11   -1    0    0    0    0 -0.00000000000E+00 -0.00000000000E+00 -0.45593999997E+02  0.45594000000E+02  0.51100000000E-03 0. -1.
    9900012    2    1    2    0    0 -0.40293805091E+02  0.59394690601E+01  0.14991842090E+02  0.47787270160E+02  0.19999995966E+02 0.  0.
         12    1    1    2    0    0  0.40293805091E+02 -0.59394690601E+01 -0.14991842090E+02  0.43400729840E+02  0.00000000000E+00 0. -1.
         11    1    3    3    0    0 -0.90385731543E+01  0.12050243957E+00 -0.16317699618E+01  0.91854776127E+01  0.51100000000E-03 0. -1.
        -11    1    3    3    0    0 -0.66285643520E+01  0.34227957141E+01 -0.18940499727E+01  0.76968059238E+01  0.51100000000E-03 0.  1.
        -12    1    3    3    0    0 -0.24626667585E+02  0.23961709064E+01  0.18517662024E+02  0.30904986623E+02  0.00000000000E+00 0.  1.
</event>
<event>
 7    1  0.2580704E-010  0.4778727E+02  0.7816164E-02  0.1312668E+00
        -11   -1    0    0    0    0  0.00000000000E+00  0.00000000000E+00  0.45593999997E+02  0.45594000000E+02  0.51100000000E-03 0. -1.
         11   -1    0    0    0    0 -0.00000000000E+00 -0.00000000000E+00 -0.45593999997E+02  0.45594000000E+02  0.51100000000E-03 0.  1.
    9900012    2    1    2    0    0 -0.11748092574E+02  0.27538931750E+00 -0.41779535952E+02  0.47787272555E+02  0.20000006886E+02 0.  0.
         12    1    1    2    0    0  0.11748092574E+02 -0.27538931750E+00  0.41779535952E+02  0.43400727445E+02  0.00000000000E+00 0. -1.
         11    1    3    3    0    0 -0.71929963837E+01 -0.10870921756E+01 -0.75924863326E+01  0.10515075622E+02  0.51100000000E-03 0. -1.
        -11    1    3    3    0    0 -0.81572955715E+01 -0.19914316609E+01 -0.12673297982E+02  0.15202623231E+02  0.51100000000E-03 0.  1.
        -12    1    3    3    0    0  0.36021993814E+01  0.33539131540E+01 -0.21513751637E+02  0.22069573701E+02  0.00000000000E+00 0.  1.
</event>
<event>
 7    1  0.2580704E-010  0.4778727E+02  0.7816164E-02  0.1312668E+00
        -11   -1    0    0    0    0  0.00000000000E+00  0.00000000000E+00  0.45593999997E+02  0.45594000000E+02  0.51100000000E-03 0.  1.
         11   -1    0    0    0    0 -0.00000000000E+00 -0.00000000000E+00 -0.45593999997E+02  0.45594000000E+02  0.51100000000E-03 0. -1.
    9900012    2    1    2    0    0 -0.20199601595E+01 -0.40013460092E+02  0.16687305461E+02  0.47787269694E+02  0.19999993842E+02 0.  0.
         12    1    1    2    0    0  0.20199601595E+01  0.40013460092E+02 -0.16687305461E+02  0.43400730306E+02  0.00000000000E+00 0. -1.
         11    1    3    3    0    0 -0.30903595975E+01 -0.21501461603E+01  0.59438548522E+01  0.70358270102E+01  0.51100000000E-03 0. -1.
        -11    1    3    3    0    0  0.23324778391E+01 -0.13399516348E+01  0.13919893162E+01  0.30287881688E+01  0.51100000000E-03 0.  1.
        -12    1    3    3    0    0 -0.12620784011E+01 -0.36523362297E+02  0.93514612925E+01  0.37722654515E+02  0.00000000000E+00 0.  1.
</event>
<event>
 7    1  0.2580704E-010  0.4778728E+02  0.7816164E-02  0.1312668E+00
        -11   -1    0    0    0    0  0.00000000000E+00  0.00000000000E+00  0.45593999997E+02  0.45594000000E+02  0.51100000000E-03 0. -1.
         11   -1    0    0    0    0 -0.00000000000E+00 -0.00000000000E+00 -0.45593999997E+02  0.45594000000E+02  0.51100000000E-03 0.  1.
    9900012    2    1    2    0    0  0.41144863077E+02 -0.12562279596E+02 -0.57368963775E+01  0.47787278735E+02  0.20000035065E+02 0.  0.
         12    1    1    2    0    0 -0.41144863077E+02  0.12562279596E+02  0.57368963775E+01  0.43400721265E+02  0.00000000000E+00 0. -1.
         11    1    3    3    0    0  0.50282418038E+01 -0.11674942974E+01 -0.90635588373E+00  0.52409674509E+01  0.51100000000E-03 0.  1.
        -11    1    3    3    0    0  0.12071988786E+02  0.44787373036E+01  0.17452010754E+01  0.12993757276E+02  0.51100000000E-03 0. -1.
         12    1    3    3    0    0  0.24044632487E+02 -0.15873522602E+02 -0.65757415692E+01  0.29552554008E+02  0.00000000000E+00 0. -1.
</event>
<event>
 7    1  0.2580704E-010  0.4778727E+02  0.7816164E-02  0.1312668E+00
        -11   -1    0    0    0    0  0.00000000000E+00  0.00000000000E+00  0.45593999997E+02  0.45594000000E+02  0.51100000000E-03 0.  1.
         11   -1    0    0    0    0 -0.00000000000E+00 -0.00000000000E+00 -0.45593999997E+02  0.45594000000E+02  0.51100000000E-03 0. -1.
    9900012    2    1    2    0    0 -0.80039551211E+01  0.71603217676E+01  0.42051035277E+02  0.47787273356E+02  0.20000010539E+02 0.  0.
         12    1    1    2    0    0  0.80039551211E+01 -0.71603217676E+01 -0.42051035277E+02  0.43400726644E+02  0.00000000000E+00 0. -1.
         11    1    3    3    0    0 -0.40728509610E+01 -0.98746601055E+00  0.15601186131E+02  0.16154262998E+02  0.51100000000E-03 0. -1.
        -11    1    3    3    0    0 -0.91076157105E+01  0.77475813211E+01  0.16106803365E+02  0.20059979939E+02  0.51100000000E-03 0.  1.
         12    1    3    3    0    0  0.51765115503E+01  0.40020645709E+00  0.10343045781E+02  0.11573030418E+02  0.00000000000E+00 0. -1.
</event>
<event>
 7    1  0.2580704E-010  0.4778727E+02  0.7816164E-02  0.1312668E+00
        -11   -1    0    0    0    0  0.00000000000E+00  0.00000000000E+00  0.45593999997E+02  0.45594000000E+02  0.51100000000E-03 0. -1.
         11   -1    0    0    0    0 -0.00000000000E+00 -0.00000000000E+00 -0.45593999997E+02  0.45594000000E+02  0.51100000000E-03 0.  1.
    9900012    2    1    2    0    0  0.37041817947E+02  0.18178475388E+02 -0.13456227158E+02  0.47787270817E+02  0.19999998964E+02 0.  0.
         12    1    1    2    0    0 -0.37041817947E+02 -0.18178475388E+02  0.13456227158E+02  0.43400729183E+02  0.00000000000E+00 0. -1.
         11    1    3    3    0    0  0.24487299079E+01 -0.45162282073E+00  0.12949672960E+01  0.28066317700E+01  0.51100000000E-03 0. -1.
        -11    1    3    3    0    0  0.30095425216E+02  0.14694613327E+02 -0.54601694701E+01  0.33933460340E+02  0.51100000000E-03 0.  1.
         12    1    3    3    0    0  0.44976628235E+01  0.39354848813E+01 -0.92910249840E+01  0.11047178707E+02  0.00000000000E+00 0. -1.
</event>
<event>
 7    1  0.2580704E-010  0.4778727E+02  0.7816164E-02  0.1312668E+00
        -11   -1    0    0    0    0  0.00000000000E+00  0.00000000000E+00  0.45593999997E+02  0.45594000000E+02  0.51100000000E-03 0. -1.
         11   -1    0    0    0    0 -0.00000000000E+00 -0.00000000000E+00 -0.45593999997E+02  0.45594000000E+02  0.51100000000E-03 0.  1.
    9900012    2    1    2    0    0 -0.36734389031E+02 -0.95916002874E+01 -0.21028768763E+02  0.47787271328E+02  0.20000001293E+02 0.  0.
         12    1    1    2    0    0  0.36734389031E+02  0.95916002874E+01  0.21028768763E+02  0.43400728672E+02  0.00000000000E+00 0. -1.
         11    1    3    3    0    0 -0.58891526966E+01  0.92176527224E-01 -0.52709523488E+01  0.79040214398E+01  0.51100000000E-03 0. -1.
        -11    1    3    3    0    0 -0.26976648328E+02 -0.14243961457E+02 -0.14479301384E+02  0.33768034616E+02  0.51100000000E-03 0.  1.
        -12    1    3    3    0    0 -0.38685880064E+01  0.45601846428E+01 -0.12785150302E+01  0.61152152719E+01  0.00000000000E+00 0.  1.
</event>
<event>
 7    1  0.2580704E-010  0.4778727E+02  0.7816164E-02  0.1312668E+00
        -11   -1    0    0    0    0  0.00000000000E+00  0.00000000000E+00  0.45593999997E+02  0.45594000000E+02  0.51100000000E-03 0. -1.
         11   -1    0    0    0    0 -0.00000000000E+00 -0.00000000000E+00 -0.45593999997E+02  0.45594000000E+02  0.51100000000E-03 0.  1.
    9900012    2    1    2    0    0 -0.21019645928E+02  0.20899107128E+02 -0.31702133341E+02  0.47787268991E+02  0.19999990640E+02 0.  0.
         12    1    1    2    0    0  0.21019645928E+02 -0.20899107128E+02  0.31702133341E+02  0.43400731009E+02  0.00000000000E+00 0. -1.
         11    1    3    3    0    0 -0.69773143321E+01  0.82904060613E+01 -0.15705758172E+01  0.10948993406E+02  0.51100000000E-03 0. -1.
        -11    1    3    3    0    0  0.13040515742E+01  0.14623100311E+01 -0.48650103799E+01  0.52447333004E+01  0.51100000000E-03 0.  1.
        -12    1    3    3    0    0 -0.15346383170E+02  0.11146391036E+02 -0.25266547144E+02  0.31593542285E+02  0.00000000000E+00 0.  1.
</event>
<event>
 7    1  0.2580704E-010  0.4778727E+02  0.7816164E-02  0.1312668E+00
        -11   -1    0    0    0    0  0.00000000000E+00  0.00000000000E+00  0.45593999997E+02  0.45594000000E+02  0.51100000000E-03 0.  1.
         11   -1    0    0    0    0 -0.00000000000E+00 -0.00000000000E+00 -0.45593999997E+02  0.45594000000E+02  0.51100000000E-03 0. -1.
    9900012    2    1    2    0    0 -0.38863959498E+02 -0.17048439745E+02  0.90866040697E+01  0.47787273980E+02  0.20000013383E+02 0.  0.
         12    1    1    2    0    0  0.38863959498E+02  0.17048439745E+02 -0.90866040697E+01  0.43400726020E+02  0.00000000000E+00 0. -1.
         11    1    3    3    0    0 -0.11621947601E+02  0.39325450425E+00  0.22955400020E+01  0.11853008871E+02  0.51100000000E-03 0. -1.
        -11    1    3    3    0    0 -0.14631201044E+02 -0.36920961684E+01  0.82901116886E+01  0.17217130138E+02  0.51100000000E-03 0.  1.
        -12    1    3    3    0    0 -0.12610810852E+02 -0.13749598081E+02 -0.14990476209E+01  0.18717134971E+02  0.00000000000E+00 0.  1.
</event>
<event>
 7    1  0.2580704E-010  0.4778727E+02  0.7816164E-02  0.1312668E+00
        -11   -1    0    0    0    0  0.00000000000E+00  0.00000000000E+00  0.45593999997E+02  0.45594000000E+02  0.51100000000E-03 0.  1.
         11   -1    0    0    0    0 -0.00000000000E+00 -0.00000000000E+00 -0.45593999997E+02  0.45594000000E+02  0.51100000000E-03 0. -1.
    9900012    2    1    2    0    0 -0.19626546863E+02 -0.26210700224E+02  0.28485453656E+02  0.47787271689E+02  0.20000002937E+02 0.  0.
         12    1    1    2    0    0  0.19626546863E+02  0.26210700224E+02 -0.28485453656E+02  0.43400728311E+02  0.00000000000E+00 0. -1.
         11    1    3    3    0    0 -0.53315956650E-01 -0.34681031066E+01  0.42963780043E+01  0.55217249086E+01  0.51100000000E-03 0. -1.
        -11    1    3    3    0    0 -0.20341233513E+02 -0.12431809825E+02  0.13510215957E+02  0.27401489227E+02  0.51100000000E-03 0.  1.
        -12    1    3    3    0    0  0.76800260659E+00 -0.10310787292E+02  0.10678859695E+02  0.14864057554E+02  0.00000000000E+00 0.  1.
</event>
<event>
 7    1  0.2580704E-010  0.4778727E+02  0.7816164E-02  0.1312668E+00
        -11   -1    0    0    0    0  0.00000000000E+00  0.00000000000E+00  0.45593999997E+02  0.45594000000E+02  0.51100000000E-03 0.  1.
         11   -1    0    0    0    0 -0.00000000000E+00 -0.00000000000E+00 -0.45593999997E+02  0.45594000000E+02  0.51100000000E-03 0. -1.
    9900012    2    1    2    0    0 -0.39144461631E+02  0.17142421860E+02 -0.75810199577E+01  0.47787269969E+02  0.19999995097E+02 0.  0.
         12    1    1    2    0    0  0.39144461631E+02 -0.17142421860E+02  0.75810199577E+01  0.43400730031E+02  0.00000000000E+00 0. -1.
         11    1    3    3    0    0 -0.27229708402E+02  0.55340933335E+01 -0.14573992029E+01  0.27824579447E+02  0.51100000000E-03 0. -1.
        -11    1    3    3    0    0 -0.56440218250E+01 -0.12478926654E+00 -0.11610138692E+01  0.57635499640E+01  0.51100000000E-03 0.  1.
        -12    1    3    3    0    0 -0.62707314041E+01  0.11733117793E+02 -0.49626068856E+01  0.14199140558E+02  0.00000000000E+00 0.  1.
</event>
<event>
 7    1  0.2580704E-010  0.4778727E+02  0.7816164E-02  0.1312668E+00
        -11   -1    0    0    0    0  0.00000000000E+00  0.00000000000E+00  0.45593999997E+02  0.45594000000E+02  0.51100000000E-03 0.  1.
         11   -1    0    0    0    0 -0.00000000000E+00 -0.00000000000E+00 -0.45593999997E+02  0.45594000000E+02  0.51100000000E-03 0. -1.
    9900012    2    1    2    0    0 -0.20847307495E+02 -0.83931988607E+01  0.37129066363E+02  0.47787267450E+02  0.19999983611E+02 0.  0.
         12    1    1    2    0    0  0.20847307495E+02  0.83931988607E+01 -0.37129066363E+02  0.43400732550E+02  0.00000000000E+00 0. -1.
         11    1    3    3    0    0 -0.76919486672E+01 -0.55137391428E+01  0.13304525804E+02  0.16327210440E+02  0.51100000000E-03 0. -1.
        -11    1    3    3    0    0 -0.13119800821E+02 -0.76774508626E+01  0.20891235598E+02  0.25836333920E+02  0.51100000000E-03 0.  1.
         12    1    3    3    0    0 -0.35558006082E-01  0.47979911447E+01  0.29333049615E+01  0.56237230901E+01  0.00000000000E+00 0. -1.
</event>
<event>
 7    1  0.2580704E-010  0.4778730E+02  0.7816164E-02  0.1312668E+00
        -11   -1    0    0    0    0  0.00000000000E+00  0.00000000000E+00  0.45593999997E+02  0.45594000000E+02  0.51100000000E-03 0. -1.
         11   -1    0    0    0    0 -0.00000000000E+00 -0.00000000000E+00 -0.45593999997E+02  0.45594000000E+02  0.51100000000E-03 0.  1.
    9900012    2    1    2    0    0  0.42191301105E+02  0.55994561551E+01 -0.84947589865E+01  0.47787300370E+02  0.20000133706E+02 0.  0.
         12    1    1    2    0    0 -0.42191301105E+02 -0.55994561551E+01  0.84947589865E+01  0.43400699630E+02  0.00000000000E+00 0. -1.
         11    1    3    3    0    0  0.24603686062E+02  0.70009756671E+01 -0.54047494143E+01  0.26145101733E+02  0.51100000000E-03 0. -1.
        -11    1    3    3    0    0  0.15282581151E+02  0.55826534476E+00  0.22963963705E+01  0.15464229156E+02  0.51100000000E-03 0.  1.
         12    1    3    3    0    0  0.23050338912E+01 -0.19597848567E+01 -0.53864059427E+01  0.61779694806E+01  0.00000000000E+00 0. -1.
</event>
<event>
 7    1  0.2580704E-010  0.4778727E+02  0.7816164E-02  0.1312668E+00
        -11   -1    0    0    0    0  0.00000000000E+00  0.00000000000E+00  0.45593999997E+02  0.45594000000E+02  0.51100000000E-03 0.  1.
         11   -1    0    0    0    0 -0.00000000000E+00 -0.00000000000E+00 -0.45593999997E+02  0.45594000000E+02  0.51100000000E-03 0. -1.
    9900012    2    1    2    0    0  0.29859154364E+02 -0.26412146041E+02  0.17159637900E+02  0.47787265782E+02  0.19999976005E+02 0.  0.
         12    1    1    2    0    0 -0.29859154364E+02  0.26412146041E+02 -0.17159637900E+02  0.43400734218E+02  0.00000000000E+00 0. -1.
         11    1    3    3    0    0  0.92307482732E+01 -0.17654838119E+02  0.89809384684E+01  0.21853083963E+02  0.51100000000E-03 0. -1.
        -11    1    3    3    0    0  0.12105264439E+01 -0.10846798299E+00 -0.20198789089E+01  0.23573397385E+01  0.51100000000E-03 0.  1.
         12    1    3    3    0    0  0.19417879647E+02 -0.86488399390E+01  0.10198578341E+02  0.23576842080E+02  0.00000000000E+00 0. -1.
</event>
<event>
 7    1  0.2580704E-010  0.4778725E+02  0.7816164E-02  0.1312668E+00
        -11   -1    0    0    0    0  0.00000000000E+00  0.00000000000E+00  0.45593999997E+02  0.45594000000E+02  0.51100000000E-03 0.  1.
         11   -1    0    0    0    0 -0.00000000000E+00 -0.00000000000E+00 -0.45593999997E+02  0.45594000000E+02  0.51100000000E-03 0. -1.
    9900012    2    1    2    0    0  0.27830273705E+02 -0.19666333303E+02  0.26876317292E+02  0.47787248494E+02  0.19999897185E+02 0.  0.
         12    1    1    2    0    0 -0.27830273705E+02  0.19666333303E+02 -0.26876317292E+02  0.43400751506E+02  0.00000000000E+00 0. -1.
         11    1    3    3    0    0  0.12770191836E+02 -0.15744365665E+02  0.10512944476E+02  0.22836042817E+02  0.51100000000E-03 0. -1.
        -11    1    3    3    0    0  0.13261735992E+02 -0.70227264290E+01  0.14674011507E+02  0.20988543112E+02  0.51100000000E-03 0.  1.
         12    1    3    3    0    0  0.17983458765E+01  0.31007587908E+01  0.16893613097E+01  0.39626625651E+01  0.00000000000E+00 0. -1.
</event>
<event>
 7    1  0.2580704E-010  0.4778727E+02  0.7816164E-02  0.1312668E+00
        -11   -1    0    0    0    0  0.00000000000E+00  0.00000000000E+00  0.45593999997E+02  0.45594000000E+02  0.51100000000E-03 0.  1.
         11   -1    0    0    0    0 -0.00000000000E+00 -0.00000000000E+00 -0.45593999997E+02  0.45594000000E+02  0.51100000000E-03 0. -1.
    9900012    2    1    2    0    0 -0.15992230379E+02  0.53428004105E+01  0.39991576419E+02  0.47787272665E+02  0.20000007388E+02 0.  0.
         12    1    1    2    0    0  0.15992230379E+02 -0.53428004105E+01 -0.39991576419E+02  0.43400727335E+02  0.00000000000E+00 0. -1.
         11    1    3    3    0    0  0.27802639239E-02 -0.26259889478E+01  0.11648912922E+02  0.11941231017E+02  0.51100000000E-03 0. -1.
        -11    1    3    3    0    0 -0.44425847809E+01  0.54530798459E+00  0.14018499719E+00  0.44781215289E+01  0.51100000000E-03 0.  1.
        -12    1    3    3    0    0 -0.11552425862E+02  0.74234813737E+01  0.28202478500E+02  0.31367920119E+02  0.00000000000E+00 0.  1.
</event>
<event>
 7    1  0.2580704E-010  0.4778726E+02  0.7816164E-02  0.1312668E+00
        -11   -1    0    0    0    0  0.00000000000E+00  0.00000000000E+00  0.45593999997E+02  0.45594000000E+02  0.51100000000E-03 0.  1.
         11   -1    0    0    0    0 -0.00000000000E+00 -0.00000000000E+00 -0.45593999997E+02  0.45594000000E+02  0.51100000000E-03 0. -1.
    9900012    2    1    2    0    0 -0.35127564822E+01  0.27032857442E+02  0.33771422626E+02  0.47787264686E+02  0.19999971010E+02 0.  0.
         12    1    1    2    0    0  0.35127564822E+01 -0.27032857442E+02 -0.33771422626E+02  0.43400735314E+02  0.00000000000E+00 0. -1.
         11    1    3    3    0    0  0.32515176113E+01  0.41793764123E+01  0.30513712858E+01  0.61114990761E+01  0.51100000000E-03 0. -1.
        -11    1    3    3    0    0 -0.52009962852E+01  0.15409773589E+02  0.88392075212E+01  0.18510620581E+02  0.51100000000E-03 0.  1.
         12    1    3    3    0    0 -0.15632778083E+01  0.74437074400E+01  0.21880843819E+02  0.23165145029E+02  0.00000000000E+00 0. -1.
</event>
<event>
 7    1  0.2580704E-010  0.4778727E+02  0.7816164E-02  0.1312668E+00
        -11   -1    0    0    0    0  0.00000000000E+00  0.00000000000E+00  0.45593999997E+02  0.45594000000E+02  0.51100000000E-03 0.  1.
         11   -1    0    0    0    0 -0.00000000000E+00 -0.00000000000E+00 -0.45593999997E+02  0.45594000000E+02  0.51100000000E-03 0. -1.
    9900012    2    1    2    0    0  0.64700559987E+01 -0.35436468295E+02  0.24207816453E+02  0.47787270890E+02  0.19999999297E+02 0.  0.
         12    1    1    2    0    0 -0.64700559987E+01  0.35436468295E+02 -0.24207816453E+02  0.43400729110E+02  0.00000000000E+00 0. -1.
         11    1    3    3    0    0 -0.19262055608E+01 -0.25542253004E+02  0.20939942537E+02  0.33084711728E+02  0.51100000000E-03 0. -1.
        -11    1    3    3    0    0  0.18747623070E+01 -0.68649076486E+01  0.11681975409E+01  0.72115446672E+01  0.51100000000E-03 0.  1.
         12    1    3    3    0    0  0.65214992525E+01 -0.30293076422E+01  0.20996763748E+01  0.74910144954E+01  0.00000000000E+00 0. -1.
</event>
<event>
 7    1  0.2580704E-010  0.4778727E+02  0.7816164E-02  0.1312668E+00
        -11   -1    0    0    0    0  0.00000000000E+00  0.00000000000E+00  0.45593999997E+02  0.45594000000E+02  0.51100000000E-03 0.  1.
         11   -1    0    0    0    0 -0.00000000000E+00 -0.00000000000E+00 -0.45593999997E+02  0.45594000000E+02  0.51100000000E-03 0. -1.
    9900012    2    1    2    0    0 -0.28738863412E+02 -0.20917941415E+02  0.24902623480E+02  0.47787271902E+02  0.20000003911E+02 0.  0.
         12    1    1    2    0    0  0.28738863412E+02  0.20917941415E+02 -0.24902623480E+02  0.43400728098E+02  0.00000000000E+00 0. -1.
         11    1    3    3    0    0  0.28748069839E+00 -0.57233842271E+01  0.50529202507E+01  0.76401423733E+01  0.51100000000E-03 0. -1.
        -11    1    3    3    0    0 -0.16066317955E+02 -0.14523511453E+02  0.14751143912E+02  0.26204106635E+02  0.51100000000E-03 0.  1.
         12    1    3    3    0    0 -0.12960026155E+02 -0.67104573493E+00  0.50985593172E+01  0.13943022894E+02  0.00000000000E+00 0. -1.
</event>
<event>
 7    1  0.2580704E-010  0.4778728E+02  0.7816164E-02  0.1312668E+00
        -11   -1    0    0    0    0  0.00000000000E+00  0.00000000000E+00  0.45593999997E+02  0.45594000000E+02  0.51100000000E-03 0.  1.
         11   -1    0    0    0    0 -0.00000000000E+00 -0.00000000000E+00 -0.45593999997E+02  0.45594000000E+02  0.51100000000E-03 0. -1.
    9900012    2    1    2    0    0  0.25452380001E+02 -0.28229041415E+02  0.20950420537E+02  0.47787279411E+02  0.20000038148E+02 0.  0.
         12    1    1    2    0    0 -0.25452380001E+02  0.28229041415E+02 -0.20950420537E+02  0.43400720589E+02  0.00000000000E+00 0. -1.
         11    1    3    3    0    0  0.99727293095E+01 -0.85175286613E+01  0.92835366166E+00  0.13147831196E+02  0.51100000000E-03 0. -1.
        -11    1    3    3    0    0 -0.16951414911E+01 -0.23631852069E+00 -0.20605762653E+00  0.17238941745E+01  0.51100000000E-03 0.  1.
        -12    1    3    3    0    0  0.17174792183E+02 -0.19475194233E+02  0.20228124502E+02  0.32915554041E+02  0.00000000000E+00 0.  1.
</event>
<event>
 7    1  0.2580704E-010  0.4778728E+02  0.7816164E-02  0.1312668E+00
        -11   -1    0    0    0    0  0.00000000000E+00  0.00000000000E+00  0.45593999997E+02  0.45594000000E+02  0.51100000000E-03 0.  1.
         11   -1    0    0    0    0 -0.00000000000E+00 -0.00000000000E+00 -0.45593999997E+02  0.45594000000E+02  0.51100000000E-03 0. -1.
    9900012    2    1    2    0    0 -0.35468907171E+02 -0.25008816290E+02  0.37210772115E+00  0.47787277284E+02  0.20000028447E+02 0.  0.
         12    1    1    2    0    0  0.35468907171E+02  0.25008816290E+02 -0.37210772115E+00  0.43400722716E+02  0.00000000000E+00 0. -1.
         11    1    3    3    0    0 -0.64625714198E+01  0.13811552743E+01 -0.14942329313E+01  0.67753340554E+01  0.51100000000E-03 0. -1.
        -11    1    3    3    0    0 -0.54194961163E+01 -0.28527665349E+01  0.44795860239E+01  0.75878789042E+01  0.51100000000E-03 0.  1.
         12    1    3    3    0    0 -0.23586839635E+02 -0.23537205029E+02 -0.26132453715E+01  0.33424064324E+02  0.00000000000E+00 0. -1.
</event>
<event>
 7    1  0.2580704E-010  0.4778727E+02  0.7816164E-02  0.1312668E+00
        -11   -1    0    0    0    0  0.00000000000E+00  0.00000000000E+00  0.45593999997E+02  0.45594000000E+02  0.51100000000E-03 0.  1.
         11   -1    0    0    0    0 -0.00000000000E+00 -0.00000000000E+00 -0.45593999997E+02  0.45594000000E+02  0.51100000000E-03 0. -1.
    9900012    2    1    2    0    0 -0.16438742844E+02  0.28369458631E+01  0.40066727122E+02  0.47787272468E+02  0.20000006489E+02 0.  0.
         12    1    1    2    0    0  0.16438742844E+02 -0.28369458631E+01 -0.40066727122E+02  0.43400727532E+02  0.00000000000E+00 0. -1.
         11    1    3    3    0    0  0.72067667000E-01  0.20206521766E+01  0.30139417411E+01  0.36293352073E+01  0.51100000000E-03 0. -1.
        -11    1    3    3    0    0 -0.19879018787E+02 -0.13274440721E+01  0.29213683519E+02  0.35360667425E+02  0.51100000000E-03 0.  1.
        -12    1    3    3    0    0  0.33682082764E+01  0.21437377586E+01  0.78391018611E+01  0.87972698355E+01  0.00000000000E+00 0.  1.
</event>
<event>
 7    1  0.2580704E-010  0.4778727E+02  0.7816164E-02  0.1312668E+00
        -11   -1    0    0    0    0  0.00000000000E+00  0.00000000000E+00  0.45593999997E+02  0.45594000000E+02  0.51100000000E-03 0. -1.
         11   -1    0    0    0    0 -0.00000000000E+00 -0.00000000000E+00 -0.45593999997E+02  0.45594000000E+02  0.51100000000E-03 0.  1.
    9900012    2    1    2    0    0 -0.32603884918E+02 -0.28608116817E+02 -0.14784340376E+01  0.47787269283E+02  0.19999991969E+02 0.  0.
         12    1    1    2    0    0  0.32603884918E+02  0.28608116817E+02  0.14784340376E+01  0.43400730717E+02  0.00000000000E+00 0. -1.
         11    1    3    3    0    0 -0.85067576883E+01 -0.12492077146E+01  0.75053455016E+00  0.86306864532E+01  0.51100000000E-03 0. -1.
        -11    1    3    3    0    0 -0.46535261540E+01 -0.14673571213E+02  0.21134482364E+01  0.15538200074E+02  0.51100000000E-03 0.  1.
        -12    1    3    3    0    0 -0.19443601075E+02 -0.12685337889E+02 -0.43424168242E+01  0.23618382756E+02  0.00000000000E+00 0.  1.
</event>
<event>
 7    1  0.2580704E-010  0.4778727E+02  0.7816164E-02  0.1312668E+00
        -11   -1    0    0    0    0  0.00000000000E+00  0.00000000000E+00  0.45593999997E+02  0.45594000000E+02  0.51100000000E-03 0.  1.
         11   -1    0    0    0    0 -0.00000000000E+00 -0.00000000000E+00 -0.45593999997E+02  0.45594000000E+02  0.51100000000E-03 0. -1.
    9900012    2    1    2    0    0 -0.10794874093E+02  0.29290791614E+02  0.30152007185E+02  0.47787270544E+02  0.19999997716E+02 0.  0.
         12    1    1    2    0    0  0.10794874093E+02 -0.29290791614E+02 -0.30152007185E+02  0.43400729456E+02  0.00000000000E+00 0. -1.
         11    1    3    3    0    0  0.46978858264E+01  0.12215563428E+02  0.98739968580E+01  0.16394692291E+02  0.51100000000E-03 0.  1.
        -11    1    3    3    0    0 -0.14892598128E+01  0.94153080400E+00  0.45050631565E+01  0.48373514809E+01  0.51100000000E-03 0. -1.
         12    1    3    3    0    0 -0.14003500107E+02  0.16133697382E+02  0.15772947170E+02  0.26555226772E+02  0.00000000000E+00 0. -1.
</event>
<event>
 7    1  0.2580704E-010  0.4778727E+02  0.7816164E-02  0.1312668E+00
        -11   -1    0    0    0    0  0.00000000000E+00  0.00000000000E+00  0.45593999997E+02  0.45594000000E+02  0.51100000000E-03 0.  1.
         11   -1    0    0    0    0 -0.00000000000E+00 -0.00000000000E+00 -0.45593999997E+02  0.45594000000E+02  0.51100000000E-03 0. -1.
    9900012    2    1    2    0    0 -0.36974767380E+02 -0.14369382298E+02  0.17607117336E+02  0.47787272457E+02  0.20000006440E+02 0.  0.
         12    1    1    2    0    0  0.36974767380E+02  0.14369382298E+02 -0.17607117336E+02  0.43400727543E+02  0.00000000000E+00 0. -1.
         11    1    3    3    0    0 -0.20730334429E+02 -0.92569865153E+01  0.54088162796E+01  0.23338677312E+02  0.51100000000E-03 0. -1.
        -11    1    3    3    0    0 -0.18385017214E+02 -0.47883051239E+01  0.10580165748E+02  0.21745726739E+02  0.51100000000E-03 0.  1.
         12    1    3    3    0    0  0.21405842629E+01 -0.32409065869E+00  0.16181353082E+01  0.27028684054E+01  0.00000000000E+00 0. -1.
</event>
<event>
 7    1  0.2580704E-010  0.4778727E+02  0.7816164E-02  0.1312668E+00
        -11   -1    0    0    0    0  0.00000000000E+00  0.00000000000E+00  0.45593999997E+02  0.45594000000E+02  0.51100000000E-03 0.  1.
         11   -1    0    0    0    0 -0.00000000000E+00 -0.00000000000E+00 -0.45593999997E+02  0.45594000000E+02  0.51100000000E-03 0. -1.
    9900012    2    1    2    0    0 -0.91602629329E+00  0.13838338479E+02  0.41125230557E+02  0.47787270693E+02  0.19999998397E+02 0.  0.
         12    1    1    2    0    0  0.91602629329E+00 -0.13838338479E+02 -0.41125230557E+02  0.43400729307E+02  0.00000000000E+00 0. -1.
         11    1    3    3    0    0 -0.10438720420E+01  0.73090355117E+01  0.85367036812E+01  0.11286584025E+02  0.51100000000E-03 0. -1.
        -11    1    3    3    0    0  0.23286569749E+01  0.93070140473E+01  0.31287713214E+02  0.32725588645E+02  0.51100000000E-03 0.  1.
         12    1    3    3    0    0 -0.22008112262E+01 -0.27777110799E+01  0.13008136620E+01  0.37750980225E+01  0.00000000000E+00 0. -1.
</event>
<event>
 7    1  0.2580704E-010  0.4778728E+02  0.7816164E-02  0.1312668E+00
        -11   -1    0    0    0    0  0.00000000000E+00  0.00000000000E+00  0.45593999997E+02  0.45594000000E+02  0.51100000000E-03 0.  1.
         11   -1    0    0    0    0 -0.00000000000E+00 -0.00000000000E+00 -0.45593999997E+02  0.45594000000E+02  0.51100000000E-03 0. -1.
    9900012    2    1    2    0    0 -0.65975777872E+01 -0.36862897247E+02  0.21936764792E+02  0.47787275632E+02  0.20000020918E+02 0.  0.
         12    1    1    2    0    0  0.65975777872E+01  0.36862897247E+02 -0.21936764792E+02  0.43400724368E+02  0.00000000000E+00 0. -1.
         11    1    3    3    0    0 -0.74124973609E+01 -0.30308804810E+02  0.20985500504E+02  0.37602659451E+02  0.51100000000E-03 0. -1.
        -11    1    3    3    0    0 -0.27486102040E+01 -0.58881373024E+01  0.32921803006E+00  0.65064125075E+01  0.51100000000E-03 0.  1.
         12    1    3    3    0    0  0.35635297777E+01 -0.66595513512E+00  0.62204625711E+00  0.36782036736E+01  0.00000000000E+00 0. -1.
</event>
<event>
 7    1  0.2580704E-010  0.4778727E+02  0.7816164E-02  0.1312668E+00
        -11   -1    0    0    0    0  0.00000000000E+00  0.00000000000E+00  0.45593999997E+02  0.45594000000E+02  0.51100000000E-03 0.  1.
         11   -1    0    0    0    0 -0.00000000000E+00 -0.00000000000E+00 -0.45593999997E+02  0.45594000000E+02  0.51100000000E-03 0. -1.
    9900012    2    1    2    0    0 -0.11598603920E+02  0.16289985887E+02  0.38519243814E+02  0.47787269625E+02  0.19999993527E+02 0.  0.
         12    1    1    2    0    0  0.11598603920E+02 -0.16289985887E+02 -0.38519243814E+02  0.43400730375E+02  0.00000000000E+00 0. -1.
         11    1    3    3    0    0 -0.85280609167E+01  0.19296071800E+01  0.74711870877E+01  0.11500862734E+02  0.51100000000E-03 0. -1.
        -11    1    3    3    0    0 -0.16567251923E+01  0.15841197655E+00  0.13796110476E+02  0.13896132456E+02  0.51100000000E-03 0.  1.
        -12    1    3    3    0    0 -0.14138178108E+01  0.14201966730E+02  0.17251946251E+02  0.22390274435E+02  0.00000000000E+00 0.  1.
</event>
<event>
 7    1  0.2580704E-010  0.4778725E+02  0.7816164E-02  0.1312668E+00
        -11   -1    0    0    0    0  0.00000000000E+00  0.00000000000E+00  0.45593999997E+02  0.45594000000E+02  0.51100000000E-03 0.  1.
         11   -1    0    0    0    0 -0.00000000000E+00 -0.00000000000E+00 -0.45593999997E+02  0.45594000000E+02  0.51100000000E-03 0. -1.
    9900012    2    1    2    0    0 -0.58648088225E+01  0.14468959960E+02  0.40495411275E+02  0.47787249785E+02  0.19999903071E+02 0.  0.
         12    1    1    2    0    0  0.58648088225E+01 -0.14468959960E+02 -0.40495411275E+02  0.43400750215E+02  0.00000000000E+00 0. -1.
         11    1    3    3    0    0 -0.21572336261E+01 -0.34467098391E+01  0.13099521323E+02  0.13716082705E+02  0.51100000000E-03 0. -1.
        -11    1    3    3    0    0 -0.38195673271E+01  0.56255064563E+01  0.15681006235E+02  0.17091792600E+02  0.51100000000E-03 0.  1.
        -12    1    3    3    0    0  0.11199213063E+00  0.12290163343E+02  0.11714883717E+02  0.16979374480E+02  0.00000000000E+00 0.  1.
</event>
<event>
 7    1  0.2580704E-010  0.4778727E+02  0.7816164E-02  0.1312668E+00
        -11   -1    0    0    0    0  0.00000000000E+00  0.00000000000E+00  0.45593999997E+02  0.45594000000E+02  0.51100000000E-03 0. -1.
         11   -1    0    0    0    0 -0.00000000000E+00 -0.00000000000E+00 -0.45593999997E+02  0.45594000000E+02  0.51100000000E-03 0.  1.
    9900012    2    1    2    0    0  0.34332264873E+02  0.24199680755E+02 -0.10922202666E+02  0.47787268773E+02  0.19999989643E+02 0.  0.
         12    1    1    2    0    0 -0.34332264873E+02 -0.24199680755E+02  0.10922202666E+02  0.43400731227E+02  0.00000000000E+00 0. -1.
         11    1    3    3    0    0  0.13777450157E+02  0.10538452342E+02 -0.10156293513E+02  0.20100433050E+02  0.51100000000E-03 0. -1.
        -11    1    3    3    0    0  0.10389611491E+02  0.33043600256E+01 -0.57715387024E+01  0.12335861598E+02  0.51100000000E-03 0.  1.
         12    1    3    3    0    0  0.10165203225E+02  0.10356868387E+02  0.50056295498E+01  0.15350974125E+02  0.00000000000E+00 0. -1.
</event>
<event>
 7    1  0.2580704E-010  0.4778727E+02  0.7816164E-02  0.1312668E+00
        -11   -1    0    0    0    0  0.00000000000E+00  0.00000000000E+00  0.45593999997E+02  0.45594000000E+02  0.51100000000E-03 0. -1.
         11   -1    0    0    0    0 -0.00000000000E+00 -0.00000000000E+00 -0.45593999997E+02  0.45594000000E+02  0.51100000000E-03 0.  1.
    9900012    2    1    2    0    0  0.58129732213E+01  0.32221592716E+02 -0.28488618039E+02  0.47787273594E+02  0.20000011623E+02 0.  0.
         12    1    1    2    0    0 -0.58129732213E+01 -0.32221592716E+02  0.28488618039E+02  0.43400726406E+02  0.00000000000E+00 0. -1.
         11    1    3    3    0    0 -0.38888798110E+01  0.92537670310E+01 -0.96518407092E+01  0.13925287063E+02  0.51100000000E-03 0. -1.
        -11    1    3    3    0    0 -0.94858995155E+00  0.85832461871E+01 -0.11817705480E+02  0.14636601418E+02  0.51100000000E-03 0.  1.
         12    1    3    3    0    0  0.10650442984E+02  0.14384579498E+02 -0.70190718492E+01  0.19225385112E+02  0.00000000000E+00 0. -1.
</event>
<event>
 7    1  0.2580704E-010  0.4778727E+02  0.7816164E-02  0.1312668E+00
        -11   -1    0    0    0    0  0.00000000000E+00  0.00000000000E+00  0.45593999997E+02  0.45594000000E+02  0.51100000000E-03 0.  1.
         11   -1    0    0    0    0 -0.00000000000E+00 -0.00000000000E+00 -0.45593999997E+02  0.45594000000E+02  0.51100000000E-03 0. -1.
    9900012    2    1    2    0    0 -0.36563059310E+02  0.19137065569E+02  0.13436484439E+02  0.47787266149E+02  0.19999977680E+02 0.  0.
         12    1    1    2    0    0  0.36563059310E+02 -0.19137065569E+02 -0.13436484439E+02  0.43400733851E+02  0.00000000000E+00 0. -1.
         11    1    3    3    0    0 -0.15156549238E+02  0.98135842021E+01 -0.19965800886E+01  0.18166280632E+02  0.51100000000E-03 0. -1.
        -11    1    3    3    0    0 -0.19860272075E+00 -0.14715232278E+01  0.96174116057E+00  0.17691155902E+01  0.51100000000E-03 0.  1.
        -12    1    3    3    0    0 -0.21207907352E+02  0.10795004594E+02  0.14471323367E+02  0.27851869927E+02  0.00000000000E+00 0.  1.
</event>
<event>
 7    1  0.2580704E-010  0.4778727E+02  0.7816164E-02  0.1312668E+00
        -11   -1    0    0    0    0  0.00000000000E+00  0.00000000000E+00  0.45593999997E+02  0.45594000000E+02  0.51100000000E-03 0.  1.
         11   -1    0    0    0    0 -0.00000000000E+00 -0.00000000000E+00 -0.45593999997E+02  0.45594000000E+02  0.51100000000E-03 0. -1.
    9900012    2    1    2    0    0 -0.88610447686E+01  0.42304106689E+02 -0.39328806604E+01  0.47787272962E+02  0.20000008741E+02 0.  0.
         12    1    1    2    0    0  0.88610447686E+01 -0.42304106689E+02  0.39328806604E+01  0.43400727038E+02  0.00000000000E+00 0. -1.
         11    1    3    3    0    0 -0.13619293624E+01  0.61611870484E+01  0.65344968725E+01  0.90837617247E+01  0.51100000000E-03 0. -1.
        -11    1    3    3    0    0 -0.28910534840E+00  0.10748813211E+02 -0.16901027885E+01  0.10884714744E+02  0.51100000000E-03 0.  1.
         12    1    3    3    0    0 -0.72100100578E+01  0.25394106430E+02 -0.87772747443E+01  0.27818796493E+02  0.00000000000E+00 0. -1.
</event>
<event>
 7    1  0.2580704E-010  0.4778727E+02  0.7816164E-02  0.1312668E+00
        -11   -1    0    0    0    0  0.00000000000E+00  0.00000000000E+00  0.45593999997E+02  0.45594000000E+02  0.51100000000E-03 0. -1.
         11   -1    0    0    0    0 -0.00000000000E+00 -0.00000000000E+00 -0.45593999997E+02  0.45594000000E+02  0.51100000000E-03 0.  1.
    9900012    2    1    2    0    0 -0.32889073168E+02  0.13015721516E+02 -0.25150014634E+02  0.47787269862E+02  0.19999994607E+02 0.  0.
         12    1    1    2    0    0  0.32889073168E+02 -0.13015721516E+02  0.25150014634E+02  0.43400730138E+02  0.00000000000E+00 0. -1.
         11    1    3    3    0    0 -0.91546701148E+01  0.63208725117E+00  0.88746708425E+00  0.92192796514E+01  0.51100000000E-03 0. -1.
        -11    1    3    3    0    0 -0.12796646866E+01  0.44367693027E+01 -0.37708969077E+01  0.59617218407E+01  0.51100000000E-03 0.  1.
        -12    1    3    3    0    0 -0.22454738367E+02  0.79468649625E+01 -0.22266584811E+02  0.32606268370E+02  0.00000000000E+00 0.  1.
</event>
<event>
 7    1  0.2580704E-010  0.4778728E+02  0.7816164E-02  0.1312668E+00
        -11   -1    0    0    0    0  0.00000000000E+00  0.00000000000E+00  0.45593999997E+02  0.45594000000E+02  0.51100000000E-03 0. -1.
         11   -1    0    0    0    0 -0.00000000000E+00 -0.00000000000E+00 -0.45593999997E+02  0.45594000000E+02  0.51100000000E-03 0.  1.
    9900012    2    1    2    0    0  0.22025524053E+02 -0.28646379025E+02 -0.24039205151E+02  0.47787284276E+02  0.20000060329E+02 0.  0.
         12    1    1    2    0    0 -0.22025524053E+02  0.28646379025E+02  0.24039205151E+02  0.43400715724E+02  0.00000000000E+00 0. -1.
         11    1    3    3    0    0  0.16445648354E+01 -0.37990479791E+00 -0.63213111493E+00  0.18023626607E+01  0.51100000000E-03 0. -1.
        -11    1    3    3    0    0  0.20967530446E+02 -0.14863110773E+02 -0.11954693811E+02  0.28345442301E+02  0.51100000000E-03 0.  1.
        -12    1    3    3    0    0 -0.58657122833E+00 -0.13403363454E+02 -0.11452380225E+02  0.17639479315E+02  0.00000000000E+00 0.  1.
</event>
<event>
 7    1  0.2580704E-010  0.4778727E+02  0.7816164E-02  0.1312668E+00
        -11   -1    0    0    0    0  0.00000000000E+00  0.00000000000E+00  0.45593999997E+02  0.45594000000E+02  0.51100000000E-03 0. -1.
         11   -1    0    0    0    0 -0.00000000000E+00 -0.00000000000E+00 -0.45593999997E+02  0.45594000000E+02  0.51100000000E-03 0.  1.
    9900012    2    1    2    0    0 -0.36246594461E+02  0.69266661617E+00 -0.23860586150E+02  0.47787274563E+02  0.20000016043E+02 0.  0.
         12    1    1    2    0    0  0.36246594461E+02 -0.69266661617E+00  0.23860586150E+02  0.43400725437E+02  0.00000000000E+00 0. -1.
         11    1    3    3    0    0 -0.96889836016E+00 -0.25624317890E+01 -0.18632783571E+01  0.33130993349E+01  0.51100000000E-03 0. -1.
        -11    1    3    3    0    0 -0.12190045408E+02  0.83440645942E+01 -0.10893938174E+02  0.18354795292E+02  0.51100000000E-03 0.  1.
        -12    1    3    3    0    0 -0.23087650693E+02 -0.50889661890E+01 -0.11103369619E+02  0.26119379937E+02  0.00000000000E+00 0.  1.
</event>
<event>
 7    1  0.2580704E-010  0.4778727E+02  0.7816164E-02  0.1312668E+00
        -11   -1    0    0    0    0  0.00000000000E+00  0.00000000000E+00  0.45593999997E+02  0.45594000000E+02  0.51100000000E-03 0. -1.
         11   -1    0    0    0    0 -0.00000000000E+00 -0.00000000000E+00 -0.45593999997E+02  0.45594000000E+02  0.51100000000E-03 0.  1.
    9900012    2    1    2    0    0  0.54275502670E+01  0.26103209633E+02 -0.34245982342E+02  0.47787272337E+02  0.20000005896E+02 0.  0.
         12    1    1    2    0    0 -0.54275502670E+01 -0.26103209633E+02  0.34245982342E+02  0.43400727663E+02  0.00000000000E+00 0. -1.
         11    1    3    3    0    0  0.61034316258E+00  0.49826802498E+01 -0.27927176068E+01  0.57444663060E+01  0.51100000000E-03 0. -1.
        -11    1    3    3    0    0  0.47049133935E+01  0.20936797909E+02 -0.33609492172E+02  0.39875853358E+02  0.51100000000E-03 0.  1.
         12    1    3    3    0    0  0.11229371096E+00  0.18373147408E+00  0.21562274363E+01  0.21669526735E+01  0.00000000000E+00 0. -1.
</event>
<event>
 7    1  0.2580704E-010  0.4778727E+02  0.7816164E-02  0.1312668E+00
        -11   -1    0    0    0    0  0.00000000000E+00  0.00000000000E+00  0.45593999997E+02  0.45594000000E+02  0.51100000000E-03 0.  1.
         11   -1    0    0    0    0 -0.00000000000E+00 -0.00000000000E+00 -0.45593999997E+02  0.45594000000E+02  0.51100000000E-03 0. -1.
    9900012    2    1    2    0    0  0.34214322416E+02  0.30239153817E+01  0.26530353365E+02  0.47787267607E+02  0.19999984326E+02 0.  0.
         12    1    1    2    0    0 -0.34214322416E+02 -0.30239153817E+01 -0.26530353365E+02  0.43400732393E+02  0.00000000000E+00 0. -1.
         11    1    3    3    0    0  0.16118728214E+02  0.24996497296E+01  0.16267138266E+02  0.23036523949E+02  0.51100000000E-03 0. -1.
        -11    1    3    3    0    0  0.19338171502E+02  0.31718449388E+01  0.90202422129E+01  0.21572905396E+02  0.51100000000E-03 0.  1.
         12    1    3    3    0    0 -0.12425773008E+01 -0.26475792867E+01  0.12429728862E+01  0.31778382626E+01  0.00000000000E+00 0. -1.
</event>
<event>
 7    1  0.2580704E-010  0.4778727E+02  0.7816164E-02  0.1312668E+00
        -11   -1    0    0    0    0  0.00000000000E+00  0.00000000000E+00  0.45593999997E+02  0.45594000000E+02  0.51100000000E-03 0.  1.
         11   -1    0    0    0    0 -0.00000000000E+00 -0.00000000000E+00 -0.45593999997E+02  0.45594000000E+02  0.51100000000E-03 0. -1.
    9900012    2    1    2    0    0 -0.37731336722E+02  0.21345641181E+02 -0.20816339877E+01  0.47787269956E+02  0.19999995039E+02 0.  0.
         12    1    1    2    0    0  0.37731336722E+02 -0.21345641181E+02  0.20816339877E+01  0.43400730044E+02  0.00000000000E+00 0. -1.
         11    1    3    3    0    0 -0.14181818204E+02  0.14616170084E+02  0.45721398042E+01  0.20872490464E+02  0.51100000000E-03 0.  1.
        -11    1    3    3    0    0 -0.38664081234E+01  0.38893693166E+01  0.10573136443E+01  0.55851784090E+01  0.51100000000E-03 0. -1.
        -12    1    3    3    0    0 -0.19683110395E+02  0.28401017800E+01 -0.77110874362E+01  0.21329601083E+02  0.00000000000E+00 0.  1.
</event>
<event>
 7    1  0.2580704E-010  0.4778726E+02  0.7816164E-02  0.1312668E+00
        -11   -1    0    0    0    0  0.00000000000E+00  0.00000000000E+00  0.45593999997E+02  0.45594000000E+02  0.51100000000E-03 0.  1.
         11   -1    0    0    0    0 -0.00000000000E+00 -0.00000000000E+00 -0.45593999997E+02  0.45594000000E+02  0.51100000000E-03 0. -1.
    9900012    2    1    2    0    0  0.30968700842E+02  0.94734766328E+01  0.28893201024E+02  0.47787259721E+02  0.19999948372E+02 0.  0.
         12    1    1    2    0    0 -0.30968700842E+02 -0.94734766328E+01 -0.28893201024E+02  0.43400740279E+02  0.00000000000E+00 0. -1.
         11    1    3    3    0    0  0.98845203005E+01  0.37834142014E+00  0.17351077586E+02  0.19972650737E+02  0.51100000000E-03 0. -1.
        -11    1    3    3    0    0  0.81898446220E+01 -0.15546728009E+01  0.20484019472E+01  0.85840848813E+01  0.51100000000E-03 0.  1.
        -12    1    3    3    0    0  0.12894335919E+02  0.10649808014E+02  0.94937214910E+01  0.19230524103E+02  0.00000000000E+00 0.  1.
</event>
<event>
 7    1  0.2580704E-010  0.4778727E+02  0.7816164E-02  0.1312668E+00
        -11   -1    0    0    0    0  0.00000000000E+00  0.00000000000E+00  0.45593999997E+02  0.45594000000E+02  0.51100000000E-03 0.  1.
         11   -1    0    0    0    0 -0.00000000000E+00 -0.00000000000E+00 -0.45593999997E+02  0.45594000000E+02  0.51100000000E-03 0. -1.
    9900012    2    1    2    0    0 -0.41060220863E+02  0.13583409969E+02 -0.36294390852E+01  0.47787267382E+02  0.19999983304E+02 0.  0.
         12    1    1    2    0    0  0.41060220863E+02 -0.13583409969E+02  0.36294390852E+01  0.43400732618E+02  0.00000000000E+00 0. -1.
         11    1    3    3    0    0 -0.23950403886E+01 -0.50572952299E+00  0.28049866173E+01  0.37228928265E+01  0.51100000000E-03 0. -1.
        -11    1    3    3    0    0 -0.68144865807E+01  0.31141489973E+01  0.43848495697E+01  0.86811322617E+01  0.51100000000E-03 0.  1.
        -12    1    3    3    0    0 -0.31850693893E+02  0.10974990495E+02 -0.10819275272E+02  0.35383242294E+02  0.00000000000E+00 0.  1.
</event>
<event>
 7    1  0.2580704E-010  0.4778727E+02  0.7816164E-02  0.1312668E+00
        -11   -1    0    0    0    0  0.00000000000E+00  0.00000000000E+00  0.45593999997E+02  0.45594000000E+02  0.51100000000E-03 0. -1.
         11   -1    0    0    0    0 -0.00000000000E+00 -0.00000000000E+00 -0.45593999997E+02  0.45594000000E+02  0.51100000000E-03 0.  1.
    9900012    2    1    2    0    0 -0.41360390792E+02 -0.13124581590E+02 -0.82866501662E+00  0.47787271272E+02  0.20000001038E+02 0.  0.
         12    1    1    2    0    0  0.41360390792E+02  0.13124581590E+02  0.82866501662E+00  0.43400728728E+02  0.00000000000E+00 0. -1.
         11    1    3    3    0    0 -0.13523918029E+02  0.11316758765E+01 -0.87211297409E+00  0.13599177565E+02  0.51100000000E-03 0. -1.
        -11    1    3    3    0    0 -0.26807919475E+02 -0.11333197887E+02  0.37625017501E+01  0.29347271433E+02  0.51100000000E-03 0.  1.
        -12    1    3    3    0    0 -0.10285532889E+01 -0.29230595800E+01 -0.37190537926E+01  0.48408222740E+01  0.00000000000E+00 0.  1.
</event>
<event>
 7    1  0.2580704E-010  0.4778727E+02  0.7816164E-02  0.1312668E+00
        -11   -1    0    0    0    0  0.00000000000E+00  0.00000000000E+00  0.45593999997E+02  0.45594000000E+02  0.51100000000E-03 0.  1.
         11   -1    0    0    0    0 -0.00000000000E+00 -0.00000000000E+00 -0.45593999997E+02  0.45594000000E+02  0.51100000000E-03 0. -1.
    9900012    2    1    2    0    0 -0.33155968097E+02  0.23730132133E+02  0.14872315978E+02  0.47787272194E+02  0.20000005243E+02 0.  0.
         12    1    1    2    0    0  0.33155968097E+02 -0.23730132133E+02 -0.14872315978E+02  0.43400727806E+02  0.00000000000E+00 0. -1.
         11    1    3    3    0    0 -0.15853408709E+02  0.14719797812E+02  0.44230861860E+00  0.21637898524E+02  0.51100000000E-03 0. -1.
        -11    1    3    3    0    0 -0.25134074670E+01  0.62722862887E+01  0.48389714567E+01  0.83111032602E+01  0.51100000000E-03 0.  1.
         12    1    3    3    0    0 -0.14789151921E+02  0.27380480321E+01  0.95910359026E+01  0.17838270411E+02  0.00000000000E+00 0. -1.
</event>
<event>
 7    1  0.2580704E-010  0.4778727E+02  0.7816164E-02  0.1312668E+00
        -11   -1    0    0    0    0  0.00000000000E+00  0.00000000000E+00  0.45593999997E+02  0.45594000000E+02  0.51100000000E-03 0.  1.
         11   -1    0    0    0    0 -0.00000000000E+00 -0.00000000000E+00 -0.45593999997E+02  0.45594000000E+02  0.51100000000E-03 0. -1.
    9900012    2    1    2    0    0 -0.73028056242E+01 -0.33804599716E+01  0.42648150872E+02  0.47787271291E+02  0.20000001126E+02 0.  0.
         12    1    1    2    0    0  0.73028056242E+01  0.33804599716E+01 -0.42648150872E+02  0.43400728709E+02  0.00000000000E+00 0. -1.
         11    1    3    3    0    0 -0.44794364330E+01  0.53494492671E+01  0.13512348997E+02  0.15207417068E+02  0.51100000000E-03 0. -1.
        -11    1    3    3    0    0 -0.44631964934E+01 -0.39808863235E+01  0.25951193584E+02  0.26631410544E+02  0.51100000000E-03 0.  1.
        -12    1    3    3    0    0  0.16398273023E+01 -0.47490229153E+01  0.31846082910E+01  0.59484436786E+01  0.00000000000E+00 0.  1.
</event>
<event>
 7    1  0.2580704E-010  0.4778727E+02  0.7816164E-02  0.1312668E+00
        -11   -1    0    0    0    0  0.00000000000E+00  0.00000000000E+00  0.45593999997E+02  0.45594000000E+02  0.51100000000E-03 0.  1.
         11   -1    0    0    0    0 -0.00000000000E+00 -0.00000000000E+00 -0.45593999997E+02  0.45594000000E+02  0.51100000000E-03 0. -1.
    9900012    2    1    2    0    0 -0.37407185797E+02 -0.41739694192E+01  0.21607955041E+02  0.47787270847E+02  0.19999999099E+02 0.  0.
         12    1    1    2    0    0  0.37407185797E+02  0.41739694192E+01 -0.21607955041E+02  0.43400729153E+02  0.00000000000E+00 0. -1.
         11    1    3    3    0    0 -0.57779557476E+01  0.44914314269E+01  0.34908197583E+01  0.81082397430E+01  0.51100000000E-03 0. -1.
        -11    1    3    3    0    0 -0.10989008500E+02 -0.73891333731E+01  0.12593495097E+02  0.18274400642E+02  0.51100000000E-03 0.  1.
         12    1    3    3    0    0 -0.20640221550E+02 -0.12762674730E+01  0.55236401852E+01  0.21404630461E+02  0.00000000000E+00 0. -1.
</event>
<event>
 7    1  0.2580704E-010  0.4778727E+02  0.7816164E-02  0.1312668E+00
        -11   -1    0    0    0    0  0.00000000000E+00  0.00000000000E+00  0.45593999997E+02  0.45594000000E+02  0.51100000000E-03 0. -1.
         11   -1    0    0    0    0 -0.00000000000E+00 -0.00000000000E+00 -0.45593999997E+02  0.45594000000E+02  0.51100000000E-03 0.  1.
    9900012    2    1    2    0    0  0.41704725633E+02  0.87189564146E+01 -0.82655253627E+01  0.47787271312E+02  0.20000001222E+02 0.  0.
         12    1    1    2    0    0 -0.41704725633E+02 -0.87189564146E+01  0.82655253627E+01  0.43400728688E+02  0.00000000000E+00 0. -1.
         11    1    3    3    0    0  0.71003351896E+01  0.12554064935E+01 -0.67852688699E+01  0.99010443473E+01  0.51100000000E-03 0. -1.
        -11    1    3    3    0    0  0.86440670012E+01  0.79322916165E+01  0.11525340669E+01  0.11788531700E+02  0.51100000000E-03 0.  1.
         12    1    3    3    0    0  0.25960323442E+02 -0.46874169550E+00 -0.26327905597E+01  0.26097695265E+02  0.00000000000E+00 0. -1.
</event>
<event>
 7    1  0.2580704E-010  0.4778727E+02  0.7816164E-02  0.1312668E+00
        -11   -1    0    0    0    0  0.00000000000E+00  0.00000000000E+00  0.45593999997E+02  0.45594000000E+02  0.51100000000E-03 0. -1.
         11   -1    0    0    0    0 -0.00000000000E+00 -0.00000000000E+00 -0.45593999997E+02  0.45594000000E+02  0.51100000000E-03 0.  1.
    9900012    2    1    2    0    0  0.28387596309E+02 -0.29153082384E+02 -0.15095207091E+02  0.47787272888E+02  0.20000008407E+02 0.  0.
         12    1    1    2    0    0 -0.28387596309E+02  0.29153082384E+02  0.15095207091E+02  0.43400727112E+02  0.00000000000E+00 0. -1.
         11    1    3    3    0    0  0.73665407309E+01 -0.27979397372E+01  0.12251292882E+01  0.79746680900E+01  0.51100000000E-03 0. -1.
        -11    1    3    3    0    0  0.18416904539E+02 -0.12770263981E+02 -0.88808752131E+01  0.24106678737E+02  0.51100000000E-03 0.  1.
         12    1    3    3    0    0  0.26041510399E+01 -0.13584878665E+02 -0.74394611659E+01  0.15705926061E+02  0.00000000000E+00 0. -1.
</event>
<event>
 7    1  0.2580704E-010  0.4778727E+02  0.7816164E-02  0.1312668E+00
        -11   -1    0    0    0    0  0.00000000000E+00  0.00000000000E+00  0.45593999997E+02  0.45594000000E+02  0.51100000000E-03 0.  1.
         11   -1    0    0    0    0 -0.00000000000E+00 -0.00000000000E+00 -0.45593999997E+02  0.45594000000E+02  0.51100000000E-03 0. -1.
    9900012    2    1    2    0    0 -0.25716504893E+02 -0.25196714356E+02  0.24236544790E+02  0.47787272568E+02  0.20000006947E+02 0.  0.
         12    1    1    2    0    0  0.25716504893E+02  0.25196714356E+02 -0.24236544790E+02  0.43400727432E+02  0.00000000000E+00 0. -1.
         11    1    3    3    0    0 -0.13812194530E+02 -0.15656907275E+02  0.13031974884E+02  0.24611944921E+02  0.51100000000E-03 0. -1.
        -11    1    3    3    0    0 -0.55945098442E+01 -0.11004852644E+02  0.11242924274E+02  0.16697564750E+02  0.51100000000E-03 0.  1.
         12    1    3    3    0    0 -0.63098005190E+01  0.14650455625E+01 -0.38354367914E-01  0.64777628968E+01  0.00000000000E+00 0. -1.
</event>
<event>
 7    1  0.2580704E-010  0.4778727E+02  0.7816164E-02  0.1312668E+00
        -11   -1    0    0    0    0  0.00000000000E+00  0.00000000000E+00  0.45593999997E+02  0.45594000000E+02  0.51100000000E-03 0.  1.
         11   -1    0    0    0    0 -0.00000000000E+00 -0.00000000000E+00 -0.45593999997E+02  0.45594000000E+02  0.51100000000E-03 0. -1.
    9900012    2    1    2    0    0 -0.24613310256E+02 -0.29086996193E+02  0.20778714279E+02  0.47787270094E+02  0.19999995666E+02 0.  0.
         12    1    1    2    0    0  0.24613310256E+02  0.29086996193E+02 -0.20778714279E+02  0.43400729906E+02  0.00000000000E+00 0. -1.
         11    1    3    3    0    0 -0.18619817104E+01 -0.12294811841E+01 -0.26135744411E+01  0.34364766101E+01  0.51100000000E-03 0. -1.
        -11    1    3    3    0    0 -0.11420020883E+02 -0.14151276436E+02  0.52069823954E+01  0.18915289257E+02  0.51100000000E-03 0.  1.
        -12    1    3    3    0    0 -0.11331307663E+02 -0.13706238573E+02  0.18185306325E+02  0.25435504227E+02  0.00000000000E+00 0.  1.
</event>
<event>
 7    1  0.2580704E-010  0.4778727E+02  0.7816164E-02  0.1312668E+00
        -11   -1    0    0    0    0  0.00000000000E+00  0.00000000000E+00  0.45593999997E+02  0.45594000000E+02  0.51100000000E-03 0.  1.
         11   -1    0    0    0    0 -0.00000000000E+00 -0.00000000000E+00 -0.45593999997E+02  0.45594000000E+02  0.51100000000E-03 0. -1.
    9900012    2    1    2    0    0 -0.37207439106E+01 -0.30547534968E+02  0.30604369324E+02  0.47787271324E+02  0.20000001276E+02 0.  0.
         12    1    1    2    0    0  0.37207439106E+01  0.30547534968E+02 -0.30604369324E+02  0.43400728676E+02  0.00000000000E+00 0. -1.
         11    1    3    3    0    0  0.60756295541E+01 -0.10185679336E+02  0.13679600892E+02  0.18105049540E+02  0.51100000000E-03 0. -1.
        -11    1    3    3    0    0  0.12114327944E+01 -0.51457239881E+01  0.18524204965E+01  0.56015628831E+01  0.51100000000E-03 0.  1.
        -12    1    3    3    0    0 -0.11007806259E+02 -0.15216131644E+02  0.15072347935E+02  0.24080658902E+02  0.00000000000E+00 0.  1.
</event>
<event>
 7    1  0.2580704E-010  0.4778727E+02  0.7816164E-02  0.1312668E+00
        -11   -1    0    0    0    0  0.00000000000E+00  0.00000000000E+00  0.45593999997E+02  0.45594000000E+02  0.51100000000E-03 0.  1.
         11   -1    0    0    0    0 -0.00000000000E+00 -0.00000000000E+00 -0.45593999997E+02  0.45594000000E+02  0.51100000000E-03 0. -1.
    9900012    2    1    2    0    0 -0.15357632457E+02  0.47217955640E+01  0.40317128404E+02  0.47787273384E+02  0.20000010667E+02 0.  0.
         12    1    1    2    0    0  0.15357632457E+02 -0.47217955640E+01 -0.40317128404E+02  0.43400726616E+02  0.00000000000E+00 0. -1.
         11    1    3    3    0    0 -0.53346111941E+00  0.29585572784E+01  0.19875784524E+01  0.36039020937E+01  0.51100000000E-03 0. -1.
        -11    1    3    3    0    0 -0.28044564533E+01  0.56074825750E+01  0.25217000613E+02  0.25984725456E+02  0.51100000000E-03 0.  1.
         12    1    3    3    0    0 -0.12019714884E+02 -0.38442442895E+01  0.13112549339E+02  0.18198645835E+02  0.00000000000E+00 0. -1.
</event>
<event>
 7    1  0.2580704E-010  0.4778727E+02  0.7816164E-02  0.1312668E+00
        -11   -1    0    0    0    0  0.00000000000E+00  0.00000000000E+00  0.45593999997E+02  0.45594000000E+02  0.51100000000E-03 0. -1.
         11   -1    0    0    0    0 -0.00000000000E+00 -0.00000000000E+00 -0.45593999997E+02  0.45594000000E+02  0.51100000000E-03 0.  1.
    9900012    2    1    2    0    0 -0.28739700354E+02 -0.44288709467E+01 -0.32218596644E+02  0.47787271388E+02  0.20000001568E+02 0.  0.
         12    1    1    2    0    0  0.28739700354E+02  0.44288709467E+01  0.32218596644E+02  0.43400728612E+02  0.00000000000E+00 0. -1.
         11    1    3    3    0    0 -0.66306097486E+00  0.97055099823E+00 -0.85381492094E+01  0.86186780471E+01  0.51100000000E-03 0. -1.
        -11    1    3    3    0    0 -0.51835124105E+01  0.37438251867E+01 -0.65217684819E+01  0.91333724511E+01  0.51100000000E-03 0.  1.
        -12    1    3    3    0    0 -0.22893126969E+02 -0.91432471316E+01 -0.17158678953E+02  0.30035220890E+02  0.00000000000E+00 0.  1.
</event>
<event>
 7    1  0.2580704E-010  0.4778727E+02  0.7816164E-02  0.1312668E+00
        -11   -1    0    0    0    0  0.00000000000E+00  0.00000000000E+00  0.45593999997E+02  0.45594000000E+02  0.51100000000E-03 0.  1.
         11   -1    0    0    0    0 -0.00000000000E+00 -0.00000000000E+00 -0.45593999997E+02  0.45594000000E+02  0.51100000000E-03 0. -1.
    9900012    2    1    2    0    0 -0.31422210521E+02  0.88089101421E+01  0.28612422744E+02  0.47787274808E+02  0.20000017159E+02 0.  0.
         12    1    1    2    0    0  0.31422210521E+02 -0.88089101421E+01 -0.28612422744E+02  0.43400725192E+02  0.00000000000E+00 0. -1.
         11    1    3    3    0    0 -0.90453607839E+01  0.49089733515E+01  0.18523037520E+01  0.10456940304E+02  0.51100000000E-03 0. -1.
        -11    1    3    3    0    0 -0.17411653351E+02  0.30098142170E+01  0.11074402513E+02  0.20853466026E+02  0.51100000000E-03 0.  1.
         12    1    3    3    0    0 -0.49651963862E+01  0.89012257370E+00  0.15685716479E+02  0.16476868477E+02  0.00000000000E+00 0. -1.
</event>
<event>
 7    1  0.2580704E-010  0.4778727E+02  0.7816164E-02  0.1312668E+00
        -11   -1    0    0    0    0  0.00000000000E+00  0.00000000000E+00  0.45593999997E+02  0.45594000000E+02  0.51100000000E-03 0.  1.
         11   -1    0    0    0    0 -0.00000000000E+00 -0.00000000000E+00 -0.45593999997E+02  0.45594000000E+02  0.51100000000E-03 0. -1.
    9900012    2    1    2    0    0  0.26353789637E+02 -0.27922412560E+02  0.20234615893E+02  0.47787273834E+02  0.20000012719E+02 0.  0.
         12    1    1    2    0    0 -0.26353789637E+02  0.27922412560E+02 -0.20234615893E+02  0.43400726166E+02  0.00000000000E+00 0. -1.
         11    1    3    3    0    0  0.13256480951E+02 -0.10744664730E+02  0.77323708641E+01  0.18734237823E+02  0.51100000000E-03 0. -1.
        -11    1    3    3    0    0  0.13004867321E+02 -0.96983144511E+01  0.13995264064E+02  0.21425482345E+02  0.51100000000E-03 0.  1.
        -12    1    3    3    0    0  0.92441364300E-01 -0.74794333794E+01 -0.14930190356E+01  0.76275536657E+01  0.00000000000E+00 0.  1.
</event>
<event>
 7    1  0.2580704E-010  0.4778725E+02  0.7816164E-02  0.1312668E+00
        -11   -1    0    0    0    0  0.00000000000E+00  0.00000000000E+00  0.45593999997E+02  0.45594000000E+02  0.51100000000E-03 0.  1.
         11   -1    0    0    0    0 -0.00000000000E+00 -0.00000000000E+00 -0.45593999997E+02  0.45594000000E+02  0.51100000000E-03 0. -1.
    9900012    2    1    2    0    0  0.22046747753E+02 -0.35518232951E+02  0.11662827650E+02  0.47787245315E+02  0.19999882688E+02 0.  0.
         12    1    1    2    0    0 -0.22046747753E+02  0.35518232951E+02 -0.11662827650E+02  0.43400754685E+02  0.00000000000E+00 0. -1.
         11    1    3    3    0    0  0.25968602976E+01 -0.17189287424E+02  0.47793470814E+01  0.18029349526E+02  0.51100000000E-03 0. -1.
        -11    1    3    3    0    0  0.15911153884E+01 -0.48895902085E+01 -0.22504967475E+01  0.56128848605E+01  0.51100000000E-03 0.  1.
        -12    1    3    3    0    0  0.17858772067E+02 -0.13439355319E+02  0.91339773165E+01  0.24145010929E+02  0.00000000000E+00 0.  1.
</event>
<event>
 7    1 -0.2580704E-010  0.4778723E+02  0.7816164E-02  0.1312668E+00
        -11   -1    0    0    0    0  0.00000000000E+00  0.00000000000E+00  0.45593999997E+02  0.45594000000E+02  0.51100000000E-03 0.  1.
         11   -1    0    0    0    0 -0.00000000000E+00 -0.00000000000E+00 -0.45593999997E+02  0.45594000000E+02  0.51100000000E-03 0. -1.
    9900012    2    1    2    0    0  0.23648147234E+02 -0.21247862221E+02  0.29545219865E+02  0.47787233493E+02  0.19999828786E+02 0.  0.
         12    1    1    2    0    0 -0.23648147234E+02  0.21247862221E+02 -0.29545219865E+02  0.43400766507E+02  0.00000000000E+00 0. -1.
         11    1    3    3    0    0  0.69177804204E+00 -0.22792884605E+01  0.18345992888E+00  0.23890103709E+01  0.51100000000E-03 0.  1.
        -11    1    3    3    0    0  0.66678378100E+01 -0.15661724801E+02  0.94786744228E+01  0.19483196706E+02  0.51100000000E-03 0. -1.
        -12    1    3    3    0    0  0.16288531382E+02 -0.33068489597E+01  0.19883085513E+02  0.25915026416E+02  0.00000000000E+00 0.  1.
</event>
<event>
 7    1  0.2580704E-010  0.4778727E+02  0.7816164E-02  0.1312668E+00
        -11   -1    0    0    0    0  0.00000000000E+00  0.00000000000E+00  0.45593999997E+02  0.45594000000E+02  0.51100000000E-03 0.  1.
         11   -1    0    0    0    0 -0.00000000000E+00 -0.00000000000E+00 -0.45593999997E+02  0.45594000000E+02  0.51100000000E-03 0. -1.
    9900012    2    1    2    0    0  0.23242033832E+02 -0.36019633263E+01  0.36475426826E+02  0.47787273755E+02  0.20000012359E+02 0.  0.
         12    1    1    2    0    0 -0.23242033832E+02  0.36019633263E+01 -0.36475426826E+02  0.43400726245E+02  0.00000000000E+00 0. -1.
         11    1    3    3    0    0  0.14862060608E+01 -0.38078416230E+01 -0.24074045683E+00  0.40946822233E+01  0.51100000000E-03 0. -1.
        -11    1    3    3    0    0  0.98840140273E+01 -0.49266259182E+00  0.84004707313E+01  0.12980922867E+02  0.51100000000E-03 0.  1.
        -12    1    3    3    0    0  0.11871813744E+02  0.69854088853E+00  0.28315696552E+02  0.30711668664E+02  0.00000000000E+00 0.  1.
</event>
<event>
 7    1  0.2580704E-010  0.4778727E+02  0.7816164E-02  0.1312668E+00
        -11   -1    0    0    0    0  0.00000000000E+00  0.00000000000E+00  0.45593999997E+02  0.45594000000E+02  0.51100000000E-03 0.  1.
         11   -1    0    0    0    0 -0.00000000000E+00 -0.00000000000E+00 -0.45593999997E+02  0.45594000000E+02  0.51100000000E-03 0. -1.
    9900012    2    1    2    0    0 -0.10690377053E+00 -0.13706037674E+02  0.41179564425E+02  0.47787269322E+02  0.19999992147E+02 0.  0.
         12    1    1    2    0    0  0.10690377053E+00  0.13706037674E+02 -0.41179564425E+02  0.43400730678E+02  0.00000000000E+00 0. -1.
         11    1    3    3    0    0 -0.81253578446E-01  0.21671281707E+01  0.13380346128E+01  0.25482118316E+01  0.51100000000E-03 0. -1.
        -11    1    3    3    0    0  0.40576715477E+01  0.63464527181E+00  0.11204442721E+02  0.11933440826E+02  0.51100000000E-03 0.  1.
        -12    1    3    3    0    0 -0.40833217397E+01 -0.16507811116E+02  0.28637087092E+02  0.33305616664E+02  0.00000000000E+00 0.  1.
</event>
<event>
 7    1  0.2580704E-010  0.4778728E+02  0.7816164E-02  0.1312668E+00
        -11   -1    0    0    0    0  0.00000000000E+00  0.00000000000E+00  0.45593999997E+02  0.45594000000E+02  0.51100000000E-03 0.  1.
         11   -1    0    0    0    0 -0.00000000000E+00 -0.00000000000E+00 -0.45593999997E+02  0.45594000000E+02  0.51100000000E-03 0. -1.
    9900012    2    1    2    0    0 -0.49182026823E+01 -0.31650953563E+02  0.29285676512E+02  0.47787280791E+02  0.20000044440E+02 0.  0.
         12    1    1    2    0    0  0.49182026823E+01  0.31650953563E+02 -0.29285676512E+02  0.43400719209E+02  0.00000000000E+00 0. -1.
         11    1    3    3    0    0  0.25893203662E+01 -0.17569106030E+02  0.19587797152E+02  0.26439740244E+02  0.51100000000E-03 0. -1.
        -11    1    3    3    0    0 -0.19435451863E+01 -0.34794508508E+00  0.56520363030E+01  0.59869815688E+01  0.51100000000E-03 0.  1.
         12    1    3    3    0    0 -0.55639778622E+01 -0.13733902447E+02  0.40458430574E+01  0.15360558978E+02  0.00000000000E+00 0. -1.
</event>
<event>
 7    1  0.2580704E-010  0.4778726E+02  0.7816164E-02  0.1312668E+00
        -11   -1    0    0    0    0  0.00000000000E+00  0.00000000000E+00  0.45593999997E+02  0.45594000000E+02  0.51100000000E-03 0.  1.
         11   -1    0    0    0    0 -0.00000000000E+00 -0.00000000000E+00 -0.45593999997E+02  0.45594000000E+02  0.51100000000E-03 0. -1.
    9900012    2    1    2    0    0  0.83548297849E+01  0.20028846366E+02  0.37585449567E+02  0.47787263985E+02  0.19999967815E+02 0.  0.
         12    1    1    2    0    0 -0.83548297849E+01 -0.20028846366E+02 -0.37585449567E+02  0.43400736015E+02  0.00000000000E+00 0. -1.
         11    1    3    3    0    0  0.17958739189E+01  0.55379542526E+01  0.16538116146E+02  0.17532922927E+02  0.51100000000E-03 0. -1.
        -11    1    3    3    0    0  0.20388488079E+01  0.13323661826E+02  0.21695106047E+02  0.25541231285E+02  0.51100000000E-03 0.  1.
         12    1    3    3    0    0  0.45201070581E+01  0.11672302867E+01 -0.64777262602E+00  0.47131097732E+01  0.00000000000E+00 0. -1.
</event>
<event>
 7    1  0.2580704E-010  0.4778727E+02  0.7816164E-02  0.1312668E+00
        -11   -1    0    0    0    0  0.00000000000E+00  0.00000000000E+00  0.45593999997E+02  0.45594000000E+02  0.51100000000E-03 0.  1.
         11   -1    0    0    0    0 -0.00000000000E+00 -0.00000000000E+00 -0.45593999997E+02  0.45594000000E+02  0.51100000000E-03 0. -1.
    9900012    2    1    2    0    0  0.41196796836E+02 -0.13463294494E+02 -0.22774490018E+01  0.47787272562E+02  0.20000006919E+02 0.  0.
         12    1    1    2    0    0 -0.41196796836E+02  0.13463294494E+02  0.22774490018E+01  0.43400727438E+02  0.00000000000E+00 0. -1.
         11    1    3    3    0    0  0.10087258422E+02 -0.22167925708E+01  0.77204418680E+01  0.12894656827E+02  0.51100000000E-03 0. -1.
        -11    1    3    3    0    0  0.51270005817E+01 -0.33209892873E+01 -0.55521800369E+00  0.61337893755E+01  0.51100000000E-03 0.  1.
        -12    1    3    3    0    0  0.25982537832E+02 -0.79255126359E+01 -0.94426728660E+01  0.28758826360E+02  0.00000000000E+00 0.  1.
</event>
<event>
 7    1  0.2580704E-010  0.4778727E+02  0.7816164E-02  0.1312668E+00
        -11   -1    0    0    0    0  0.00000000000E+00  0.00000000000E+00  0.45593999997E+02  0.45594000000E+02  0.51100000000E-03 0. -1.
         11   -1    0    0    0    0 -0.00000000000E+00 -0.00000000000E+00 -0.45593999997E+02  0.45594000000E+02  0.51100000000E-03 0.  1.
    9900012    2    1    2    0    0 -0.12994921313E+02  0.16203319273E+02 -0.38107840520E+02  0.47787273687E+02  0.20000012050E+02 0.  0.
         12    1    1    2    0    0  0.12994921313E+02 -0.16203319273E+02  0.38107840520E+02  0.43400726313E+02  0.00000000000E+00 0. -1.
         11    1    3    3    0    0 -0.32304058971E+01  0.40510714130E+01 -0.44646058822E+01  0.68395473387E+01  0.51100000000E-03 0. -1.
        -11    1    3    3    0    0  0.10964671109E+01 -0.35613120199E+00  0.16193887733E+01  0.19878354606E+01  0.51100000000E-03 0.  1.
        -12    1    3    3    0    0 -0.10860982527E+02  0.12508379062E+02 -0.35262623411E+02  0.38959890888E+02  0.00000000000E+00 0.  1.
</event>
<event>
 7    1  0.2580704E-010  0.4778728E+02  0.7816164E-02  0.1312668E+00
        -11   -1    0    0    0    0  0.00000000000E+00  0.00000000000E+00  0.45593999997E+02  0.45594000000E+02  0.51100000000E-03 0.  1.
         11   -1    0    0    0    0 -0.00000000000E+00 -0.00000000000E+00 -0.45593999997E+02  0.45594000000E+02  0.51100000000E-03 0. -1.
    9900012    2    1    2    0    0  0.25722793027E+02  0.65579988668E+01  0.34335888394E+02  0.47787278093E+02  0.20000032135E+02 0.  0.
         12    1    1    2    0    0 -0.25722793027E+02 -0.65579988668E+01 -0.34335888394E+02  0.43400721907E+02  0.00000000000E+00 0. -1.
         11    1    3    3    0    0  0.20586149599E+01  0.72642028263E+01  0.16007581058E+02  0.17698847133E+02  0.51100000000E-03 0. -1.
        -11    1    3    3    0    0  0.55803068583E+01  0.98233486154E+00  0.50472573708E+01  0.75881231962E+01  0.51100000000E-03 0.  1.
         12    1    3    3    0    0  0.18083871209E+02 -0.16885388211E+01  0.13281049965E+02  0.22500307763E+02  0.00000000000E+00 0. -1.
</event>
<event>
 7    1  0.2676536E-010  0.4778728E+02  0.7816164E-02  0.1312668E+00
        -11   -1    0    0    0    0  0.00000000000E+00  0.00000000000E+00  0.45593999997E+02  0.45594000000E+02  0.51100000000E-03 0. -1.
         11   -1    0    0    0    0 -0.00000000000E+00 -0.00000000000E+00 -0.45593999997E+02  0.45594000000E+02  0.51100000000E-03 0.  1.
    9900012    2    1    2    0    0  0.77318433437E+00  0.20666620920E+02 -0.38156464566E+02  0.47787276245E+02  0.20000023714E+02 0.  0.
         12    1    1    2    0    0 -0.77318433437E+00 -0.20666620920E+02  0.38156464566E+02  0.43400723755E+02  0.00000000000E+00 0. -1.
         11    1    3    3    0    0 -0.30597796275E+01  0.78453738622E+00  0.39148960965E+00  0.31829254869E+01  0.51100000000E-03 0. -1.
        -11    1    3    3    0    0  0.28559514261E+01  0.49882242345E+01 -0.40957619006E+01  0.70579108361E+01  0.51100000000E-03 0.  1.
        -12    1    3    3    0    0  0.97701253580E+00  0.14893859300E+02 -0.34452192275E+02  0.37546439922E+02  0.00000000000E+00 0.  1.
</event>
<event>
 7    1  0.2580704E-010  0.4778727E+02  0.7816164E-02  0.1312668E+00
        -11   -1    0    0    0    0  0.00000000000E+00  0.00000000000E+00  0.45593999997E+02  0.45594000000E+02  0.51100000000E-03 0.  1.
         11   -1    0    0    0    0 -0.00000000000E+00 -0.00000000000E+00 -0.45593999997E+02  0.45594000000E+02  0.51100000000E-03 0. -1.
    9900012    2    1    2    0    0 -0.21657363026E+02 -0.16032821008E+02  0.34022500743E+02  0.47787270980E+02  0.19999999705E+02 0.  0.
         12    1    1    2    0    0  0.21657363026E+02  0.16032821008E+02 -0.34022500743E+02  0.43400729020E+02  0.00000000000E+00 0. -1.
         11    1    3    3    0    0 -0.45448396908E+01 -0.73476813673E+01  0.68617091436E+01  0.11032997867E+02  0.51100000000E-03 0. -1.
        -11    1    3    3    0    0 -0.17942217666E+02 -0.23772998798E+01  0.17423497323E+02  0.25122758381E+02  0.51100000000E-03 0.  1.
        -12    1    3    3    0    0  0.82969433067E+00 -0.63078397606E+01  0.97372942765E+01  0.11631514732E+02  0.00000000000E+00 0.  1.
</event>
<event>
 7    1  0.2580704E-010  0.4778727E+02  0.7816164E-02  0.1312668E+00
        -11   -1    0    0    0    0  0.00000000000E+00  0.00000000000E+00  0.45593999997E+02  0.45594000000E+02  0.51100000000E-03 0.  1.
         11   -1    0    0    0    0 -0.00000000000E+00 -0.00000000000E+00 -0.45593999997E+02  0.45594000000E+02  0.51100000000E-03 0. -1.
    9900012    2    1    2    0    0 -0.34982768740E+02 -0.11536852264E+02  0.22950607800E+02  0.47787268816E+02  0.19999989840E+02 0.  0.
         12    1    1    2    0    0  0.34982768740E+02  0.11536852264E+02 -0.22950607800E+02  0.43400731184E+02  0.00000000000E+00 0. -1.
         11    1    3    3    0    0 -0.73483561667E+01  0.20068930328E+01  0.76983636855E+01  0.10830085950E+02  0.51100000000E-03 0. -1.
        -11    1    3    3    0    0 -0.23059265976E+02 -0.52389783775E+01  0.78088050820E+01  0.24902892981E+02  0.51100000000E-03 0.  1.
         12    1    3    3    0    0 -0.45751465980E+01 -0.83047669196E+01  0.74434390327E+01  0.12054289884E+02  0.00000000000E+00 0. -1.
</event>
<event>
 7    1  0.2580704E-010  0.4778727E+02  0.7816164E-02  0.1312668E+00
        -11   -1    0    0    0    0  0.00000000000E+00  0.00000000000E+00  0.45593999997E+02  0.45594000000E+02  0.51100000000E-03 0.  1.
         11   -1    0    0    0    0 -0.00000000000E+00 -0.00000000000E+00 -0.45593999997E+02  0.45594000000E+02  0.51100000000E-03 0. -1.
    9900012    2    1    2    0    0  0.23448158266E+02  0.35839230671E+02  0.70254371733E+01  0.47787270184E+02  0.19999996075E+02 0.  0.
         12    1    1    2    0    0 -0.23448158266E+02 -0.35839230671E+02 -0.70254371733E+01  0.43400729816E+02  0.00000000000E+00 0. -1.
         11    1    3    3    0    0  0.23624279559E+01  0.11195931127E+02  0.31211917557E+01  0.11860513391E+02  0.51100000000E-03 0. -1.
        -11    1    3    3    0    0 -0.48103565469E+00  0.91411935490E+01  0.10124595039E+01  0.92096628228E+01  0.51100000000E-03 0.  1.
         12    1    3    3    0    0  0.21566765964E+02  0.15502105994E+02  0.28917859137E+01  0.26717093970E+02  0.00000000000E+00 0. -1.
</event>
<event>
 7    1  0.2580704E-010  0.4778727E+02  0.7816164E-02  0.1312668E+00
        -11   -1    0    0    0    0  0.00000000000E+00  0.00000000000E+00  0.45593999997E+02  0.45594000000E+02  0.51100000000E-03 0.  1.
         11   -1    0    0    0    0 -0.00000000000E+00 -0.00000000000E+00 -0.45593999997E+02  0.45594000000E+02  0.51100000000E-03 0. -1.
    9900012    2    1    2    0    0 -0.37609806507E+02  0.51497600206E+01  0.21038196395E+02  0.47787270959E+02  0.19999999609E+02 0.  0.
         12    1    1    2    0    0  0.37609806507E+02 -0.51497600206E+01 -0.21038196395E+02  0.43400729041E+02  0.00000000000E+00 0. -1.
         11    1    3    3    0    0 -0.11336541887E+02  0.51257313102E+00  0.22022280327E+00  0.11350260417E+02  0.51100000000E-03 0. -1.
        -11    1    3    3    0    0 -0.26729408042E+02  0.21438310119E+01  0.16665615462E+02  0.31572139691E+02  0.51100000000E-03 0.  1.
        -12    1    3    3    0    0  0.45614342263E+00  0.24933558776E+01  0.41523581303E+01  0.48648708510E+01  0.00000000000E+00 0.  1.
</event>
<event>
 7    1  0.2580704E-010  0.4778727E+02  0.7816164E-02  0.1312668E+00
        -11   -1    0    0    0    0  0.00000000000E+00  0.00000000000E+00  0.45593999997E+02  0.45594000000E+02  0.51100000000E-03 0. -1.
         11   -1    0    0    0    0 -0.00000000000E+00 -0.00000000000E+00 -0.45593999997E+02  0.45594000000E+02  0.51100000000E-03 0.  1.
    9900012    2    1    2    0    0 -0.20567976117E+02 -0.97760359539E+01 -0.36946056632E+02  0.47787267043E+02  0.19999981758E+02 0.  0.
         12    1    1    2    0    0  0.20567976117E+02  0.97760359539E+01  0.36946056632E+02  0.43400732957E+02  0.00000000000E+00 0. -1.
         11    1    3    3    0    0 -0.22257223766E+01  0.25329669501E+01 -0.75397365242E+01  0.82593818645E+01  0.51100000000E-03 0. -1.
        -11    1    3    3    0    0 -0.82677974358E+00  0.19367290731E+01  0.39243787227E+00  0.21420765607E+01  0.51100000000E-03 0.  1.
        -12    1    3    3    0    0 -0.17515473996E+02 -0.14245731977E+02 -0.29798757980E+02  0.37385808618E+02  0.00000000000E+00 0.  1.
</event>
<event>
 7    1  0.2580704E-010  0.4778727E+02  0.7816164E-02  0.1312668E+00
        -11   -1    0    0    0    0  0.00000000000E+00  0.00000000000E+00  0.45593999997E+02  0.45594000000E+02  0.51100000000E-03 0.  1.
         11   -1    0    0    0    0 -0.00000000000E+00 -0.00000000000E+00 -0.45593999997E+02  0.45594000000E+02  0.51100000000E-03 0. -1.
    9900012    2    1    2    0    0  0.30265785696E+02 -0.28380940413E+02  0.12732940500E+02  0.47787270325E+02  0.19999996721E+02 0.  0.
         12    1    1    2    0    0 -0.30265785696E+02  0.28380940413E+02 -0.12732940500E+02  0.43400729675E+02  0.00000000000E+00 0. -1.
         11    1    3    3    0    0  0.35782535572E+01 -0.11078265593E+02  0.44858654188E+00  0.11650454807E+02  0.51100000000E-03 0.  1.
        -11    1    3    3    0    0  0.79022229617E+01 -0.10828489866E+02  0.13917044948E+01  0.13477320289E+02  0.51100000000E-03 0. -1.
        -12    1    3    3    0    0  0.18785309177E+02 -0.64741849541E+01  0.10892649463E+02  0.22659495229E+02  0.00000000000E+00 0.  1.
</event>
<event>
 7    1  0.2580704E-010  0.4778727E+02  0.7816164E-02  0.1312668E+00
        -11   -1    0    0    0    0  0.00000000000E+00  0.00000000000E+00  0.45593999997E+02  0.45594000000E+02  0.51100000000E-03 0.  1.
         11   -1    0    0    0    0 -0.00000000000E+00 -0.00000000000E+00 -0.45593999997E+02  0.45594000000E+02  0.51100000000E-03 0. -1.
    9900012    2    1    2    0    0 -0.10502772000E+02 -0.35539799093E+02  0.22588440957E+02  0.47787271848E+02  0.20000003663E+02 0.  0.
         12    1    1    2    0    0  0.10502772000E+02  0.35539799093E+02 -0.22588440957E+02  0.43400728152E+02  0.00000000000E+00 0. -1.
         11    1    3    3    0    0 -0.34383607510E+01 -0.12778132735E+02  0.15047426388E+02  0.20038164636E+02  0.51100000000E-03 0. -1.
        -11    1    3    3    0    0 -0.42197096834E+01 -0.15030567473E+02  0.10699772292E+02  0.18926411064E+02  0.51100000000E-03 0.  1.
         12    1    3    3    0    0 -0.28447015656E+01 -0.77310988848E+01 -0.31587577227E+01  0.88226961477E+01  0.00000000000E+00 0. -1.
</event>
<event>
 7    1  0.2580704E-010  0.4778727E+02  0.7816164E-02  0.1312668E+00
        -11   -1    0    0    0    0  0.00000000000E+00  0.00000000000E+00  0.45593999997E+02  0.45594000000E+02  0.51100000000E-03 0.  1.
         11   -1    0    0    0    0 -0.00000000000E+00 -0.00000000000E+00 -0.45593999997E+02  0.45594000000E+02  0.51100000000E-03 0. -1.
    9900012    2    1    2    0    0  0.30964025188E+02 -0.30409801723E+02 -0.31060196905E+00  0.47787269934E+02  0.19999994938E+02 0.  0.
         12    1    1    2    0    0 -0.30964025188E+02  0.30409801723E+02  0.31060196905E+00  0.43400730066E+02  0.00000000000E+00 0. -1.
         11    1    3    3    0    0 -0.11867641341E+01 -0.56410203074E+01 -0.86162813889E+00  0.58285437743E+01  0.51100000000E-03 0. -1.
        -11    1    3    3    0    0  0.10079768321E+02 -0.10100462733E+02 -0.45379551330E+01  0.14973780881E+02  0.51100000000E-03 0.  1.
         12    1    3    3    0    0  0.22071021001E+02 -0.14668318683E+02  0.50889813029E+01  0.26984945279E+02  0.00000000000E+00 0. -1.
</event>
<event>
 7    1  0.2580704E-010  0.4778729E+02  0.7816164E-02  0.1312668E+00
        -11   -1    0    0    0    0  0.00000000000E+00  0.00000000000E+00  0.45593999997E+02  0.45594000000E+02  0.51100000000E-03 0. -1.
         11   -1    0    0    0    0 -0.00000000000E+00 -0.00000000000E+00 -0.45593999997E+02  0.45594000000E+02  0.51100000000E-03 0.  1.
    9900012    2    1    2    0    0 -0.12268052053E+02  0.12080682412E+02 -0.39839347734E+02  0.47787290138E+02  0.20000087054E+02 0.  0.
         12    1    1    2    0    0  0.12268052053E+02 -0.12080682412E+02  0.39839347734E+02  0.43400709862E+02  0.00000000000E+00 0. -1.
         11    1    3    3    0    0 -0.67633450136E+01  0.14133527008E+02 -0.17105089581E+02  0.23196627154E+02  0.51100000000E-03 0.  1.
        -11    1    3    3    0    0  0.22597032322E-01 -0.77624823299E-01  0.56126084398E+00  0.56705399669E+00  0.51100000000E-03 0. -1.
        -12    1    3    3    0    0 -0.55273040714E+01 -0.19752197732E+01 -0.23295518997E+02  0.24023608988E+02  0.00000000000E+00 0.  1.
</event>
<event>
 7    1  0.3098115E-010  0.4778727E+02  0.7816164E-02  0.1312668E+00
        -11   -1    0    0    0    0  0.00000000000E+00  0.00000000000E+00  0.45593999997E+02  0.45594000000E+02  0.51100000000E-03 0. -1.
         11   -1    0    0    0    0 -0.00000000000E+00 -0.00000000000E+00 -0.45593999997E+02  0.45594000000E+02  0.51100000000E-03 0.  1.
    9900012    2    1    2    0    0  0.20092314190E+02 -0.31589691840E+02 -0.21954810931E+02  0.47787269096E+02  0.19999991115E+02 0.  0.
         12    1    1    2    0    0 -0.20092314190E+02  0.31589691840E+02  0.21954810931E+02  0.43400730904E+02  0.00000000000E+00 0. -1.
         11    1    3    3    0    0 -0.11176211042E+01 -0.70438528097E+01 -0.68928009352E+00  0.71651969021E+01  0.51100000000E-03 0. -1.
        -11    1    3    3    0    0  0.78445308640E+01 -0.64282089586E+01 -0.76143502575E+00  0.10170463040E+02  0.51100000000E-03 0.  1.
        -12    1    3    3    0    0  0.13365404430E+02 -0.18117630071E+02 -0.20504095812E+02  0.30451609153E+02  0.00000000000E+00 0.  1.
</event>
<event>
 7    1  0.2580704E-010  0.4778726E+02  0.7816164E-02  0.1312668E+00
        -11   -1    0    0    0    0  0.00000000000E+00  0.00000000000E+00  0.45593999997E+02  0.45594000000E+02  0.51100000000E-03 0. -1.
         11   -1    0    0    0    0 -0.00000000000E+00 -0.00000000000E+00 -0.45593999997E+02  0.45594000000E+02  0.51100000000E-03 0.  1.
    9900012    2    1    2    0    0 -0.35509881110E+02 -0.24385258317E+02 -0.52944752806E+01  0.47787263277E+02  0.19999964586E+02 0.  0.
         12    1    1    2    0    0  0.35509881110E+02  0.24385258317E+02  0.52944752806E+01  0.43400736723E+02  0.00000000000E+00 0. -1.
         11    1    3    3    0    0 -0.15655463821E+02 -0.73510234623E+01 -0.60678262873E+01  0.18328928215E+02  0.51100000000E-03 0. -1.
        -11    1    3    3    0    0 -0.20591041240E+02 -0.17354291337E+02 -0.15765733600E+01  0.26974951176E+02  0.51100000000E-03 0.  1.
         12    1    3    3    0    0  0.73662395106E+00  0.32005648206E+00  0.23499243667E+01  0.24833838862E+01  0.00000000000E+00 0. -1.
</event>
<event>
 7    1  0.2580704E-010  0.4778727E+02  0.7816164E-02  0.1312668E+00
        -11   -1    0    0    0    0  0.00000000000E+00  0.00000000000E+00  0.45593999997E+02  0.45594000000E+02  0.51100000000E-03 0.  1.
         11   -1    0    0    0    0 -0.00000000000E+00 -0.00000000000E+00 -0.45593999997E+02  0.45594000000E+02  0.51100000000E-03 0. -1.
    9900012    2    1    2    0    0 -0.24144139004E+02 -0.20216966122E+02  0.29865671479E+02  0.47787268436E+02  0.19999988105E+02 0.  0.
         12    1    1    2    0    0  0.24144139004E+02  0.20216966122E+02 -0.29865671479E+02  0.43400731564E+02  0.00000000000E+00 0. -1.
         11    1    3    3    0    0 -0.24708579895E+01  0.73075720352E+00  0.21039781880E+01  0.33265402104E+01  0.51100000000E-03 0. -1.
        -11    1    3    3    0    0 -0.19622439170E+02 -0.10914404672E+02  0.25493461897E+02  0.33971766926E+02  0.51100000000E-03 0.  1.
         12    1    3    3    0    0 -0.20508418440E+01 -0.10033318654E+02  0.22682313945E+01  0.10488961299E+02  0.00000000000E+00 0. -1.
</event>
<event>
 7    1  0.2580704E-010  0.4778726E+02  0.7816164E-02  0.1312668E+00
        -11   -1    0    0    0    0  0.00000000000E+00  0.00000000000E+00  0.45593999997E+02  0.45594000000E+02  0.51100000000E-03 0. -1.
         11   -1    0    0    0    0 -0.00000000000E+00 -0.00000000000E+00 -0.45593999997E+02  0.45594000000E+02  0.51100000000E-03 0.  1.
    9900012    2    1    2    0    0  0.22939818208E+02 -0.26850419817E+02 -0.25227832620E+02  0.47787264494E+02  0.19999970132E+02 0.  0.
         12    1    1    2    0    0 -0.22939818208E+02  0.26850419817E+02  0.25227832620E+02  0.43400735506E+02  0.00000000000E+00 0. -1.
         11    1    3    3    0    0 -0.66066535333E+00  0.12767489657E+01 -0.84392426552E+00  0.16669658237E+01  0.51100000000E-03 0. -1.
        -11    1    3    3    0    0  0.38853215794E+01 -0.74350924833E+01 -0.12750585248E+02  0.15262822427E+02  0.51100000000E-03 0.  1.
        -12    1    3    3    0    0  0.19715161982E+02 -0.20692076299E+02 -0.11633323106E+02  0.30857476243E+02  0.00000000000E+00 0.  1.
</event>
<event>
 7    1  0.2580704E-010  0.4778727E+02  0.7816164E-02  0.1312668E+00
        -11   -1    0    0    0    0  0.00000000000E+00  0.00000000000E+00  0.45593999997E+02  0.45594000000E+02  0.51100000000E-03 0.  1.
         11   -1    0    0    0    0 -0.00000000000E+00 -0.00000000000E+00 -0.45593999997E+02  0.45594000000E+02  0.51100000000E-03 0. -1.
    9900012    2    1    2    0    0  0.14126658599E+02  0.38122727566E+02  0.15189427493E+02  0.47787267889E+02  0.19999985613E+02 0.  0.
         12    1    1    2    0    0 -0.14126658599E+02 -0.38122727566E+02 -0.15189427493E+02  0.43400732111E+02  0.00000000000E+00 0. -1.
         11    1    3    3    0    0  0.10022527144E+01  0.53213893291E+01 -0.11223300566E+01  0.55300379666E+01  0.51100000000E-03 0. -1.
        -11    1    3    3    0    0  0.58806006589E+00  0.20096181956E+02  0.13428559786E+02  0.24177025501E+02  0.51100000000E-03 0.  1.
         12    1    3    3    0    0  0.12536345818E+02  0.12705156281E+02  0.28831977627E+01  0.18080204422E+02  0.00000000000E+00 0. -1.
</event>
<event>
 7    1  0.2580704E-010  0.4778727E+02  0.7816164E-02  0.1312668E+00
        -11   -1    0    0    0    0  0.00000000000E+00  0.00000000000E+00  0.45593999997E+02  0.45594000000E+02  0.51100000000E-03 0.  1.
         11   -1    0    0    0    0 -0.00000000000E+00 -0.00000000000E+00 -0.45593999997E+02  0.45594000000E+02  0.51100000000E-03 0. -1.
    9900012    2    1    2    0    0  0.21453182082E+02  0.72611157836E+01  0.37022429215E+02  0.47787273176E+02  0.20000009718E+02 0.  0.
         12    1    1    2    0    0 -0.21453182082E+02 -0.72611157836E+01 -0.37022429215E+02  0.43400726824E+02  0.00000000000E+00 0. -1.
         11    1    3    3    0    0  0.29683452543E+01  0.16143104990E+01  0.17902064333E+02  0.18218149730E+02  0.51100000000E-03 0. -1.
        -11    1    3    3    0    0  0.33740283435E+01 -0.11484999719E+01  0.10086929536E+02  0.10698096427E+02  0.51100000000E-03 0.  1.
         12    1    3    3    0    0  0.15110808484E+02  0.67953052566E+01  0.90334353464E+01  0.18871027018E+02  0.00000000000E+00 0. -1.
</event>
<event>
 7    1  0.2580704E-010  0.4778727E+02  0.7816164E-02  0.1312668E+00
        -11   -1    0    0    0    0  0.00000000000E+00  0.00000000000E+00  0.45593999997E+02  0.45594000000E+02  0.51100000000E-03 0. -1.
         11   -1    0    0    0    0 -0.00000000000E+00 -0.00000000000E+00 -0.45593999997E+02  0.45594000000E+02  0.51100000000E-03 0.  1.
    9900012    2    1    2    0    0  0.20859922320E+02  0.38058410651E+02 -0.21008424769E+00  0.47787272865E+02  0.20000008300E+02 0.  0.
         12    1    1    2    0    0 -0.20859922320E+02 -0.38058410651E+02  0.21008424769E+00  0.43400727135E+02  0.00000000000E+00 0. -1.
         11    1    3    3    0    0  0.36767650381E+01  0.14526750796E+02 -0.34585650002E+01  0.15378776348E+02  0.51100000000E-03 0. -1.
        -11    1    3    3    0    0  0.13943643804E+02  0.22830066143E+02 -0.12970190855E+01  0.26782818773E+02  0.51100000000E-03 0.  1.
        -12    1    3    3    0    0  0.32395134776E+01  0.70159371203E+00  0.45454998379E+01  0.56256777445E+01  0.00000000000E+00 0.  1.
</event>
<event>
 7    1  0.2580704E-010  0.4778728E+02  0.7816164E-02  0.1312668E+00
        -11   -1    0    0    0    0  0.00000000000E+00  0.00000000000E+00  0.45593999997E+02  0.45594000000E+02  0.51100000000E-03 0. -1.
         11   -1    0    0    0    0 -0.00000000000E+00 -0.00000000000E+00 -0.45593999997E+02  0.45594000000E+02  0.51100000000E-03 0.  1.
    9900012    2    1    2    0    0  0.32681842215E+02 -0.21292127552E+02 -0.19030629606E+02  0.47787281464E+02  0.20000047505E+02 0.  0.
         12    1    1    2    0    0 -0.32681842215E+02  0.21292127552E+02  0.19030629606E+02  0.43400718536E+02  0.00000000000E+00 0. -1.
         11    1    3    3    0    0  0.14029390566E+02 -0.14528085703E+02 -0.93052130746E+01  0.22236817768E+02  0.51100000000E-03 0. -1.
        -11    1    3    3    0    0  0.40275354091E+01 -0.74567180979E+01 -0.61719296202E+01  0.10484102335E+02  0.51100000000E-03 0.  1.
        -12    1    3    3    0    0  0.14624916240E+02  0.69267624913E+00 -0.35534869117E+01  0.15066361361E+02  0.00000000000E+00 0.  1.
</event>
<event>
 7    1  0.2580704E-010  0.4778727E+02  0.7816164E-02  0.1312668E+00
        -11   -1    0    0    0    0  0.00000000000E+00  0.00000000000E+00  0.45593999997E+02  0.45594000000E+02  0.51100000000E-03 0.  1.
         11   -1    0    0    0    0 -0.00000000000E+00 -0.00000000000E+00 -0.45593999997E+02  0.45594000000E+02  0.51100000000E-03 0. -1.
    9900012    2    1    2    0    0 -0.23930955558E+01 -0.37839287961E+02  0.21120715362E+02  0.47787271468E+02  0.20000001931E+02 0.  0.
         12    1    1    2    0    0  0.23930955558E+01  0.37839287961E+02 -0.21120715362E+02  0.43400728532E+02  0.00000000000E+00 0. -1.
         11    1    3    3    0    0 -0.16295097332E+01 -0.13605604488E+02  0.11685435587E+02  0.18008808416E+02  0.51100000000E-03 0.  1.
        -11    1    3    3    0    0 -0.42818185615E+01 -0.11152537693E+01  0.35286386823E+01  0.56594215583E+01  0.51100000000E-03 0. -1.
        -12    1    3    3    0    0  0.35182327389E+01 -0.23118429704E+02  0.59066410920E+01  0.24119041493E+02  0.00000000000E+00 0.  1.
</event>
<event>
 7    1  0.2934212E-010  0.4778727E+02  0.7816164E-02  0.1312668E+00
        -11   -1    0    0    0    0  0.00000000000E+00  0.00000000000E+00  0.45593999997E+02  0.45594000000E+02  0.51100000000E-03 0. -1.
         11   -1    0    0    0    0 -0.00000000000E+00 -0.00000000000E+00 -0.45593999997E+02  0.45594000000E+02  0.51100000000E-03 0.  1.
    9900012    2    1    2    0    0  0.36842283088E+02 -0.18167326096E+02 -0.14007778628E+02  0.47787269330E+02  0.19999992182E+02 0.  0.
         12    1    1    2    0    0 -0.36842283088E+02  0.18167326096E+02  0.14007778628E+02  0.43400730670E+02  0.00000000000E+00 0. -1.
         11    1    3    3    0    0  0.63845164060E+01 -0.84241231201E+01 -0.66179169940E+00  0.10590838899E+02  0.51100000000E-03 0. -1.
        -11    1    3    3    0    0  0.29552613887E+01 -0.15781648579E+01 -0.70778479296E+01  0.78307155337E+01  0.51100000000E-03 0.  1.
        -12    1    3    3    0    0  0.27502505293E+02 -0.81650381179E+01 -0.62681389990E+01  0.29365714897E+02  0.00000000000E+00 0.  1.
</event>
<event>
 7    1  0.2580704E-010  0.4778729E+02  0.7816164E-02  0.1312668E+00
        -11   -1    0    0    0    0  0.00000000000E+00  0.00000000000E+00  0.45593999997E+02  0.45594000000E+02  0.51100000000E-03 0.  1.
         11   -1    0    0    0    0 -0.00000000000E+00 -0.00000000000E+00 -0.45593999997E+02  0.45594000000E+02  0.51100000000E-03 0. -1.
    9900012    2    1    2    0    0 -0.35954895225E+02 -0.79804250263E+01 -0.22960400829E+02  0.47787289401E+02  0.20000083695E+02 0.  0.
         12    1    1    2    0    0  0.35954895225E+02  0.79804250263E+01  0.22960400829E+02  0.43400710599E+02  0.00000000000E+00 0. -1.
         11    1    3    3    0    0 -0.10009500186E+02 -0.84556671916E+01 -0.66265158828E+01  0.14683293726E+02  0.51100000000E-03 0. -1.
        -11    1    3    3    0    0 -0.12028969438E+02 -0.59641249688E+01 -0.68318113508E+01  0.15064545761E+02  0.51100000000E-03 0.  1.
        -12    1    3    3    0    0 -0.13916425601E+02  0.64393671341E+01 -0.95020735954E+01  0.18039449914E+02  0.00000000000E+00 0.  1.
</event>
<event>
 7    1  0.2580704E-010  0.4778724E+02  0.7816164E-02  0.1312668E+00
        -11   -1    0    0    0    0  0.00000000000E+00  0.00000000000E+00  0.45593999997E+02  0.45594000000E+02  0.51100000000E-03 0. -1.
         11   -1    0    0    0    0 -0.00000000000E+00 -0.00000000000E+00 -0.45593999997E+02  0.45594000000E+02  0.51100000000E-03 0.  1.
    9900012    2    1    2    0    0  0.12054887524E+01 -0.21728167074E+02 -0.37550753963E+02  0.47787244583E+02  0.19999879352E+02 0.  0.
         12    1    1    2    0    0 -0.12054887524E+01  0.21728167074E+02  0.37550753963E+02  0.43400755417E+02  0.00000000000E+00 0. -1.
         11    1    3    3    0    0  0.46752953534E+01 -0.30455351591E+01 -0.99523400121E+01  0.11409765248E+02  0.51100000000E-03 0. -1.
        -11    1    3    3    0    0  0.46943335254E+01 -0.68761525147E+01 -0.53371612647E+01  0.98895667892E+01  0.51100000000E-03 0.  1.
         12    1    3    3    0    0 -0.81641401263E+01 -0.11806479400E+02 -0.22261252687E+02  0.26487912545E+02  0.00000000000E+00 0. -1.
</event>
<event>
 7    1  0.2580704E-010  0.4778727E+02  0.7816164E-02  0.1312668E+00
        -11   -1    0    0    0    0  0.00000000000E+00  0.00000000000E+00  0.45593999997E+02  0.45594000000E+02  0.51100000000E-03 0.  1.
         11   -1    0    0    0    0 -0.00000000000E+00 -0.00000000000E+00 -0.45593999997E+02  0.45594000000E+02  0.51100000000E-03 0. -1.
    9900012    2    1    2    0    0  0.41199411348E+02  0.12631188426E+02 -0.51657285761E+01  0.47787272262E+02  0.20000005550E+02 0.  0.
         12    1    1    2    0    0 -0.41199411348E+02 -0.12631188426E+02  0.51657285761E+01  0.43400727738E+02  0.00000000000E+00 0. -1.
         11    1    3    3    0    0  0.91605598468E+01  0.51766863166E+01 -0.65229269993E+01  0.12379923862E+02  0.51100000000E-03 0. -1.
        -11    1    3    3    0    0  0.23069415053E+02  0.10395561693E+02 -0.20154444794E+01  0.25383609485E+02  0.51100000000E-03 0.  1.
        -12    1    3    3    0    0  0.89694364488E+01 -0.29410595838E+01  0.33726429025E+01  0.10023738915E+02  0.00000000000E+00 0.  1.
</event>
<event>
 7    1  0.2580704E-010  0.4778727E+02  0.7816164E-02  0.1312668E+00
        -11   -1    0    0    0    0  0.00000000000E+00  0.00000000000E+00  0.45593999997E+02  0.45594000000E+02  0.51100000000E-03 0.  1.
         11   -1    0    0    0    0 -0.00000000000E+00 -0.00000000000E+00 -0.45593999997E+02  0.45594000000E+02  0.51100000000E-03 0. -1.
    9900012    2    1    2    0    0 -0.31163048688E+01  0.25863749466E+02  0.34712800896E+02  0.47787269147E+02  0.19999991349E+02 0.  0.
         12    1    1    2    0    0  0.31163048688E+01 -0.25863749466E+02 -0.34712800896E+02  0.43400730853E+02  0.00000000000E+00 0. -1.
         11    1    3    3    0    0 -0.18935831748E+01  0.12720023341E+01  0.47636287420E+01  0.52816480601E+01  0.51100000000E-03 0. -1.
        -11    1    3    3    0    0  0.14215341041E+01 -0.39158819386E+00  0.10843290903E+02  0.10943082673E+02  0.51100000000E-03 0.  1.
         12    1    3    3    0    0 -0.26442557981E+01  0.24983335326E+02  0.19105881252E+02  0.31562538414E+02  0.00000000000E+00 0. -1.
</event>
<event>
 7    1  0.2580704E-010  0.4778728E+02  0.7816164E-02  0.1312668E+00
        -11   -1    0    0    0    0  0.00000000000E+00  0.00000000000E+00  0.45593999997E+02  0.45594000000E+02  0.51100000000E-03 0.  1.
         11   -1    0    0    0    0 -0.00000000000E+00 -0.00000000000E+00 -0.45593999997E+02  0.45594000000E+02  0.51100000000E-03 0. -1.
    9900012    2    1    2    0    0  0.38473479191E+02 -0.12902019260E+02  0.15393250094E+02  0.47787275922E+02  0.20000022239E+02 0.  0.
         12    1    1    2    0    0 -0.38473479191E+02  0.12902019260E+02 -0.15393250094E+02  0.43400724078E+02  0.00000000000E+00 0. -1.
         11    1    3    3    0    0  0.76962385718E+01 -0.19409400632E+01  0.70344681741E+01  0.10605804035E+02  0.51100000000E-03 0. -1.
        -11    1    3    3    0    0  0.18492162242E+02 -0.47801173806E+01  0.12490893254E+02  0.22821744042E+02  0.51100000000E-03 0.  1.
         12    1    3    3    0    0  0.12285078377E+02 -0.61809618163E+01 -0.41321113345E+01  0.14359727845E+02  0.00000000000E+00 0. -1.
</event>
<event>
 7    1  0.2580704E-010  0.4778727E+02  0.7816164E-02  0.1312668E+00
        -11   -1    0    0    0    0  0.00000000000E+00  0.00000000000E+00  0.45593999997E+02  0.45594000000E+02  0.51100000000E-03 0. -1.
         11   -1    0    0    0    0 -0.00000000000E+00 -0.00000000000E+00 -0.45593999997E+02  0.45594000000E+02  0.51100000000E-03 0.  1.
    9900012    2    1    2    0    0  0.37027675856E+02 -0.23992220219E+01 -0.22512622725E+02  0.47787271578E+02  0.20000002433E+02 0.  0.
         12    1    1    2    0    0 -0.37027675856E+02  0.23992220219E+01  0.22512622725E+02  0.43400728422E+02  0.00000000000E+00 0. -1.
         11    1    3    3    0    0  0.45028959892E+01 -0.75216972932E+00 -0.11508714954E+02  0.12381128856E+02  0.51100000000E-03 0. -1.
        -11    1    3    3    0    0  0.26036508741E+01 -0.24927019463E+01 -0.21236176471E+01  0.41835765847E+01  0.51100000000E-03 0.  1.
        -12    1    3    3    0    0  0.29921128992E+02  0.84564965375E+00 -0.88802901241E+01  0.31222566137E+02  0.00000000000E+00 0.  1.
</event>
<event>
 7    1  0.2580704E-010  0.4778727E+02  0.7816164E-02  0.1312668E+00
        -11   -1    0    0    0    0  0.00000000000E+00  0.00000000000E+00  0.45593999997E+02  0.45594000000E+02  0.51100000000E-03 0. -1.
         11   -1    0    0    0    0 -0.00000000000E+00 -0.00000000000E+00 -0.45593999997E+02  0.45594000000E+02  0.51100000000E-03 0.  1.
    9900012    2    1    2    0    0  0.62997150953E+01 -0.14984982327E+02 -0.40241607546E+02  0.47787273237E+02  0.20000009999E+02 0.  0.
         12    1    1    2    0    0 -0.62997150953E+01  0.14984982327E+02  0.40241607546E+02  0.43400726763E+02  0.00000000000E+00 0. -1.
         11    1    3    3    0    0  0.44514192772E+01 -0.71736171123E+01 -0.23156503488E+02  0.24647506367E+02  0.51100000000E-03 0. -1.
        -11    1    3    3    0    0 -0.10035424223E+01 -0.24694733843E+01 -0.16871236103E+02  0.17080515334E+02  0.51100000000E-03 0.  1.
         12    1    3    3    0    0  0.28518382404E+01 -0.53418918302E+01 -0.21386795528E+00  0.60592515360E+01  0.00000000000E+00 0. -1.
</event>
<event>
 7    1  0.2580704E-010  0.4778727E+02  0.7816164E-02  0.1312668E+00
        -11   -1    0    0    0    0  0.00000000000E+00  0.00000000000E+00  0.45593999997E+02  0.45594000000E+02  0.51100000000E-03 0. -1.
         11   -1    0    0    0    0 -0.00000000000E+00 -0.00000000000E+00 -0.45593999997E+02  0.45594000000E+02  0.51100000000E-03 0.  1.
    9900012    2    1    2    0    0 -0.36073242525E+02  0.68009229545E+01 -0.23153654269E+02  0.47787273217E+02  0.20000009905E+02 0.  0.
         12    1    1    2    0    0  0.36073242525E+02 -0.68009229545E+01  0.23153654269E+02  0.43400726783E+02  0.00000000000E+00 0. -1.
         11    1    3    3    0    0 -0.73748088855E+00  0.20454141846E+01 -0.26834050307E+01  0.34537313253E+01  0.51100000000E-03 0. -1.
        -11    1    3    3    0    0 -0.10282069891E+02  0.75167531106E+01 -0.12629575146E+02  0.17936797574E+02  0.51100000000E-03 0.  1.
         12    1    3    3    0    0 -0.25053691745E+02 -0.27612443407E+01 -0.78406740925E+01  0.26396744318E+02  0.00000000000E+00 0. -1.
</event>
<event>
 7    1  0.2580704E-010  0.4778727E+02  0.7816164E-02  0.1312668E+00
        -11   -1    0    0    0    0  0.00000000000E+00  0.00000000000E+00  0.45593999997E+02  0.45594000000E+02  0.51100000000E-03 0. -1.
         11   -1    0    0    0    0 -0.00000000000E+00 -0.00000000000E+00 -0.45593999997E+02  0.45594000000E+02  0.51100000000E-03 0.  1.
    9900012    2    1    2    0    0 -0.39905359348E+02  0.90307775276E+00 -0.17040248563E+02  0.47787270453E+02  0.19999997303E+02 0.  0.
         12    1    1    2    0    0  0.39905359348E+02 -0.90307775276E+00  0.17040248563E+02  0.43400729547E+02  0.00000000000E+00 0. -1.
         11    1    3    3    0    0 -0.12737192467E+01  0.33672294734E+00 -0.68524551227E+01  0.69779570458E+01  0.51100000000E-03 0. -1.
        -11    1    3    3    0    0 -0.10169653121E+02  0.35681718697E+01 -0.42180499800E+01  0.11573488713E+02  0.51100000000E-03 0.  1.
        -12    1    3    3    0    0 -0.28461986981E+02 -0.30018170643E+01 -0.59697434603E+01  0.29235824694E+02  0.00000000000E+00 0.  1.
</event>
<event>
 7    1  0.2580704E-010  0.4778727E+02  0.7816164E-02  0.1312668E+00
        -11   -1    0    0    0    0  0.00000000000E+00  0.00000000000E+00  0.45593999997E+02  0.45594000000E+02  0.51100000000E-03 0.  1.
         11   -1    0    0    0    0 -0.00000000000E+00 -0.00000000000E+00 -0.45593999997E+02  0.45594000000E+02  0.51100000000E-03 0. -1.
    9900012    2    1    2    0    0  0.36908426344E+02  0.21466571778E+02  0.77831593813E+01  0.47787271791E+02  0.20000003404E+02 0.  0.
         12    1    1    2    0    0 -0.36908426344E+02 -0.21466571778E+02 -0.77831593813E+01  0.43400728209E+02  0.00000000000E+00 0. -1.
         11    1    3    3    0    0  0.14899435439E+02  0.41624807413E+01  0.22832812656E+00  0.15471637157E+02  0.51100000000E-03 0. -1.
        -11    1    3    3    0    0  0.22022253416E+02  0.12522372922E+02  0.96311613949E+01  0.27102559642E+02  0.51100000000E-03 0.  1.
        -12    1    3    3    0    0 -0.13262509849E-01  0.47817181146E+01 -0.20763301401E+01  0.52130749920E+01  0.00000000000E+00 0.  1.
</event>
<event>
 7    1  0.2580704E-010  0.4778727E+02  0.7816164E-02  0.1312668E+00
        -11   -1    0    0    0    0  0.00000000000E+00  0.00000000000E+00  0.45593999997E+02  0.45594000000E+02  0.51100000000E-03 0. -1.
         11   -1    0    0    0    0 -0.00000000000E+00 -0.00000000000E+00 -0.45593999997E+02  0.45594000000E+02  0.51100000000E-03 0.  1.
    9900012    2    1    2    0    0 -0.58907610292E+01  0.22568354276E+02 -0.36600432883E+02  0.47787269966E+02  0.19999995083E+02 0.  0.
         12    1    1    2    0    0  0.58907610292E+01 -0.22568354276E+02  0.36600432883E+02  0.43400730034E+02  0.00000000000E+00 0. -1.
         11    1    3    3    0    0 -0.22189779209E+01  0.18633620634E+02 -0.21481324751E+02  0.28523376278E+02  0.51100000000E-03 0. -1.
        -11    1    3    3    0    0  0.34268196386E+01  0.30888777838E+01 -0.75854392758E+01  0.88782401447E+01  0.51100000000E-03 0.  1.
        -12    1    3    3    0    0 -0.70986027469E+01  0.84585585812E+00 -0.75336688561E+01  0.10385653543E+02  0.00000000000E+00 0.  1.
</event>
<event>
 7    1  0.2580704E-010  0.4778727E+02  0.7816164E-02  0.1312668E+00
        -11   -1    0    0    0    0  0.00000000000E+00  0.00000000000E+00  0.45593999997E+02  0.45594000000E+02  0.51100000000E-03 0.  1.
         11   -1    0    0    0    0 -0.00000000000E+00 -0.00000000000E+00 -0.45593999997E+02  0.45594000000E+02  0.51100000000E-03 0. -1.
    9900012    2    1    2    0    0  0.17896471789E+02  0.36414429339E+02  0.15405495809E+02  0.47787266507E+02  0.19999979313E+02 0.  0.
         12    1    1    2    0    0 -0.17896471789E+02 -0.36414429339E+02 -0.15405495809E+02  0.43400733493E+02  0.00000000000E+00 0. -1.
         11    1    3    3    0    0  0.40689300415E+01  0.56495932601E+01 -0.39205811284E+01  0.79903099022E+01  0.51100000000E-03 0. -1.
        -11    1    3    3    0    0 -0.59630273140E+00  0.44409112284E+01  0.88254713107E+00  0.45668544082E+01  0.51100000000E-03 0.  1.
        -12    1    3    3    0    0  0.14423844479E+02  0.26323924851E+02  0.18443529806E+02  0.35230102197E+02  0.00000000000E+00 0.  1.
</event>
<event>
 7    1  0.2580704E-010  0.4778725E+02  0.7816164E-02  0.1312668E+00
        -11   -1    0    0    0    0  0.00000000000E+00  0.00000000000E+00  0.45593999997E+02  0.45594000000E+02  0.51100000000E-03 0. -1.
         11   -1    0    0    0    0 -0.00000000000E+00 -0.00000000000E+00 -0.45593999997E+02  0.45594000000E+02  0.51100000000E-03 0.  1.
    9900012    2    1    2    0    0 -0.34453518162E+02  0.83577649194E+01  0.25034539594E+02  0.47787247462E+02  0.19999892478E+02 0.  0.
         12    1    1    2    0    0  0.34453518162E+02 -0.83577649194E+01 -0.25034539594E+02  0.43400752538E+02  0.00000000000E+00 0. -1.
         11    1    3    3    0    0 -0.14398110183E+02 -0.66462658053E+00  0.12008479079E+01  0.14463379318E+02  0.51100000000E-03 0. -1.
        -11    1    3    3    0    0 -0.13098732884E+02  0.41809375124E+01  0.96408891956E+01  0.16792968361E+02  0.51100000000E-03 0.  1.
        -12    1    3    3    0    0 -0.69566750955E+01  0.48414539876E+01  0.14192802491E+02  0.16530899783E+02  0.00000000000E+00 0.  1.
</event>
<event>
 7    1  0.2580704E-010  0.4778727E+02  0.7816164E-02  0.1312668E+00
        -11   -1    0    0    0    0  0.00000000000E+00  0.00000000000E+00  0.45593999997E+02  0.45594000000E+02  0.51100000000E-03 0. -1.
         11   -1    0    0    0    0 -0.00000000000E+00 -0.00000000000E+00 -0.45593999997E+02  0.45594000000E+02  0.51100000000E-03 0.  1.
    9900012    2    1    2    0    0  0.35242213243E+02 -0.79677634541E+01 -0.24044220497E+02  0.47787269729E+02  0.19999994004E+02 0.  0.
         12    1    1    2    0    0 -0.35242213243E+02  0.79677634541E+01  0.24044220497E+02  0.43400730271E+02  0.00000000000E+00 0. -1.
         11    1    3    3    0    0  0.58491350950E+01 -0.32465155408E+01  0.40290777303E+00  0.67018340363E+01  0.51100000000E-03 0. -1.
        -11    1    3    3    0    0  0.22659990718E+02  0.18771410247E+01 -0.12771265961E+02  0.26078805040E+02  0.51100000000E-03 0.  1.
         12    1    3    3    0    0  0.67330874296E+01 -0.65983889381E+01 -0.11675862309E+02  0.15006630653E+02  0.00000000000E+00 0. -1.
</event>
<event>
 7    1  0.2580704E-010  0.4778726E+02  0.7816164E-02  0.1312668E+00
        -11   -1    0    0    0    0  0.00000000000E+00  0.00000000000E+00  0.45593999997E+02  0.45594000000E+02  0.51100000000E-03 0.  1.
         11   -1    0    0    0    0 -0.00000000000E+00 -0.00000000000E+00 -0.45593999997E+02  0.45594000000E+02  0.51100000000E-03 0. -1.
    9900012    2    1    2    0    0 -0.61204474854E+01  0.14349934140E+01  0.42943041065E+02  0.47787264299E+02  0.19999969244E+02 0.  0.
         12    1    1    2    0    0  0.61204474854E+01 -0.14349934140E+01 -0.42943041065E+02  0.43400735701E+02  0.00000000000E+00 0. -1.
         11    1    3    3    0    0  0.16489709879E+01  0.59763470605E+01  0.18611803092E+02  0.19617212954E+02  0.51100000000E-03 0. -1.
        -11    1    3    3    0    0 -0.34546011826E+00 -0.41029597586E+01  0.17807418656E+02  0.18277247630E+02  0.51100000000E-03 0.  1.
         12    1    3    3    0    0 -0.74239583550E+01 -0.43839388782E+00  0.65238193170E+01  0.98928037148E+01  0.00000000000E+00 0. -1.
</event>
<event>
 7    1  0.2580704E-010  0.4778727E+02  0.7816164E-02  0.1312668E+00
        -11   -1    0    0    0    0  0.00000000000E+00  0.00000000000E+00  0.45593999997E+02  0.45594000000E+02  0.51100000000E-03 0. -1.
         11   -1    0    0    0    0 -0.00000000000E+00 -0.00000000000E+00 -0.45593999997E+02  0.45594000000E+02  0.51100000000E-03 0.  1.
    9900012    2    1    2    0    0 -0.30820334524E+02 -0.90132921316E+01 -0.29197446110E+02  0.47787270575E+02  0.19999997862E+02 0.  0.
         12    1    1    2    0    0  0.30820334524E+02  0.90132921316E+01  0.29197446110E+02  0.43400729425E+02  0.00000000000E+00 0. -1.
         11    1    3    3    0    0 -0.21140156195E+02 -0.55579357439E+01 -0.16177912319E+02  0.27194148285E+02  0.51100000000E-03 0. -1.
        -11    1    3    3    0    0 -0.11576030578E+02 -0.55657123941E+01 -0.90435602156E+01  0.15708838914E+02  0.51100000000E-03 0.  1.
        -12    1    3    3    0    0  0.18958522492E+01  0.21103560064E+01 -0.39759735755E+01  0.48842833760E+01  0.00000000000E+00 0.  1.
</event>
<event>
 7    1  0.2580704E-010  0.4778722E+02  0.7816164E-02  0.1312668E+00
        -11   -1    0    0    0    0  0.00000000000E+00  0.00000000000E+00  0.45593999997E+02  0.45594000000E+02  0.51100000000E-03 0.  1.
         11   -1    0    0    0    0 -0.00000000000E+00 -0.00000000000E+00 -0.45593999997E+02  0.45594000000E+02  0.51100000000E-03 0. -1.
    9900012    2    1    2    0    0 -0.76058094818E+01  0.14892990058E+02  0.40049693185E+02  0.47787223337E+02  0.19999782482E+02 0.  0.
         12    1    1    2    0    0  0.76058094818E+01 -0.14892990058E+02 -0.40049693185E+02  0.43400776663E+02  0.00000000000E+00 0. -1.
         11    1    3    3    0    0 -0.26896756709E+01  0.79087247871E+01  0.11227375132E+02  0.13994150049E+02  0.51100000000E-03 0. -1.
        -11    1    3    3    0    0 -0.45594134937E+01  0.11647941111E+02  0.24064107991E+02  0.27120915862E+02  0.51100000000E-03 0.  1.
         12    1    3    3    0    0 -0.35672031718E+00 -0.46636758402E+01  0.47582100616E+01  0.66721574260E+01  0.00000000000E+00 0. -1.
</event>
<event>
 7    1  0.2580704E-010  0.4778727E+02  0.7816164E-02  0.1312668E+00
        -11   -1    0    0    0    0  0.00000000000E+00  0.00000000000E+00  0.45593999997E+02  0.45594000000E+02  0.51100000000E-03 0.  1.
         11   -1    0    0    0    0 -0.00000000000E+00 -0.00000000000E+00 -0.45593999997E+02  0.45594000000E+02  0.51100000000E-03 0. -1.
    9900012    2    1    2    0    0 -0.17588214141E+02  0.34646977773E+02  0.19335585295E+02  0.47787271848E+02  0.20000003662E+02 0.  0.
         12    1    1    2    0    0  0.17588214141E+02 -0.34646977773E+02 -0.19335585295E+02  0.43400728152E+02  0.00000000000E+00 0. -1.
         11    1    3    3    0    0 -0.39868284332E+00  0.29345770507E+01  0.63423676048E+01  0.69997369644E+01  0.51100000000E-03 0. -1.
        -11    1    3    3    0    0 -0.14433381784E+02  0.16804978937E+02  0.12884777231E+02  0.25627081601E+02  0.51100000000E-03 0.  1.
         12    1    3    3    0    0 -0.27561495135E+01  0.14907421785E+02  0.10844045932E+00  0.15160453283E+02  0.00000000000E+00 0. -1.
</event>
<event>
 7    1  0.2580704E-010  0.4778727E+02  0.7816164E-02  0.1312668E+00
        -11   -1    0    0    0    0  0.00000000000E+00  0.00000000000E+00  0.45593999997E+02  0.45594000000E+02  0.51100000000E-03 0.  1.
         11   -1    0    0    0    0 -0.00000000000E+00 -0.00000000000E+00 -0.45593999997E+02  0.45594000000E+02  0.51100000000E-03 0. -1.
    9900012    2    1    2    0    0  0.42623916178E+02  0.36758767185E+01 -0.73015566343E+01  0.47787273862E+02  0.20000012846E+02 0.  0.
         12    1    1    2    0    0 -0.42623916178E+02 -0.36758767185E+01  0.73015566343E+01  0.43400726138E+02  0.00000000000E+00 0. -1.
         11    1    3    3    0    0  0.23482040773E+01  0.38961573296E+00 -0.23596522428E+01  0.33516893913E+01  0.51100000000E-03 0. -1.
        -11    1    3    3    0    0  0.31012373243E+02 -0.15888004596E+01  0.31392741131E+01  0.31211322037E+02  0.51100000000E-03 0.  1.
        -12    1    3    3    0    0  0.92633388578E+01  0.48750614451E+01 -0.80811785046E+01  0.13224262434E+02  0.00000000000E+00 0.  1.
</event>
<event>
 7    1  0.2580704E-010  0.4778727E+02  0.7816164E-02  0.1312668E+00
        -11   -1    0    0    0    0  0.00000000000E+00  0.00000000000E+00  0.45593999997E+02  0.45594000000E+02  0.51100000000E-03 0.  1.
         11   -1    0    0    0    0 -0.00000000000E+00 -0.00000000000E+00 -0.45593999997E+02  0.45594000000E+02  0.51100000000E-03 0. -1.
    9900012    2    1    2    0    0 -0.13865460155E+02 -0.36142477406E+02  0.19623799914E+02  0.47787272110E+02  0.20000004856E+02 0.  0.
         12    1    1    2    0    0  0.13865460155E+02  0.36142477406E+02 -0.19623799914E+02  0.43400727890E+02  0.00000000000E+00 0. -1.
         11    1    3    3    0    0 -0.50849010985E+01 -0.18928875138E+01 -0.64340871264E+00  0.54638097839E+01  0.51100000000E-03 0. -1.
        -11    1    3    3    0    0 -0.43781417997E+01 -0.38165770640E+01  0.63915478042E+00  0.58431930652E+01  0.51100000000E-03 0.  1.
        -12    1    3    3    0    0 -0.44024172563E+01 -0.30433012828E+02  0.19628053846E+02  0.36480269260E+02  0.00000000000E+00 0.  1.
</event>
<event>
 7    1  0.2580704E-010  0.4778727E+02  0.7816164E-02  0.1312668E+00
        -11   -1    0    0    0    0  0.00000000000E+00  0.00000000000E+00  0.45593999997E+02  0.45594000000E+02  0.51100000000E-03 0.  1.
         11   -1    0    0    0    0 -0.00000000000E+00 -0.00000000000E+00 -0.45593999997E+02  0.45594000000E+02  0.51100000000E-03 0. -1.
    9900012    2    1    2    0    0  0.41656353608E+02  0.10188265219E+02  0.66761315432E+01  0.47787271015E+02  0.19999999866E+02 0.  0.
         12    1    1    2    0    0 -0.41656353608E+02 -0.10188265219E+02 -0.66761315432E+01  0.43400728985E+02  0.00000000000E+00 0. -1.
         11    1    3    3    0    0  0.16335642586E+02  0.16867314973E+01  0.25657762908E+00  0.16424497380E+02  0.51100000000E-03 0.  1.
        -11    1    3    3    0    0  0.63868617519E+01 -0.39081759605E+01  0.42774806802E+01  0.86233800570E+01  0.51100000000E-03 0. -1.
         12    1    3    3    0    0  0.18933849270E+02  0.12409709682E+02  0.21420732339E+01  0.22739393578E+02  0.00000000000E+00 0. -1.
</event>
<event>
 7    1  0.2580704E-010  0.4778727E+02  0.7816164E-02  0.1312668E+00
        -11   -1    0    0    0    0  0.00000000000E+00  0.00000000000E+00  0.45593999997E+02  0.45594000000E+02  0.51100000000E-03 0. -1.
         11   -1    0    0    0    0 -0.00000000000E+00 -0.00000000000E+00 -0.45593999997E+02  0.45594000000E+02  0.51100000000E-03 0.  1.
    9900012    2    1    2    0    0 -0.34089087406E+02  0.18169172301E+02  0.19784805785E+02  0.47787271409E+02  0.20000001663E+02 0.  0.
         12    1    1    2    0    0  0.34089087406E+02 -0.18169172301E+02 -0.19784805785E+02  0.43400728591E+02  0.00000000000E+00 0. -1.
         11    1    3    3    0    0 -0.14560285759E+02  0.86962851076E+01  0.80278187515E+01  0.18763612931E+02  0.51100000000E-03 0. -1.
        -11    1    3    3    0    0 -0.17442201990E+02  0.56402287644E+01  0.21312604729E+01  0.18454941404E+02  0.51100000000E-03 0.  1.
         12    1    3    3    0    0 -0.20865996567E+01  0.38326584292E+01  0.96257265608E+01  0.10568717074E+02  0.00000000000E+00 0. -1.
</event>
<event>
 7    1  0.2580704E-010  0.4778727E+02  0.7816164E-02  0.1312668E+00
        -11   -1    0    0    0    0  0.00000000000E+00  0.00000000000E+00  0.45593999997E+02  0.45594000000E+02  0.51100000000E-03 0.  1.
         11   -1    0    0    0    0 -0.00000000000E+00 -0.00000000000E+00 -0.45593999997E+02  0.45594000000E+02  0.51100000000E-03 0. -1.
    9900012    2    1    2    0    0  0.20807062639E+02  0.23886832287E+02  0.29666626023E+02  0.47787270606E+02  0.19999998001E+02 0.  0.
         12    1    1    2    0    0 -0.20807062639E+02 -0.23886832287E+02 -0.29666626023E+02  0.43400729394E+02  0.00000000000E+00 0. -1.
         11    1    3    3    0    0  0.86639339157E+01  0.15270182614E+02  0.11469057066E+02  0.20970967984E+02  0.51100000000E-03 0. -1.
        -11    1    3    3    0    0  0.64896574398E+01  0.71764053853E+01  0.23897908267E+01  0.99663207051E+01  0.51100000000E-03 0.  1.
        -12    1    3    3    0    0  0.56534712835E+01  0.14402442871E+01  0.15807778131E+02  0.16849981916E+02  0.00000000000E+00 0.  1.
</event>
<event>
 7    1  0.2580704E-010  0.4778728E+02  0.7816164E-02  0.1312668E+00
        -11   -1    0    0    0    0  0.00000000000E+00  0.00000000000E+00  0.45593999997E+02  0.45594000000E+02  0.51100000000E-03 0. -1.
         11   -1    0    0    0    0 -0.00000000000E+00 -0.00000000000E+00 -0.45593999997E+02  0.45594000000E+02  0.51100000000E-03 0.  1.
    9900012    2    1    2    0    0  0.22890520292E+02  0.70359573583E+01 -0.36195885087E+02  0.47787277512E+02  0.20000029490E+02 0.  0.
         12    1    1    2    0    0 -0.22890520292E+02 -0.70359573583E+01  0.36195885087E+02  0.43400722488E+02  0.00000000000E+00 0. -1.
         11    1    3    3    0    0  0.11969280909E+02  0.49888025791E+00 -0.13159483706E+02  0.17795633697E+02  0.51100000000E-03 0. -1.
        -11    1    3    3    0    0  0.60457466303E+01  0.17541295189E+01 -0.22242069565E+02  0.23115745316E+02  0.51100000000E-03 0.  1.
        -12    1    3    3    0    0  0.48754927523E+01  0.47829475815E+01 -0.79433181592E+00  0.68758984998E+01  0.00000000000E+00 0.  1.
</event>
<event>
 7    1  0.2580704E-010  0.4778727E+02  0.7816164E-02  0.1312668E+00
        -11   -1    0    0    0    0  0.00000000000E+00  0.00000000000E+00  0.45593999997E+02  0.45594000000E+02  0.51100000000E-03 0.  1.
         11   -1    0    0    0    0 -0.00000000000E+00 -0.00000000000E+00 -0.45593999997E+02  0.45594000000E+02  0.51100000000E-03 0. -1.
    9900012    2    1    2    0    0 -0.30430191132E+02 -0.22875224438E+01  0.30860881971E+02  0.47787270429E+02  0.19999997193E+02 0.  0.
         12    1    1    2    0    0  0.30430191132E+02  0.22875224438E+01 -0.30860881971E+02  0.43400729571E+02  0.00000000000E+00 0. -1.
         11    1    3    3    0    0  0.12981002430E+01  0.12977865003E+01  0.33492962595E+00  0.18658757078E+01  0.51100000000E-03 0. -1.
        -11    1    3    3    0    0 -0.61487764378E+00 -0.30150589541E+01  0.38899250536E+01  0.49598560662E+01  0.51100000000E-03 0.  1.
        -12    1    3    3    0    0 -0.31113413731E+02 -0.57024999009E+00  0.26636027292E+02  0.40961538655E+02  0.00000000000E+00 0.  1.
</event>
<event>
 7    1  0.2580704E-010  0.4778727E+02  0.7816164E-02  0.1312668E+00
        -11   -1    0    0    0    0  0.00000000000E+00  0.00000000000E+00  0.45593999997E+02  0.45594000000E+02  0.51100000000E-03 0.  1.
         11   -1    0    0    0    0 -0.00000000000E+00 -0.00000000000E+00 -0.45593999997E+02  0.45594000000E+02  0.51100000000E-03 0. -1.
    9900012    2    1    2    0    0  0.30151418703E+02  0.16505624249E+02  0.26496788504E+02  0.47787268639E+02  0.19999989032E+02 0.  0.
         12    1    1    2    0    0 -0.30151418703E+02 -0.16505624249E+02 -0.26496788504E+02  0.43400731361E+02  0.00000000000E+00 0. -1.
         11    1    3    3    0    0  0.54930312452E+01  0.68710117108E+01  0.64244901316E+01  0.10893037588E+02  0.51100000000E-03 0. -1.
        -11    1    3    3    0    0  0.16058881937E+02  0.96777302572E+01  0.21107566670E+02  0.28232525976E+02  0.51100000000E-03 0.  1.
        -12    1    3    3    0    0  0.85995055211E+01 -0.43117719145E-01 -0.10352682978E+01  0.86617050743E+01  0.00000000000E+00 0.  1.
</event>
<event>
 7    1  0.2580704E-010  0.4778727E+02  0.7816164E-02  0.1312668E+00
        -11   -1    0    0    0    0  0.00000000000E+00  0.00000000000E+00  0.45593999997E+02  0.45594000000E+02  0.51100000000E-03 0.  1.
         11   -1    0    0    0    0 -0.00000000000E+00 -0.00000000000E+00 -0.45593999997E+02  0.45594000000E+02  0.51100000000E-03 0. -1.
    9900012    2    1    2    0    0 -0.42264944122E+02 -0.25303825601E+01  0.95338932957E+01  0.47787268913E+02  0.19999990282E+02 0.  0.
         12    1    1    2    0    0  0.42264944122E+02  0.25303825601E+01 -0.95338932957E+01  0.43400731087E+02  0.00000000000E+00 0. -1.
         11    1    3    3    0    0 -0.72485618320E+01  0.27827933207E+01 -0.18029321579E+01  0.79709567760E+01  0.51100000000E-03 0.  1.
        -11    1    3    3    0    0 -0.34816747038E+01 -0.33647755900E+01 -0.23527214704E+01  0.53832213491E+01  0.51100000000E-03 0. -1.
        -12    1    3    3    0    0 -0.31534707586E+02 -0.19484002907E+01  0.13689546924E+02  0.34433090788E+02  0.00000000000E+00 0.  1.
</event>
<event>
 7    1  0.2580704E-010  0.4778727E+02  0.7816164E-02  0.1312668E+00
        -11   -1    0    0    0    0  0.00000000000E+00  0.00000000000E+00  0.45593999997E+02  0.45594000000E+02  0.51100000000E-03 0.  1.
         11   -1    0    0    0    0 -0.00000000000E+00 -0.00000000000E+00 -0.45593999997E+02  0.45594000000E+02  0.51100000000E-03 0. -1.
    9900012    2    1    2    0    0  0.89675509449E+01 -0.13675047901E+02  0.40201984455E+02  0.47787268910E+02  0.19999990269E+02 0.  0.
         12    1    1    2    0    0 -0.89675509449E+01  0.13675047901E+02 -0.40201984455E+02  0.43400731090E+02  0.00000000000E+00 0. -1.
         11    1    3    3    0    0  0.25079304541E+01  0.27282689947E+01  0.31336099270E+01  0.48531101683E+01  0.51100000000E-03 0. -1.
        -11    1    3    3    0    0 -0.31767700475E+01 -0.76214348275E+00  0.48933573340E+01  0.58836788561E+01  0.51100000000E-03 0.  1.
        -12    1    3    3    0    0  0.96363905383E+01 -0.15641173413E+02  0.32175017194E+02  0.37050479886E+02  0.00000000000E+00 0.  1.
</event>
<event>
 7    1  0.2580704E-010  0.4778727E+02  0.7816164E-02  0.1312668E+00
        -11   -1    0    0    0    0  0.00000000000E+00  0.00000000000E+00  0.45593999997E+02  0.45594000000E+02  0.51100000000E-03 0. -1.
         11   -1    0    0    0    0 -0.00000000000E+00 -0.00000000000E+00 -0.45593999997E+02  0.45594000000E+02  0.51100000000E-03 0.  1.
    9900012    2    1    2    0    0 -0.11507626297E+02 -0.17049569026E+02 -0.38216620633E+02  0.47787270057E+02  0.19999995497E+02 0.  0.
         12    1    1    2    0    0  0.11507626297E+02  0.17049569026E+02  0.38216620633E+02  0.43400729943E+02  0.00000000000E+00 0. -1.
         11    1    3    3    0    0 -0.70160352231E+00 -0.49044213163E+01 -0.20328881847E+02  0.20923886669E+02  0.51100000000E-03 0. -1.
        -11    1    3    3    0    0 -0.81761281225E+01 -0.96035326286E+01 -0.19204816962E+02  0.22976115964E+02  0.51100000000E-03 0.  1.
         12    1    3    3    0    0 -0.26298946517E+01 -0.25416150811E+01  0.13170781749E+01  0.38872674231E+01  0.00000000000E+00 0. -1.
</event>
<event>
 7    1  0.2580704E-010  0.4778727E+02  0.7816164E-02  0.1312668E+00
        -11   -1    0    0    0    0  0.00000000000E+00  0.00000000000E+00  0.45593999997E+02  0.45594000000E+02  0.51100000000E-03 0.  1.
         11   -1    0    0    0    0 -0.00000000000E+00 -0.00000000000E+00 -0.45593999997E+02  0.45594000000E+02  0.51100000000E-03 0. -1.
    9900012    2    1    2    0    0 -0.17938853006E+02 -0.15456432887E+02  0.36371961356E+02  0.47787270309E+02  0.19999996649E+02 0.  0.
         12    1    1    2    0    0  0.17938853006E+02  0.15456432887E+02 -0.36371961356E+02  0.43400729691E+02  0.00000000000E+00 0. -1.
         11    1    3    3    0    0 -0.82215964933E+01 -0.43657818592E+01  0.26423756503E+02  0.28015524413E+02  0.51100000000E-03 0. -1.
        -11    1    3    3    0    0 -0.64975366916E+01 -0.27253981193E+01  0.78838921040E+01  0.10573624399E+02  0.51100000000E-03 0.  1.
        -12    1    3    3    0    0 -0.32197198214E+01 -0.83652529084E+01  0.20643127491E+01  0.91981214971E+01  0.00000000000E+00 0.  1.
</event>
<event>
 7    1  0.2580704E-010  0.4778727E+02  0.7816164E-02  0.1312668E+00
        -11   -1    0    0    0    0  0.00000000000E+00  0.00000000000E+00  0.45593999997E+02  0.45594000000E+02  0.51100000000E-03 0. -1.
         11   -1    0    0    0    0 -0.00000000000E+00 -0.00000000000E+00 -0.45593999997E+02  0.45594000000E+02  0.51100000000E-03 0.  1.
    9900012    2    1    2    0    0  0.36600579142E+01  0.49973803466E+01 -0.42956411710E+02  0.47787272572E+02  0.20000006965E+02 0.  0.
         12    1    1    2    0    0 -0.36600579142E+01 -0.49973803466E+01  0.42956411710E+02  0.43400727428E+02  0.00000000000E+00 0. -1.
         11    1    3    3    0    0  0.32976147465E+01  0.31332493472E+01 -0.64648648005E+01  0.79048081342E+01  0.51100000000E-03 0. -1.
        -11    1    3    3    0    0  0.21330911954E+01  0.87194157365E+01 -0.21714531823E+02  0.23496790874E+02  0.51100000000E-03 0.  1.
         12    1    3    3    0    0 -0.17706480277E+01 -0.68552847371E+01 -0.14777015086E+02  0.16385673563E+02  0.00000000000E+00 0. -1.
</event>
<event>
 7    1  0.2580704E-010  0.4778727E+02  0.7816164E-02  0.1312668E+00
        -11   -1    0    0    0    0  0.00000000000E+00  0.00000000000E+00  0.45593999997E+02  0.45594000000E+02  0.51100000000E-03 0.  1.
         11   -1    0    0    0    0 -0.00000000000E+00 -0.00000000000E+00 -0.45593999997E+02  0.45594000000E+02  0.51100000000E-03 0. -1.
    9900012    2    1    2    0    0 -0.32047766567E+02  0.29229314295E+02 -0.14870283171E+01  0.47787269484E+02  0.19999992887E+02 0.  0.
         12    1    1    2    0    0  0.32047766567E+02 -0.29229314295E+02  0.14870283171E+01  0.43400730516E+02  0.00000000000E+00 0. -1.
         11    1    3    3    0    0 -0.42599115419E+01  0.14149708823E+02  0.30910230343E+01  0.15096871523E+02  0.51100000000E-03 0. -1.
        -11    1    3    3    0    0 -0.35983833005E+01 -0.36394785901E+00 -0.11062386972E+01  0.37821402325E+01  0.51100000000E-03 0.  1.
        -12    1    3    3    0    0 -0.24189471725E+02  0.15443553330E+02 -0.34718126542E+01  0.28908257728E+02  0.00000000000E+00 0.  1.
</event>
<event>
 7    1  0.2580704E-010  0.4778727E+02  0.7816164E-02  0.1312668E+00
        -11   -1    0    0    0    0  0.00000000000E+00  0.00000000000E+00  0.45593999997E+02  0.45594000000E+02  0.51100000000E-03 0.  1.
         11   -1    0    0    0    0 -0.00000000000E+00 -0.00000000000E+00 -0.45593999997E+02  0.45594000000E+02  0.51100000000E-03 0. -1.
    9900012    2    1    2    0    0  0.27052738103E+02 -0.26154977836E+02  0.21626138847E+02  0.47787269754E+02  0.19999994115E+02 0.  0.
         12    1    1    2    0    0 -0.27052738103E+02  0.26154977836E+02 -0.21626138847E+02  0.43400730246E+02  0.00000000000E+00 0. -1.
         11    1    3    3    0    0 -0.49681023486E+00  0.10776436125E+01  0.25685333530E+01  0.28293992315E+01  0.51100000000E-03 0. -1.
        -11    1    3    3    0    0  0.15964680129E+02 -0.85484370780E+01  0.12542115949E+02  0.22028423930E+02  0.51100000000E-03 0.  1.
        -12    1    3    3    0    0  0.11584868209E+02 -0.18684184371E+02  0.65154895449E+01  0.22929446593E+02  0.00000000000E+00 0.  1.
</event>
<event>
 7    1  0.2580704E-010  0.4778727E+02  0.7816164E-02  0.1312668E+00
        -11   -1    0    0    0    0  0.00000000000E+00  0.00000000000E+00  0.45593999997E+02  0.45594000000E+02  0.51100000000E-03 0.  1.
         11   -1    0    0    0    0 -0.00000000000E+00 -0.00000000000E+00 -0.45593999997E+02  0.45594000000E+02  0.51100000000E-03 0. -1.
    9900012    2    1    2    0    0  0.16233872194E+02  0.33233953821E+02  0.22706591897E+02  0.47787267189E+02  0.19999982420E+02 0.  0.
         12    1    1    2    0    0 -0.16233872194E+02 -0.33233953821E+02 -0.22706591897E+02  0.43400732811E+02  0.00000000000E+00 0. -1.
         11    1    3    3    0    0  0.34093096868E+01  0.15583449518E+02  0.19408703252E+01  0.16069669234E+02  0.51100000000E-03 0. -1.
        -11    1    3    3    0    0  0.25116801471E+01  0.95052696745E+01  0.45164426785E+01  0.10819285719E+02  0.51100000000E-03 0.  1.
        -12    1    3    3    0    0  0.10312882360E+02  0.81452346284E+01  0.16249278893E+02  0.20898312235E+02  0.00000000000E+00 0.  1.
</event>
<event>
 7    1  0.2580704E-010  0.4778727E+02  0.7816164E-02  0.1312668E+00
        -11   -1    0    0    0    0  0.00000000000E+00  0.00000000000E+00  0.45593999997E+02  0.45594000000E+02  0.51100000000E-03 0.  1.
         11   -1    0    0    0    0 -0.00000000000E+00 -0.00000000000E+00 -0.45593999997E+02  0.45594000000E+02  0.51100000000E-03 0. -1.
    9900012    2    1    2    0    0  0.37126135371E+02 -0.95171380908E+00  0.22458132330E+02  0.47787269655E+02  0.19999993663E+02 0.  0.
         12    1    1    2    0    0 -0.37126135371E+02  0.95171380908E+00 -0.22458132330E+02  0.43400730345E+02  0.00000000000E+00 0. -1.
         11    1    3    3    0    0  0.25428873183E+02  0.61785003578E+01  0.17930395149E+02  0.31722240282E+02  0.51100000000E-03 0.  1.
        -11    1    3    3    0    0  0.17255287092E+01  0.14390878707E+01  0.94643995418E+00  0.24380672824E+01  0.51100000000E-03 0. -1.
         12    1    3    3    0    0  0.99717334790E+01 -0.85693020375E+01  0.35812972268E+01  0.13626962090E+02  0.00000000000E+00 0. -1.
</event>
<event>
 7    1  0.2580704E-010  0.4778726E+02  0.7816164E-02  0.1312668E+00
        -11   -1    0    0    0    0  0.00000000000E+00  0.00000000000E+00  0.45593999997E+02  0.45594000000E+02  0.51100000000E-03 0.  1.
         11   -1    0    0    0    0 -0.00000000000E+00 -0.00000000000E+00 -0.45593999997E+02  0.45594000000E+02  0.51100000000E-03 0. -1.
    9900012    2    1    2    0    0  0.13380014798E+02 -0.39820012922E+02 -0.10907136467E+02  0.47787264395E+02  0.19999969682E+02 0.  0.
         12    1    1    2    0    0 -0.13380014798E+02  0.39820012922E+02  0.10907136467E+02  0.43400735605E+02  0.00000000000E+00 0. -1.
         11    1    3    3    0    0  0.13705315993E+01 -0.75883350984E-01  0.11416208762E+01  0.17853329196E+01  0.51100000000E-03 0. -1.
        -11    1    3    3    0    0  0.43704762864E+00 -0.68048801133E+01  0.36358074292E+01  0.77276451723E+01  0.51100000000E-03 0.  1.
         12    1    3    3    0    0  0.11572435570E+02 -0.32939249458E+02 -0.15684564773E+02  0.38274286303E+02  0.00000000000E+00 0. -1.
</event>
<event>
 7    1  0.2580704E-010  0.4778727E+02  0.7816164E-02  0.1312668E+00
        -11   -1    0    0    0    0  0.00000000000E+00  0.00000000000E+00  0.45593999997E+02  0.45594000000E+02  0.51100000000E-03 0.  1.
         11   -1    0    0    0    0 -0.00000000000E+00 -0.00000000000E+00 -0.45593999997E+02  0.45594000000E+02  0.51100000000E-03 0. -1.
    9900012    2    1    2    0    0 -0.80992699461E+01  0.25994751939E+02  0.33797894722E+02  0.47787274319E+02  0.20000014930E+02 0.  0.
         12    1    1    2    0    0  0.80992699461E+01 -0.25994751939E+02 -0.33797894722E+02  0.43400725681E+02  0.00000000000E+00 0. -1.
         11    1    3    3    0    0  0.94219319417E-02  0.90337102423E+01  0.91127481581E+01  0.12831608970E+02  0.51100000000E-03 0. -1.
        -11    1    3    3    0    0 -0.27555528358E+01  0.17673034649E+02  0.23312433905E+02  0.29383648513E+02  0.51100000000E-03 0.  1.
         12    1    3    3    0    0 -0.53531390423E+01 -0.71199295244E+00  0.13727126591E+01  0.55720168355E+01  0.00000000000E+00 0. -1.
</event>
<event>
 7    1  0.2580704E-010  0.4778728E+02  0.7816164E-02  0.1312668E+00
        -11   -1    0    0    0    0  0.00000000000E+00  0.00000000000E+00  0.45593999997E+02  0.45594000000E+02  0.51100000000E-03 0.  1.
         11   -1    0    0    0    0 -0.00000000000E+00 -0.00000000000E+00 -0.45593999997E+02  0.45594000000E+02  0.51100000000E-03 0. -1.
    9900012    2    1    2    0    0  0.71969853452E+01 -0.38759886777E+02 -0.18152059291E+02  0.47787277914E+02  0.20000031323E+02 0.  0.
         12    1    1    2    0    0 -0.71969853452E+01  0.38759886777E+02  0.18152059291E+02  0.43400722086E+02  0.00000000000E+00 0. -1.
         11    1    3    3    0    0  0.65417030750E+01 -0.12481069698E+02 -0.15835577818E+02  0.21197558940E+02  0.51100000000E-03 0. -1.
        -11    1    3    3    0    0  0.28976182461E+00 -0.42406288437E+01  0.81260784190E+00  0.43274965824E+01  0.51100000000E-03 0.  1.
         12    1    3    3    0    0  0.36552044558E+00 -0.22038188235E+02 -0.31290893150E+01  0.22262222392E+02  0.00000000000E+00 0. -1.
</event>
<event>
 7    1  0.2580704E-010  0.4778727E+02  0.7816164E-02  0.1312668E+00
        -11   -1    0    0    0    0  0.00000000000E+00  0.00000000000E+00  0.45593999997E+02  0.45594000000E+02  0.51100000000E-03 0.  1.
         11   -1    0    0    0    0 -0.00000000000E+00 -0.00000000000E+00 -0.45593999997E+02  0.45594000000E+02  0.51100000000E-03 0. -1.
    9900012    2    1    2    0    0  0.26182298265E+01 -0.38208528807E+02  0.20417556335E+02  0.47787269502E+02  0.19999992967E+02 0.  0.
         12    1    1    2    0    0 -0.26182298265E+01  0.38208528807E+02 -0.20417556335E+02  0.43400730498E+02  0.00000000000E+00 0. -1.
         11    1    3    3    0    0  0.29965595390E+00 -0.27939086528E+01 -0.16069432001E+01  0.32369717268E+01  0.51100000000E-03 0. -1.
        -11    1    3    3    0    0  0.17614764045E+01 -0.21835406298E+02  0.44835971620E+01  0.22360465360E+02  0.51100000000E-03 0.  1.
        -12    1    3    3    0    0  0.55709746815E+00 -0.13579213857E+02  0.17540902374E+02  0.22189832416E+02  0.00000000000E+00 0.  1.
</event>
<event>
 7    1  0.2580704E-010  0.4778727E+02  0.7816164E-02  0.1312668E+00
        -11   -1    0    0    0    0  0.00000000000E+00  0.00000000000E+00  0.45593999997E+02  0.45594000000E+02  0.51100000000E-03 0. -1.
         11   -1    0    0    0    0 -0.00000000000E+00 -0.00000000000E+00 -0.45593999997E+02  0.45594000000E+02  0.51100000000E-03 0.  1.
    9900012    2    1    2    0    0  0.20269856565E+01  0.38629606369E+02 -0.19679128293E+02  0.47787271326E+02  0.20000001285E+02 0.  0.
         12    1    1    2    0    0 -0.20269856565E+01 -0.38629606369E+02  0.19679128293E+02  0.43400728674E+02  0.00000000000E+00 0. -1.
         11    1    3    3    0    0 -0.81245951031E-02  0.21807842272E+01 -0.39415743047E+01  0.45046524966E+01  0.51100000000E-03 0. -1.
        -11    1    3    3    0    0 -0.10236365648E+00  0.33016884028E+02 -0.71377051600E+01  0.33779756430E+02  0.51100000000E-03 0.  1.
        -12    1    3    3    0    0  0.21374739081E+01  0.34319381132E+01 -0.85998488283E+01  0.95028623998E+01  0.00000000000E+00 0.  1.
</event>
<event>
 7    1  0.2580704E-010  0.4778727E+02  0.7816164E-02  0.1312668E+00
        -11   -1    0    0    0    0  0.00000000000E+00  0.00000000000E+00  0.45593999997E+02  0.45594000000E+02  0.51100000000E-03 0. -1.
         11   -1    0    0    0    0 -0.00000000000E+00 -0.00000000000E+00 -0.45593999997E+02  0.45594000000E+02  0.51100000000E-03 0.  1.
    9900012    2    1    2    0    0 -0.40868799721E+02  0.13817603605E+02 -0.47368973951E+01  0.47787272391E+02  0.20000006141E+02 0.  0.
         12    1    1    2    0    0  0.40868799721E+02 -0.13817603605E+02  0.47368973951E+01  0.43400727609E+02  0.00000000000E+00 0. -1.
         11    1    3    3    0    0 -0.12209556606E+02  0.12890410222E+01  0.53073516219E+01  0.13375458152E+02  0.51100000000E-03 0. -1.
        -11    1    3    3    0    0 -0.17903741028E+02  0.27581765462E+01 -0.33877699126E+01  0.18429011528E+02  0.51100000000E-03 0.  1.
         12    1    3    3    0    0 -0.10755502087E+02  0.97703860367E+01 -0.66564791043E+01  0.15982802712E+02  0.00000000000E+00 0. -1.
</event>
<event>
 7    1  0.2580704E-010  0.4778727E+02  0.7816164E-02  0.1312668E+00
        -11   -1    0    0    0    0  0.00000000000E+00  0.00000000000E+00  0.45593999997E+02  0.45594000000E+02  0.51100000000E-03 0.  1.
         11   -1    0    0    0    0 -0.00000000000E+00 -0.00000000000E+00 -0.45593999997E+02  0.45594000000E+02  0.51100000000E-03 0. -1.
    9900012    2    1    2    0    0 -0.41341827828E+02  0.34611998735E+01  0.12747421379E+02  0.47787269769E+02  0.19999994187E+02 0.  0.
         12    1    1    2    0    0  0.41341827828E+02 -0.34611998735E+01 -0.12747421379E+02  0.43400730231E+02  0.00000000000E+00 0. -1.
         11    1    3    3    0    0 -0.98459137467E+01 -0.54576572179E+01  0.29100182623E+01  0.11627392071E+02  0.51100000000E-03 0. -1.
        -11    1    3    3    0    0 -0.16146175775E+02  0.20937523710E+01  0.10456156300E+02  0.19349780256E+02  0.51100000000E-03 0.  1.
        -12    1    3    3    0    0 -0.15349738307E+02  0.68251047205E+01 -0.61875318327E+00  0.16810097443E+02  0.00000000000E+00 0.  1.
</event>
<event>
 7    1  0.2580704E-010  0.4778727E+02  0.7816164E-02  0.1312668E+00
        -11   -1    0    0    0    0  0.00000000000E+00  0.00000000000E+00  0.45593999997E+02  0.45594000000E+02  0.51100000000E-03 0.  1.
         11   -1    0    0    0    0 -0.00000000000E+00 -0.00000000000E+00 -0.45593999997E+02  0.45594000000E+02  0.51100000000E-03 0. -1.
    9900012    2    1    2    0    0  0.23119672722E+01 -0.40543781385E+02  0.15312732660E+02  0.47787272089E+02  0.20000004763E+02 0.  0.
         12    1    1    2    0    0 -0.23119672722E+01  0.40543781385E+02 -0.15312732660E+02  0.43400727911E+02  0.00000000000E+00 0. -1.
         11    1    3    3    0    0 -0.44677510772E+01 -0.52263783186E+01  0.17389027822E+01  0.70922220188E+01  0.51100000000E-03 0.  1.
        -11    1    3    3    0    0 -0.18602523743E+01 -0.57966186162E+01 -0.17442141075E+01  0.63327410646E+01  0.51100000000E-03 0. -1.
        -12    1    3    3    0    0  0.86399707237E+01 -0.29520784450E+02  0.15318043985E+02  0.34362309006E+02  0.00000000000E+00 0.  1.
</event>
<event>
 7    1  0.2580704E-010  0.4778726E+02  0.7816164E-02  0.1312668E+00
        -11   -1    0    0    0    0  0.00000000000E+00  0.00000000000E+00  0.45593999997E+02  0.45594000000E+02  0.51100000000E-03 0.  1.
         11   -1    0    0    0    0 -0.00000000000E+00 -0.00000000000E+00 -0.45593999997E+02  0.45594000000E+02  0.51100000000E-03 0. -1.
    9900012    2    1    2    0    0  0.10772358068E+01 -0.56352904037E+01  0.43019843019E+02  0.47787264657E+02  0.19999970879E+02 0.  0.
         12    1    1    2    0    0 -0.10772358068E+01  0.56352904037E+01 -0.43019843019E+02  0.43400735343E+02  0.00000000000E+00 0. -1.
         11    1    3    3    0    0 -0.29518218283E+01 -0.43064378488E+01  0.37869811025E+01  0.64497972979E+01  0.51100000000E-03 0. -1.
        -11    1    3    3    0    0 -0.22967908675E+01 -0.41691811377E+01  0.25639572237E+02  0.26077672143E+02  0.51100000000E-03 0.  1.
        -12    1    3    3    0    0  0.63258485027E+01  0.28403285828E+01  0.13593289679E+02  0.15259795216E+02  0.00000000000E+00 0.  1.
</event>
<event>
 7    1  0.2580704E-010  0.4778727E+02  0.7816164E-02  0.1312668E+00
        -11   -1    0    0    0    0  0.00000000000E+00  0.00000000000E+00  0.45593999997E+02  0.45594000000E+02  0.51100000000E-03 0. -1.
         11   -1    0    0    0    0 -0.00000000000E+00 -0.00000000000E+00 -0.45593999997E+02  0.45594000000E+02  0.51100000000E-03 0.  1.
    9900012    2    1    2    0    0  0.27598456703E+02  0.30554051980E+02  0.13725833092E+02  0.47787269604E+02  0.19999993434E+02 0.  0.
         12    1    1    2    0    0 -0.27598456703E+02 -0.30554051980E+02 -0.13725833092E+02  0.43400730396E+02  0.00000000000E+00 0. -1.
         11    1    3    3    0    0  0.91459401491E+01  0.72584918657E+01  0.66438287425E+00  0.11695098556E+02  0.51100000000E-03 0. -1.
        -11    1    3    3    0    0  0.72747721661E+01  0.13941235637E+02 -0.11083295094E+01  0.15764160482E+02  0.51100000000E-03 0.  1.
         12    1    3    3    0    0  0.11177744388E+02  0.93543244777E+01  0.14169779727E+02  0.20328010566E+02  0.00000000000E+00 0. -1.
</event>
<event>
 7    1  0.2580704E-010  0.4778727E+02  0.7816164E-02  0.1312668E+00
        -11   -1    0    0    0    0  0.00000000000E+00  0.00000000000E+00  0.45593999997E+02  0.45594000000E+02  0.51100000000E-03 0. -1.
         11   -1    0    0    0    0 -0.00000000000E+00 -0.00000000000E+00 -0.45593999997E+02  0.45594000000E+02  0.51100000000E-03 0.  1.
    9900012    2    1    2    0    0  0.43275598406E+02  0.19258610989E+01 -0.26715181842E+01  0.47787269963E+02  0.19999995067E+02 0.  0.
         12    1    1    2    0    0 -0.43275598406E+02 -0.19258610989E+01  0.26715181842E+01  0.43400730037E+02  0.00000000000E+00 0. -1.
         11    1    3    3    0    0  0.22434639131E+02  0.77490429217E+00 -0.92077375412E-01  0.22448206790E+02  0.51100000000E-03 0. -1.
        -11    1    3    3    0    0  0.14371821172E+02 -0.37206336594E+01  0.34518091036E+01  0.15241631965E+02  0.51100000000E-03 0.  1.
        -12    1    3    3    0    0  0.64691381035E+01  0.48715904662E+01 -0.60312499124E+01  0.10097431207E+02  0.00000000000E+00 0.  1.
</event>
<event>
 7    1  0.2580704E-010  0.4778727E+02  0.7816164E-02  0.1312668E+00
        -11   -1    0    0    0    0  0.00000000000E+00  0.00000000000E+00  0.45593999997E+02  0.45594000000E+02  0.51100000000E-03 0.  1.
         11   -1    0    0    0    0 -0.00000000000E+00 -0.00000000000E+00 -0.45593999997E+02  0.45594000000E+02  0.51100000000E-03 0. -1.
    9900012    2    1    2    0    0 -0.28030202731E+02 -0.27893851816E+02  0.17884744302E+02  0.47787270594E+02  0.19999997945E+02 0.  0.
         12    1    1    2    0    0  0.28030202731E+02  0.27893851816E+02 -0.17884744302E+02  0.43400729406E+02  0.00000000000E+00 0. -1.
         11    1    3    3    0    0 -0.20380139179E+01  0.22714684847E+01  0.84013772826E+00  0.31652648341E+01  0.51100000000E-03 0. -1.
        -11    1    3    3    0    0  0.30806921117E-01 -0.81304355951E+00  0.27562602052E+01  0.28738405446E+01  0.51100000000E-03 0.  1.
        -12    1    3    3    0    0 -0.26022995734E+02 -0.29352276742E+02  0.14288346368E+02  0.41748165215E+02  0.00000000000E+00 0.  1.
</event>
<event>
 7    1  0.2580704E-010  0.4778727E+02  0.7816164E-02  0.1312668E+00
        -11   -1    0    0    0    0  0.00000000000E+00  0.00000000000E+00  0.45593999997E+02  0.45594000000E+02  0.51100000000E-03 0.  1.
         11   -1    0    0    0    0 -0.00000000000E+00 -0.00000000000E+00 -0.45593999997E+02  0.45594000000E+02  0.51100000000E-03 0. -1.
    9900012    2    1    2    0    0  0.34824689867E+02  0.18947255475E+02  0.17659726292E+02  0.47787269049E+02  0.19999990903E+02 0.  0.
         12    1    1    2    0    0 -0.34824689867E+02 -0.18947255475E+02 -0.17659726292E+02  0.43400730951E+02  0.00000000000E+00 0. -1.
         11    1    3    3    0    0  0.13382366571E+02 -0.15003863827E+01  0.18845109116E+01  0.13597436375E+02  0.51100000000E-03 0. -1.
        -11    1    3    3    0    0  0.40862624928E+01  0.52780095061E+01  0.65786250365E+01  0.93719386009E+01  0.51100000000E-03 0.  1.
         12    1    3    3    0    0  0.17356060804E+02  0.15169632351E+02  0.91965903436E+01  0.24817894073E+02  0.00000000000E+00 0. -1.
</event>
<event>
 7    1  0.2580704E-010  0.4778728E+02  0.7816164E-02  0.1312668E+00
        -11   -1    0    0    0    0  0.00000000000E+00  0.00000000000E+00  0.45593999997E+02  0.45594000000E+02  0.51100000000E-03 0. -1.
         11   -1    0    0    0    0 -0.00000000000E+00 -0.00000000000E+00 -0.45593999997E+02  0.45594000000E+02  0.51100000000E-03 0.  1.
    9900012    2    1    2    0    0  0.28414464962E+02  0.46710472264E+01 -0.32471871025E+02  0.47787275247E+02  0.20000019160E+02 0.  0.
         12    1    1    2    0    0 -0.28414464962E+02 -0.46710472264E+01  0.32471871025E+02  0.43400724753E+02  0.00000000000E+00 0. -1.
         11    1    3    3    0    0  0.15027971024E+01  0.12090337819E+01  0.69380908395E+00  0.20497641628E+01  0.51100000000E-03 0. -1.
        -11    1    3    3    0    0 -0.40292043751E+00 -0.97321196075E+00  0.12122183105E+01  0.16059140366E+01  0.51100000000E-03 0.  1.
        -12    1    3    3    0    0  0.27314588297E+02  0.44352254052E+01 -0.34377898419E+02  0.44131597047E+02  0.00000000000E+00 0.  1.
</event>
<event>
 7    1  0.2580704E-010  0.4778726E+02  0.7816164E-02  0.1312668E+00
        -11   -1    0    0    0    0  0.00000000000E+00  0.00000000000E+00  0.45593999997E+02  0.45594000000E+02  0.51100000000E-03 0.  1.
         11   -1    0    0    0    0 -0.00000000000E+00 -0.00000000000E+00 -0.45593999997E+02  0.45594000000E+02  0.51100000000E-03 0. -1.
    9900012    2    1    2    0    0 -0.24756820487E+02  0.50960628390E+00  0.35643570856E+02  0.47787262650E+02  0.19999961726E+02 0.  0.
         12    1    1    2    0    0  0.24756820487E+02 -0.50960628390E+00 -0.35643570856E+02  0.43400737350E+02  0.00000000000E+00 0. -1.
         11    1    3    3    0    0 -0.59825269173E+01 -0.15263761457E+01 -0.82846484787E+00  0.62295109535E+01  0.51100000000E-03 0. -1.
        -11    1    3    3    0    0 -0.36180482806E+01 -0.19644126709E+01  0.96428902527E+01  0.10484966533E+02  0.51100000000E-03 0.  1.
         12    1    3    3    0    0 -0.15156245289E+02  0.40003951005E+01  0.26829145451E+02  0.31072785164E+02  0.00000000000E+00 0. -1.
</event>
<event>
 7    1  0.2580704E-010  0.4778728E+02  0.7816164E-02  0.1312668E+00
        -11   -1    0    0    0    0  0.00000000000E+00  0.00000000000E+00  0.45593999997E+02  0.45594000000E+02  0.51100000000E-03 0.  1.
         11   -1    0    0    0    0 -0.00000000000E+00 -0.00000000000E+00 -0.45593999997E+02  0.45594000000E+02  0.51100000000E-03 0. -1.
    9900012    2    1    2    0    0 -0.14304703585E+02 -0.37508806931E+02  0.16495082789E+02  0.47787275372E+02  0.20000019732E+02 0.  0.
         12    1    1    2    0    0  0.14304703585E+02  0.37508806931E+02 -0.16495082789E+02  0.43400724628E+02  0.00000000000E+00 0. -1.
         11    1    3    3    0    0  0.30953725323E+01 -0.20427620367E+01  0.11595411257E+01  0.38857101971E+01  0.51100000000E-03 0. -1.
        -11    1    3    3    0    0 -0.14171616353E+01  0.60765008854E+00  0.13217538563E+01  0.20309158644E+01  0.51100000000E-03 0.  1.
        -12    1    3    3    0    0 -0.15982914482E+02 -0.36073694982E+02  0.14013787807E+02  0.41870649311E+02  0.00000000000E+00 0.  1.
</event>
<event>
 7    1  0.2580704E-010  0.4778727E+02  0.7816164E-02  0.1312668E+00
        -11   -1    0    0    0    0  0.00000000000E+00  0.00000000000E+00  0.45593999997E+02  0.45594000000E+02  0.51100000000E-03 0.  1.
         11   -1    0    0    0    0 -0.00000000000E+00 -0.00000000000E+00 -0.45593999997E+02  0.45594000000E+02  0.51100000000E-03 0. -1.
    9900012    2    1    2    0    0 -0.30955795254E+02 -0.29944459990E+02 -0.53564205920E+01  0.47787272063E+02  0.20000004643E+02 0.  0.
         12    1    1    2    0    0  0.30955795254E+02  0.29944459990E+02  0.53564205920E+01  0.43400727937E+02  0.00000000000E+00 0. -1.
         11    1    3    3    0    0  0.12040763690E+00 -0.13729299335E+01  0.20094433159E+01  0.24366569932E+01  0.51100000000E-03 0. -1.
        -11    1    3    3    0    0 -0.12966982627E+02 -0.47893699531E+01  0.21304047238E+01  0.13986397947E+02  0.51100000000E-03 0.  1.
        -12    1    3    3    0    0 -0.18109220264E+02 -0.23782160104E+02 -0.94962686317E+01  0.31364217122E+02  0.00000000000E+00 0.  1.
</event>
<event>
 7    1  0.2580704E-010  0.4778727E+02  0.7816164E-02  0.1312668E+00
        -11   -1    0    0    0    0  0.00000000000E+00  0.00000000000E+00  0.45593999997E+02  0.45594000000E+02  0.51100000000E-03 0.  1.
         11   -1    0    0    0    0 -0.00000000000E+00 -0.00000000000E+00 -0.45593999997E+02  0.45594000000E+02  0.51100000000E-03 0. -1.
    9900012    2    1    2    0    0  0.28485384517E+02 -0.21174111770E+02  0.24977260805E+02  0.47787266163E+02  0.19999977742E+02 0.  0.
         12    1    1    2    0    0 -0.28485384517E+02  0.21174111770E+02 -0.24977260805E+02  0.43400733837E+02  0.00000000000E+00 0. -1.
         11    1    3    3    0    0 -0.43124676811E+00  0.84284314468E+00 -0.22817312852E+00  0.97386938510E+00  0.51100000000E-03 0. -1.
        -11    1    3    3    0    0  0.91851988008E+01 -0.13189151978E+02  0.40659829229E+01  0.16578716002E+02  0.51100000000E-03 0.  1.
         12    1    3    3    0    0  0.19731432484E+02 -0.88278029371E+01  0.21139451010E+02  0.30234680775E+02  0.00000000000E+00 0. -1.
</event>
<event>
 7    1  0.2580704E-010  0.4778727E+02  0.7816164E-02  0.1312668E+00
        -11   -1    0    0    0    0  0.00000000000E+00  0.00000000000E+00  0.45593999997E+02  0.45594000000E+02  0.51100000000E-03 0.  1.
         11   -1    0    0    0    0 -0.00000000000E+00 -0.00000000000E+00 -0.45593999997E+02  0.45594000000E+02  0.51100000000E-03 0. -1.
    9900012    2    1    2    0    0 -0.42837556103E+02  0.55058498361E+01  0.42722795901E+01  0.47787274566E+02  0.20000016054E+02 0.  0.
         12    1    1    2    0    0  0.42837556103E+02 -0.55058498361E+01 -0.42722795901E+01  0.43400725434E+02  0.00000000000E+00 0. -1.
         11    1    3    3    0    0 -0.79455247435E+01 -0.36731832520E+01  0.55215801457E+01  0.10349467920E+02  0.51100000000E-03 0. -1.
        -11    1    3    3    0    0 -0.61895178703E+01 -0.17102301139E+01  0.15679482400E+01  0.66101044208E+01  0.51100000000E-03 0.  1.
        -12    1    3    3    0    0 -0.28702513490E+02  0.10889263202E+02 -0.28172487956E+01  0.30827702225E+02  0.00000000000E+00 0.  1.
</event>
<event>
 7    1  0.2580704E-010  0.4778727E+02  0.7816164E-02  0.1312668E+00
        -11   -1    0    0    0    0  0.00000000000E+00  0.00000000000E+00  0.45593999997E+02  0.45594000000E+02  0.51100000000E-03 0.  1.
         11   -1    0    0    0    0 -0.00000000000E+00 -0.00000000000E+00 -0.45593999997E+02  0.45594000000E+02  0.51100000000E-03 0. -1.
    9900012    2    1    2    0    0 -0.12470747866E+02 -0.21353360323E+02  0.35667042049E+02  0.47787269154E+02  0.19999991382E+02 0.  0.
         12    1    1    2    0    0  0.12470747866E+02  0.21353360323E+02 -0.35667042049E+02  0.43400730846E+02  0.00000000000E+00 0. -1.
         11    1    3    3    0    0 -0.37970931745E+01 -0.69571942560E+01  0.29162320206E+01  0.84454057304E+01  0.51100000000E-03 0. -1.
        -11    1    3    3    0    0 -0.84878266315E+01 -0.19011542267E+01  0.90737203213E+01  0.12569406869E+02  0.51100000000E-03 0.  1.
        -12    1    3    3    0    0 -0.18582805952E+00 -0.12495011841E+02  0.23677089707E+02  0.26772456554E+02  0.00000000000E+00 0.  1.
</event>
<event>
 7    1  0.2580704E-010  0.4778725E+02  0.7816164E-02  0.1312668E+00
        -11   -1    0    0    0    0  0.00000000000E+00  0.00000000000E+00  0.45593999997E+02  0.45594000000E+02  0.51100000000E-03 0.  1.
         11   -1    0    0    0    0 -0.00000000000E+00 -0.00000000000E+00 -0.45593999997E+02  0.45594000000E+02  0.51100000000E-03 0. -1.
    9900012    2    1    2    0    0 -0.38049554083E+02  0.11994752926E+02  0.17087486872E+02  0.47787252642E+02  0.19999916096E+02 0.  0.
         12    1    1    2    0    0  0.38049554083E+02 -0.11994752926E+02 -0.17087486872E+02  0.43400747358E+02  0.00000000000E+00 0. -1.
         11    1    3    3    0    0 -0.78606057745E+01  0.12576456943E+01  0.31048628018E+01  0.85446456400E+01  0.51100000000E-03 0. -1.
        -11    1    3    3    0    0 -0.20605617068E+02  0.13681388364E+01  0.15406858217E+02  0.25764986688E+02  0.51100000000E-03 0.  1.
         12    1    3    3    0    0 -0.95833312397E+01  0.93689683949E+01 -0.14242341468E+01  0.13477620314E+02  0.00000000000E+00 0. -1.
</event>
<event>
 7    1  0.2580704E-010  0.4778727E+02  0.7816164E-02  0.1312668E+00
        -11   -1    0    0    0    0  0.00000000000E+00  0.00000000000E+00  0.45593999997E+02  0.45594000000E+02  0.51100000000E-03 0.  1.
         11   -1    0    0    0    0 -0.00000000000E+00 -0.00000000000E+00 -0.45593999997E+02  0.45594000000E+02  0.51100000000E-03 0. -1.
    9900012    2    1    2    0    0  0.50916938057E+01  0.24931706549E+02  0.35158323632E+02  0.47787273533E+02  0.20000011345E+02 0.  0.
         12    1    1    2    0    0 -0.50916938057E+01 -0.24931706549E+02 -0.35158323632E+02  0.43400726467E+02  0.00000000000E+00 0. -1.
         11    1    3    3    0    0  0.49869573774E+01  0.89951644781E+01  0.40776835080E+01  0.11063915714E+02  0.51100000000E-03 0. -1.
        -11    1    3    3    0    0  0.35617449324E+01  0.32850257352E+01  0.29169820170E+01  0.56556348355E+01  0.51100000000E-03 0.  1.
        -12    1    3    3    0    0 -0.34570085040E+01  0.12651516336E+02  0.28163658107E+02  0.31067722983E+02  0.00000000000E+00 0.  1.
</event>
<event>
 7    1  0.2580704E-010  0.4778727E+02  0.7816164E-02  0.1312668E+00
        -11   -1    0    0    0    0  0.00000000000E+00  0.00000000000E+00  0.45593999997E+02  0.45594000000E+02  0.51100000000E-03 0. -1.
         11   -1    0    0    0    0 -0.00000000000E+00 -0.00000000000E+00 -0.45593999997E+02  0.45594000000E+02  0.51100000000E-03 0.  1.
    9900012    2    1    2    0    0 -0.23348590076E+02 -0.13695281430E+02 -0.33925002420E+02  0.47787272113E+02  0.20000004871E+02 0.  0.
         12    1    1    2    0    0  0.23348590076E+02  0.13695281430E+02  0.33925002420E+02  0.43400727887E+02  0.00000000000E+00 0. -1.
         11    1    3    3    0    0 -0.53088423487E+01  0.40983353396E+01 -0.38500980298E+01  0.77332667573E+01  0.51100000000E-03 0. -1.
        -11    1    3    3    0    0 -0.58905051048E+01 -0.46257148732E+01 -0.42158427362E+01  0.85946854925E+01  0.51100000000E-03 0.  1.
        -12    1    3    3    0    0 -0.12149242622E+02 -0.13167901896E+02 -0.25859061654E+02  0.31459319863E+02  0.00000000000E+00 0.  1.
</event>
<event>
 7    1  0.2580704E-010  0.4778727E+02  0.7816164E-02  0.1312668E+00
        -11   -1    0    0    0    0  0.00000000000E+00  0.00000000000E+00  0.45593999997E+02  0.45594000000E+02  0.51100000000E-03 0. -1.
         11   -1    0    0    0    0 -0.00000000000E+00 -0.00000000000E+00 -0.45593999997E+02  0.45594000000E+02  0.51100000000E-03 0.  1.
    9900012    2    1    2    0    0 -0.10415771505E+02 -0.12830037960E+02 -0.40131350239E+02  0.47787269106E+02  0.19999991164E+02 0.  0.
         12    1    1    2    0    0  0.10415771505E+02  0.12830037960E+02  0.40131350239E+02  0.43400730894E+02  0.00000000000E+00 0. -1.
         11    1    3    3    0    0 -0.10339496073E+00 -0.67141190886E+01 -0.28768681116E+02  0.29541954896E+02  0.51100000000E-03 0. -1.
        -11    1    3    3    0    0 -0.29758974079E+01  0.12297742709E+01 -0.53605206802E+01  0.62532785292E+01  0.51100000000E-03 0.  1.
         12    1    3    3    0    0 -0.73364791362E+01 -0.73456931423E+01 -0.60021484429E+01  0.11992035682E+02  0.00000000000E+00 0. -1.
</event>
<event>
 7    1  0.2580704E-010  0.4778733E+02  0.7816164E-02  0.1312668E+00
        -11   -1    0    0    0    0  0.00000000000E+00  0.00000000000E+00  0.45593999997E+02  0.45594000000E+02  0.51100000000E-03 0. -1.
         11   -1    0    0    0    0 -0.00000000000E+00 -0.00000000000E+00 -0.45593999997E+02  0.45594000000E+02  0.51100000000E-03 0.  1.
    9900012    2    1    2    0    0  0.38983130187E+02 -0.17749599679E+01 -0.18994301272E+02  0.47787327161E+02  0.20000255856E+02 0.  0.
         12    1    1    2    0    0 -0.38983130187E+02  0.17749599679E+01  0.18994301272E+02  0.43400672839E+02  0.00000000000E+00 0. -1.
         11    1    3    3    0    0  0.16224388170E+02  0.40060466155E+01 -0.15689323017E+02  0.22922348003E+02  0.51100000000E-03 0. -1.
        -11    1    3    3    0    0  0.70627999996E+01 -0.62063143727E+00 -0.43352820581E+01  0.83104150317E+01  0.51100000000E-03 0.  1.
        -12    1    3    3    0    0  0.15695942018E+02 -0.51603751461E+01  0.10303038040E+01  0.16554564126E+02  0.00000000000E+00 0.  1.
</event>
<event>
 7    1  0.2580704E-010  0.4778727E+02  0.7816164E-02  0.1312668E+00
        -11   -1    0    0    0    0  0.00000000000E+00  0.00000000000E+00  0.45593999997E+02  0.45594000000E+02  0.51100000000E-03 0.  1.
         11   -1    0    0    0    0 -0.00000000000E+00 -0.00000000000E+00 -0.45593999997E+02  0.45594000000E+02  0.51100000000E-03 0. -1.
    9900012    2    1    2    0    0 -0.29377661362E+02  0.27072815529E+02  0.16959924664E+02  0.47787269910E+02  0.19999994826E+02 0.  0.
         12    1    1    2    0    0  0.29377661362E+02 -0.27072815529E+02 -0.16959924664E+02  0.43400730090E+02  0.00000000000E+00 0. -1.
         11    1    3    3    0    0 -0.54004729172E+01  0.23804918045E+01 -0.30954788347E+01  0.66643708209E+01  0.51100000000E-03 0. -1.
        -11    1    3    3    0    0 -0.14208600675E+01  0.40231914814E+01  0.62274300752E+01  0.75488938680E+01  0.51100000000E-03 0.  1.
        -12    1    3    3    0    0 -0.22556328378E+02  0.20669132243E+02  0.13827973423E+02  0.33574005221E+02  0.00000000000E+00 0.  1.
</event>
<event>
 7    1  0.2580704E-010  0.4778727E+02  0.7816164E-02  0.1312668E+00
        -11   -1    0    0    0    0  0.00000000000E+00  0.00000000000E+00  0.45593999997E+02  0.45594000000E+02  0.51100000000E-03 0.  1.
         11   -1    0    0    0    0 -0.00000000000E+00 -0.00000000000E+00 -0.45593999997E+02  0.45594000000E+02  0.51100000000E-03 0. -1.
    9900012    2    1    2    0    0 -0.74457438039E+01  0.41090226363E+02  0.11822753509E+02  0.47787270699E+02  0.19999998424E+02 0.  0.
         12    1    1    2    0    0  0.74457438039E+01 -0.41090226363E+02 -0.11822753509E+02  0.43400729301E+02  0.00000000000E+00 0. -1.
         11    1    3    3    0    0 -0.76647782901E+01  0.72744901087E+01  0.39337419056E+01  0.11275697682E+02  0.51100000000E-03 0. -1.
        -11    1    3    3    0    0 -0.32610670237E+01  0.25969613527E+01  0.16636520733E+01  0.44884858117E+01  0.51100000000E-03 0.  1.
        -12    1    3    3    0    0  0.34801015099E+01  0.31218774901E+02  0.62253595302E+01  0.32023087205E+02  0.00000000000E+00 0.  1.
</event>
<event>
 7    1  0.2580704E-010  0.4778724E+02  0.7816164E-02  0.1312668E+00
        -11   -1    0    0    0    0  0.00000000000E+00  0.00000000000E+00  0.45593999997E+02  0.45594000000E+02  0.51100000000E-03 0. -1.
         11   -1    0    0    0    0 -0.00000000000E+00 -0.00000000000E+00 -0.45593999997E+02  0.45594000000E+02  0.51100000000E-03 0.  1.
    9900012    2    1    2    0    0 -0.33346312629E+02  0.18995366444E+02 -0.20268831211E+02  0.47787239281E+02  0.19999855178E+02 0.  0.
         12    1    1    2    0    0  0.33346312629E+02 -0.18995366444E+02  0.20268831211E+02  0.43400760719E+02  0.00000000000E+00 0. -1.
         11    1    3    3    0    0 -0.13378179369E+02  0.76729534010E+01  0.18222331791E+01  0.15529662943E+02  0.51100000000E-03 0. -1.
        -11    1    3    3    0    0 -0.68389308914E+01  0.66410647249E+01 -0.98353981922E+01  0.13697071741E+02  0.51100000000E-03 0.  1.
        -12    1    3    3    0    0 -0.13129202369E+02  0.46813483183E+01 -0.12255666198E+02  0.18560504597E+02  0.00000000000E+00 0.  1.
</event>
<event>
 7    1  0.2580704E-010  0.4778727E+02  0.7816164E-02  0.1312668E+00
        -11   -1    0    0    0    0  0.00000000000E+00  0.00000000000E+00  0.45593999997E+02  0.45594000000E+02  0.51100000000E-03 0.  1.
         11   -1    0    0    0    0 -0.00000000000E+00 -0.00000000000E+00 -0.45593999997E+02  0.45594000000E+02  0.51100000000E-03 0. -1.
    9900012    2    1    2    0    0 -0.12376099887E+01 -0.85405635533E+01  0.42534108650E+02  0.47787270710E+02  0.19999998474E+02 0.  0.
         12    1    1    2    0    0  0.12376099887E+01  0.85405635533E+01 -0.42534108650E+02  0.43400729290E+02  0.00000000000E+00 0. -1.
         11    1    3    3    0    0  0.28607429385E+01  0.19100286945E+01  0.21854849220E+01  0.40753410139E+01  0.51100000000E-03 0. -1.
        -11    1    3    3    0    0 -0.78538085870E+00  0.23876788967E+01  0.13906404538E+02  0.14131734537E+02  0.51100000000E-03 0.  1.
        -12    1    3    3    0    0 -0.33129720686E+01 -0.12838271144E+02  0.26442219190E+02  0.29580195159E+02  0.00000000000E+00 0.  1.
</event>
<event>
 7    1  0.2580704E-010  0.4778727E+02  0.7816164E-02  0.1312668E+00
        -11   -1    0    0    0    0  0.00000000000E+00  0.00000000000E+00  0.45593999997E+02  0.45594000000E+02  0.51100000000E-03 0.  1.
         11   -1    0    0    0    0 -0.00000000000E+00 -0.00000000000E+00 -0.45593999997E+02  0.45594000000E+02  0.51100000000E-03 0. -1.
    9900012    2    1    2    0    0 -0.26238900969E+02  0.21065350326E+02  0.27411577696E+02  0.47787268436E+02  0.19999988109E+02 0.  0.
         12    1    1    2    0    0  0.26238900969E+02 -0.21065350326E+02 -0.27411577696E+02  0.43400731564E+02  0.00000000000E+00 0. -1.
         11    1    3    3    0    0 -0.13384088436E+02  0.10084086484E+02  0.18482752119E+02  0.24948642240E+02  0.51100000000E-03 0.  1.
        -11    1    3    3    0    0 -0.10677500627E+01  0.37960045596E+01  0.81005345715E+01  0.90093507767E+01  0.51100000000E-03 0. -1.
         12    1    3    3    0    0 -0.11787062470E+02  0.71852592827E+01  0.82829100620E+00  0.13829275419E+02  0.00000000000E+00 0. -1.
</event>
<event>
 7    1  0.2580704E-010  0.4778728E+02  0.7816164E-02  0.1312668E+00
        -11   -1    0    0    0    0  0.00000000000E+00  0.00000000000E+00  0.45593999997E+02  0.45594000000E+02  0.51100000000E-03 0.  1.
         11   -1    0    0    0    0 -0.00000000000E+00 -0.00000000000E+00 -0.45593999997E+02  0.45594000000E+02  0.51100000000E-03 0. -1.
    9900012    2    1    2    0    0  0.22155012862E+02  0.44653321166E+01  0.37051834939E+02  0.47787282746E+02  0.20000053351E+02 0.  0.
         12    1    1    2    0    0 -0.22155012862E+02 -0.44653321166E+01 -0.37051834939E+02  0.43400717254E+02  0.00000000000E+00 0. -1.
         11    1    3    3    0    0  0.22873036131E+01 -0.46183781890E+00  0.12193914674E+02  0.12415176492E+02  0.51100000000E-03 0. -1.
        -11    1    3    3    0    0  0.32649971881E+01  0.57508787328E+00  0.15444938160E+02  0.15796741681E+02  0.51100000000E-03 0.  1.
         12    1    3    3    0    0  0.16602712061E+02  0.43520820622E+01  0.94129821049E+01  0.19575364573E+02  0.00000000000E+00 0. -1.
</event>
<event>
 7    1  0.2580704E-010  0.4778727E+02  0.7816164E-02  0.1312668E+00
        -11   -1    0    0    0    0  0.00000000000E+00  0.00000000000E+00  0.45593999997E+02  0.45594000000E+02  0.51100000000E-03 0.  1.
         11   -1    0    0    0    0 -0.00000000000E+00 -0.00000000000E+00 -0.45593999997E+02  0.45594000000E+02  0.51100000000E-03 0. -1.
    9900012    2    1    2    0    0 -0.27573928416E+02  0.22976300403E+02  0.24400648581E+02  0.47787267752E+02  0.19999984990E+02 0.  0.
         12    1    1    2    0    0  0.27573928416E+02 -0.22976300403E+02 -0.24400648581E+02  0.43400732248E+02  0.00000000000E+00 0. -1.
         11    1    3    3    0    0 -0.25355430568E+01  0.12616350699E+01 -0.11135540185E+01  0.30431405580E+01  0.51100000000E-03 0. -1.
        -11    1    3    3    0    0 -0.45567803337E+01  0.14096464621E+02  0.11852655905E+02  0.18972612210E+02  0.51100000000E-03 0.  1.
        -12    1    3    3    0    0 -0.20481605025E+02  0.76182007122E+01  0.13661546694E+02  0.25771514984E+02  0.00000000000E+00 0.  1.
</event>
<event>
 7    1  0.2580704E-010  0.4778727E+02  0.7816164E-02  0.1312668E+00
        -11   -1    0    0    0    0  0.00000000000E+00  0.00000000000E+00  0.45593999997E+02  0.45594000000E+02  0.51100000000E-03 0.  1.
         11   -1    0    0    0    0 -0.00000000000E+00 -0.00000000000E+00 -0.45593999997E+02  0.45594000000E+02  0.51100000000E-03 0. -1.
    9900012    2    1    2    0    0  0.34802462014E+02  0.91476909699E+01  0.24263793406E+02  0.47787270942E+02  0.19999999533E+02 0.  0.
         12    1    1    2    0    0 -0.34802462014E+02 -0.91476909699E+01 -0.24263793406E+02  0.43400729058E+02  0.00000000000E+00 0. -1.
         11    1    3    3    0    0  0.30846538460E+02  0.70337148179E+01  0.16267181733E+02  0.35575318423E+02  0.51100000000E-03 0. -1.
        -11    1    3    3    0    0  0.45195594630E+01  0.26724861520E+01  0.12218400850E+01  0.53908713050E+01  0.51100000000E-03 0.  1.
        -12    1    3    3    0    0 -0.56363590864E+00 -0.55851000005E+00  0.67747715884E+01  0.68210812143E+01  0.00000000000E+00 0.  1.
</event>
<event>
 7    1  0.2580704E-010  0.4778727E+02  0.7816164E-02  0.1312668E+00
        -11   -1    0    0    0    0  0.00000000000E+00  0.00000000000E+00  0.45593999997E+02  0.45594000000E+02  0.51100000000E-03 0.  1.
         11   -1    0    0    0    0 -0.00000000000E+00 -0.00000000000E+00 -0.45593999997E+02  0.45594000000E+02  0.51100000000E-03 0. -1.
    9900012    2    1    2    0    0  0.20791325945E+02 -0.78789597605E+01  0.37272860277E+02  0.47787270114E+02  0.19999995756E+02 0.  0.
         12    1    1    2    0    0 -0.20791325945E+02  0.78789597605E+01 -0.37272860277E+02  0.43400729886E+02  0.00000000000E+00 0. -1.
         11    1    3    3    0    0  0.22351229235E+02 -0.34125953669E+01  0.30698955778E+02  0.38126750997E+02  0.51100000000E-03 0.  1.
        -11    1    3    3    0    0  0.10956648495E+01  0.32663961831E+00  0.55069083762E-01  0.11446430744E+01  0.51100000000E-03 0. -1.
        -12    1    3    3    0    0 -0.26555681396E+01 -0.47930040120E+01  0.65188354148E+01  0.85158760423E+01  0.00000000000E+00 0.  1.
</event>
<event>
 7    1  0.2580704E-010  0.4778727E+02  0.7816164E-02  0.1312668E+00
        -11   -1    0    0    0    0  0.00000000000E+00  0.00000000000E+00  0.45593999997E+02  0.45594000000E+02  0.51100000000E-03 0.  1.
         11   -1    0    0    0    0 -0.00000000000E+00 -0.00000000000E+00 -0.45593999997E+02  0.45594000000E+02  0.51100000000E-03 0. -1.
    9900012    2    1    2    0    0  0.92877549280E+01  0.42336180462E+02 -0.22380187667E+01  0.47787270792E+02  0.19999998851E+02 0.  0.
         12    1    1    2    0    0 -0.92877549280E+01 -0.42336180462E+02  0.22380187667E+01  0.43400729208E+02  0.00000000000E+00 0. -1.
         11    1    3    3    0    0  0.54349423565E+00  0.10786817637E+02 -0.29869672637E+01  0.11205926754E+02  0.51100000000E-03 0. -1.
        -11    1    3    3    0    0  0.75100615597E+01  0.28463428489E+02  0.63068066549E+01  0.30105540959E+02  0.51100000000E-03 0.  1.
         12    1    3    3    0    0  0.12341991327E+01  0.30859343369E+01 -0.55578581580E+01  0.64758030803E+01  0.00000000000E+00 0. -1.
</event>
<event>
 7    1  0.2580704E-010  0.4778727E+02  0.7816164E-02  0.1312668E+00
        -11   -1    0    0    0    0  0.00000000000E+00  0.00000000000E+00  0.45593999997E+02  0.45594000000E+02  0.51100000000E-03 0.  1.
         11   -1    0    0    0    0 -0.00000000000E+00 -0.00000000000E+00 -0.45593999997E+02  0.45594000000E+02  0.51100000000E-03 0. -1.
    9900012    2    1    2    0    0  0.26679911944E+02  0.34213586603E+02  0.11117604555E+01  0.47787271655E+02  0.20000002785E+02 0.  0.
         12    1    1    2    0    0 -0.26679911944E+02 -0.34213586603E+02 -0.11117604555E+01  0.43400728345E+02  0.00000000000E+00 0. -1.
         11    1    3    3    0    0  0.38673063274E+01  0.62877490285E+01 -0.27079614761E+01  0.78628812589E+01  0.51100000000E-03 0. -1.
        -11    1    3    3    0    0  0.33603336866E+01  0.46826410635E+00  0.52424216613E+01  0.62445255140E+01  0.51100000000E-03 0.  1.
        -12    1    3    3    0    0  0.19452271930E+02  0.27457573468E+02 -0.14226997297E+01  0.33679864882E+02  0.00000000000E+00 0.  1.
</event>
<event>
 7    1  0.2580704E-010  0.4778727E+02  0.7816164E-02  0.1312668E+00
        -11   -1    0    0    0    0  0.00000000000E+00  0.00000000000E+00  0.45593999997E+02  0.45594000000E+02  0.51100000000E-03 0.  1.
         11   -1    0    0    0    0 -0.00000000000E+00 -0.00000000000E+00 -0.45593999997E+02  0.45594000000E+02  0.51100000000E-03 0. -1.
    9900012    2    1    2    0    0 -0.11058564974E+02 -0.16071977944E+02  0.38768836447E+02  0.47787274041E+02  0.20000013662E+02 0.  0.
         12    1    1    2    0    0  0.11058564974E+02  0.16071977944E+02 -0.38768836447E+02  0.43400725959E+02  0.00000000000E+00 0. -1.
         11    1    3    3    0    0 -0.34252517048E+01  0.30980755265E+01  0.37235222399E+01  0.59325407156E+01  0.51100000000E-03 0. -1.
        -11    1    3    3    0    0 -0.25421142530E+01 -0.34688863476E+01  0.16393222800E+02  0.16947957735E+02  0.51100000000E-03 0.  1.
        -12    1    3    3    0    0 -0.50911990162E+01 -0.15701167123E+02  0.18652091407E+02  0.24906775590E+02  0.00000000000E+00 0.  1.
</event>
<event>
 7    1  0.2580704E-010  0.4778727E+02  0.7816164E-02  0.1312668E+00
        -11   -1    0    0    0    0  0.00000000000E+00  0.00000000000E+00  0.45593999997E+02  0.45594000000E+02  0.51100000000E-03 0.  1.
         11   -1    0    0    0    0 -0.00000000000E+00 -0.00000000000E+00 -0.45593999997E+02  0.45594000000E+02  0.51100000000E-03 0. -1.
    9900012    2    1    2    0    0 -0.38869836971E+02 -0.90303032864E+01 -0.17064947375E+02  0.47787273825E+02  0.20000012677E+02 0.  0.
         12    1    1    2    0    0  0.38869836971E+02  0.90303032864E+01  0.17064947375E+02  0.43400726175E+02  0.00000000000E+00 0. -1.
         11    1    3    3    0    0 -0.23076775451E+02 -0.99254291411E+01 -0.13798429431E+02  0.28660920499E+02  0.51100000000E-03 0. -1.
        -11    1    3    3    0    0 -0.13745315964E+02 -0.24928201806E+01 -0.49554257543E+01  0.14822419103E+02  0.51100000000E-03 0.  1.
         12    1    3    3    0    0 -0.20477455566E+01  0.33879460353E+01  0.16889078101E+01  0.43039342227E+01  0.00000000000E+00 0. -1.
</event>
<event>
 7    1  0.2580704E-010  0.4778727E+02  0.7816164E-02  0.1312668E+00
        -11   -1    0    0    0    0  0.00000000000E+00  0.00000000000E+00  0.45593999997E+02  0.45594000000E+02  0.51100000000E-03 0.  1.
         11   -1    0    0    0    0 -0.00000000000E+00 -0.00000000000E+00 -0.45593999997E+02  0.45594000000E+02  0.51100000000E-03 0. -1.
    9900012    2    1    2    0    0 -0.25779708957E+02  0.48202273230E+01  0.34580273301E+02  0.47787270894E+02  0.19999999312E+02 0.  0.
         12    1    1    2    0    0  0.25779708957E+02 -0.48202273230E+01 -0.34580273301E+02  0.43400729106E+02  0.00000000000E+00 0. -1.
         11    1    3    3    0    0 -0.16147578255E+02  0.25164001001E+01  0.17068768414E+02  0.23630899441E+02  0.51100000000E-03 0. -1.
        -11    1    3    3    0    0 -0.91841291446E+01  0.71000047011E+01  0.14046313668E+02  0.18222437346E+02  0.51100000000E-03 0.  1.
         12    1    3    3    0    0 -0.44800155824E+00 -0.47961774782E+01  0.34651912199E+01  0.59339341072E+01  0.00000000000E+00 0. -1.
</event>
<event>
 7    1  0.2580704E-010  0.4778727E+02  0.7816164E-02  0.1312668E+00
        -11   -1    0    0    0    0  0.00000000000E+00  0.00000000000E+00  0.45593999997E+02  0.45594000000E+02  0.51100000000E-03 0.  1.
         11   -1    0    0    0    0 -0.00000000000E+00 -0.00000000000E+00 -0.45593999997E+02  0.45594000000E+02  0.51100000000E-03 0. -1.
    9900012    2    1    2    0    0  0.56553047682E+01 -0.41719650642E+02  0.10540941487E+02  0.47787272251E+02  0.20000005502E+02 0.  0.
         12    1    1    2    0    0 -0.56553047682E+01  0.41719650642E+02 -0.10540941487E+02  0.43400727749E+02  0.00000000000E+00 0. -1.
         11    1    3    3    0    0  0.44258894800E+01 -0.29798895600E+02  0.76716916763E+01  0.31087256716E+02  0.51100000000E-03 0.  1.
        -11    1    3    3    0    0 -0.23809138221E+01 -0.11179659937E+02  0.49628557400E+01  0.12461279400E+02  0.51100000000E-03 0. -1.
        -12    1    3    3    0    0  0.36103291103E+01 -0.74109510493E+00 -0.20936059289E+01  0.42387361353E+01  0.00000000000E+00 0.  1.
</event>
<event>
 7    1  0.2580704E-010  0.4778727E+02  0.7816164E-02  0.1312668E+00
        -11   -1    0    0    0    0  0.00000000000E+00  0.00000000000E+00  0.45593999997E+02  0.45594000000E+02  0.51100000000E-03 0.  1.
         11   -1    0    0    0    0 -0.00000000000E+00 -0.00000000000E+00 -0.45593999997E+02  0.45594000000E+02  0.51100000000E-03 0. -1.
    9900012    2    1    2    0    0 -0.14120094790E+02 -0.57010049607E+01  0.40641661452E+02  0.47787272126E+02  0.20000004930E+02 0.  0.
         12    1    1    2    0    0  0.14120094790E+02  0.57010049607E+01 -0.40641661452E+02  0.43400727874E+02  0.00000000000E+00 0. -1.
         11    1    3    3    0    0 -0.59974709529E+01 -0.99063480596E+00  0.57163643641E+01  0.83443296288E+01  0.51100000000E-03 0. -1.
        -11    1    3    3    0    0 -0.82595868626E+01  0.40270159047E+01  0.21988975461E+02  0.23831757684E+02  0.51100000000E-03 0.  1.
         12    1    3    3    0    0  0.13696302595E+00 -0.87373860594E+01  0.12936321627E+02  0.15611184813E+02  0.00000000000E+00 0. -1.
</event>
<event>
 7    1  0.2580704E-010  0.4778727E+02  0.7816164E-02  0.1312668E+00
        -11   -1    0    0    0    0  0.00000000000E+00  0.00000000000E+00  0.45593999997E+02  0.45594000000E+02  0.51100000000E-03 0. -1.
         11   -1    0    0    0    0 -0.00000000000E+00 -0.00000000000E+00 -0.45593999997E+02  0.45594000000E+02  0.51100000000E-03 0.  1.
    9900012    2    1    2    0    0 -0.41265823768E+02  0.11511370630E+02 -0.69457407965E+01  0.47787272123E+02  0.20000004918E+02 0.  0.
         12    1    1    2    0    0  0.41265823768E+02 -0.11511370630E+02  0.69457407965E+01  0.43400727877E+02  0.00000000000E+00 0. -1.
         11    1    3    3    0    0 -0.18185423677E+02  0.45397777541E+01 -0.89693800034E+01  0.20779051813E+02  0.51100000000E-03 0. -1.
        -11    1    3    3    0    0 -0.57208715229E+01  0.61204323551E+00 -0.46035397263E+01  0.73685511586E+01  0.51100000000E-03 0.  1.
        -12    1    3    3    0    0 -0.17359528569E+02  0.63595496407E+01  0.66271789333E+01  0.19639669151E+02  0.00000000000E+00 0.  1.
</event>
<event>
 7    1  0.2580704E-010  0.4778727E+02  0.7816164E-02  0.1312668E+00
        -11   -1    0    0    0    0  0.00000000000E+00  0.00000000000E+00  0.45593999997E+02  0.45594000000E+02  0.51100000000E-03 0.  1.
         11   -1    0    0    0    0 -0.00000000000E+00 -0.00000000000E+00 -0.45593999997E+02  0.45594000000E+02  0.51100000000E-03 0. -1.
    9900012    2    1    2    0    0  0.13497194520E+02 -0.10325818064E+02  0.39935276747E+02  0.47787272961E+02  0.20000008741E+02 0.  0.
         12    1    1    2    0    0 -0.13497194520E+02  0.10325818064E+02 -0.39935276747E+02  0.43400727039E+02  0.00000000000E+00 0. -1.
         11    1    3    3    0    0  0.49497537046E+01  0.12469539714E+01  0.38213168682E+01  0.63763170256E+01  0.51100000000E-03 0.  1.
        -11    1    3    3    0    0 -0.32412763502E+01 -0.77018389739E+00  0.24270525175E+01  0.41218490752E+01  0.51100000000E-03 0. -1.
        -12    1    3    3    0    0  0.11788717165E+02 -0.10802588138E+02  0.33686907361E+02  0.37289106861E+02  0.00000000000E+00 0.  1.
</event>
<event>
 7    1  0.2580704E-010  0.4778727E+02  0.7816164E-02  0.1312668E+00
        -11   -1    0    0    0    0  0.00000000000E+00  0.00000000000E+00  0.45593999997E+02  0.45594000000E+02  0.51100000000E-03 0.  1.
         11   -1    0    0    0    0 -0.00000000000E+00 -0.00000000000E+00 -0.45593999997E+02  0.45594000000E+02  0.51100000000E-03 0. -1.
    9900012    2    1    2    0    0 -0.19682879078E+02 -0.76411575479E+01  0.37918599214E+02  0.47787272082E+02  0.20000004731E+02 0.  0.
         12    1    1    2    0    0  0.19682879078E+02  0.76411575479E+01 -0.37918599214E+02  0.43400727918E+02  0.00000000000E+00 0. -1.
         11    1    3    3    0    0 -0.66383891810E+01  0.45173213493E+00  0.20286348914E+02  0.21349665697E+02  0.51100000000E-03 0. -1.
        -11    1    3    3    0    0 -0.27022308232E+01  0.58276358594E-01  0.11676251028E+02  0.11985002540E+02  0.51100000000E-03 0.  1.
        -12    1    3    3    0    0 -0.10342259074E+02 -0.81511660414E+01  0.59559992717E+01  0.14452603845E+02  0.00000000000E+00 0.  1.
</event>
<event>
 7    1  0.2580704E-010  0.4778727E+02  0.7816164E-02  0.1312668E+00
        -11   -1    0    0    0    0  0.00000000000E+00  0.00000000000E+00  0.45593999997E+02  0.45594000000E+02  0.51100000000E-03 0.  1.
         11   -1    0    0    0    0 -0.00000000000E+00 -0.00000000000E+00 -0.45593999997E+02  0.45594000000E+02  0.51100000000E-03 0. -1.
    9900012    2    1    2    0    0  0.39761058617E+01 -0.36025250100E+02  0.23874579116E+02  0.47787267396E+02  0.19999983365E+02 0.  0.
         12    1    1    2    0    0 -0.39761058617E+01  0.36025250100E+02 -0.23874579116E+02  0.43400732604E+02  0.00000000000E+00 0. -1.
         11    1    3    3    0    0  0.85679244900E+01 -0.12333670897E+02  0.82625035519E+01  0.17140528961E+02  0.51100000000E-03 0. -1.
        -11    1    3    3    0    0  0.11095593780E+01 -0.73904140694E+01  0.10008797355E+02  0.12491011444E+02  0.51100000000E-03 0.  1.
        -12    1    3    3    0    0 -0.57013780063E+01 -0.16301165134E+02  0.56032782090E+01  0.18155726991E+02  0.00000000000E+00 0.  1.
</event>
<event>
 7    1  0.2580704E-010  0.4778727E+02  0.7816164E-02  0.1312668E+00
        -11   -1    0    0    0    0  0.00000000000E+00  0.00000000000E+00  0.45593999997E+02  0.45594000000E+02  0.51100000000E-03 0. -1.
         11   -1    0    0    0    0 -0.00000000000E+00 -0.00000000000E+00 -0.45593999997E+02  0.45594000000E+02  0.51100000000E-03 0.  1.
    9900012    2    1    2    0    0  0.10355522798E+02  0.36528520087E+02 -0.21025076985E+02  0.47787268503E+02  0.19999988415E+02 0.  0.
         12    1    1    2    0    0 -0.10355522798E+02 -0.36528520087E+02  0.21025076985E+02  0.43400731497E+02  0.00000000000E+00 0. -1.
         11    1    3    3    0    0  0.61517603899E+01  0.72090246472E+01 -0.12435474675E+02  0.15635063892E+02  0.51100000000E-03 0. -1.
        -11    1    3    3    0    0  0.13068337866E+01  0.13264864088E+02 -0.85548957230E+01  0.15838266159E+02  0.51100000000E-03 0.  1.
        -12    1    3    3    0    0  0.28969286212E+01  0.16054631352E+02 -0.34706587616E-01  0.16313938453E+02  0.00000000000E+00 0.  1.
</event>
<event>
 7    1  0.2580704E-010  0.4778727E+02  0.7816164E-02  0.1312668E+00
        -11   -1    0    0    0    0  0.00000000000E+00  0.00000000000E+00  0.45593999997E+02  0.45594000000E+02  0.51100000000E-03 0.  1.
         11   -1    0    0    0    0 -0.00000000000E+00 -0.00000000000E+00 -0.45593999997E+02  0.45594000000E+02  0.51100000000E-03 0. -1.
    9900012    2    1    2    0    0  0.37264657355E+02 -0.68480518725E+01  0.21167725756E+02  0.47787272864E+02  0.20000008296E+02 0.  0.
         12    1    1    2    0    0 -0.37264657355E+02  0.68480518725E+01 -0.21167725756E+02  0.43400727136E+02  0.00000000000E+00 0. -1.
         11    1    3    3    0    0  0.20123206199E+02 -0.24111878760E+01  0.20933497061E+02  0.29137064955E+02  0.51100000000E-03 0.  1.
        -11    1    3    3    0    0  0.10562283400E+02 -0.14182323558E+01  0.27164322836E+01  0.10997827888E+02  0.51100000000E-03 0. -1.
        -12    1    3    3    0    0  0.65791677557E+01 -0.30186316406E+01 -0.24822035884E+01  0.76523800215E+01  0.00000000000E+00 0.  1.
</event>
<event>
 7    1  0.2580704E-010  0.4778727E+02  0.7816164E-02  0.1312668E+00
        -11   -1    0    0    0    0  0.00000000000E+00  0.00000000000E+00  0.45593999997E+02  0.45594000000E+02  0.51100000000E-03 0. -1.
         11   -1    0    0    0    0 -0.00000000000E+00 -0.00000000000E+00 -0.45593999997E+02  0.45594000000E+02  0.51100000000E-03 0.  1.
    9900012    2    1    2    0    0  0.23762184776E+02  0.36204513244E+02  0.28662042671E+01  0.47787270381E+02  0.19999996975E+02 0.  0.
         12    1    1    2    0    0 -0.23762184776E+02 -0.36204513244E+02 -0.28662042671E+01  0.43400729619E+02  0.00000000000E+00 0. -1.
         11    1    3    3    0    0  0.68245816530E+01  0.15733175106E+02 -0.79879558729E+01  0.18918645642E+02  0.51100000000E-03 0. -1.
        -11    1    3    3    0    0  0.29922301476E+01  0.31431541481E+01  0.61766220422E+00  0.43834194546E+01  0.51100000000E-03 0.  1.
         12    1    3    3    0    0  0.13945372975E+02  0.17328183990E+02  0.10236497936E+02  0.24485205284E+02  0.00000000000E+00 0. -1.
</event>
<event>
 7    1  0.2580704E-010  0.4778727E+02  0.7816164E-02  0.1312668E+00
        -11   -1    0    0    0    0  0.00000000000E+00  0.00000000000E+00  0.45593999997E+02  0.45594000000E+02  0.51100000000E-03 0. -1.
         11   -1    0    0    0    0 -0.00000000000E+00 -0.00000000000E+00 -0.45593999997E+02  0.45594000000E+02  0.51100000000E-03 0.  1.
    9900012    2    1    2    0    0  0.19538545214E+02 -0.22920098194E+02 -0.31249604689E+02  0.47787269090E+02  0.19999991089E+02 0.  0.
         12    1    1    2    0    0 -0.19538545214E+02  0.22920098194E+02  0.31249604689E+02  0.43400730910E+02  0.00000000000E+00 0. -1.
         11    1    3    3    0    0  0.76140375762E+01 -0.10569957925E+02 -0.22211626435E+02  0.25749833551E+02  0.51100000000E-03 0. -1.
        -11    1    3    3    0    0  0.72433475011E+01 -0.25422447868E+01 -0.80522037274E+01  0.11125065245E+02  0.51100000000E-03 0.  1.
        -12    1    3    3    0    0  0.46811601366E+01 -0.98078954822E+01 -0.98577452639E+00  0.10912370294E+02  0.00000000000E+00 0.  1.
</event>
<event>
 7    1  0.2580704E-010  0.4778727E+02  0.7816164E-02  0.1312668E+00
        -11   -1    0    0    0    0  0.00000000000E+00  0.00000000000E+00  0.45593999997E+02  0.45594000000E+02  0.51100000000E-03 0.  1.
         11   -1    0    0    0    0 -0.00000000000E+00 -0.00000000000E+00 -0.45593999997E+02  0.45594000000E+02  0.51100000000E-03 0. -1.
    9900012    2    1    2    0    0  0.18520584217E+01  0.23517110411E+01  0.43297376122E+02  0.47787269082E+02  0.19999991051E+02 0.  0.
         12    1    1    2    0    0 -0.18520584217E+01 -0.23517110411E+01 -0.43297376122E+02  0.43400730918E+02  0.00000000000E+00 0. -1.
         11    1    3    3    0    0  0.81599032362E+00 -0.13870178534E+01  0.86637496112E+01  0.88119360143E+01  0.51100000000E-03 0. -1.
        -11    1    3    3    0    0 -0.11440615660E+01  0.53467540386E+01  0.35661233680E+02  0.36077974492E+02  0.51100000000E-03 0.  1.
         12    1    3    3    0    0  0.21801296641E+01 -0.16080251441E+01 -0.10276071696E+01  0.28973585749E+01  0.00000000000E+00 0. -1.
</event>
<event>
 7    1  0.2580704E-010  0.4778727E+02  0.7816164E-02  0.1312668E+00
        -11   -1    0    0    0    0  0.00000000000E+00  0.00000000000E+00  0.45593999997E+02  0.45594000000E+02  0.51100000000E-03 0.  1.
         11   -1    0    0    0    0 -0.00000000000E+00 -0.00000000000E+00 -0.45593999997E+02  0.45594000000E+02  0.51100000000E-03 0. -1.
    9900012    2    1    2    0    0  0.17788423706E+02 -0.14257559008E+02  0.36931248304E+02  0.47787272954E+02  0.20000008709E+02 0.  0.
         12    1    1    2    0    0 -0.17788423706E+02  0.14257559008E+02 -0.36931248304E+02  0.43400727046E+02  0.00000000000E+00 0. -1.
         11    1    3    3    0    0  0.64306411352E+01  0.26771303728E+01  0.60868992652E+01  0.92504332530E+01  0.51100000000E-03 0. -1.
        -11    1    3    3    0    0  0.88757877439E+00 -0.92238905521E+00  0.10621400256E+02  0.10698258798E+02  0.51100000000E-03 0.  1.
        -12    1    3    3    0    0  0.10470203796E+02 -0.16012300326E+02  0.20222948783E+02  0.27838580904E+02  0.00000000000E+00 0.  1.
</event>
<event>
 7    1  0.2580704E-010  0.4778727E+02  0.7816164E-02  0.1312668E+00
        -11   -1    0    0    0    0  0.00000000000E+00  0.00000000000E+00  0.45593999997E+02  0.45594000000E+02  0.51100000000E-03 0.  1.
         11   -1    0    0    0    0 -0.00000000000E+00 -0.00000000000E+00 -0.45593999997E+02  0.45594000000E+02  0.51100000000E-03 0. -1.
    9900012    2    1    2    0    0 -0.40838999923E+02 -0.75772322103E+01 -0.12585104329E+02  0.47787271738E+02  0.20000003163E+02 0.  0.
         12    1    1    2    0    0  0.40838999923E+02  0.75772322103E+01  0.12585104329E+02  0.43400728262E+02  0.00000000000E+00 0. -1.
         11    1    3    3    0    0  0.55552142775E+00 -0.33399531347E+01 -0.94939708951E+00  0.35164251867E+01  0.51100000000E-03 0. -1.
        -11    1    3    3    0    0 -0.65712475326E+01 -0.43615876999E+01 -0.23810332102E+01  0.82385715272E+01  0.51100000000E-03 0.  1.
        -12    1    3    3    0    0 -0.34823273818E+02  0.12430862427E+00 -0.92546740289E+01  0.36032275024E+02  0.00000000000E+00 0.  1.
</event>
<event>
 7    1  0.2580704E-010  0.4778727E+02  0.7816164E-02  0.1312668E+00
        -11   -1    0    0    0    0  0.00000000000E+00  0.00000000000E+00  0.45593999997E+02  0.45594000000E+02  0.51100000000E-03 0.  1.
         11   -1    0    0    0    0 -0.00000000000E+00 -0.00000000000E+00 -0.45593999997E+02  0.45594000000E+02  0.51100000000E-03 0. -1.
    9900012    2    1    2    0    0 -0.40647935980E+02 -0.14583829425E+02  0.43220813665E+01  0.47787272270E+02  0.20000005587E+02 0.  0.
         12    1    1    2    0    0  0.40647935980E+02  0.14583829425E+02 -0.43220813665E+01  0.43400727730E+02  0.00000000000E+00 0. -1.
         11    1    3    3    0    0 -0.16983488001E+01 -0.21763500650E+00 -0.20591717877E+01  0.26780482362E+01  0.51100000000E-03 0. -1.
        -11    1    3    3    0    0 -0.22262242247E+02 -0.11148320760E+02 -0.39671156789E+01  0.25211713403E+02  0.51100000000E-03 0.  1.
         12    1    3    3    0    0 -0.16687344933E+02 -0.32178736592E+01  0.10348368833E+02  0.19897510631E+02  0.00000000000E+00 0. -1.
</event>
<event>
 7    1  0.2580704E-010  0.4778727E+02  0.7816164E-02  0.1312668E+00
        -11   -1    0    0    0    0  0.00000000000E+00  0.00000000000E+00  0.45593999997E+02  0.45594000000E+02  0.51100000000E-03 0. -1.
         11   -1    0    0    0    0 -0.00000000000E+00 -0.00000000000E+00 -0.45593999997E+02  0.45594000000E+02  0.51100000000E-03 0.  1.
    9900012    2    1    2    0    0 -0.93327716022E+01  0.29907950903E+02 -0.30033932172E+02  0.47787271495E+02  0.20000002055E+02 0.  0.
         12    1    1    2    0    0  0.93327716022E+01 -0.29907950903E+02  0.30033932172E+02  0.43400728505E+02  0.00000000000E+00 0. -1.
         11    1    3    3    0    0 -0.87055467820E+00  0.80361128574E+01  0.34490018714E+00  0.80904840216E+01  0.51100000000E-03 0. -1.
        -11    1    3    3    0    0 -0.51356347167E+01  0.16280372802E+02 -0.14015862440E+02  0.22087772244E+02  0.51100000000E-03 0.  1.
         12    1    3    3    0    0 -0.33265822073E+01  0.55914652437E+01 -0.16362969920E+02  0.17609015229E+02  0.00000000000E+00 0. -1.
</event>
<event>
 7    1  0.2580704E-010  0.4778727E+02  0.7816164E-02  0.1312668E+00
        -11   -1    0    0    0    0  0.00000000000E+00  0.00000000000E+00  0.45593999997E+02  0.45594000000E+02  0.51100000000E-03 0.  1.
         11   -1    0    0    0    0 -0.00000000000E+00 -0.00000000000E+00 -0.45593999997E+02  0.45594000000E+02  0.51100000000E-03 0. -1.
    9900012    2    1    2    0    0  0.36018807458E+02 -0.68776576117E+01  0.23215648373E+02  0.47787274266E+02  0.20000014687E+02 0.  0.
         12    1    1    2    0    0 -0.36018807458E+02  0.68776576117E+01 -0.23215648373E+02  0.43400725734E+02  0.00000000000E+00 0. -1.
         11    1    3    3    0    0  0.41801387827E+01 -0.69060911937E+01  0.73065277443E+01  0.10888204800E+02  0.51100000000E-03 0. -1.
        -11    1    3    3    0    0  0.18406760814E+02 -0.38395749324E+01  0.12280488213E+02  0.22457995688E+02  0.51100000000E-03 0.  1.
         12    1    3    3    0    0  0.13431907861E+02  0.38680085144E+01  0.36286324156E+01  0.14441073778E+02  0.00000000000E+00 0. -1.
</event>
<event>
 7    1  0.2580704E-010  0.4778727E+02  0.7816164E-02  0.1312668E+00
        -11   -1    0    0    0    0  0.00000000000E+00  0.00000000000E+00  0.45593999997E+02  0.45594000000E+02  0.51100000000E-03 0.  1.
         11   -1    0    0    0    0 -0.00000000000E+00 -0.00000000000E+00 -0.45593999997E+02  0.45594000000E+02  0.51100000000E-03 0. -1.
    9900012    2    1    2    0    0 -0.20289530338E+02  0.16905583894E+02  0.34440667902E+02  0.47787269434E+02  0.19999992655E+02 0.  0.
         12    1    1    2    0    0  0.20289530338E+02 -0.16905583894E+02 -0.34440667902E+02  0.43400730566E+02  0.00000000000E+00 0. -1.
         11    1    3    3    0    0 -0.50469085709E+01  0.24674097882E+01  0.21862935982E+01  0.60282067934E+01  0.51100000000E-03 0. -1.
        -11    1    3    3    0    0 -0.95232038765E+01  0.17507678898E+02  0.25843900899E+02  0.32636137125E+02  0.51100000000E-03 0.  1.
        -12    1    3    3    0    0 -0.57194178907E+01 -0.30695047928E+01  0.64104734054E+01  0.91229255156E+01  0.00000000000E+00 0.  1.
</event>
<event>
 7    1  0.2580704E-010  0.4778727E+02  0.7816164E-02  0.1312668E+00
        -11   -1    0    0    0    0  0.00000000000E+00  0.00000000000E+00  0.45593999997E+02  0.45594000000E+02  0.51100000000E-03 0. -1.
         11   -1    0    0    0    0 -0.00000000000E+00 -0.00000000000E+00 -0.45593999997E+02  0.45594000000E+02  0.51100000000E-03 0.  1.
    9900012    2    1    2    0    0  0.18926468209E+02  0.19408072806E+02 -0.33893051937E+02  0.47787268917E+02  0.19999990300E+02 0.  0.
         12    1    1    2    0    0 -0.18926468209E+02 -0.19408072806E+02  0.33893051937E+02  0.43400731083E+02  0.00000000000E+00 0. -1.
         11    1    3    3    0    0  0.10160256561E+02  0.14362322846E+02 -0.80143697358E+01  0.19332285261E+02  0.51100000000E-03 0. -1.
        -11    1    3    3    0    0 -0.29675098914E+00  0.23510150877E+01 -0.48157679707E+01  0.53672110542E+01  0.51100000000E-03 0.  1.
        -12    1    3    3    0    0  0.90629626374E+01  0.26947348731E+01 -0.21062914231E+02  0.23087772601E+02  0.00000000000E+00 0.  1.
</event>
<event>
 7    1  0.2580704E-010  0.4778728E+02  0.7816164E-02  0.1312668E+00
        -11   -1    0    0    0    0  0.00000000000E+00  0.00000000000E+00  0.45593999997E+02  0.45594000000E+02  0.51100000000E-03 0. -1.
         11   -1    0    0    0    0 -0.00000000000E+00 -0.00000000000E+00 -0.45593999997E+02  0.45594000000E+02  0.51100000000E-03 0.  1.
    9900012    2    1    2    0    0  0.36913521606E+02 -0.16675136857E+02 -0.15587000022E+02  0.47787276086E+02  0.20000022988E+02 0.  0.
         12    1    1    2    0    0 -0.36913521606E+02  0.16675136857E+02  0.15587000022E+02  0.43400723914E+02  0.00000000000E+00 0. -1.
         11    1    3    3    0    0  0.13427744740E+02  0.34696301970E+00  0.59866452130E+00  0.13445561038E+02  0.51100000000E-03 0. -1.
        -11    1    3    3    0    0  0.45343402514E+01 -0.59461698605E+01 -0.79039111121E+01  0.10880670414E+02  0.51100000000E-03 0.  1.
        -12    1    3    3    0    0  0.18951436615E+02 -0.11075930016E+02 -0.82817534307E+01  0.23461044635E+02  0.00000000000E+00 0.  1.
</event>
<event>
 7    1  0.2580704E-010  0.4778727E+02  0.7816164E-02  0.1312668E+00
        -11   -1    0    0    0    0  0.00000000000E+00  0.00000000000E+00  0.45593999997E+02  0.45594000000E+02  0.51100000000E-03 0.  1.
         11   -1    0    0    0    0 -0.00000000000E+00 -0.00000000000E+00 -0.45593999997E+02  0.45594000000E+02  0.51100000000E-03 0. -1.
    9900012    2    1    2    0    0 -0.41253158779E+02 -0.36737283251E+01  0.12973210445E+02  0.47787267537E+02  0.19999984009E+02 0.  0.
         12    1    1    2    0    0  0.41253158779E+02  0.36737283251E+01 -0.12973210445E+02  0.43400732463E+02  0.00000000000E+00 0. -1.
         11    1    3    3    0    0 -0.11402847365E+02 -0.14533937344E+01 -0.15144375343E+01  0.11594429812E+02  0.51100000000E-03 0. -1.
        -11    1    3    3    0    0 -0.11305383573E+02  0.12203311480E+01 -0.14969512704E+01  0.11469166020E+02  0.51100000000E-03 0.  1.
        -12    1    3    3    0    0 -0.18544927842E+02 -0.34406657387E+01  0.15984599249E+02  0.24723671704E+02  0.00000000000E+00 0.  1.
</event>
<event>
 7    1  0.2580704E-010  0.4778727E+02  0.7816164E-02  0.1312668E+00
        -11   -1    0    0    0    0  0.00000000000E+00  0.00000000000E+00  0.45593999997E+02  0.45594000000E+02  0.51100000000E-03 0. -1.
         11   -1    0    0    0    0 -0.00000000000E+00 -0.00000000000E+00 -0.45593999997E+02  0.45594000000E+02  0.51100000000E-03 0.  1.
    9900012    2    1    2    0    0  0.67756979860E+01 -0.26189280135E+02 -0.33938689365E+02  0.47787272898E+02  0.20000008449E+02 0.  0.
         12    1    1    2    0    0 -0.67756979860E+01  0.26189280135E+02  0.33938689365E+02  0.43400727102E+02  0.00000000000E+00 0. -1.
         11    1    3    3    0    0  0.54332215430E+00 -0.85259958384E+01 -0.20695337436E+02  0.22389390252E+02  0.51100000000E-03 0. -1.
        -11    1    3    3    0    0  0.63915609800E+01 -0.92857505705E+01 -0.12728980786E+02  0.17003063475E+02  0.51100000000E-03 0.  1.
         12    1    3    3    0    0 -0.15918514830E+00 -0.83775337261E+01 -0.51437114382E+00  0.83948191712E+01  0.00000000000E+00 0. -1.
</event>
<event>
 7    1  0.2580704E-010  0.4778727E+02  0.7816164E-02  0.1312668E+00
        -11   -1    0    0    0    0  0.00000000000E+00  0.00000000000E+00  0.45593999997E+02  0.45594000000E+02  0.51100000000E-03 0.  1.
         11   -1    0    0    0    0 -0.00000000000E+00 -0.00000000000E+00 -0.45593999997E+02  0.45594000000E+02  0.51100000000E-03 0. -1.
    9900012    2    1    2    0    0 -0.29677428837E+01 -0.34969786781E+02  0.25532914609E+02  0.47787271737E+02  0.20000003157E+02 0.  0.
         12    1    1    2    0    0  0.29677428837E+01  0.34969786781E+02 -0.25532914609E+02  0.43400728263E+02  0.00000000000E+00 0. -1.
         11    1    3    3    0    0 -0.29427573622E+01 -0.78575971718E+01  0.15668736730E+01  0.85356164144E+01  0.51100000000E-03 0. -1.
        -11    1    3    3    0    0  0.41385965635E+01 -0.50732524568E+01  0.16705711710E+00  0.65493343438E+01  0.51100000000E-03 0.  1.
         12    1    3    3    0    0 -0.41635820849E+01 -0.22038937153E+02  0.23798983818E+02  0.32702320979E+02  0.00000000000E+00 0. -1.
</event>
<event>
 7    1  0.2580704E-010  0.4778728E+02  0.7816164E-02  0.1312668E+00
        -11   -1    0    0    0    0  0.00000000000E+00  0.00000000000E+00  0.45593999997E+02  0.45594000000E+02  0.51100000000E-03 0.  1.
         11   -1    0    0    0    0 -0.00000000000E+00 -0.00000000000E+00 -0.45593999997E+02  0.45594000000E+02  0.51100000000E-03 0. -1.
    9900012    2    1    2    0    0 -0.13795318449E+02  0.30511445943E+02  0.27610934935E+02  0.47787275668E+02  0.20000021079E+02 0.  0.
         12    1    1    2    0    0  0.13795318449E+02 -0.30511445943E+02 -0.27610934935E+02  0.43400724332E+02  0.00000000000E+00 0. -1.
         11    1    3    3    0    0 -0.50683476467E+01  0.20172950557E+02  0.15030707271E+02  0.25662389666E+02  0.51100000000E-03 0. -1.
        -11    1    3    3    0    0  0.17089419326E+01  0.64147094801E+01  0.24974321113E+01  0.70926826839E+01  0.51100000000E-03 0.  1.
         12    1    3    3    0    0 -0.10435912735E+02  0.39237859059E+01  0.10082795552E+02  0.15032203318E+02  0.00000000000E+00 0. -1.
</event>
<event>
 7    1  0.2580704E-010  0.4778727E+02  0.7816164E-02  0.1312668E+00
        -11   -1    0    0    0    0  0.00000000000E+00  0.00000000000E+00  0.45593999997E+02  0.45594000000E+02  0.51100000000E-03 0.  1.
         11   -1    0    0    0    0 -0.00000000000E+00 -0.00000000000E+00 -0.45593999997E+02  0.45594000000E+02  0.51100000000E-03 0. -1.
    9900012    2    1    2    0    0 -0.29383039866E+02  0.19335646937E+02  0.25424263519E+02  0.47787269019E+02  0.19999990764E+02 0.  0.
         12    1    1    2    0    0  0.29383039866E+02 -0.19335646937E+02 -0.25424263519E+02  0.43400730981E+02  0.00000000000E+00 0. -1.
         11    1    3    3    0    0 -0.51409783071E+01 -0.27632184332E+01  0.51765982559E+01  0.78014231925E+01  0.51100000000E-03 0. -1.
        -11    1    3    3    0    0 -0.62335357552E+01  0.40630874028E+00  0.29435607332E+01  0.69055488453E+01  0.51100000000E-03 0.  1.
        -12    1    3    3    0    0 -0.18008525803E+02  0.21692556630E+02  0.17304104530E+02  0.33080296981E+02  0.00000000000E+00 0.  1.
</event>
<event>
 7    1  0.2580704E-010  0.4778728E+02  0.7816164E-02  0.1312668E+00
        -11   -1    0    0    0    0  0.00000000000E+00  0.00000000000E+00  0.45593999997E+02  0.45594000000E+02  0.51100000000E-03 0.  1.
         11   -1    0    0    0    0 -0.00000000000E+00 -0.00000000000E+00 -0.45593999997E+02  0.45594000000E+02  0.51100000000E-03 0. -1.
    9900012    2    1    2    0    0 -0.17857229612E+02  0.39321627323E+02  0.43071695280E+01  0.47787277263E+02  0.20000028354E+02 0.  0.
         12    1    1    2    0    0  0.17857229612E+02 -0.39321627323E+02 -0.43071695280E+01  0.43400722737E+02  0.00000000000E+00 0. -1.
         11    1    3    3    0    0 -0.39740390165E+01  0.37366009106E+01 -0.24381535687E+01  0.59749280795E+01  0.51100000000E-03 0. -1.
        -11    1    3    3    0    0 -0.88538063542E+01  0.48485517907E+01  0.22785866391E+01  0.10348444268E+02  0.51100000000E-03 0.  1.
         12    1    3    3    0    0 -0.50293842413E+01  0.30736474621E+02  0.44667364576E+01  0.31463904916E+02  0.00000000000E+00 0. -1.
</event>
<event>
 7    1  0.2580704E-010  0.4778728E+02  0.7816164E-02  0.1312668E+00
        -11   -1    0    0    0    0  0.00000000000E+00  0.00000000000E+00  0.45593999997E+02  0.45594000000E+02  0.51100000000E-03 0. -1.
         11   -1    0    0    0    0 -0.00000000000E+00 -0.00000000000E+00 -0.45593999997E+02  0.45594000000E+02  0.51100000000E-03 0.  1.
    9900012    2    1    2    0    0 -0.20264795191E+02  0.20664159354E+02 -0.32341196026E+02  0.47787281500E+02  0.20000047669E+02 0.  0.
         12    1    1    2    0    0  0.20264795191E+02 -0.20664159354E+02  0.32341196026E+02  0.43400718500E+02  0.00000000000E+00 0. -1.
         11    1    3    3    0    0 -0.28458141668E+01  0.15431431595E+01 -0.27809696518E+01  0.42677560319E+01  0.51100000000E-03 0. -1.
        -11    1    3    3    0    0 -0.11028592081E+02  0.16844541948E+01 -0.38464823194E+01  0.11800959949E+02  0.51100000000E-03 0.  1.
        -12    1    3    3    0    0 -0.63903889433E+01  0.17436562000E+02 -0.25713744055E+02  0.31718565518E+02  0.00000000000E+00 0.  1.
</event>
<event>
 7    1  0.2580704E-010  0.4778728E+02  0.7816164E-02  0.1312668E+00
        -11   -1    0    0    0    0  0.00000000000E+00  0.00000000000E+00  0.45593999997E+02  0.45594000000E+02  0.51100000000E-03 0.  1.
         11   -1    0    0    0    0 -0.00000000000E+00 -0.00000000000E+00 -0.45593999997E+02  0.45594000000E+02  0.51100000000E-03 0. -1.
    9900012    2    1    2    0    0 -0.26064520220E+02  0.30565327249E+00  0.34701156068E+02  0.47787275689E+02  0.20000021177E+02 0.  0.
         12    1    1    2    0    0  0.26064520220E+02 -0.30565327249E+00 -0.34701156068E+02  0.43400724311E+02  0.00000000000E+00 0. -1.
         11    1    3    3    0    0  0.10210333370E+01  0.29059090968E+01  0.19535256103E+01  0.36473386634E+01  0.51100000000E-03 0. -1.
        -11    1    3    3    0    0 -0.17619579569E+01  0.22551978405E+01  0.76059323050E+01  0.81265379855E+01  0.51100000000E-03 0.  1.
        -12    1    3    3    0    0 -0.25323595601E+02 -0.48554536648E+01  0.25141698153E+02  0.36013399040E+02  0.00000000000E+00 0.  1.
</event>
<event>
 7    1  0.2580704E-010  0.4778727E+02  0.7816164E-02  0.1312668E+00
        -11   -1    0    0    0    0  0.00000000000E+00  0.00000000000E+00  0.45593999997E+02  0.45594000000E+02  0.51100000000E-03 0.  1.
         11   -1    0    0    0    0 -0.00000000000E+00 -0.00000000000E+00 -0.45593999997E+02  0.45594000000E+02  0.51100000000E-03 0. -1.
    9900012    2    1    2    0    0 -0.35851012940E+02 -0.19770073001E+02  0.14403907847E+02  0.47787268709E+02  0.19999989353E+02 0.  0.
         12    1    1    2    0    0  0.35851012940E+02  0.19770073001E+02 -0.14403907847E+02  0.43400731291E+02  0.00000000000E+00 0. -1.
         11    1    3    3    0    0 -0.14239512017E+01 -0.24130751814E+01  0.96745155477E+00  0.29642084319E+01  0.51100000000E-03 0. -1.
        -11    1    3    3    0    0 -0.12432650224E+02 -0.94983114924E+01  0.14651975914E+02  0.21435230609E+02  0.51100000000E-03 0.  1.
         12    1    3    3    0    0 -0.21994411514E+02 -0.78586863276E+01 -0.12155196223E+01  0.23387829668E+02  0.00000000000E+00 0. -1.
</event>
<event>
 7    1  0.2580704E-010  0.4778726E+02  0.7816164E-02  0.1312668E+00
        -11   -1    0    0    0    0  0.00000000000E+00  0.00000000000E+00  0.45593999997E+02  0.45594000000E+02  0.51100000000E-03 0. -1.
         11   -1    0    0    0    0 -0.00000000000E+00 -0.00000000000E+00 -0.45593999997E+02  0.45594000000E+02  0.51100000000E-03 0.  1.
    9900012    2    1    2    0    0 -0.22190988771E+02 -0.33772412250E+02 -0.15830619082E+02  0.47787259080E+02  0.19999945450E+02 0.  0.
         12    1    1    2    0    0  0.22190988771E+02  0.33772412250E+02  0.15830619082E+02  0.43400740920E+02  0.00000000000E+00 0. -1.
         11    1    3    3    0    0 -0.74663765821E+00  0.48966131319E+00 -0.61070043796E+00  0.10817537984E+01  0.51100000000E-03 0. -1.
        -11    1    3    3    0    0  0.11552687154E+01 -0.29286789478E+01  0.26729381081E+01  0.41299400207E+01  0.51100000000E-03 0.  1.
        -12    1    3    3    0    0 -0.22599619828E+02 -0.31333394616E+02 -0.17892856752E+02  0.42575565261E+02  0.00000000000E+00 0.  1.
</event>
<event>
 7    1  0.2580704E-010  0.4778727E+02  0.7816164E-02  0.1312668E+00
        -11   -1    0    0    0    0  0.00000000000E+00  0.00000000000E+00  0.45593999997E+02  0.45594000000E+02  0.51100000000E-03 0. -1.
         11   -1    0    0    0    0 -0.00000000000E+00 -0.00000000000E+00 -0.45593999997E+02  0.45594000000E+02  0.51100000000E-03 0.  1.
    9900012    2    1    2    0    0  0.16502180960E+02 -0.25867514735E+02 -0.30694833908E+02  0.47787272775E+02  0.20000007893E+02 0.  0.
         12    1    1    2    0    0 -0.16502180960E+02  0.25867514735E+02  0.30694833908E+02  0.43400727225E+02  0.00000000000E+00 0. -1.
         11    1    3    3    0    0 -0.89938607461E+00  0.25351928413E+00  0.49899208118E+00  0.10593208659E+01  0.51100000000E-03 0. -1.
        -11    1    3    3    0    0  0.20718542259E+00 -0.13006415894E+02 -0.13909280882E+02  0.19044103421E+02  0.51100000000E-03 0.  1.
         12    1    3    3    0    0  0.17194381612E+02 -0.13114618126E+02 -0.17284545107E+02  0.27683848489E+02  0.00000000000E+00 0. -1.
</event>
<event>
 7    1  0.2580704E-010  0.4778727E+02  0.7816164E-02  0.1312668E+00
        -11   -1    0    0    0    0  0.00000000000E+00  0.00000000000E+00  0.45593999997E+02  0.45594000000E+02  0.51100000000E-03 0.  1.
         11   -1    0    0    0    0 -0.00000000000E+00 -0.00000000000E+00 -0.45593999997E+02  0.45594000000E+02  0.51100000000E-03 0. -1.
    9900012    2    1    2    0    0 -0.97978347446E+01  0.36862258227E+02  0.20707478959E+02  0.47787270373E+02  0.19999996940E+02 0.  0.
         12    1    1    2    0    0  0.97978347446E+01 -0.36862258227E+02 -0.20707478959E+02  0.43400729627E+02  0.00000000000E+00 0. -1.
         11    1    3    3    0    0 -0.21139412788E+01  0.70722828411E+01  0.74639881104E+01  0.10497478320E+02  0.51100000000E-03 0. -1.
        -11    1    3    3    0    0 -0.12428400297E+02  0.21015129544E+02  0.12100095963E+02  0.27249094045E+02  0.51100000000E-03 0.  1.
         12    1    3    3    0    0  0.47445068312E+01  0.87748458422E+01  0.11433948856E+01  0.10040698008E+02  0.00000000000E+00 0. -1.
</event>
<event>
 7    1  0.2580704E-010  0.4778727E+02  0.7816164E-02  0.1312668E+00
        -11   -1    0    0    0    0  0.00000000000E+00  0.00000000000E+00  0.45593999997E+02  0.45594000000E+02  0.51100000000E-03 0.  1.
         11   -1    0    0    0    0 -0.00000000000E+00 -0.00000000000E+00 -0.45593999997E+02  0.45594000000E+02  0.51100000000E-03 0. -1.
    9900012    2    1    2    0    0 -0.32353241376E+01 -0.24260084511E+02  0.35841378136E+02  0.47787269483E+02  0.19999992880E+02 0.  0.
         12    1    1    2    0    0  0.32353241376E+01  0.24260084511E+02 -0.35841378136E+02  0.43400730517E+02  0.00000000000E+00 0. -1.
         11    1    3    3    0    0  0.35196831484E+01 -0.41718858110E+00  0.31925657607E+01  0.47701878553E+01  0.51100000000E-03 0. -1.
        -11    1    3    3    0    0  0.28678231764E+01 -0.10274720245E+02  0.82403636261E+01  0.13479535557E+02  0.51100000000E-03 0.  1.
        -12    1    3    3    0    0 -0.96228304624E+01 -0.13568175684E+02  0.24408448749E+02  0.29537546070E+02  0.00000000000E+00 0.  1.
</event>
<event>
 7    1  0.2580704E-010  0.4778727E+02  0.7816164E-02  0.1312668E+00
        -11   -1    0    0    0    0  0.00000000000E+00  0.00000000000E+00  0.45593999997E+02  0.45594000000E+02  0.51100000000E-03 0.  1.
         11   -1    0    0    0    0 -0.00000000000E+00 -0.00000000000E+00 -0.45593999997E+02  0.45594000000E+02  0.51100000000E-03 0. -1.
    9900012    2    1    2    0    0 -0.26362065447E+02 -0.29645810574E+01  0.34349327001E+02  0.47787268429E+02  0.19999988074E+02 0.  0.
         12    1    1    2    0    0  0.26362065447E+02  0.29645810574E+01 -0.34349327001E+02  0.43400731571E+02  0.00000000000E+00 0. -1.
         11    1    3    3    0    0 -0.56274486612E+01  0.31668527579E+01  0.80676926674E+01  0.10333673116E+02  0.51100000000E-03 0. -1.
        -11    1    3    3    0    0 -0.18080956832E+02 -0.37624021072E+01  0.10434592893E+02  0.21212199288E+02  0.51100000000E-03 0.  1.
        -12    1    3    3    0    0 -0.26536599548E+01 -0.23690317080E+01  0.15847041441E+02  0.16241396025E+02  0.00000000000E+00 0.  1.
</event>
<event>
 7    1  0.2580704E-010  0.4778728E+02  0.7816164E-02  0.1312668E+00
        -11   -1    0    0    0    0  0.00000000000E+00  0.00000000000E+00  0.45593999997E+02  0.45594000000E+02  0.51100000000E-03 0. -1.
         11   -1    0    0    0    0 -0.00000000000E+00 -0.00000000000E+00 -0.45593999997E+02  0.45594000000E+02  0.51100000000E-03 0.  1.
    9900012    2    1    2    0    0  0.34729065821E+02 -0.26003971214E+02  0.11437674852E+01  0.47787277243E+02  0.20000028263E+02 0.  0.
         12    1    1    2    0    0 -0.34729065821E+02  0.26003971214E+02 -0.11437674852E+01  0.43400722757E+02  0.00000000000E+00 0. -1.
         11    1    3    3    0    0  0.27798559321E+01  0.90566370924E+00  0.27643771822E+01  0.40236310994E+01  0.51100000000E-03 0. -1.
        -11    1    3    3    0    0  0.20711003408E+02 -0.10253235411E+02  0.25242021297E+01  0.23247496537E+02  0.51100000000E-03 0.  1.
        -12    1    3    3    0    0  0.11238206481E+02 -0.16656399512E+02 -0.41448118267E+01  0.20516149607E+02  0.00000000000E+00 0.  1.
</event>
<event>
 7    1  0.2580704E-010  0.4778727E+02  0.7816164E-02  0.1312668E+00
        -11   -1    0    0    0    0  0.00000000000E+00  0.00000000000E+00  0.45593999997E+02  0.45594000000E+02  0.51100000000E-03 0. -1.
         11   -1    0    0    0    0 -0.00000000000E+00 -0.00000000000E+00 -0.45593999997E+02  0.45594000000E+02  0.51100000000E-03 0.  1.
    9900012    2    1    2    0    0 -0.42432562013E+02 -0.17389154020E+01  0.89485881974E+01  0.47787269862E+02  0.19999994608E+02 0.  0.
         12    1    1    2    0    0  0.42432562013E+02  0.17389154020E+01 -0.89485881974E+01  0.43400730138E+02  0.00000000000E+00 0. -1.
         11    1    3    3    0    0 -0.11938513059E+02 -0.47633900656E-02  0.92300379130E+01  0.15090451182E+02  0.51100000000E-03 0. -1.
        -11    1    3    3    0    0  0.46734947989E+00  0.14063515637E+01  0.50776833546E+00  0.15665469035E+01  0.51100000000E-03 0.  1.
        -12    1    3    3    0    0 -0.30961398435E+02 -0.31405035756E+01 -0.78921805109E+00  0.31130271776E+02  0.00000000000E+00 0.  1.
</event>
<event>
 7    1  0.2580704E-010  0.4778727E+02  0.7816164E-02  0.1312668E+00
        -11   -1    0    0    0    0  0.00000000000E+00  0.00000000000E+00  0.45593999997E+02  0.45594000000E+02  0.51100000000E-03 0.  1.
         11   -1    0    0    0    0 -0.00000000000E+00 -0.00000000000E+00 -0.45593999997E+02  0.45594000000E+02  0.51100000000E-03 0. -1.
    9900012    2    1    2    0    0  0.56445003346E+01  0.28727426261E+02  0.32039005988E+02  0.47787270647E+02  0.19999998190E+02 0.  0.
         12    1    1    2    0    0 -0.56445003346E+01 -0.28727426261E+02 -0.32039005988E+02  0.43400729353E+02  0.00000000000E+00 0. -1.
         11    1    3    3    0    0  0.26642270572E+01  0.27978213366E+01  0.46099851538E+01  0.60148045208E+01  0.51100000000E-03 0. -1.
        -11    1    3    3    0    0 -0.61874768559E+00  0.20699813168E+02  0.28606500825E+02  0.35315676457E+02  0.51100000000E-03 0.  1.
        -12    1    3    3    0    0  0.35990209630E+01  0.52297917566E+01 -0.11774799908E+01  0.64567896696E+01  0.00000000000E+00 0.  1.
</event>
<event>
 7    1  0.2580704E-010  0.4778729E+02  0.7816164E-02  0.1312668E+00
        -11   -1    0    0    0    0  0.00000000000E+00  0.00000000000E+00  0.45593999997E+02  0.45594000000E+02  0.51100000000E-03 0.  1.
         11   -1    0    0    0    0 -0.00000000000E+00 -0.00000000000E+00 -0.45593999997E+02  0.45594000000E+02  0.51100000000E-03 0. -1.
    9900012    2    1    2    0    0 -0.23320260244E+02 -0.29595406062E+02  0.21538320803E+02  0.47787287324E+02  0.20000074225E+02 0.  0.
         12    1    1    2    0    0  0.23320260244E+02  0.29595406062E+02 -0.21538320803E+02  0.43400712676E+02  0.00000000000E+00 0. -1.
         11    1    3    3    0    0  0.13516565988E+00 -0.33459662494E+00 -0.15841480987E+01  0.16247307828E+01  0.51100000000E-03 0. -1.
        -11    1    3    3    0    0  0.31802865510E+00 -0.26118443068E+01 -0.12635443151E+01  0.29188041054E+01  0.51100000000E-03 0.  1.
        -12    1    3    3    0    0 -0.23773454559E+02 -0.26648965130E+02  0.24386013216E+02  0.43243752436E+02  0.00000000000E+00 0.  1.
</event>
<event>
 7    1  0.2580704E-010  0.4778728E+02  0.7816164E-02  0.1312668E+00
        -11   -1    0    0    0    0  0.00000000000E+00  0.00000000000E+00  0.45593999997E+02  0.45594000000E+02  0.51100000000E-03 0.  1.
         11   -1    0    0    0    0 -0.00000000000E+00 -0.00000000000E+00 -0.45593999997E+02  0.45594000000E+02  0.51100000000E-03 0. -1.
    9900012    2    1    2    0    0  0.78555743895E+01  0.24620033348E+02  0.34867846349E+02  0.47787276503E+02  0.20000024888E+02 0.  0.
         12    1    1    2    0    0 -0.78555743895E+01 -0.24620033348E+02 -0.34867846349E+02  0.43400723497E+02  0.00000000000E+00 0. -1.
         11    1    3    3    0    0  0.11744116022E+02  0.23079065855E+02  0.23538673464E+02  0.34994809480E+02  0.51100000000E-03 0. -1.
        -11    1    3    3    0    0 -0.46813240249E+00 -0.95025268340E+00  0.54314299614E+01  0.55337654265E+01  0.51100000000E-03 0.  1.
         12    1    3    3    0    0 -0.34204092304E+01  0.24912201771E+01  0.58977429234E+01  0.72587015963E+01  0.00000000000E+00 0. -1.
</event>
<event>
 7    1  0.2580704E-010  0.4778727E+02  0.7816164E-02  0.1312668E+00
        -11   -1    0    0    0    0  0.00000000000E+00  0.00000000000E+00  0.45593999997E+02  0.45594000000E+02  0.51100000000E-03 0.  1.
         11   -1    0    0    0    0 -0.00000000000E+00 -0.00000000000E+00 -0.45593999997E+02  0.45594000000E+02  0.51100000000E-03 0. -1.
    9900012    2    1    2    0    0 -0.11249066018E+02  0.11201653144E+02  0.40393127560E+02  0.47787271049E+02  0.20000000020E+02 0.  0.
         12    1    1    2    0    0  0.11249066018E+02 -0.11201653144E+02 -0.40393127560E+02  0.43400728951E+02  0.00000000000E+00 0. -1.
         11    1    3    3    0    0 -0.11406425542E+01  0.31645031979E+00  0.60188677719E+00  0.13279586571E+01  0.51100000000E-03 0. -1.
        -11    1    3    3    0    0 -0.10684966859E+02 -0.11182680742E+01  0.11584768538E+02  0.15799553874E+02  0.51100000000E-03 0.  1.
        -12    1    3    3    0    0  0.57654339541E+00  0.12003470899E+02  0.28206472244E+02  0.30659758518E+02  0.00000000000E+00 0.  1.
</event>
<event>
 7    1  0.2580704E-010  0.4778729E+02  0.7816164E-02  0.1312668E+00
        -11   -1    0    0    0    0  0.00000000000E+00  0.00000000000E+00  0.45593999997E+02  0.45594000000E+02  0.51100000000E-03 0.  1.
         11   -1    0    0    0    0 -0.00000000000E+00 -0.00000000000E+00 -0.45593999997E+02  0.45594000000E+02  0.51100000000E-03 0. -1.
    9900012    2    1    2    0    0  0.22248957429E+02 -0.37161657221E+02  0.27598552714E+01  0.47787289462E+02  0.20000083973E+02 0.  0.
         12    1    1    2    0    0 -0.22248957429E+02  0.37161657221E+02 -0.27598552714E+01  0.43400710538E+02  0.00000000000E+00 0. -1.
         11    1    3    3    0    0 -0.21444404242E+01 -0.35368168165E+01  0.86340840830E+00  0.42253014409E+01  0.51100000000E-03 0. -1.
        -11    1    3    3    0    0  0.79056250032E+01 -0.17716782676E+02 -0.42079935198E+01  0.19851712894E+02  0.51100000000E-03 0.  1.
        -12    1    3    3    0    0  0.16487772850E+02 -0.15908057728E+02  0.61044403829E+01  0.23710275128E+02  0.00000000000E+00 0.  1.
</event>
<event>
 7    1  0.2580704E-010  0.4778728E+02  0.7816164E-02  0.1312668E+00
        -11   -1    0    0    0    0  0.00000000000E+00  0.00000000000E+00  0.45593999997E+02  0.45594000000E+02  0.51100000000E-03 0.  1.
         11   -1    0    0    0    0 -0.00000000000E+00 -0.00000000000E+00 -0.45593999997E+02  0.45594000000E+02  0.51100000000E-03 0. -1.
    9900012    2    1    2    0    0 -0.40125681308E-01  0.94737805570E+01  0.42354087910E+02  0.47787275458E+02  0.20000020124E+02 0.  0.
         12    1    1    2    0    0  0.40125681308E-01 -0.94737805570E+01 -0.42354087910E+02  0.43400724542E+02  0.00000000000E+00 0. -1.
         11    1    3    3    0    0  0.62755268987E+01  0.33463164776E+01  0.82935467835E+01  0.10925337081E+02  0.51100000000E-03 0. -1.
        -11    1    3    3    0    0  0.91250848514E+00  0.23479625915E+01  0.22901735408E+02  0.23039858616E+02  0.51100000000E-03 0.  1.
         12    1    3    3    0    0 -0.72281610651E+01  0.37795014879E+01  0.11158805718E+02  0.13822079761E+02  0.00000000000E+00 0. -1.
</event>
<event>
 7    1  0.2808676E-010  0.4778727E+02  0.7816164E-02  0.1312668E+00
        -11   -1    0    0    0    0  0.00000000000E+00  0.00000000000E+00  0.45593999997E+02  0.45594000000E+02  0.51100000000E-03 0. -1.
         11   -1    0    0    0    0 -0.00000000000E+00 -0.00000000000E+00 -0.45593999997E+02  0.45594000000E+02  0.51100000000E-03 0.  1.
    9900012    2    1    2    0    0 -0.21809067537E+02  0.57455372888E+00 -0.37518765780E+02  0.47787270461E+02  0.19999997341E+02 0.  0.
         12    1    1    2    0    0  0.21809067537E+02 -0.57455372888E+00  0.37518765780E+02  0.43400729539E+02  0.00000000000E+00 0. -1.
         11    1    3    3    0    0 -0.26011330450E+01 -0.44324358514E+01 -0.17945892037E+01  0.54436138149E+01  0.51100000000E-03 0. -1.
        -11    1    3    3    0    0 -0.89514927577E+01 -0.32514569241E+01 -0.13752031814E+02  0.16727808404E+02  0.51100000000E-03 0.  1.
        -12    1    3    3    0    0 -0.10256441735E+02  0.82584465044E+01 -0.21972144762E+02  0.25615848242E+02  0.00000000000E+00 0.  1.
</event>
<event>
 7    1  0.2580704E-010  0.4778727E+02  0.7816164E-02  0.1312668E+00
        -11   -1    0    0    0    0  0.00000000000E+00  0.00000000000E+00  0.45593999997E+02  0.45594000000E+02  0.51100000000E-03 0.  1.
         11   -1    0    0    0    0 -0.00000000000E+00 -0.00000000000E+00 -0.45593999997E+02  0.45594000000E+02  0.51100000000E-03 0. -1.
    9900012    2    1    2    0    0 -0.26479874952E+02  0.29762773394E+02 -0.17222568586E+02  0.47787270441E+02  0.19999997247E+02 0.  0.
         12    1    1    2    0    0  0.26479874952E+02 -0.29762773394E+02  0.17222568586E+02  0.43400729559E+02  0.00000000000E+00 0. -1.
         11    1    3    3    0    0 -0.13639182069E+02  0.18941351701E+02 -0.15659752479E+02  0.28107471244E+02  0.51100000000E-03 0. -1.
        -11    1    3    3    0    0 -0.82761092543E+01  0.70408817724E+01 -0.58728739820E+01  0.12351463460E+02  0.51100000000E-03 0.  1.
        -12    1    3    3    0    0 -0.45645836288E+01  0.37805399204E+01  0.43100578745E+01  0.73283357371E+01  0.00000000000E+00 0.  1.
</event>
<event>
 7    1  0.2580704E-010  0.4778727E+02  0.7816164E-02  0.1312668E+00
        -11   -1    0    0    0    0  0.00000000000E+00  0.00000000000E+00  0.45593999997E+02  0.45594000000E+02  0.51100000000E-03 0.  1.
         11   -1    0    0    0    0 -0.00000000000E+00 -0.00000000000E+00 -0.45593999997E+02  0.45594000000E+02  0.51100000000E-03 0. -1.
    9900012    2    1    2    0    0 -0.14635925355E+02  0.24245928740E+02  0.32886893285E+02  0.47787272801E+02  0.20000008009E+02 0.  0.
         12    1    1    2    0    0  0.14635925355E+02 -0.24245928740E+02 -0.32886893285E+02  0.43400727199E+02  0.00000000000E+00 0. -1.
         11    1    3    3    0    0  0.21040114082E+01  0.58579857957E+01  0.85105877076E+01  0.10543859112E+02  0.51100000000E-03 0. -1.
        -11    1    3    3    0    0 -0.82056405710E+01  0.17350384719E+02  0.19494260720E+02  0.27356801501E+02  0.51100000000E-03 0.  1.
        -12    1    3    3    0    0 -0.85342961921E+01  0.10375582251E+01  0.48820448576E+01  0.98866121881E+01  0.00000000000E+00 0.  1.
</event>
<event>
 7    1  0.2580704E-010  0.4778727E+02  0.7816164E-02  0.1312668E+00
        -11   -1    0    0    0    0  0.00000000000E+00  0.00000000000E+00  0.45593999997E+02  0.45594000000E+02  0.51100000000E-03 0.  1.
         11   -1    0    0    0    0 -0.00000000000E+00 -0.00000000000E+00 -0.45593999997E+02  0.45594000000E+02  0.51100000000E-03 0. -1.
    9900012    2    1    2    0    0  0.18015430177E+02  0.28077193568E+02  0.27762188112E+02  0.47787267151E+02  0.19999982247E+02 0.  0.
         12    1    1    2    0    0 -0.18015430177E+02 -0.28077193568E+02 -0.27762188112E+02  0.43400732849E+02  0.00000000000E+00 0. -1.
         11    1    3    3    0    0  0.24912870652E+01 -0.17013351026E+00  0.40547314942E+00  0.25297955231E+01  0.51100000000E-03 0. -1.
        -11    1    3    3    0    0  0.17020851234E+02  0.28365119082E+02  0.22081760071E+02  0.39773024594E+02  0.51100000000E-03 0.  1.
         12    1    3    3    0    0 -0.14967081227E+01 -0.11779200381E+00  0.52749548910E+01  0.54844470335E+01  0.00000000000E+00 0. -1.
</event>
<event>
 7    1  0.2580704E-010  0.4778727E+02  0.7816164E-02  0.1312668E+00
        -11   -1    0    0    0    0  0.00000000000E+00  0.00000000000E+00  0.45593999997E+02  0.45594000000E+02  0.51100000000E-03 0.  1.
         11   -1    0    0    0    0 -0.00000000000E+00 -0.00000000000E+00 -0.45593999997E+02  0.45594000000E+02  0.51100000000E-03 0. -1.
    9900012    2    1    2    0    0  0.89718352305E+01  0.40661519939E+02  0.12238059698E+02  0.47787272629E+02  0.20000007225E+02 0.  0.
         12    1    1    2    0    0 -0.89718352305E+01 -0.40661519939E+02 -0.12238059698E+02  0.43400727371E+02  0.00000000000E+00 0. -1.
         11    1    3    3    0    0  0.34788112386E+01  0.13649457738E+02  0.10836520478E+02  0.17771887928E+02  0.51100000000E-03 0. -1.
        -11    1    3    3    0    0  0.80213115860E+01  0.18558718731E+02  0.44097857212E+01  0.20693324790E+02  0.51100000000E-03 0.  1.
         12    1    3    3    0    0 -0.25282875941E+01  0.84533434700E+01 -0.30082465015E+01  0.93220599115E+01  0.00000000000E+00 0. -1.
</event>
<event>
 7    1  0.2580704E-010  0.4778726E+02  0.7816164E-02  0.1312668E+00
        -11   -1    0    0    0    0  0.00000000000E+00  0.00000000000E+00  0.45593999997E+02  0.45594000000E+02  0.51100000000E-03 0.  1.
         11   -1    0    0    0    0 -0.00000000000E+00 -0.00000000000E+00 -0.45593999997E+02  0.45594000000E+02  0.51100000000E-03 0. -1.
    9900012    2    1    2    0    0 -0.24052689021E+02  0.94647699607E+01  0.34864166745E+02  0.47787264495E+02  0.19999970137E+02 0.  0.
         12    1    1    2    0    0  0.24052689021E+02 -0.94647699607E+01 -0.34864166745E+02  0.43400735505E+02  0.00000000000E+00 0. -1.
         11    1    3    3    0    0 -0.93355777470E+01  0.53649717773E+01  0.91013311054E+01  0.14098587241E+02  0.51100000000E-03 0. -1.
        -11    1    3    3    0    0 -0.51441501325E+01  0.89413375874E+01  0.16778138438E+02  0.19695576360E+02  0.51100000000E-03 0.  1.
         12    1    3    3    0    0 -0.95729611414E+01 -0.48415394040E+01  0.89846972017E+01  0.13993100894E+02  0.00000000000E+00 0. -1.
</event>
<event>
 7    1  0.2580704E-010  0.4778727E+02  0.7816164E-02  0.1312668E+00
        -11   -1    0    0    0    0  0.00000000000E+00  0.00000000000E+00  0.45593999997E+02  0.45594000000E+02  0.51100000000E-03 0. -1.
         11   -1    0    0    0    0 -0.00000000000E+00 -0.00000000000E+00 -0.45593999997E+02  0.45594000000E+02  0.51100000000E-03 0.  1.
    9900012    2    1    2    0    0 -0.27827468286E+02  0.33284916747E+02  0.11703236856E+01  0.47787270379E+02  0.19999996967E+02 0.  0.
         12    1    1    2    0    0  0.27827468286E+02 -0.33284916747E+02 -0.11703236856E+01  0.43400729621E+02  0.00000000000E+00 0. -1.
         11    1    3    3    0    0 -0.25278305202E+01 -0.10227356275E+00  0.28586039684E+00  0.25459975350E+01  0.51100000000E-03 0. -1.
        -11    1    3    3    0    0 -0.24995207088E+02  0.29970546515E+02 -0.40462647198E+01  0.39234758751E+02  0.51100000000E-03 0.  1.
        -12    1    3    3    0    0 -0.30443067768E+00  0.34166437948E+01  0.49307280086E+01  0.60065140933E+01  0.00000000000E+00 0.  1.
</event>
<event>
 7    1  0.2580704E-010  0.4778727E+02  0.7816164E-02  0.1312668E+00
        -11   -1    0    0    0    0  0.00000000000E+00  0.00000000000E+00  0.45593999997E+02  0.45594000000E+02  0.51100000000E-03 0. -1.
         11   -1    0    0    0    0 -0.00000000000E+00 -0.00000000000E+00 -0.45593999997E+02  0.45594000000E+02  0.51100000000E-03 0.  1.
    9900012    2    1    2    0    0 -0.72880771647E+01 -0.76283186110E+01 -0.42098883933E+02  0.47787270259E+02  0.19999996421E+02 0.  0.
         12    1    1    2    0    0  0.72880771647E+01  0.76283186110E+01  0.42098883933E+02  0.43400729741E+02  0.00000000000E+00 0. -1.
         11    1    3    3    0    0 -0.22772438766E+01 -0.72370969823E+01 -0.77715418764E+01  0.10860859810E+02  0.51100000000E-03 0. -1.
        -11    1    3    3    0    0  0.22849897653E+01 -0.82997829850E+00 -0.72285343624E+00  0.25362491114E+01  0.51100000000E-03 0.  1.
        -12    1    3    3    0    0 -0.72958230534E+01  0.43875666977E+00 -0.33604488621E+02  0.34390161339E+02  0.00000000000E+00 0.  1.
</event>
<event>
 7    1  0.2580704E-010  0.4778722E+02  0.7816164E-02  0.1312668E+00
        -11   -1    0    0    0    0  0.00000000000E+00  0.00000000000E+00  0.45593999997E+02  0.45594000000E+02  0.51100000000E-03 0. -1.
         11   -1    0    0    0    0 -0.00000000000E+00 -0.00000000000E+00 -0.45593999997E+02  0.45594000000E+02  0.51100000000E-03 0.  1.
    9900012    2    1    2    0    0 -0.33084991692E+02  0.25514429824E+02  0.11748385707E+02  0.47787223841E+02  0.19999784779E+02 0.  0.
         12    1    1    2    0    0  0.33084991692E+02 -0.25514429824E+02 -0.11748385707E+02  0.43400776159E+02  0.00000000000E+00 0. -1.
         11    1    3    3    0    0 -0.36322709740E+01  0.96437834602E+01  0.33417895727E+01  0.10833444035E+02  0.51100000000E-03 0. -1.
        -11    1    3    3    0    0 -0.23323694470E+02  0.17770326360E+02  0.85246188584E+01  0.30536017252E+02  0.51100000000E-03 0.  1.
        -12    1    3    3    0    0 -0.61290262474E+01 -0.18996799960E+01 -0.11802272405E+00  0.64177625534E+01  0.00000000000E+00 0.  1.
</event>
<event>
 7    1  0.2580704E-010  0.4778729E+02  0.7816164E-02  0.1312668E+00
        -11   -1    0    0    0    0  0.00000000000E+00  0.00000000000E+00  0.45593999997E+02  0.45594000000E+02  0.51100000000E-03 0.  1.
         11   -1    0    0    0    0 -0.00000000000E+00 -0.00000000000E+00 -0.45593999997E+02  0.45594000000E+02  0.51100000000E-03 0. -1.
    9900012    2    1    2    0    0 -0.85650360553E+01 -0.35936183796E+02  0.22778331846E+02  0.47787290902E+02  0.20000090540E+02 0.  0.
         12    1    1    2    0    0  0.85650360553E+01  0.35936183796E+02 -0.22778331846E+02  0.43400709098E+02  0.00000000000E+00 0. -1.
         11    1    3    3    0    0  0.71657921704E+00 -0.52733845282E+01  0.11953348931E+02  0.13084518374E+02  0.51100000000E-03 0. -1.
        -11    1    3    3    0    0 -0.36701177145E+01 -0.67474175210E+01  0.58108032242E+01  0.96313468224E+01  0.51100000000E-03 0.  1.
        -12    1    3    3    0    0 -0.56114975579E+01 -0.23915381747E+02  0.50141796911E+01  0.25071425706E+02  0.00000000000E+00 0.  1.
</event>
<event>
 7    1  0.2580704E-010  0.4778727E+02  0.7816164E-02  0.1312668E+00
        -11   -1    0    0    0    0  0.00000000000E+00  0.00000000000E+00  0.45593999997E+02  0.45594000000E+02  0.51100000000E-03 0.  1.
         11   -1    0    0    0    0 -0.00000000000E+00 -0.00000000000E+00 -0.45593999997E+02  0.45594000000E+02  0.51100000000E-03 0. -1.
    9900012    2    1    2    0    0  0.18051965707E+02  0.62706094782E+01  0.38967025612E+02  0.47787273115E+02  0.20000009442E+02 0.  0.
         12    1    1    2    0    0 -0.18051965707E+02 -0.62706094782E+01 -0.38967025612E+02  0.43400726885E+02  0.00000000000E+00 0. -1.
         11    1    3    3    0    0  0.83331301852E+01  0.17185040596E+01  0.11948545367E+02  0.14668403169E+02  0.51100000000E-03 0. -1.
        -11    1    3    3    0    0  0.93030570425E+01  0.88260452600E+01  0.12233744851E+02  0.17723161642E+02  0.51100000000E-03 0.  1.
         12    1    3    3    0    0  0.41577847902E+00 -0.42739398414E+01  0.14784735394E+02  0.15395708304E+02  0.00000000000E+00 0. -1.
</event>
<event>
 7    1  0.2580704E-010  0.4778727E+02  0.7816164E-02  0.1312668E+00
        -11   -1    0    0    0    0  0.00000000000E+00  0.00000000000E+00  0.45593999997E+02  0.45594000000E+02  0.51100000000E-03 0.  1.
         11   -1    0    0    0    0 -0.00000000000E+00 -0.00000000000E+00 -0.45593999997E+02  0.45594000000E+02  0.51100000000E-03 0. -1.
    9900012    2    1    2    0    0  0.25303804973E+02  0.18485191160E+02  0.30027293904E+02  0.47787271693E+02  0.20000002959E+02 0.  0.
         12    1    1    2    0    0 -0.25303804973E+02 -0.18485191160E+02 -0.30027293904E+02  0.43400728307E+02  0.00000000000E+00 0. -1.
         11    1    3    3    0    0  0.31601468713E+01  0.35051661883E+01 -0.19352673714E+00  0.47233643851E+01  0.51100000000E-03 0. -1.
        -11    1    3    3    0    0  0.20684917336E+02  0.86160217742E+01  0.28607374750E+02  0.36338457959E+02  0.51100000000E-03 0.  1.
        -12    1    3    3    0    0  0.14587407655E+01  0.63640031972E+01  0.16134458908E+01  0.67254493498E+01  0.00000000000E+00 0.  1.
</event>
<event>
 7    1  0.2580704E-010  0.4778727E+02  0.7816164E-02  0.1312668E+00
        -11   -1    0    0    0    0  0.00000000000E+00  0.00000000000E+00  0.45593999997E+02  0.45594000000E+02  0.51100000000E-03 0.  1.
         11   -1    0    0    0    0 -0.00000000000E+00 -0.00000000000E+00 -0.45593999997E+02  0.45594000000E+02  0.51100000000E-03 0. -1.
    9900012    2    1    2    0    0  0.38297117661E+02 -0.44339285421E+01  0.19932243009E+02  0.47787271264E+02  0.20000001001E+02 0.  0.
         12    1    1    2    0    0 -0.38297117661E+02  0.44339285421E+01 -0.19932243009E+02  0.43400728736E+02  0.00000000000E+00 0. -1.
         11    1    3    3    0    0  0.14780079347E+02 -0.71416870403E+01  0.75212115057E+01  0.18056108719E+02  0.51100000000E-03 0. -1.
        -11    1    3    3    0    0  0.80237839389E+01  0.10966647412E+00  0.11463495710E+02  0.13993029321E+02  0.51100000000E-03 0.  1.
         12    1    3    3    0    0  0.15493254375E+02  0.25980920241E+01  0.94753579334E+00  0.15738133224E+02  0.00000000000E+00 0. -1.
</event>
<event>
 7    1  0.2580704E-010  0.4778727E+02  0.7816164E-02  0.1312668E+00
        -11   -1    0    0    0    0  0.00000000000E+00  0.00000000000E+00  0.45593999997E+02  0.45594000000E+02  0.51100000000E-03 0.  1.
         11   -1    0    0    0    0 -0.00000000000E+00 -0.00000000000E+00 -0.45593999997E+02  0.45594000000E+02  0.51100000000E-03 0. -1.
    9900012    2    1    2    0    0 -0.12888745383E+02  0.19945372498E+02  0.36327483434E+02  0.47787266201E+02  0.19999977917E+02 0.  0.
         12    1    1    2    0    0  0.12888745383E+02 -0.19945372498E+02 -0.36327483434E+02  0.43400733799E+02  0.00000000000E+00 0. -1.
         11    1    3    3    0    0 -0.81490211005E+01 -0.45942435250E+00  0.15145232429E+02  0.17204525022E+02  0.51100000000E-03 0. -1.
        -11    1    3    3    0    0 -0.12725730132E+01  0.16032281308E+01 -0.20423301190E-02  0.20468969064E+01  0.51100000000E-03 0.  1.
        -12    1    3    3    0    0 -0.34671512691E+01  0.18801568720E+02  0.21184293335E+02  0.28535844273E+02  0.00000000000E+00 0.  1.
</event>
<event>
 7    1  0.2580704E-010  0.4778727E+02  0.7816164E-02  0.1312668E+00
        -11   -1    0    0    0    0  0.00000000000E+00  0.00000000000E+00  0.45593999997E+02  0.45594000000E+02  0.51100000000E-03 0.  1.
         11   -1    0    0    0    0 -0.00000000000E+00 -0.00000000000E+00 -0.45593999997E+02  0.45594000000E+02  0.51100000000E-03 0. -1.
    9900012    2    1    2    0    0  0.10171478390E+02 -0.10398921055E+02  0.40890421343E+02  0.47787273170E+02  0.20000009691E+02 0.  0.
         12    1    1    2    0    0 -0.10171478390E+02  0.10398921055E+02 -0.40890421343E+02  0.43400726830E+02  0.00000000000E+00 0. -1.
         11    1    3    3    0    0  0.41768299686E+00 -0.23609943527E+01  0.44306105022E+01  0.50377637006E+01  0.51100000000E-03 0. -1.
        -11    1    3    3    0    0  0.14699343665E+02 -0.85767805785E+01  0.30991785002E+02  0.35357072944E+02  0.51100000000E-03 0.  1.
         12    1    3    3    0    0 -0.49455482720E+01  0.53885387578E+00  0.54680258391E+01  0.73924365258E+01  0.00000000000E+00 0. -1.
</event>
<event>
 7    1  0.2580704E-010  0.4778727E+02  0.7816164E-02  0.1312668E+00
        -11   -1    0    0    0    0  0.00000000000E+00  0.00000000000E+00  0.45593999997E+02  0.45594000000E+02  0.51100000000E-03 0.  1.
         11   -1    0    0    0    0 -0.00000000000E+00 -0.00000000000E+00 -0.45593999997E+02  0.45594000000E+02  0.51100000000E-03 0. -1.
    9900012    2    1    2    0    0 -0.12528927785E+02  0.26234688076E+02  0.32224060221E+02  0.47787274810E+02  0.20000017168E+02 0.  0.
         12    1    1    2    0    0  0.12528927785E+02 -0.26234688076E+02 -0.32224060221E+02  0.43400725190E+02  0.00000000000E+00 0. -1.
         11    1    3    3    0    0  0.30464300871E+01  0.86304898816E+01  0.11729934124E+02  0.14878086123E+02  0.51100000000E-03 0. -1.
        -11    1    3    3    0    0 -0.20650594884E+00  0.55293012856E+01  0.79467241799E+01  0.96832971073E+01  0.51100000000E-03 0.  1.
         12    1    3    3    0    0 -0.15368851923E+02  0.12074896909E+02  0.12547401917E+02  0.23225891580E+02  0.00000000000E+00 0. -1.
</event>
<event>
 7    1  0.2580704E-010  0.4778727E+02  0.7816164E-02  0.1312668E+00
        -11   -1    0    0    0    0  0.00000000000E+00  0.00000000000E+00  0.45593999997E+02  0.45594000000E+02  0.51100000000E-03 0.  1.
         11   -1    0    0    0    0 -0.00000000000E+00 -0.00000000000E+00 -0.45593999997E+02  0.45594000000E+02  0.51100000000E-03 0. -1.
    9900012    2    1    2    0    0 -0.27039372221E+02  0.14735775265E+02  0.30583535371E+02  0.47787270069E+02  0.19999995553E+02 0.  0.
         12    1    1    2    0    0  0.27039372221E+02 -0.14735775265E+02 -0.30583535371E+02  0.43400729931E+02  0.00000000000E+00 0. -1.
         11    1    3    3    0    0 -0.11538006659E+02  0.47451781714E+00  0.62258422892E+01  0.13119141637E+02  0.51100000000E-03 0. -1.
        -11    1    3    3    0    0 -0.16297062456E+02  0.13388694540E+02  0.16652532458E+02  0.26873001762E+02  0.51100000000E-03 0.  1.
         12    1    3    3    0    0  0.79569689306E+00  0.87256290777E+00  0.77051606239E+01  0.77951266708E+01  0.00000000000E+00 0. -1.
</event>
<event>
 7    1  0.2580704E-010  0.4778727E+02  0.7816164E-02  0.1312668E+00
        -11   -1    0    0    0    0  0.00000000000E+00  0.00000000000E+00  0.45593999997E+02  0.45594000000E+02  0.51100000000E-03 0. -1.
         11   -1    0    0    0    0 -0.00000000000E+00 -0.00000000000E+00 -0.45593999997E+02  0.45594000000E+02  0.51100000000E-03 0.  1.
    9900012    2    1    2    0    0 -0.14764244927E+02  0.38882512543E+02 -0.12401231101E+02  0.47787271403E+02  0.20000001634E+02 0.  0.
         12    1    1    2    0    0  0.14764244927E+02 -0.38882512543E+02  0.12401231101E+02  0.43400728597E+02  0.00000000000E+00 0. -1.
         11    1    3    3    0    0  0.23221737561E+01  0.55575941039E+01  0.31837279795E+00  0.60316419553E+01  0.51100000000E-03 0. -1.
        -11    1    3    3    0    0 -0.40130391359E+01  0.94234849170E+01 -0.10103598104E+02  0.14387120838E+02  0.51100000000E-03 0.  1.
        -12    1    3    3    0    0 -0.13073379547E+02  0.23901433522E+02 -0.26160057948E+01  0.27368508610E+02  0.00000000000E+00 0.  1.
</event>
<event>
 7    1  0.2580704E-010  0.4778727E+02  0.7816164E-02  0.1312668E+00
        -11   -1    0    0    0    0  0.00000000000E+00  0.00000000000E+00  0.45593999997E+02  0.45594000000E+02  0.51100000000E-03 0.  1.
         11   -1    0    0    0    0 -0.00000000000E+00 -0.00000000000E+00 -0.45593999997E+02  0.45594000000E+02  0.51100000000E-03 0. -1.
    9900012    2    1    2    0    0 -0.38005279338E+02 -0.71352170660E+01  0.19705592454E+02  0.47787274729E+02  0.20000016798E+02 0.  0.
         12    1    1    2    0    0  0.38005279338E+02  0.71352170660E+01 -0.19705592454E+02  0.43400725271E+02  0.00000000000E+00 0. -1.
         11    1    3    3    0    0 -0.14101102259E+01 -0.20419500622E+01 -0.14580948680E+01  0.28781959299E+01  0.51100000000E-03 0. -1.
        -11    1    3    3    0    0 -0.64023741567E+01 -0.64619580638E+01  0.72702077503E+01  0.11644879469E+02  0.51100000000E-03 0.  1.
         12    1    3    3    0    0 -0.30192794955E+02  0.13686910599E+01  0.13893479571E+02  0.33264199329E+02  0.00000000000E+00 0. -1.
</event>
<event>
 7    1  0.2580704E-010  0.4778727E+02  0.7816164E-02  0.1312668E+00
        -11   -1    0    0    0    0  0.00000000000E+00  0.00000000000E+00  0.45593999997E+02  0.45594000000E+02  0.51100000000E-03 0.  1.
         11   -1    0    0    0    0 -0.00000000000E+00 -0.00000000000E+00 -0.45593999997E+02  0.45594000000E+02  0.51100000000E-03 0. -1.
    9900012    2    1    2    0    0  0.22476377949E+02 -0.19982524040E+02  0.31291122045E+02  0.47787272453E+02  0.20000006424E+02 0.  0.
         12    1    1    2    0    0 -0.22476377949E+02  0.19982524040E+02 -0.31291122045E+02  0.43400727547E+02  0.00000000000E+00 0. -1.
         11    1    3    3    0    0  0.10149173197E+02 -0.16595638305E+02  0.86367268030E+01  0.21284125010E+02  0.51100000000E-03 0. -1.
        -11    1    3    3    0    0  0.63404276678E+01 -0.41392023847E+01  0.10646797427E+02  0.13064773825E+02  0.51100000000E-03 0.  1.
         12    1    3    3    0    0  0.59867770839E+01  0.75231664906E+00  0.12007597815E+02  0.13438373618E+02  0.00000000000E+00 0. -1.
</event>
<event>
 7    1  0.2580704E-010  0.4778734E+02  0.7816164E-02  0.1312667E+00
        -11   -1    0    0    0    0  0.00000000000E+00  0.00000000000E+00  0.45593999997E+02  0.45594000000E+02  0.51100000000E-03 0.  1.
         11   -1    0    0    0    0 -0.00000000000E+00 -0.00000000000E+00 -0.45593999997E+02  0.45594000000E+02  0.51100000000E-03 0. -1.
    9900012    2    1    2    0    0 -0.90733604405E+01 -0.16662294836E+02  0.39034084739E+02  0.47787335140E+02  0.20000292236E+02 0.  0.
         12    1    1    2    0    0  0.90733604405E+01  0.16662294836E+02 -0.39034084739E+02  0.43400664860E+02  0.00000000000E+00 0. -1.
         11    1    3    3    0    0  0.95032682979E+00  0.13357547562E+01  0.60946496587E+01  0.63112690146E+01  0.51100000000E-03 0. -1.
        -11    1    3    3    0    0 -0.36579643863E+01 -0.42531540891E+01  0.22225521948E+02  0.22922562014E+02  0.51100000000E-03 0.  1.
         12    1    3    3    0    0 -0.63657228840E+01 -0.13744895503E+02  0.10713913132E+02  0.18553504112E+02  0.00000000000E+00 0. -1.
</event>
<event>
 7    1  0.2580704E-010  0.4778727E+02  0.7816164E-02  0.1312668E+00
        -11   -1    0    0    0    0  0.00000000000E+00  0.00000000000E+00  0.45593999997E+02  0.45594000000E+02  0.51100000000E-03 0. -1.
         11   -1    0    0    0    0 -0.00000000000E+00 -0.00000000000E+00 -0.45593999997E+02  0.45594000000E+02  0.51100000000E-03 0.  1.
    9900012    2    1    2    0    0  0.26670007110E+02  0.64598874445E+01 -0.33624452843E+02  0.47787271273E+02  0.20000001044E+02 0.  0.
         12    1    1    2    0    0 -0.26670007110E+02 -0.64598874445E+01  0.33624452843E+02  0.43400728727E+02  0.00000000000E+00 0. -1.
         11    1    3    3    0    0  0.50658100085E+01  0.57449396162E+01 -0.31354868466E+01  0.82763542857E+01  0.51100000000E-03 0. -1.
        -11    1    3    3    0    0  0.14242081147E+02  0.66048841675E+01 -0.19344649871E+02  0.24913386947E+02  0.51100000000E-03 0.  1.
         12    1    3    3    0    0  0.73621159543E+01 -0.58899363393E+01 -0.11144316125E+02  0.14597530041E+02  0.00000000000E+00 0. -1.
</event>
<event>
 7    1  0.2580704E-010  0.4778727E+02  0.7816164E-02  0.1312668E+00
        -11   -1    0    0    0    0  0.00000000000E+00  0.00000000000E+00  0.45593999997E+02  0.45594000000E+02  0.51100000000E-03 0.  1.
         11   -1    0    0    0    0 -0.00000000000E+00 -0.00000000000E+00 -0.45593999997E+02  0.45594000000E+02  0.51100000000E-03 0. -1.
    9900012    2    1    2    0    0 -0.33823935664E+02 -0.78930300248E+01  0.26024304246E+02  0.47787274681E+02  0.20000016578E+02 0.  0.
         12    1    1    2    0    0  0.33823935664E+02  0.78930300248E+01 -0.26024304246E+02  0.43400725319E+02  0.00000000000E+00 0. -1.
         11    1    3    3    0    0 -0.25274733624E+01 -0.10434999131E+01  0.10267229077E+02  0.10625112087E+02  0.51100000000E-03 0. -1.
        -11    1    3    3    0    0 -0.88565635655E+00  0.11517056802E+01 -0.76301544955E+00  0.16410380839E+01  0.51100000000E-03 0.  1.
        -12    1    3    3    0    0 -0.30410805945E+02 -0.80012357919E+01  0.16520090618E+02  0.35521124510E+02  0.00000000000E+00 0.  1.
</event>
<event>
 7    1  0.2580704E-010  0.4778727E+02  0.7816164E-02  0.1312668E+00
        -11   -1    0    0    0    0  0.00000000000E+00  0.00000000000E+00  0.45593999997E+02  0.45594000000E+02  0.51100000000E-03 0. -1.
         11   -1    0    0    0    0 -0.00000000000E+00 -0.00000000000E+00 -0.45593999997E+02  0.45594000000E+02  0.51100000000E-03 0.  1.
    9900012    2    1    2    0    0 -0.25250518963E+02  0.17798725762E+02 -0.30483435235E+02  0.47787272237E+02  0.20000005436E+02 0.  0.
         12    1    1    2    0    0  0.25250518963E+02 -0.17798725762E+02  0.30483435235E+02  0.43400727763E+02  0.00000000000E+00 0. -1.
         11    1    3    3    0    0 -0.13273073823E+02  0.20788714565E+01 -0.15344909748E+02  0.20395157530E+02  0.51100000000E-03 0. -1.
        -11    1    3    3    0    0 -0.13730375799E+01 -0.18099321185E+01 -0.21902915864E+01  0.31557034024E+01  0.51100000000E-03 0.  1.
         12    1    3    3    0    0 -0.10604407560E+02  0.17529786424E+02 -0.12948233901E+02  0.24236411304E+02  0.00000000000E+00 0. -1.
</event>
<event>
 7    1  0.2580704E-010  0.4778727E+02  0.7816164E-02  0.1312668E+00
        -11   -1    0    0    0    0  0.00000000000E+00  0.00000000000E+00  0.45593999997E+02  0.45594000000E+02  0.51100000000E-03 0. -1.
         11   -1    0    0    0    0 -0.00000000000E+00 -0.00000000000E+00 -0.45593999997E+02  0.45594000000E+02  0.51100000000E-03 0.  1.
    9900012    2    1    2    0    0  0.57560060279E+00  0.36730397424E+02 -0.23112115903E+02  0.47787270599E+02  0.19999997969E+02 0.  0.
         12    1    1    2    0    0 -0.57560060279E+00 -0.36730397424E+02  0.23112115903E+02  0.43400729401E+02  0.00000000000E+00 0. -1.
         11    1    3    3    0    0 -0.59371495494E+01  0.91961531888E+01 -0.69739321367E+01  0.12979010284E+02  0.51100000000E-03 0. -1.
        -11    1    3    3    0    0 -0.12654760230E+01  0.18308989451E+02 -0.68831878390E+01  0.19600989755E+02  0.51100000000E-03 0.  1.
         12    1    3    3    0    0  0.77782261752E+01  0.92252547848E+01 -0.92549959275E+01  0.15207270560E+02  0.00000000000E+00 0. -1.
</event>
<event>
 7    1  0.2580704E-010  0.4778724E+02  0.7816164E-02  0.1312668E+00
        -11   -1    0    0    0    0  0.00000000000E+00  0.00000000000E+00  0.45593999997E+02  0.45594000000E+02  0.51100000000E-03 0.  1.
         11   -1    0    0    0    0 -0.00000000000E+00 -0.00000000000E+00 -0.45593999997E+02  0.45594000000E+02  0.51100000000E-03 0. -1.
    9900012    2    1    2    0    0  0.20547312276E+02 -0.19237153401E+02  0.33035824900E+02  0.47787241487E+02  0.19999865233E+02 0.  0.
         12    1    1    2    0    0 -0.20547312276E+02  0.19237153401E+02 -0.33035824900E+02  0.43400758513E+02  0.00000000000E+00 0. -1.
         11    1    3    3    0    0 -0.17896401762E+01 -0.15089276760E+01 -0.33119443293E+00  0.23641837292E+01  0.51100000000E-03 0. -1.
        -11    1    3    3    0    0  0.47862612950E+01  0.61756873824E+00  0.24340704007E+01  0.54050335158E+01  0.51100000000E-03 0.  1.
        -12    1    3    3    0    0  0.17550691157E+02 -0.18345794463E+02  0.30932948932E+02  0.40018024242E+02  0.00000000000E+00 0.  1.
</event>
<event>
 7    1  0.2580704E-010  0.4778726E+02  0.7816164E-02  0.1312668E+00
        -11   -1    0    0    0    0  0.00000000000E+00  0.00000000000E+00  0.45593999997E+02  0.45594000000E+02  0.51100000000E-03 0.  1.
         11   -1    0    0    0    0 -0.00000000000E+00 -0.00000000000E+00 -0.45593999997E+02  0.45594000000E+02  0.51100000000E-03 0. -1.
    9900012    2    1    2    0    0  0.19900415705E+02  0.15401754360E+02  0.35360759087E+02  0.47787264225E+02  0.19999968908E+02 0.  0.
         12    1    1    2    0    0 -0.19900415705E+02 -0.15401754360E+02 -0.35360759087E+02  0.43400735775E+02  0.00000000000E+00 0. -1.
         11    1    3    3    0    0  0.12456154842E+01 -0.30037045421E+01  0.34633720806E+01  0.47506573588E+01  0.51100000000E-03 0. -1.
        -11    1    3    3    0    0  0.44450155940E+01  0.33560291649E+00  0.11388831436E+02  0.12230137967E+02  0.51100000000E-03 0.  1.
         12    1    3    3    0    0  0.14209784627E+02  0.18069855985E+02  0.20508555571E+02  0.30806468900E+02  0.00000000000E+00 0. -1.
</event>
<event>
 7    1  0.2580704E-010  0.4778729E+02  0.7816164E-02  0.1312668E+00
        -11   -1    0    0    0    0  0.00000000000E+00  0.00000000000E+00  0.45593999997E+02  0.45594000000E+02  0.51100000000E-03 0.  1.
         11   -1    0    0    0    0 -0.00000000000E+00 -0.00000000000E+00 -0.45593999997E+02  0.45594000000E+02  0.51100000000E-03 0. -1.
    9900012    2    1    2    0    0  0.31826883374E+02  0.29506912388E+02  0.11370278054E+00  0.47787293643E+02  0.20000103036E+02 0.  0.
         12    1    1    2    0    0 -0.31826883374E+02 -0.29506912388E+02 -0.11370278054E+00  0.43400706357E+02  0.00000000000E+00 0. -1.
         11    1    3    3    0    0  0.69418911862E+01  0.19429869850E+00 -0.18076632732E+01  0.71760192305E+01  0.51100000000E-03 0. -1.
        -11    1    3    3    0    0 -0.14073792328E+01  0.32141081131E+01 -0.97740427436E-01  0.35100941184E+01  0.51100000000E-03 0.  1.
        -12    1    3    3    0    0  0.26292371420E+02  0.26098505576E+02  0.20191064811E+01  0.37101180294E+02  0.00000000000E+00 0.  1.
</event>
<event>
 7    1  0.2580704E-010  0.4778728E+02  0.7816164E-02  0.1312668E+00
        -11   -1    0    0    0    0  0.00000000000E+00  0.00000000000E+00  0.45593999997E+02  0.45594000000E+02  0.51100000000E-03 0.  1.
         11   -1    0    0    0    0 -0.00000000000E+00 -0.00000000000E+00 -0.45593999997E+02  0.45594000000E+02  0.51100000000E-03 0. -1.
    9900012    2    1    2    0    0  0.35834294607E+02 -0.19284468132E+02  0.15087593473E+02  0.47787275836E+02  0.20000021848E+02 0.  0.
         12    1    1    2    0    0 -0.35834294607E+02  0.19284468132E+02 -0.15087593473E+02  0.43400724164E+02  0.00000000000E+00 0. -1.
         11    1    3    3    0    0 -0.16330727796E+01 -0.11029354240E+01 -0.29825302112E+00  0.19930751062E+01  0.51100000000E-03 0. -1.
        -11    1    3    3    0    0  0.75910159653E+01 -0.91192457583E+01  0.32956514903E+01  0.12314442155E+02  0.51100000000E-03 0.  1.
        -12    1    3    3    0    0  0.29876351422E+02 -0.90622869493E+01  0.12090195003E+02  0.33479758575E+02  0.00000000000E+00 0.  1.
</event>
<event>
 7    1  0.2580704E-010  0.4778727E+02  0.7816164E-02  0.1312668E+00
        -11   -1    0    0    0    0  0.00000000000E+00  0.00000000000E+00  0.45593999997E+02  0.45594000000E+02  0.51100000000E-03 0.  1.
         11   -1    0    0    0    0 -0.00000000000E+00 -0.00000000000E+00 -0.45593999997E+02  0.45594000000E+02  0.51100000000E-03 0. -1.
    9900012    2    1    2    0    0 -0.11064475113E+02  0.75335487661E+00  0.41959897473E+02  0.47787272483E+02  0.20000006557E+02 0.  0.
         12    1    1    2    0    0  0.11064475113E+02 -0.75335487661E+00 -0.41959897473E+02  0.43400727517E+02  0.00000000000E+00 0. -1.
         11    1    3    3    0    0  0.17126386295E+00  0.57535131914E+00  0.95808682164E+01  0.95996560612E+01  0.51100000000E-03 0.  1.
        -11    1    3    3    0    0 -0.32522127047E+01 -0.63349019558E+01  0.43971381932E+01  0.83691513797E+01  0.51100000000E-03 0. -1.
         12    1    3    3    0    0 -0.79835262709E+01  0.65129055132E+01  0.27981891064E+02  0.29818465042E+02  0.00000000000E+00 0. -1.
</event>
<event>
 7    1  0.2580704E-010  0.4778728E+02  0.7816164E-02  0.1312668E+00
        -11   -1    0    0    0    0  0.00000000000E+00  0.00000000000E+00  0.45593999997E+02  0.45594000000E+02  0.51100000000E-03 0.  1.
         11   -1    0    0    0    0 -0.00000000000E+00 -0.00000000000E+00 -0.45593999997E+02  0.45594000000E+02  0.51100000000E-03 0. -1.
    9900012    2    1    2    0    0 -0.21305822511E+02 -0.97586143902E+01  0.36530181137E+02  0.47787276946E+02  0.20000026909E+02 0.  0.
         12    1    1    2    0    0  0.21305822511E+02  0.97586143902E+01 -0.36530181137E+02  0.43400723054E+02  0.00000000000E+00 0. -1.
         11    1    3    3    0    0 -0.50640710965E+01  0.77440386687E+00  0.10244970927E+02  0.11454429142E+02  0.51100000000E-03 0.  1.
        -11    1    3    3    0    0 -0.11340364900E+00 -0.76635507892E+01  0.13611504483E+02  0.15621009111E+02  0.51100000000E-03 0. -1.
         12    1    3    3    0    0 -0.16128347766E+02 -0.28694674679E+01  0.12673705727E+02  0.20711838693E+02  0.00000000000E+00 0. -1.
</event>
<event>
 7    1  0.2580704E-010  0.4778728E+02  0.7816164E-02  0.1312668E+00
        -11   -1    0    0    0    0  0.00000000000E+00  0.00000000000E+00  0.45593999997E+02  0.45594000000E+02  0.51100000000E-03 0.  1.
         11   -1    0    0    0    0 -0.00000000000E+00 -0.00000000000E+00 -0.45593999997E+02  0.45594000000E+02  0.51100000000E-03 0. -1.
    9900012    2    1    2    0    0 -0.36008877744E+02  0.19048309858E+02  0.14971474590E+02  0.47787280694E+02  0.20000043997E+02 0.  0.
         12    1    1    2    0    0  0.36008877744E+02 -0.19048309858E+02 -0.14971474590E+02  0.43400719306E+02  0.00000000000E+00 0. -1.
         11    1    3    3    0    0 -0.71252866283E+01  0.29816612571E+01  0.68544621716E+01  0.10326841981E+02  0.51100000000E-03 0. -1.
        -11    1    3    3    0    0 -0.21939887895E+02  0.17405544010E+02  0.10630696880E+02  0.29955356107E+02  0.51100000000E-03 0.  1.
         12    1    3    3    0    0 -0.69437032215E+01 -0.13388954092E+01 -0.25136844611E+01  0.75050826055E+01  0.00000000000E+00 0. -1.
</event>
<event>
 7    1  0.2580704E-010  0.4778729E+02  0.7816164E-02  0.1312668E+00
        -11   -1    0    0    0    0  0.00000000000E+00  0.00000000000E+00  0.45593999997E+02  0.45594000000E+02  0.51100000000E-03 0. -1.
         11   -1    0    0    0    0 -0.00000000000E+00 -0.00000000000E+00 -0.45593999997E+02  0.45594000000E+02  0.51100000000E-03 0.  1.
    9900012    2    1    2    0    0  0.47016785326E+01  0.23857600672E+02 -0.35948997994E+02  0.47787293236E+02  0.20000101179E+02 0.  0.
         12    1    1    2    0    0 -0.47016785326E+01 -0.23857600672E+02  0.35948997994E+02  0.43400706764E+02  0.00000000000E+00 0. -1.
         11    1    3    3    0    0  0.86397196270E+00 -0.60053309732E-01 -0.79050914897E+01  0.79523911922E+01  0.51100000000E-03 0. -1.
        -11    1    3    3    0    0 -0.16570045002E+01  0.26349176535E+01  0.11264298021E+01  0.33101811604E+01  0.51100000000E-03 0.  1.
        -12    1    3    3    0    0  0.54947110701E+01  0.21282736329E+02 -0.29170336306E+02  0.36524720883E+02  0.00000000000E+00 0.  1.
</event>
<event>
 7    1  0.2580704E-010  0.4778727E+02  0.7816164E-02  0.1312668E+00
        -11   -1    0    0    0    0  0.00000000000E+00  0.00000000000E+00  0.45593999997E+02  0.45594000000E+02  0.51100000000E-03 0.  1.
         11   -1    0    0    0    0 -0.00000000000E+00 -0.00000000000E+00 -0.45593999997E+02  0.45594000000E+02  0.51100000000E-03 0. -1.
    9900012    2    1    2    0    0 -0.30760195199E+02 -0.19242605260E+02  0.23815036035E+02  0.47787269508E+02  0.19999992995E+02 0.  0.
         12    1    1    2    0    0  0.30760195199E+02  0.19242605260E+02 -0.23815036035E+02  0.43400730492E+02  0.00000000000E+00 0. -1.
         11    1    3    3    0    0 -0.39908373373E+01 -0.51193510940E+01 -0.60562065563E+00  0.65193032539E+01  0.51100000000E-03 0. -1.
        -11    1    3    3    0    0 -0.15027144532E+02 -0.12538459372E+02  0.21481906934E+02  0.29060288402E+02  0.51100000000E-03 0.  1.
         12    1    3    3    0    0 -0.11742213329E+02 -0.15847947944E+01  0.29387497569E+01  0.12207677852E+02  0.00000000000E+00 0. -1.
</event>
<event>
 7    1  0.2580704E-010  0.4778728E+02  0.7816164E-02  0.1312668E+00
        -11   -1    0    0    0    0  0.00000000000E+00  0.00000000000E+00  0.45593999997E+02  0.45594000000E+02  0.51100000000E-03 0.  1.
         11   -1    0    0    0    0 -0.00000000000E+00 -0.00000000000E+00 -0.45593999997E+02  0.45594000000E+02  0.51100000000E-03 0. -1.
    9900012    2    1    2    0    0  0.13315792890E+02  0.32794727373E+02  0.25116099294E+02  0.47787275035E+02  0.20000018194E+02 0.  0.
         12    1    1    2    0    0 -0.13315792890E+02 -0.32794727373E+02 -0.25116099294E+02  0.43400724965E+02  0.00000000000E+00 0. -1.
         11    1    3    3    0    0  0.73388874486E-01  0.12795390084E+02  0.38211675573E+01  0.13353977501E+02  0.51100000000E-03 0. -1.
        -11    1    3    3    0    0  0.97030626126E+01  0.15944491415E+02  0.84151360590E+01  0.20474148229E+02  0.51100000000E-03 0.  1.
         12    1    3    3    0    0  0.35393414033E+01  0.40548458740E+01  0.12879795678E+02  0.13959149305E+02  0.00000000000E+00 0. -1.
</event>
<event>
 7    1  0.2580704E-010  0.4778727E+02  0.7816164E-02  0.1312668E+00
        -11   -1    0    0    0    0  0.00000000000E+00  0.00000000000E+00  0.45593999997E+02  0.45594000000E+02  0.51100000000E-03 0. -1.
         11   -1    0    0    0    0 -0.00000000000E+00 -0.00000000000E+00 -0.45593999997E+02  0.45594000000E+02  0.51100000000E-03 0.  1.
    9900012    2    1    2    0    0 -0.13105416143E+02  0.27311923359E+02 -0.31079417640E+02  0.47787270851E+02  0.19999999117E+02 0.  0.
         12    1    1    2    0    0  0.13105416143E+02 -0.27311923359E+02  0.31079417640E+02  0.43400729149E+02  0.00000000000E+00 0. -1.
         11    1    3    3    0    0 -0.36599095761E+01  0.68468842461E+00 -0.14146803988E+02  0.14628595274E+02  0.51100000000E-03 0. -1.
        -11    1    3    3    0    0 -0.83448605219E+00  0.23498958933E+01 -0.29017440028E+01  0.38260287766E+01  0.51100000000E-03 0.  1.
        -12    1    3    3    0    0 -0.86110205152E+01  0.24277339041E+02 -0.14030869649E+02  0.29332646801E+02  0.00000000000E+00 0.  1.
</event>
<event>
 7    1  0.2580704E-010  0.4778729E+02  0.7816164E-02  0.1312668E+00
        -11   -1    0    0    0    0  0.00000000000E+00  0.00000000000E+00  0.45593999997E+02  0.45594000000E+02  0.51100000000E-03 0. -1.
         11   -1    0    0    0    0 -0.00000000000E+00 -0.00000000000E+00 -0.45593999997E+02  0.45594000000E+02  0.51100000000E-03 0.  1.
    9900012    2    1    2    0    0 -0.24634623421E+02 -0.33284673458E+02 -0.12995668241E+02  0.47787290889E+02  0.20000090478E+02 0.  0.
         12    1    1    2    0    0  0.24634623421E+02  0.33284673458E+02  0.12995668241E+02  0.43400709111E+02  0.00000000000E+00 0. -1.
         11    1    3    3    0    0 -0.11938699366E+02 -0.21802636463E+02 -0.58292048450E+00  0.24864176959E+02  0.51100000000E-03 0. -1.
        -11    1    3    3    0    0 -0.64564359198E+01 -0.21194321202E+01 -0.95045649917E+00  0.68615541328E+01  0.51100000000E-03 0.  1.
        -12    1    3    3    0    0 -0.62394881357E+01 -0.93626048749E+01 -0.11462291258E+02  0.16061559797E+02  0.00000000000E+00 0.  1.
</event>
<event>
 7    1  0.2580704E-010  0.4778728E+02  0.7816164E-02  0.1312668E+00
        -11   -1    0    0    0    0  0.00000000000E+00  0.00000000000E+00  0.45593999997E+02  0.45594000000E+02  0.51100000000E-03 0.  1.
         11   -1    0    0    0    0 -0.00000000000E+00 -0.00000000000E+00 -0.45593999997E+02  0.45594000000E+02  0.51100000000E-03 0. -1.
    9900012    2    1    2    0    0 -0.15105479941E+02 -0.18174209882E+02  0.36402545890E+02  0.47787276776E+02  0.20000026131E+02 0.  0.
         12    1    1    2    0    0  0.15105479941E+02  0.18174209882E+02 -0.36402545890E+02  0.43400723224E+02  0.00000000000E+00 0. -1.
         11    1    3    3    0    0  0.14327000207E+01 -0.38410742836E+01  0.41550853997E+01  0.58370554170E+01  0.51100000000E-03 0. -1.
        -11    1    3    3    0    0  0.18535793972E+00  0.22107596441E+01  0.24496133549E+00  0.22319995714E+01  0.51100000000E-03 0.  1.
        -12    1    3    3    0    0 -0.16723537902E+02 -0.16543895243E+02  0.32002499155E+02  0.39718221787E+02  0.00000000000E+00 0.  1.
</event>
<event>
 7    1  0.2580704E-010  0.4778727E+02  0.7816164E-02  0.1312668E+00
        -11   -1    0    0    0    0  0.00000000000E+00  0.00000000000E+00  0.45593999997E+02  0.45594000000E+02  0.51100000000E-03 0.  1.
         11   -1    0    0    0    0 -0.00000000000E+00 -0.00000000000E+00 -0.45593999997E+02  0.45594000000E+02  0.51100000000E-03 0. -1.
    9900012    2    1    2    0    0  0.17852312416E+02 -0.97253587182E+01  0.38344958030E+02  0.47787268818E+02  0.19999989850E+02 0.  0.
         12    1    1    2    0    0 -0.17852312416E+02  0.97253587182E+01 -0.38344958030E+02  0.43400731182E+02  0.00000000000E+00 0. -1.
         11    1    3    3    0    0  0.81550978472E+00 -0.35723455067E+01  0.82303065561E+00  0.37555410195E+01  0.51100000000E-03 0. -1.
        -11    1    3    3    0    0  0.13616664607E+02 -0.39401790106E+01  0.13195076466E+02  0.19366171766E+02  0.51100000000E-03 0.  1.
        -12    1    3    3    0    0  0.34201380239E+01 -0.22128342009E+01  0.24326850908E+02  0.24665556033E+02  0.00000000000E+00 0.  1.
</event>
<event>
 7    1  0.2580704E-010  0.4778727E+02  0.7816164E-02  0.1312668E+00
        -11   -1    0    0    0    0  0.00000000000E+00  0.00000000000E+00  0.45593999997E+02  0.45594000000E+02  0.51100000000E-03 0.  1.
         11   -1    0    0    0    0 -0.00000000000E+00 -0.00000000000E+00 -0.45593999997E+02  0.45594000000E+02  0.51100000000E-03 0. -1.
    9900012    2    1    2    0    0 -0.54302255137E+01 -0.44869279205E+01  0.42825268124E+02  0.47787268887E+02  0.19999990163E+02 0.  0.
         12    1    1    2    0    0  0.54302255137E+01  0.44869279205E+01 -0.42825268124E+02  0.43400731113E+02  0.00000000000E+00 0. -1.
         11    1    3    3    0    0  0.37930434263E+01 -0.25255120694E+00  0.80089577187E+01  0.88653462734E+01  0.51100000000E-03 0. -1.
        -11    1    3    3    0    0 -0.51227466880E+01  0.33697767495E+01  0.51006477976E+01  0.79758721898E+01  0.51100000000E-03 0.  1.
        -12    1    3    3    0    0 -0.41005222520E+01 -0.76041534631E+01  0.29715662607E+02  0.30946050424E+02  0.00000000000E+00 0.  1.
</event>
<event>
 7    1  0.2580704E-010  0.4778728E+02  0.7816164E-02  0.1312668E+00
        -11   -1    0    0    0    0  0.00000000000E+00  0.00000000000E+00  0.45593999997E+02  0.45594000000E+02  0.51100000000E-03 0.  1.
         11   -1    0    0    0    0 -0.00000000000E+00 -0.00000000000E+00 -0.45593999997E+02  0.45594000000E+02  0.51100000000E-03 0. -1.
    9900012    2    1    2    0    0  0.20990124177E+02  0.36952682814E+02  0.88054799926E+01  0.47787279292E+02  0.20000037602E+02 0.  0.
         12    1    1    2    0    0 -0.20990124177E+02 -0.36952682814E+02 -0.88054799926E+01  0.43400720708E+02  0.00000000000E+00 0. -1.
         11    1    3    3    0    0  0.95779735976E-01 -0.39848596880E+00  0.31461933410E+01  0.31727744365E+01  0.51100000000E-03 0. -1.
        -11    1    3    3    0    0  0.45037329960E+01  0.18295986886E+01 -0.91111475742E+00  0.49458237558E+01  0.51100000000E-03 0.  1.
        -12    1    3    3    0    0  0.16390611445E+02  0.35521570094E+02  0.65704014090E+01  0.39668681099E+02  0.00000000000E+00 0.  1.
</event>
<event>
 7    1  0.2790965E-010  0.4778727E+02  0.7816164E-02  0.1312668E+00
        -11   -1    0    0    0    0  0.00000000000E+00  0.00000000000E+00  0.45593999997E+02  0.45594000000E+02  0.51100000000E-03 0.  1.
         11   -1    0    0    0    0 -0.00000000000E+00 -0.00000000000E+00 -0.45593999997E+02  0.45594000000E+02  0.51100000000E-03 0. -1.
    9900012    2    1    2    0    0 -0.14098605812E+02 -0.40813645814E+02 -0.43702268241E+01  0.47787271285E+02  0.20000001097E+02 0.  0.
         12    1    1    2    0    0  0.14098605812E+02  0.40813645814E+02  0.43702268241E+01  0.43400728715E+02  0.00000000000E+00 0. -1.
         11    1    3    3    0    0  0.13869846966E+01  0.44478334154E+00  0.15455819136E+01  0.21237661082E+01  0.51100000000E-03 0. -1.
        -11    1    3    3    0    0 -0.95911192745E+00 -0.11677673844E+02  0.17004455099E+01  0.11839741437E+02  0.51100000000E-03 0.  1.
        -12    1    3    3    0    0 -0.14526478581E+02 -0.29580755312E+02 -0.76162542476E+01  0.33823763740E+02  0.00000000000E+00 0.  1.
</event>
<event>
 7    1  0.2580704E-010  0.4778727E+02  0.7816164E-02  0.1312668E+00
        -11   -1    0    0    0    0  0.00000000000E+00  0.00000000000E+00  0.45593999997E+02  0.45594000000E+02  0.51100000000E-03 0. -1.
         11   -1    0    0    0    0 -0.00000000000E+00 -0.00000000000E+00 -0.45593999997E+02  0.45594000000E+02  0.51100000000E-03 0.  1.
    9900012    2    1    2    0    0  0.25412684232E+02 -0.29422773757E+02 -0.19290384858E+02  0.47787273239E+02  0.20000010007E+02 0.  0.
         12    1    1    2    0    0 -0.25412684232E+02  0.29422773757E+02  0.19290384858E+02  0.43400726761E+02  0.00000000000E+00 0. -1.
         11    1    3    3    0    0  0.10296975109E+02 -0.91983023204E+01 -0.14334580722E+02  0.19902679888E+02  0.51100000000E-03 0. -1.
        -11    1    3    3    0    0 -0.17022525109E+01 -0.14989766407E+01 -0.52959010474E+00  0.23291759316E+01  0.51100000000E-03 0.  1.
         12    1    3    3    0    0  0.16817961633E+02 -0.18725494796E+02 -0.44262140305E+01  0.25555417420E+02  0.00000000000E+00 0. -1.
</event>
<event>
 7    1  0.2580704E-010  0.4778727E+02  0.7816164E-02  0.1312668E+00
        -11   -1    0    0    0    0  0.00000000000E+00  0.00000000000E+00  0.45593999997E+02  0.45594000000E+02  0.51100000000E-03 0.  1.
         11   -1    0    0    0    0 -0.00000000000E+00 -0.00000000000E+00 -0.45593999997E+02  0.45594000000E+02  0.51100000000E-03 0. -1.
    9900012    2    1    2    0    0 -0.56925205536E+00  0.17557646603E+01  0.43361462380E+02  0.47787272159E+02  0.20000005080E+02 0.  0.
         12    1    1    2    0    0  0.56925205536E+00 -0.17557646603E+01 -0.43361462380E+02  0.43400727841E+02  0.00000000000E+00 0. -1.
         11    1    3    3    0    0 -0.31493924945E+01 -0.11774240069E+01  0.11952894629E+02  0.12416790675E+02  0.51100000000E-03 0. -1.
        -11    1    3    3    0    0 -0.54665939297E+01 -0.29173686398E+01  0.10017140410E+02  0.11778700744E+02  0.51100000000E-03 0.  1.
        -12    1    3    3    0    0  0.80467343689E+01  0.58505573070E+01  0.21391427341E+02  0.23591780740E+02  0.00000000000E+00 0.  1.
</event>
<event>
 7    1  0.2580704E-010  0.4778727E+02  0.7816164E-02  0.1312668E+00
        -11   -1    0    0    0    0  0.00000000000E+00  0.00000000000E+00  0.45593999997E+02  0.45594000000E+02  0.51100000000E-03 0.  1.
         11   -1    0    0    0    0 -0.00000000000E+00 -0.00000000000E+00 -0.45593999997E+02  0.45594000000E+02  0.51100000000E-03 0. -1.
    9900012    2    1    2    0    0  0.63526943020E+01  0.70959011080E-01  0.42933220821E+02  0.47787271779E+02  0.20000003348E+02 0.  0.
         12    1    1    2    0    0 -0.63526943020E+01 -0.70959011080E-01 -0.42933220821E+02  0.43400728221E+02  0.00000000000E+00 0. -1.
         11    1    3    3    0    0  0.55125812462E+00 -0.42713461765E+01  0.17392366607E+02  0.17917664472E+02  0.51100000000E-03 0. -1.
        -11    1    3    3    0    0  0.12514878519E+01  0.13045737668E+01  0.24159565866E+02  0.24227107909E+02  0.51100000000E-03 0.  1.
         12    1    3    3    0    0  0.45499483255E+01  0.30377314208E+01  0.13812883483E+01  0.56424993975E+01  0.00000000000E+00 0. -1.
</event>
<event>
 7    1  0.2580704E-010  0.4778727E+02  0.7816164E-02  0.1312668E+00
        -11   -1    0    0    0    0  0.00000000000E+00  0.00000000000E+00  0.45593999997E+02  0.45594000000E+02  0.51100000000E-03 0.  1.
         11   -1    0    0    0    0 -0.00000000000E+00 -0.00000000000E+00 -0.45593999997E+02  0.45594000000E+02  0.51100000000E-03 0. -1.
    9900012    2    1    2    0    0  0.21388746584E+02 -0.76497649011E+01  0.36981424093E+02  0.47787272916E+02  0.20000008531E+02 0.  0.
         12    1    1    2    0    0 -0.21388746584E+02  0.76497649011E+01 -0.36981424093E+02  0.43400727084E+02  0.00000000000E+00 0. -1.
         11    1    3    3    0    0  0.37605205736E+01  0.38373539630E+01  0.19290028869E+02  0.20024285617E+02  0.51100000000E-03 0. -1.
        -11    1    3    3    0    0  0.72424350346E+00 -0.11097922213E+01  0.24661643729E+00  0.13479567334E+01  0.51100000000E-03 0.  1.
        -12    1    3    3    0    0  0.16903982507E+02 -0.10377326643E+02  0.17444778787E+02  0.26415030565E+02  0.00000000000E+00 0.  1.
</event>
<event>
 7    1  0.2580704E-010  0.4778728E+02  0.7816164E-02  0.1312668E+00
        -11   -1    0    0    0    0  0.00000000000E+00  0.00000000000E+00  0.45593999997E+02  0.45594000000E+02  0.51100000000E-03 0. -1.
         11   -1    0    0    0    0 -0.00000000000E+00 -0.00000000000E+00 -0.45593999997E+02  0.45594000000E+02  0.51100000000E-03 0.  1.
    9900012    2    1    2    0    0 -0.42658823755E+02 -0.48530403297E+01 -0.63478524979E+01  0.47787280237E+02  0.20000041911E+02 0.  0.
         12    1    1    2    0    0  0.42658823755E+02  0.48530403297E+01  0.63478524979E+01  0.43400719763E+02  0.00000000000E+00 0. -1.
         11    1    3    3    0    0 -0.25920923163E+01  0.21850477351E+01  0.14677054688E+01  0.36942571358E+01  0.51100000000E-03 0. -1.
        -11    1    3    3    0    0 -0.23885877160E+02  0.32291851300E+01 -0.26686511086E+01  0.24250452847E+02  0.51100000000E-03 0.  1.
         12    1    3    3    0    0 -0.16180854279E+02 -0.10267273195E+02 -0.51469068582E+01  0.19842570254E+02  0.00000000000E+00 0. -1.
</event>
<event>
 7    1  0.2580704E-010  0.4778727E+02  0.7816164E-02  0.1312668E+00
        -11   -1    0    0    0    0  0.00000000000E+00  0.00000000000E+00  0.45593999997E+02  0.45594000000E+02  0.51100000000E-03 0. -1.
         11   -1    0    0    0    0 -0.00000000000E+00 -0.00000000000E+00 -0.45593999997E+02  0.45594000000E+02  0.51100000000E-03 0.  1.
    9900012    2    1    2    0    0  0.15086541283E+02 -0.34726240782E+02 -0.21215745639E+02  0.47787269709E+02  0.19999993913E+02 0.  0.
         12    1    1    2    0    0 -0.15086541283E+02  0.34726240782E+02  0.21215745639E+02  0.43400730291E+02  0.00000000000E+00 0. -1.
         11    1    3    3    0    0  0.12248109370E+02 -0.12988795773E+02 -0.57000546563E+01  0.18740747640E+02  0.51100000000E-03 0. -1.
        -11    1    3    3    0    0  0.68858337017E+01 -0.16892719924E+02 -0.11576461622E+02  0.21605396458E+02  0.51100000000E-03 0.  1.
         12    1    3    3    0    0 -0.40474017887E+01 -0.48447250857E+01 -0.39392293608E+01  0.74411256105E+01  0.00000000000E+00 0. -1.
</event>
<event>
 7    1  0.2580704E-010  0.4778728E+02  0.7816164E-02  0.1312668E+00
        -11   -1    0    0    0    0  0.00000000000E+00  0.00000000000E+00  0.45593999997E+02  0.45594000000E+02  0.51100000000E-03 0. -1.
         11   -1    0    0    0    0 -0.00000000000E+00 -0.00000000000E+00 -0.45593999997E+02  0.45594000000E+02  0.51100000000E-03 0.  1.
    9900012    2    1    2    0    0  0.29495868321E+02  0.29751428302E+02  0.11334389621E+02  0.47787284314E+02  0.20000060500E+02 0.  0.
         12    1    1    2    0    0 -0.29495868321E+02 -0.29751428302E+02 -0.11334389621E+02  0.43400715686E+02  0.00000000000E+00 0. -1.
         11    1    3    3    0    0  0.66323065333E+01  0.50873837844E+01 -0.40801222792E+01  0.93014171929E+01  0.51100000000E-03 0. -1.
        -11    1    3    3    0    0  0.85358868408E+01  0.14894284884E+02  0.37077433061E+01  0.17562700449E+02  0.51100000000E-03 0.  1.
        -12    1    3    3    0    0  0.14327674947E+02  0.97697596332E+01  0.11706768594E+02  0.20923166672E+02  0.00000000000E+00 0.  1.
</event>
<event>
 7    1  0.2580704E-010  0.4778726E+02  0.7816164E-02  0.1312668E+00
        -11   -1    0    0    0    0  0.00000000000E+00  0.00000000000E+00  0.45593999997E+02  0.45594000000E+02  0.51100000000E-03 0.  1.
         11   -1    0    0    0    0 -0.00000000000E+00 -0.00000000000E+00 -0.45593999997E+02  0.45594000000E+02  0.51100000000E-03 0. -1.
    9900012    2    1    2    0    0  0.29713456128E+02 -0.31616436680E+02  0.10654931847E+01  0.47787264763E+02  0.19999971361E+02 0.  0.
         12    1    1    2    0    0 -0.29713456128E+02  0.31616436680E+02 -0.10654931847E+01  0.43400735237E+02  0.00000000000E+00 0. -1.
         11    1    3    3    0    0  0.11910239178E+02 -0.19094494211E+02  0.41858105128E+01  0.22890489649E+02  0.51100000000E-03 0. -1.
        -11    1    3    3    0    0  0.82222786940E+01 -0.11069900400E+02  0.20050845815E+01  0.13934451056E+02  0.51100000000E-03 0.  1.
         12    1    3    3    0    0  0.95809382563E+01 -0.14520420688E+01 -0.51254019096E+01  0.10962324059E+02  0.00000000000E+00 0. -1.
</event>
<event>
 7    1  0.2580704E-010  0.4778727E+02  0.7816164E-02  0.1312668E+00
        -11   -1    0    0    0    0  0.00000000000E+00  0.00000000000E+00  0.45593999997E+02  0.45594000000E+02  0.51100000000E-03 0.  1.
         11   -1    0    0    0    0 -0.00000000000E+00 -0.00000000000E+00 -0.45593999997E+02  0.45594000000E+02  0.51100000000E-03 0. -1.
    9900012    2    1    2    0    0  0.91872149603E+01  0.40265377801E+02  0.13338589005E+02  0.47787268153E+02  0.19999986816E+02 0.  0.
         12    1    1    2    0    0 -0.91872149603E+01 -0.40265377801E+02 -0.13338589005E+02  0.43400731847E+02  0.00000000000E+00 0. -1.
         11    1    3    3    0    0  0.30979328296E+01  0.61986791007E+01  0.77707718361E+01  0.10411806068E+02  0.51100000000E-03 0. -1.
        -11    1    3    3    0    0 -0.47248164958E+00  0.12509403962E+02  0.77709540041E+01  0.14734183140E+02  0.51100000000E-03 0.  1.
         12    1    3    3    0    0  0.65617637803E+01  0.21557294738E+02 -0.22031368347E+01  0.22641278945E+02  0.00000000000E+00 0. -1.
</event>
<event>
 7    1  0.2580704E-010  0.4778727E+02  0.7816164E-02  0.1312668E+00
        -11   -1    0    0    0    0  0.00000000000E+00  0.00000000000E+00  0.45593999997E+02  0.45594000000E+02  0.51100000000E-03 0.  1.
         11   -1    0    0    0    0 -0.00000000000E+00 -0.00000000000E+00 -0.45593999997E+02  0.45594000000E+02  0.51100000000E-03 0. -1.
    9900012    2    1    2    0    0 -0.11791749045E+02 -0.18135077887E+02  0.37625747808E+02  0.47787270817E+02  0.19999998962E+02 0.  0.
         12    1    1    2    0    0  0.11791749045E+02  0.18135077887E+02 -0.37625747808E+02  0.43400729183E+02  0.00000000000E+00 0. -1.
         11    1    3    3    0    0 -0.50289351950E+01 -0.12016810627E+01  0.51688248307E+01  0.73110175054E+01  0.51100000000E-03 0. -1.
        -11    1    3    3    0    0 -0.19468378599E+01  0.26037850819E+01  0.90109259633E+01  0.95794917080E+01  0.51100000000E-03 0.  1.
        -12    1    3    3    0    0 -0.48159759896E+01 -0.19537181906E+02  0.23445997014E+02  0.30896761603E+02  0.00000000000E+00 0.  1.
</event>
<event>
 7    1  0.2580704E-010  0.4778726E+02  0.7816164E-02  0.1312668E+00
        -11   -1    0    0    0    0  0.00000000000E+00  0.00000000000E+00  0.45593999997E+02  0.45594000000E+02  0.51100000000E-03 0. -1.
         11   -1    0    0    0    0 -0.00000000000E+00 -0.00000000000E+00 -0.45593999997E+02  0.45594000000E+02  0.51100000000E-03 0.  1.
    9900012    2    1    2    0    0 -0.51110030448E+00 -0.24862627390E+02 -0.35569823534E+02  0.47787264862E+02  0.19999971814E+02 0.  0.
         12    1    1    2    0    0  0.51110030448E+00  0.24862627390E+02  0.35569823534E+02  0.43400735138E+02  0.00000000000E+00 0. -1.
         11    1    3    3    0    0 -0.41931323130E+01 -0.18445538584E+02 -0.20043062894E+02  0.27559837131E+02  0.51100000000E-03 0. -1.
        -11    1    3    3    0    0 -0.14177239307E+01 -0.75422258405E+01 -0.10235494951E+02  0.12792985145E+02  0.51100000000E-03 0.  1.
        -12    1    3    3    0    0  0.50997559392E+01  0.11251370338E+01 -0.52912656882E+01  0.74344425862E+01  0.00000000000E+00 0.  1.
</event>
<event>
 7    1  0.2580704E-010  0.4778727E+02  0.7816164E-02  0.1312668E+00
        -11   -1    0    0    0    0  0.00000000000E+00  0.00000000000E+00  0.45593999997E+02  0.45594000000E+02  0.51100000000E-03 0.  1.
         11   -1    0    0    0    0 -0.00000000000E+00 -0.00000000000E+00 -0.45593999997E+02  0.45594000000E+02  0.51100000000E-03 0. -1.
    9900012    2    1    2    0    0 -0.21002199229E+02 -0.31873658518E+02  0.20654320076E+02  0.47787269389E+02  0.19999992451E+02 0.  0.
         12    1    1    2    0    0  0.21002199229E+02  0.31873658518E+02 -0.20654320076E+02  0.43400730611E+02  0.00000000000E+00 0. -1.
         11    1    3    3    0    0 -0.33645319297E+00 -0.56689178106E+01  0.41688676155E+01  0.70448057000E+01  0.51100000000E-03 0. -1.
        -11    1    3    3    0    0 -0.21186630543E+02 -0.28147693763E+02  0.15313846967E+02  0.38414579096E+02  0.51100000000E-03 0.  1.
        -12    1    3    3    0    0  0.52088450674E+00  0.19429530554E+01  0.11716054929E+01  0.23278845925E+01  0.00000000000E+00 0.  1.
</event>
<event>
 7    1  0.2580704E-010  0.4778727E+02  0.7816164E-02  0.1312668E+00
        -11   -1    0    0    0    0  0.00000000000E+00  0.00000000000E+00  0.45593999997E+02  0.45594000000E+02  0.51100000000E-03 0. -1.
         11   -1    0    0    0    0 -0.00000000000E+00 -0.00000000000E+00 -0.45593999997E+02  0.45594000000E+02  0.51100000000E-03 0.  1.
    9900012    2    1    2    0    0  0.24395031813E+01 -0.71042452234E+01 -0.42745781327E+02  0.47787270775E+02  0.19999998772E+02 0.  0.
         12    1    1    2    0    0 -0.24395031813E+01  0.71042452234E+01  0.42745781327E+02  0.43400729225E+02  0.00000000000E+00 0. -1.
         11    1    3    3    0    0  0.34466991644E+01 -0.99333686158E+01 -0.15020955267E+02  0.18335229602E+02  0.51100000000E-03 0. -1.
        -11    1    3    3    0    0 -0.46190014673E+01  0.28169705542E+01 -0.10067833606E+02  0.11429425682E+02  0.51100000000E-03 0.  1.
        -12    1    3    3    0    0  0.36118054842E+01  0.12152838215E-01 -0.17656992455E+02  0.18022615490E+02  0.00000000000E+00 0.  1.
</event>
<event>
 7    1  0.2580704E-010  0.4778727E+02  0.7816164E-02  0.1312668E+00
        -11   -1    0    0    0    0  0.00000000000E+00  0.00000000000E+00  0.45593999997E+02  0.45594000000E+02  0.51100000000E-03 0.  1.
         11   -1    0    0    0    0 -0.00000000000E+00 -0.00000000000E+00 -0.45593999997E+02  0.45594000000E+02  0.51100000000E-03 0. -1.
    9900012    2    1    2    0    0  0.29647903424E+02  0.24978620951E+02  0.19511374744E+02  0.47787269286E+02  0.19999991985E+02 0.  0.
         12    1    1    2    0    0 -0.29647903424E+02 -0.24978620951E+02 -0.19511374744E+02  0.43400730714E+02  0.00000000000E+00 0. -1.
         11    1    3    3    0    0  0.66741012534E+00  0.67809675898E+00  0.14561088015E+01  0.17393977673E+01  0.51100000000E-03 0. -1.
        -11    1    3    3    0    0  0.17813103884E+02  0.22844516290E+02  0.60623878079E+01  0.29596133881E+02  0.51100000000E-03 0.  1.
         12    1    3    3    0    0  0.11167389415E+02  0.14560079016E+01  0.11992878135E+02  0.16451737638E+02  0.00000000000E+00 0. -1.
</event>
<event>
 7    1  0.2580704E-010  0.4778727E+02  0.7816164E-02  0.1312668E+00
        -11   -1    0    0    0    0  0.00000000000E+00  0.00000000000E+00  0.45593999997E+02  0.45594000000E+02  0.51100000000E-03 0.  1.
         11   -1    0    0    0    0 -0.00000000000E+00 -0.00000000000E+00 -0.45593999997E+02  0.45594000000E+02  0.51100000000E-03 0. -1.
    9900012    2    1    2    0    0  0.12664828401E+02 -0.21464809744E+02  0.35531499470E+02  0.47787269702E+02  0.19999993880E+02 0.  0.
         12    1    1    2    0    0 -0.12664828401E+02  0.21464809744E+02 -0.35531499470E+02  0.43400730298E+02  0.00000000000E+00 0. -1.
         11    1    3    3    0    0  0.10682416014E+01 -0.30200313909E+01 -0.33829933524E+00  0.32212072927E+01  0.51100000000E-03 0. -1.
        -11    1    3    3    0    0  0.10265938474E+02 -0.84360368878E+01  0.95137846781E+01  0.16342224765E+02  0.51100000000E-03 0.  1.
        -12    1    3    3    0    0  0.13306483261E+01 -0.10008741465E+02  0.26356014127E+02  0.28223837644E+02  0.00000000000E+00 0.  1.
</event>
<event>
 7    1  0.2580704E-010  0.4778727E+02  0.7816164E-02  0.1312668E+00
        -11   -1    0    0    0    0  0.00000000000E+00  0.00000000000E+00  0.45593999997E+02  0.45594000000E+02  0.51100000000E-03 0.  1.
         11   -1    0    0    0    0 -0.00000000000E+00 -0.00000000000E+00 -0.45593999997E+02  0.45594000000E+02  0.51100000000E-03 0. -1.
    9900012    2    1    2    0    0 -0.34171896963E+02  0.39703386292E+01  0.26460184044E+02  0.47787268779E+02  0.19999989671E+02 0.  0.
         12    1    1    2    0    0  0.34171896963E+02 -0.39703386292E+01 -0.26460184044E+02  0.43400731221E+02  0.00000000000E+00 0. -1.
         11    1    3    3    0    0 -0.31024608783E+00 -0.62180510866E+00 -0.18907955027E+01  0.20144483419E+01  0.51100000000E-03 0. -1.
        -11    1    3    3    0    0 -0.77070887270E+01  0.46396165645E+01  0.33740650193E+01  0.96077871296E+01  0.51100000000E-03 0.  1.
        -12    1    3    3    0    0 -0.26154562148E+02 -0.47472826639E-01  0.24976914527E+02  0.36165033307E+02  0.00000000000E+00 0.  1.
</event>
<event>
 7    1  0.2580704E-010  0.4778727E+02  0.7816164E-02  0.1312668E+00
        -11   -1    0    0    0    0  0.00000000000E+00  0.00000000000E+00  0.45593999997E+02  0.45594000000E+02  0.51100000000E-03 0. -1.
         11   -1    0    0    0    0 -0.00000000000E+00 -0.00000000000E+00 -0.45593999997E+02  0.45594000000E+02  0.51100000000E-03 0.  1.
    9900012    2    1    2    0    0 -0.42542472935E+02  0.47695038748E+01  0.71423580112E+01  0.47787269031E+02  0.19999990821E+02 0.  0.
         12    1    1    2    0    0  0.42542472935E+02 -0.47695038748E+01 -0.71423580112E+01  0.43400730969E+02  0.00000000000E+00 0. -1.
         11    1    3    3    0    0 -0.17098612736E+02  0.44627086349E+01 -0.41135753080E+01  0.18143864746E+02  0.51100000000E-03 0. -1.
        -11    1    3    3    0    0 -0.35876523154E+01 -0.34705372168E+01  0.57235590896E+00  0.50242879353E+01  0.51100000000E-03 0.  1.
        -12    1    3    3    0    0 -0.21856207884E+02  0.37773324567E+01  0.10683577410E+02  0.24619116350E+02  0.00000000000E+00 0.  1.
</event>
<event>
 7    1  0.2580704E-010  0.4778727E+02  0.7816164E-02  0.1312668E+00
        -11   -1    0    0    0    0  0.00000000000E+00  0.00000000000E+00  0.45593999997E+02  0.45594000000E+02  0.51100000000E-03 0. -1.
         11   -1    0    0    0    0 -0.00000000000E+00 -0.00000000000E+00 -0.45593999997E+02  0.45594000000E+02  0.51100000000E-03 0.  1.
    9900012    2    1    2    0    0  0.40690261625E+02  0.38999256563E+01  0.14584798776E+02  0.47787272281E+02  0.20000005637E+02 0.  0.
         12    1    1    2    0    0 -0.40690261625E+02 -0.38999256563E+01 -0.14584798776E+02  0.43400727719E+02  0.00000000000E+00 0. -1.
         11    1    3    3    0    0  0.51684319089E+01  0.50916043466E+00  0.40017554779E+01  0.65563694154E+01  0.51100000000E-03 0. -1.
        -11    1    3    3    0    0  0.31183556614E+02 -0.82814331798E+00  0.27257660949E+01  0.31313412869E+02  0.51100000000E-03 0.  1.
        -12    1    3    3    0    0  0.43382731017E+01  0.42189085396E+01  0.78572772034E+01  0.99174899960E+01  0.00000000000E+00 0.  1.
</event>
<event>
 7    1  0.2580704E-010  0.4778728E+02  0.7816164E-02  0.1312668E+00
        -11   -1    0    0    0    0  0.00000000000E+00  0.00000000000E+00  0.45593999997E+02  0.45594000000E+02  0.51100000000E-03 0.  1.
         11   -1    0    0    0    0 -0.00000000000E+00 -0.00000000000E+00 -0.45593999997E+02  0.45594000000E+02  0.51100000000E-03 0. -1.
    9900012    2    1    2    0    0  0.77128690292E+01  0.84199667947E+01  0.41871692619E+02  0.47787276132E+02  0.20000023194E+02 0.  0.
         12    1    1    2    0    0 -0.77128690292E+01 -0.84199667947E+01 -0.41871692619E+02  0.43400723868E+02  0.00000000000E+00 0. -1.
         11    1    3    3    0    0  0.55049785290E+00 -0.20120750075E+01 -0.27033324079E+00  0.21034671483E+01  0.51100000000E-03 0. -1.
        -11    1    3    3    0    0  0.16411214847E+01  0.40560449351E+01  0.22696055248E+01  0.49290860961E+01  0.51100000000E-03 0.  1.
        -12    1    3    3    0    0  0.55212496915E+01  0.63759968671E+01  0.39872420335E+02  0.40754722887E+02  0.00000000000E+00 0.  1.
</event>
<event>
 7    1  0.3075446E-010  0.4778728E+02  0.7816164E-02  0.1312668E+00
        -11   -1    0    0    0    0  0.00000000000E+00  0.00000000000E+00  0.45593999997E+02  0.45594000000E+02  0.51100000000E-03 0. -1.
         11   -1    0    0    0    0 -0.00000000000E+00 -0.00000000000E+00 -0.45593999997E+02  0.45594000000E+02  0.51100000000E-03 0.  1.
    9900012    2    1    2    0    0 -0.32916665979E+02  0.24723860322E+02 -0.13742145280E+02  0.47787277365E+02  0.20000028817E+02 0.  0.
         12    1    1    2    0    0  0.32916665979E+02 -0.24723860322E+02  0.13742145280E+02  0.43400722635E+02  0.00000000000E+00 0. -1.
         11    1    3    3    0    0 -0.26130016770E+01  0.74932505034E+01 -0.56769206370E+00  0.79560577808E+01  0.51100000000E-03 0. -1.
        -11    1    3    3    0    0 -0.90656421142E+01  0.58359210116E+01 -0.11359167301E+02  0.15661242704E+02  0.51100000000E-03 0.  1.
        -12    1    3    3    0    0 -0.21238022188E+02  0.11394688806E+02 -0.18152859157E+01  0.24169976880E+02  0.00000000000E+00 0.  1.
</event>
<event>
 7    1  0.2580704E-010  0.4778727E+02  0.7816164E-02  0.1312668E+00
        -11   -1    0    0    0    0  0.00000000000E+00  0.00000000000E+00  0.45593999997E+02  0.45594000000E+02  0.51100000000E-03 0.  1.
         11   -1    0    0    0    0 -0.00000000000E+00 -0.00000000000E+00 -0.45593999997E+02  0.45594000000E+02  0.51100000000E-03 0. -1.
    9900012    2    1    2    0    0 -0.20580240844E+02  0.22331292593E+02  0.31006299864E+02  0.47787267595E+02  0.19999984272E+02 0.  0.
         12    1    1    2    0    0  0.20580240844E+02 -0.22331292593E+02 -0.31006299864E+02  0.43400732405E+02  0.00000000000E+00 0. -1.
         11    1    3    3    0    0 -0.24965587738E+01 -0.10922028714E+01  0.14401449922E+01  0.30821633121E+01  0.51100000000E-03 0. -1.
        -11    1    3    3    0    0 -0.36304248974E+01 -0.11999518299E+01  0.81877147647E+01  0.90365116421E+01  0.51100000000E-03 0.  1.
        -12    1    3    3    0    0 -0.14453257173E+02  0.24623447294E+02  0.21378440107E+02  0.35668592641E+02  0.00000000000E+00 0.  1.
</event>
<event>
 7    1  0.2580704E-010  0.4778727E+02  0.7816164E-02  0.1312668E+00
        -11   -1    0    0    0    0  0.00000000000E+00  0.00000000000E+00  0.45593999997E+02  0.45594000000E+02  0.51100000000E-03 0.  1.
         11   -1    0    0    0    0 -0.00000000000E+00 -0.00000000000E+00 -0.45593999997E+02  0.45594000000E+02  0.51100000000E-03 0. -1.
    9900012    2    1    2    0    0 -0.21058564381E+02 -0.31009703464E+02  0.21875978655E+02  0.47787270918E+02  0.19999999425E+02 0.  0.
         12    1    1    2    0    0  0.21058564381E+02  0.31009703464E+02 -0.21875978655E+02  0.43400729082E+02  0.00000000000E+00 0. -1.
         11    1    3    3    0    0 -0.16109095566E+01 -0.55058680550E+01 -0.15581182229E+01  0.59445222934E+01  0.51100000000E-03 0. -1.
        -11    1    3    3    0    0 -0.68842511455E+01 -0.17677633789E+02  0.84073897183E+01  0.20750321741E+02  0.51100000000E-03 0.  1.
        -12    1    3    3    0    0 -0.12563403679E+02 -0.78262016197E+01  0.15026707159E+02  0.21092426884E+02  0.00000000000E+00 0.  1.
</event>
<event>
 7    1  0.2580704E-010  0.4778727E+02  0.7816164E-02  0.1312668E+00
        -11   -1    0    0    0    0  0.00000000000E+00  0.00000000000E+00  0.45593999997E+02  0.45594000000E+02  0.51100000000E-03 0.  1.
         11   -1    0    0    0    0 -0.00000000000E+00 -0.00000000000E+00 -0.45593999997E+02  0.45594000000E+02  0.51100000000E-03 0. -1.
    9900012    2    1    2    0    0 -0.27919236224E+02 -0.32971758059E+02 -0.41234397747E+01  0.47787270324E+02  0.19999996716E+02 0.  0.
         12    1    1    2    0    0  0.27919236224E+02  0.32971758059E+02  0.41234397747E+01  0.43400729676E+02  0.00000000000E+00 0. -1.
         11    1    3    3    0    0 -0.16632606160E+01 -0.52980506544E+00 -0.47867863597E+01  0.50951401550E+01  0.51100000000E-03 0. -1.
        -11    1    3    3    0    0 -0.17069450724E+01 -0.74304844456E+01  0.57843658746E+00  0.76459368113E+01  0.51100000000E-03 0.  1.
        -12    1    3    3    0    0 -0.24549030535E+02 -0.25011468548E+02  0.84909997584E-01  0.35046193358E+02  0.00000000000E+00 0.  1.
</event>
<event>
 7    1  0.2580704E-010  0.4778727E+02  0.7816164E-02  0.1312668E+00
        -11   -1    0    0    0    0  0.00000000000E+00  0.00000000000E+00  0.45593999997E+02  0.45594000000E+02  0.51100000000E-03 0. -1.
         11   -1    0    0    0    0 -0.00000000000E+00 -0.00000000000E+00 -0.45593999997E+02  0.45594000000E+02  0.51100000000E-03 0.  1.
    9900012    2    1    2    0    0  0.24099773132E+02  0.24700743174E+02 -0.26319143573E+02  0.47787273085E+02  0.20000009304E+02 0.  0.
         12    1    1    2    0    0 -0.24099773132E+02 -0.24700743174E+02  0.26319143573E+02  0.43400726915E+02  0.00000000000E+00 0. -1.
         11    1    3    3    0    0  0.71067458899E+01  0.17124982385E+02 -0.19218396214E+02  0.26704262059E+02  0.51100000000E-03 0. -1.
        -11    1    3    3    0    0  0.14126120420E+01 -0.87055398564E+00 -0.20843256563E+01  0.26641604167E+01  0.51100000000E-03 0.  1.
        -12    1    3    3    0    0  0.15580415200E+02  0.84463147751E+01 -0.50164217026E+01  0.18418850609E+02  0.00000000000E+00 0.  1.
</event>
<event>
 7    1  0.2580704E-010  0.4778727E+02  0.7816164E-02  0.1312668E+00
        -11   -1    0    0    0    0  0.00000000000E+00  0.00000000000E+00  0.45593999997E+02  0.45594000000E+02  0.51100000000E-03 0. -1.
         11   -1    0    0    0    0 -0.00000000000E+00 -0.00000000000E+00 -0.45593999997E+02  0.45594000000E+02  0.51100000000E-03 0.  1.
    9900012    2    1    2    0    0  0.21909670206E+02 -0.35824464215E+02  0.10963454453E+02  0.47787271684E+02  0.20000002915E+02 0.  0.
         12    1    1    2    0    0 -0.21909670206E+02  0.35824464215E+02 -0.10963454453E+02  0.43400728316E+02  0.00000000000E+00 0. -1.
         11    1    3    3    0    0 -0.34190280987E+00 -0.86969591215E+01  0.37108287176E+01  0.94617252932E+01  0.51100000000E-03 0.  1.
        -11    1    3    3    0    0 -0.14329695031E+01  0.17500973256E+00 -0.77916735255E-01  0.14457182582E+01  0.51100000000E-03 0. -1.
        -12    1    3    3    0    0  0.23684542519E+02 -0.27302514826E+02  0.73305424705E+01  0.36879828132E+02  0.00000000000E+00 0.  1.
</event>
<event>
 7    1  0.2580704E-010  0.4778728E+02  0.7816164E-02  0.1312668E+00
        -11   -1    0    0    0    0  0.00000000000E+00  0.00000000000E+00  0.45593999997E+02  0.45594000000E+02  0.51100000000E-03 0.  1.
         11   -1    0    0    0    0 -0.00000000000E+00 -0.00000000000E+00 -0.45593999997E+02  0.45594000000E+02  0.51100000000E-03 0. -1.
    9900012    2    1    2    0    0  0.22179237824E+01  0.42096008805E+02 -0.10326163713E+02  0.47787276501E+02  0.20000024877E+02 0.  0.
         12    1    1    2    0    0 -0.22179237824E+01 -0.42096008805E+02  0.10326163713E+02  0.43400723499E+02  0.00000000000E+00 0. -1.
         11    1    3    3    0    0  0.41442778740E+01  0.78204193957E+01  0.18859407121E+01  0.90493519797E+01  0.51100000000E-03 0. -1.
        -11    1    3    3    0    0  0.43262042721E+01  0.51654321267E+01 -0.54587859731E+00  0.67598606616E+01  0.51100000000E-03 0.  1.
        -12    1    3    3    0    0 -0.62525583637E+01  0.29110157283E+02 -0.11666225827E+02  0.31978063859E+02  0.00000000000E+00 0.  1.
</event>
<event>
 7    1  0.2580704E-010  0.4778728E+02  0.7816164E-02  0.1312668E+00
        -11   -1    0    0    0    0  0.00000000000E+00  0.00000000000E+00  0.45593999997E+02  0.45594000000E+02  0.51100000000E-03 0.  1.
         11   -1    0    0    0    0 -0.00000000000E+00 -0.00000000000E+00 -0.45593999997E+02  0.45594000000E+02  0.51100000000E-03 0. -1.
    9900012    2    1    2    0    0 -0.27030209500E+02 -0.53075103918E+01  0.33538351141E+02  0.47787275474E+02  0.20000020195E+02 0.  0.
         12    1    1    2    0    0  0.27030209500E+02  0.53075103918E+01 -0.33538351141E+02  0.43400724526E+02  0.00000000000E+00 0. -1.
         11    1    3    3    0    0 -0.77648395932E+01  0.73325127209E+00  0.10084189521E+02  0.12748383030E+02  0.51100000000E-03 0. -1.
        -11    1    3    3    0    0 -0.80640053443E+01  0.14504194730E+01  0.19252697043E+02  0.20923628809E+02  0.51100000000E-03 0.  1.
        -12    1    3    3    0    0 -0.11201364562E+02 -0.74911811370E+01  0.42014645773E+01  0.14115263635E+02  0.00000000000E+00 0.  1.
</event>
<event>
 7    1  0.2580704E-010  0.4778724E+02  0.7816164E-02  0.1312668E+00
        -11   -1    0    0    0    0  0.00000000000E+00  0.00000000000E+00  0.45593999997E+02  0.45594000000E+02  0.51100000000E-03 0. -1.
         11   -1    0    0    0    0 -0.00000000000E+00 -0.00000000000E+00 -0.45593999997E+02  0.45594000000E+02  0.51100000000E-03 0.  1.
    9900012    2    1    2    0    0 -0.42793623738E+02  0.42663074316E+01 -0.58420863054E+01  0.47787244429E+02  0.19999878648E+02 0.  0.
         12    1    1    2    0    0  0.42793623738E+02 -0.42663074316E+01  0.58420863054E+01  0.43400755571E+02  0.00000000000E+00 0. -1.
         11    1    3    3    0    0 -0.45846155830E+01 -0.24539297019E+01  0.33561948399E+01  0.61890641530E+01  0.51100000000E-03 0. -1.
        -11    1    3    3    0    0 -0.12490624058E+02 -0.24276913079E+01  0.20806317725E+00  0.12726062431E+02  0.51100000000E-03 0.  1.
        -12    1    3    3    0    0 -0.25718384097E+02  0.91479284413E+01 -0.94063443226E+01  0.28872117845E+02  0.00000000000E+00 0.  1.
</event>
<event>
 7    1  0.2580704E-010  0.4778727E+02  0.7816164E-02  0.1312668E+00
        -11   -1    0    0    0    0  0.00000000000E+00  0.00000000000E+00  0.45593999997E+02  0.45594000000E+02  0.51100000000E-03 0. -1.
         11   -1    0    0    0    0 -0.00000000000E+00 -0.00000000000E+00 -0.45593999997E+02  0.45594000000E+02  0.51100000000E-03 0.  1.
    9900012    2    1    2    0    0 -0.38100969575E+02 -0.10184414283E+02  0.18116764346E+02  0.47787270429E+02  0.19999997196E+02 0.  0.
         12    1    1    2    0    0  0.38100969575E+02  0.10184414283E+02 -0.18116764346E+02  0.43400729571E+02  0.00000000000E+00 0. -1.
         11    1    3    3    0    0 -0.20004369593E+02 -0.51910858001E+01  0.12387785414E+02  0.24095215341E+02  0.51100000000E-03 0. -1.
        -11    1    3    3    0    0 -0.20010184806E+02 -0.54097271428E+01  0.62776346440E+01  0.21658285729E+02  0.51100000000E-03 0.  1.
         12    1    3    3    0    0  0.19135848231E+01  0.41639865955E+00 -0.54865571203E+00  0.20337693599E+01  0.00000000000E+00 0. -1.
</event>
<event>
 7    1  0.2580704E-010  0.4778727E+02  0.7816164E-02  0.1312668E+00
        -11   -1    0    0    0    0  0.00000000000E+00  0.00000000000E+00  0.45593999997E+02  0.45594000000E+02  0.51100000000E-03 0.  1.
         11   -1    0    0    0    0 -0.00000000000E+00 -0.00000000000E+00 -0.45593999997E+02  0.45594000000E+02  0.51100000000E-03 0. -1.
    9900012    2    1    2    0    0 -0.30211974724E+02  0.15354951727E+02  0.27112459586E+02  0.47787269315E+02  0.19999992113E+02 0.  0.
         12    1    1    2    0    0  0.30211974724E+02 -0.15354951727E+02 -0.27112459586E+02  0.43400730685E+02  0.00000000000E+00 0. -1.
         11    1    3    3    0    0 -0.10694505915E+01  0.30396100107E+01  0.12522486917E+02  0.12930415014E+02  0.51100000000E-03 0. -1.
        -11    1    3    3    0    0 -0.55148186653E+01  0.26888338627E+01  0.25285257166E+01  0.66359999257E+01  0.51100000000E-03 0.  1.
         12    1    3    3    0    0 -0.23627705467E+02  0.96265078534E+01  0.12061446952E+02  0.28220854375E+02  0.00000000000E+00 0. -1.
</event>
<event>
 7    1  0.2580704E-010  0.4778726E+02  0.7816164E-02  0.1312668E+00
        -11   -1    0    0    0    0  0.00000000000E+00  0.00000000000E+00  0.45593999997E+02  0.45594000000E+02  0.51100000000E-03 0.  1.
         11   -1    0    0    0    0 -0.00000000000E+00 -0.00000000000E+00 -0.45593999997E+02  0.45594000000E+02  0.51100000000E-03 0. -1.
    9900012    2    1    2    0    0 -0.10209324330E+00  0.14510257033E+01  0.43376352948E+02  0.47787263904E+02  0.19999967442E+02 0.  0.
         12    1    1    2    0    0  0.10209324330E+00 -0.14510257033E+01 -0.43376352948E+02  0.43400736096E+02  0.00000000000E+00 0. -1.
         11    1    3    3    0    0 -0.80424412804E-01 -0.49609810070E+01  0.10172782497E+02  0.11318273041E+02  0.51100000000E-03 0. -1.
        -11    1    3    3    0    0  0.39625618866E+01 -0.92749194256E+00  0.22640971185E+02  0.23003819563E+02  0.51100000000E-03 0.  1.
         12    1    3    3    0    0 -0.39842307171E+01  0.73394986529E+01  0.10562599266E+02  0.13465171300E+02  0.00000000000E+00 0. -1.
</event>
<event>
 7    1  0.2580704E-010  0.4778727E+02  0.7816164E-02  0.1312668E+00
        -11   -1    0    0    0    0  0.00000000000E+00  0.00000000000E+00  0.45593999997E+02  0.45594000000E+02  0.51100000000E-03 0.  1.
         11   -1    0    0    0    0 -0.00000000000E+00 -0.00000000000E+00 -0.45593999997E+02  0.45594000000E+02  0.51100000000E-03 0. -1.
    9900012    2    1    2    0    0  0.68304364640E+01  0.95652482929E+01  0.41778874568E+02  0.47787271926E+02  0.20000004021E+02 0.  0.
         12    1    1    2    0    0 -0.68304364640E+01 -0.95652482929E+01 -0.41778874568E+02  0.43400728074E+02  0.00000000000E+00 0. -1.
         11    1    3    3    0    0  0.18916122642E+01  0.64244465857E+01  0.15450473997E+02  0.16839502899E+02  0.51100000000E-03 0.  1.
        -11    1    3    3    0    0  0.68006110484E+01  0.57015576484E+01  0.26326206095E+02  0.27781742167E+02  0.51100000000E-03 0. -1.
         12    1    3    3    0    0 -0.18617868486E+01 -0.25607559411E+01  0.21944754038E-02  0.31660268595E+01  0.00000000000E+00 0. -1.
</event>
<event>
 7    1  0.2580704E-010  0.4778727E+02  0.7816164E-02  0.1312668E+00
        -11   -1    0    0    0    0  0.00000000000E+00  0.00000000000E+00  0.45593999997E+02  0.45594000000E+02  0.51100000000E-03 0.  1.
         11   -1    0    0    0    0 -0.00000000000E+00 -0.00000000000E+00 -0.45593999997E+02  0.45594000000E+02  0.51100000000E-03 0. -1.
    9900012    2    1    2    0    0  0.68572724050E+01  0.32763246394E+02  0.27625551114E+02  0.47787267593E+02  0.19999984265E+02 0.  0.
         12    1    1    2    0    0 -0.68572724050E+01 -0.32763246394E+02 -0.27625551114E+02  0.43400732407E+02  0.00000000000E+00 0. -1.
         11    1    3    3    0    0 -0.17210071825E+01  0.22260833377E+02  0.97776803176E+01  0.24374363602E+02  0.51100000000E-03 0. -1.
        -11    1    3    3    0    0  0.35118883664E+01  0.91909608970E+01  0.10472379646E+02  0.14369337417E+02  0.51100000000E-03 0.  1.
         12    1    3    3    0    0  0.50663912211E+01  0.13114521200E+01  0.73754911504E+01  0.90435665739E+01  0.00000000000E+00 0. -1.
</event>
<event>
 7    1  0.2580704E-010  0.4778727E+02  0.7816164E-02  0.1312668E+00
        -11   -1    0    0    0    0  0.00000000000E+00  0.00000000000E+00  0.45593999997E+02  0.45594000000E+02  0.51100000000E-03 0.  1.
         11   -1    0    0    0    0 -0.00000000000E+00 -0.00000000000E+00 -0.45593999997E+02  0.45594000000E+02  0.51100000000E-03 0. -1.
    9900012    2    1    2    0    0  0.31950412789E+02  0.29360625830E+02  0.86488240197E+00  0.47787271342E+02  0.20000001355E+02 0.  0.
         12    1    1    2    0    0 -0.31950412789E+02 -0.29360625830E+02 -0.86488240197E+00  0.43400728658E+02  0.00000000000E+00 0. -1.
         11    1    3    3    0    0  0.88786520114E+01  0.10566084119E+02 -0.55892756308E+01  0.14890016705E+02  0.51100000000E-03 0. -1.
        -11    1    3    3    0    0  0.15445424407E+02  0.18379114861E+02  0.20838028241E+01  0.24097618818E+02  0.51100000000E-03 0.  1.
         12    1    3    3    0    0  0.76263363700E+01  0.41542685018E+00  0.43703552087E+01  0.87996358190E+01  0.00000000000E+00 0. -1.
</event>
<event>
 7    1  0.2580704E-010  0.4778727E+02  0.7816164E-02  0.1312668E+00
        -11   -1    0    0    0    0  0.00000000000E+00  0.00000000000E+00  0.45593999997E+02  0.45594000000E+02  0.51100000000E-03 0.  1.
         11   -1    0    0    0    0 -0.00000000000E+00 -0.00000000000E+00 -0.45593999997E+02  0.45594000000E+02  0.51100000000E-03 0. -1.
    9900012    2    1    2    0    0 -0.70909610333E+01 -0.12121597346E+02  0.41065903087E+02  0.47787271355E+02  0.20000001415E+02 0.  0.
         12    1    1    2    0    0  0.70909610333E+01  0.12121597346E+02 -0.41065903087E+02  0.43400728645E+02  0.00000000000E+00 0. -1.
         11    1    3    3    0    0 -0.51718835489E+00 -0.76013919578E+00  0.91198106346E+01  0.91660374025E+01  0.51100000000E-03 0. -1.
        -11    1    3    3    0    0  0.19626802095E+01 -0.47518412588E+01  0.25572227606E+02  0.26083920985E+02  0.51100000000E-03 0.  1.
         12    1    3    3    0    0 -0.85364528879E+01 -0.66096168918E+01  0.63738648464E+01  0.12537312967E+02  0.00000000000E+00 0. -1.
</event>
<event>
 7    1  0.2580704E-010  0.4778727E+02  0.7816164E-02  0.1312668E+00
        -11   -1    0    0    0    0  0.00000000000E+00  0.00000000000E+00  0.45593999997E+02  0.45594000000E+02  0.51100000000E-03 0.  1.
         11   -1    0    0    0    0 -0.00000000000E+00 -0.00000000000E+00 -0.45593999997E+02  0.45594000000E+02  0.51100000000E-03 0. -1.
    9900012    2    1    2    0    0  0.37005442343E+02  0.15155224120E+02  0.16868301840E+02  0.47787272032E+02  0.20000004504E+02 0.  0.
         12    1    1    2    0    0 -0.37005442343E+02 -0.15155224120E+02 -0.16868301840E+02  0.43400727968E+02  0.00000000000E+00 0. -1.
         11    1    3    3    0    0  0.35071401172E+01 -0.41773996173E+01  0.77183690902E+00  0.55087595555E+01  0.51100000000E-03 0. -1.
        -11    1    3    3    0    0  0.79155953501E+01  0.43630180812E+01  0.64642952070E+01  0.11112141527E+02  0.51100000000E-03 0.  1.
         12    1    3    3    0    0  0.25582706876E+02  0.14969605656E+02  0.96321697238E+01  0.31166370950E+02  0.00000000000E+00 0. -1.
</event>
<event>
 7    1  0.2580704E-010  0.4778727E+02  0.7816164E-02  0.1312668E+00
        -11   -1    0    0    0    0  0.00000000000E+00  0.00000000000E+00  0.45593999997E+02  0.45594000000E+02  0.51100000000E-03 0.  1.
         11   -1    0    0    0    0 -0.00000000000E+00 -0.00000000000E+00 -0.45593999997E+02  0.45594000000E+02  0.51100000000E-03 0. -1.
    9900012    2    1    2    0    0 -0.14436664014E+02  0.39161395622E+02 -0.11899203173E+02  0.47787271768E+02  0.20000003300E+02 0.  0.
         12    1    1    2    0    0  0.14436664014E+02 -0.39161395622E+02  0.11899203173E+02  0.43400728232E+02  0.00000000000E+00 0. -1.
         11    1    3    3    0    0 -0.78050798797E+01  0.12159093484E+02 -0.10678213678E+02  0.17966276017E+02  0.51100000000E-03 0. -1.
        -11    1    3    3    0    0 -0.61007210765E+01  0.20832514047E+02 -0.53765158985E+01  0.22363348645E+02  0.51100000000E-03 0.  1.
         12    1    3    3    0    0 -0.53086305799E+00  0.61697880907E+01  0.41555264041E+01  0.74576471066E+01  0.00000000000E+00 0. -1.
</event>
<event>
 7    1  0.2580704E-010  0.4778726E+02  0.7816164E-02  0.1312668E+00
        -11   -1    0    0    0    0  0.00000000000E+00  0.00000000000E+00  0.45593999997E+02  0.45594000000E+02  0.51100000000E-03 0.  1.
         11   -1    0    0    0    0 -0.00000000000E+00 -0.00000000000E+00 -0.45593999997E+02  0.45594000000E+02  0.51100000000E-03 0. -1.
    9900012    2    1    2    0    0  0.11611851848E+02 -0.88545590223E+00  0.41809151492E+02  0.47787259407E+02  0.19999946942E+02 0.  0.
         12    1    1    2    0    0 -0.11611851848E+02  0.88545590223E+00 -0.41809151492E+02  0.43400740593E+02  0.00000000000E+00 0. -1.
         11    1    3    3    0    0  0.44364173726E+01  0.20650249121E+01  0.13271568547E+02  0.14144987061E+02  0.51100000000E-03 0. -1.
        -11    1    3    3    0    0  0.49761066436E+01 -0.54738577074E+01  0.29291423876E+02  0.30211128222E+02  0.51100000000E-03 0.  1.
         12    1    3    3    0    0  0.21993278318E+01  0.25233768931E+01 -0.75384093024E+00  0.34311441247E+01  0.00000000000E+00 0. -1.
</event>
<event>
 7    1  0.2580704E-010  0.4778728E+02  0.7816164E-02  0.1312668E+00
        -11   -1    0    0    0    0  0.00000000000E+00  0.00000000000E+00  0.45593999997E+02  0.45594000000E+02  0.51100000000E-03 0. -1.
         11   -1    0    0    0    0 -0.00000000000E+00 -0.00000000000E+00 -0.45593999997E+02  0.45594000000E+02  0.51100000000E-03 0.  1.
    9900012    2    1    2    0    0 -0.43369102545E+02  0.93314934138E+00  0.13686117674E+01  0.47787275105E+02  0.20000018513E+02 0.  0.
         12    1    1    2    0    0  0.43369102545E+02 -0.93314934138E+00 -0.13686117674E+01  0.43400724895E+02  0.00000000000E+00 0. -1.
         11    1    3    3    0    0 -0.10728973723E+02 -0.27666965446E+01 -0.71757263158E+00  0.11103170613E+02  0.51100000000E-03 0. -1.
        -11    1    3    3    0    0 -0.25964631151E+02 -0.41026343234E+01  0.25143636170E+01  0.26406735956E+02  0.51100000000E-03 0.  1.
        -12    1    3    3    0    0 -0.66754976708E+01  0.78024802093E+01 -0.42817921801E+00  0.10277368535E+02  0.00000000000E+00 0.  1.
</event>
<event>
 7    1  0.2580704E-010  0.4778727E+02  0.7816164E-02  0.1312668E+00
        -11   -1    0    0    0    0  0.00000000000E+00  0.00000000000E+00  0.45593999997E+02  0.45594000000E+02  0.51100000000E-03 0. -1.
         11   -1    0    0    0    0 -0.00000000000E+00 -0.00000000000E+00 -0.45593999997E+02  0.45594000000E+02  0.51100000000E-03 0.  1.
    9900012    2    1    2    0    0  0.40533579279E+02 -0.66318194118E+01 -0.14023947278E+02  0.47787272182E+02  0.20000005187E+02 0.  0.
         12    1    1    2    0    0 -0.40533579279E+02  0.66318194118E+01  0.14023947278E+02  0.43400727818E+02  0.00000000000E+00 0. -1.
         11    1    3    3    0    0  0.21683100840E+02 -0.40157124582E+01 -0.12309371552E+02  0.25254770576E+02  0.51100000000E-03 0. -1.
        -11    1    3    3    0    0  0.14454171258E+02 -0.10743409608E+01 -0.64724222978E+01  0.15873547994E+02  0.51100000000E-03 0.  1.
         12    1    3    3    0    0  0.43963071809E+01 -0.15417659928E+01  0.47578465720E+01  0.66589536121E+01  0.00000000000E+00 0. -1.
</event>
<event>
 7    1  0.2580704E-010  0.4778727E+02  0.7816164E-02  0.1312668E+00
        -11   -1    0    0    0    0  0.00000000000E+00  0.00000000000E+00  0.45593999997E+02  0.45594000000E+02  0.51100000000E-03 0. -1.
         11   -1    0    0    0    0 -0.00000000000E+00 -0.00000000000E+00 -0.45593999997E+02  0.45594000000E+02  0.51100000000E-03 0.  1.
    9900012    2    1    2    0    0  0.11929439364E+02  0.22076120131E+02 -0.35411248281E+02  0.47787272951E+02  0.20000008693E+02 0.  0.
         12    1    1    2    0    0 -0.11929439364E+02 -0.22076120131E+02  0.35411248281E+02  0.43400727049E+02  0.00000000000E+00 0. -1.
         11    1    3    3    0    0  0.18483181182E+01  0.11318472372E+02 -0.66614594226E+01  0.13262697260E+02  0.51100000000E-03 0. -1.
        -11    1    3    3    0    0  0.84289554193E+01  0.92042528076E+01 -0.11017448096E+02  0.16647814332E+02  0.51100000000E-03 0.  1.
         12    1    3    3    0    0  0.16521658267E+01  0.15533949506E+01 -0.17732340762E+02  0.17876761359E+02  0.00000000000E+00 0. -1.
</event>
<event>
 7    1  0.2580704E-010  0.4778725E+02  0.7816164E-02  0.1312668E+00
        -11   -1    0    0    0    0  0.00000000000E+00  0.00000000000E+00  0.45593999997E+02  0.45594000000E+02  0.51100000000E-03 0.  1.
         11   -1    0    0    0    0 -0.00000000000E+00 -0.00000000000E+00 -0.45593999997E+02  0.45594000000E+02  0.51100000000E-03 0. -1.
    9900012    2    1    2    0    0 -0.69801237346E+01 -0.97820873959E+01  0.41703885571E+02  0.47787246172E+02  0.19999886594E+02 0.  0.
         12    1    1    2    0    0  0.69801237346E+01  0.97820873959E+01 -0.41703885571E+02  0.43400753828E+02  0.00000000000E+00 0. -1.
         11    1    3    3    0    0  0.20578718062E+01 -0.85323057917E+01  0.14716825122E+02  0.17135344187E+02  0.51100000000E-03 0. -1.
        -11    1    3    3    0    0 -0.50731922235E+01 -0.42681346306E+01  0.23871624076E+02  0.24775162741E+02  0.51100000000E-03 0.  1.
         12    1    3    3    0    0 -0.39648033173E+01  0.30183530264E+01  0.31154363731E+01  0.58767392431E+01  0.00000000000E+00 0. -1.
</event>
<event>
 7    1  0.2580704E-010  0.4778727E+02  0.7816164E-02  0.1312668E+00
        -11   -1    0    0    0    0  0.00000000000E+00  0.00000000000E+00  0.45593999997E+02  0.45594000000E+02  0.51100000000E-03 0.  1.
         11   -1    0    0    0    0 -0.00000000000E+00 -0.00000000000E+00 -0.45593999997E+02  0.45594000000E+02  0.51100000000E-03 0. -1.
    9900012    2    1    2    0    0 -0.21416127763E+02 -0.24565633739E+02  0.28661860716E+02  0.47787272483E+02  0.20000006559E+02 0.  0.
         12    1    1    2    0    0  0.21416127763E+02  0.24565633739E+02 -0.28661860716E+02  0.43400727517E+02  0.00000000000E+00 0. -1.
         11    1    3    3    0    0 -0.15105113100E+01 -0.63675562344E+01 -0.97798805396E+00  0.66169386963E+01  0.51100000000E-03 0. -1.
        -11    1    3    3    0    0  0.11238912772E-01 -0.42301206439E+01  0.38944251555E+01  0.57498343044E+01  0.51100000000E-03 0.  1.
        -12    1    3    3    0    0 -0.19916855366E+02 -0.13967956860E+02  0.25745423614E+02  0.35420499482E+02  0.00000000000E+00 0.  1.
</event>
<event>
 7    1  0.2580704E-010  0.4778727E+02  0.7816164E-02  0.1312668E+00
        -11   -1    0    0    0    0  0.00000000000E+00  0.00000000000E+00  0.45593999997E+02  0.45594000000E+02  0.51100000000E-03 0.  1.
         11   -1    0    0    0    0 -0.00000000000E+00 -0.00000000000E+00 -0.45593999997E+02  0.45594000000E+02  0.51100000000E-03 0. -1.
    9900012    2    1    2    0    0  0.22745610435E+02 -0.19829149963E+02  0.31193997537E+02  0.47787268847E+02  0.19999989979E+02 0.  0.
         12    1    1    2    0    0 -0.22745610435E+02  0.19829149963E+02 -0.31193997537E+02  0.43400731153E+02  0.00000000000E+00 0. -1.
         11    1    3    3    0    0  0.38034915927E+01 -0.11862092413E+02  0.15602908385E+02  0.19965633850E+02  0.51100000000E-03 0. -1.
        -11    1    3    3    0    0  0.10110097149E+02 -0.73115174276E+01  0.14122197769E+02  0.18844331284E+02  0.51100000000E-03 0.  1.
         12    1    3    3    0    0  0.88320216937E+01 -0.65554012267E+00  0.14688913826E+01  0.89773037124E+01  0.00000000000E+00 0. -1.
</event>
<event>
 7    1  0.2580704E-010  0.4778728E+02  0.7816164E-02  0.1312668E+00
        -11   -1    0    0    0    0  0.00000000000E+00  0.00000000000E+00  0.45593999997E+02  0.45594000000E+02  0.51100000000E-03 0.  1.
         11   -1    0    0    0    0 -0.00000000000E+00 -0.00000000000E+00 -0.45593999997E+02  0.45594000000E+02  0.51100000000E-03 0. -1.
    9900012    2    1    2    0    0  0.76001638753E+01  0.37369972251E+02  0.20720650395E+02  0.47787278004E+02  0.20000031731E+02 0.  0.
         12    1    1    2    0    0 -0.76001638753E+01 -0.37369972251E+02 -0.20720650395E+02  0.43400721996E+02  0.00000000000E+00 0. -1.
         11    1    3    3    0    0 -0.33962183433E+00  0.35907193811E+01  0.56170833392E+01  0.66753452468E+01  0.51100000000E-03 0. -1.
        -11    1    3    3    0    0  0.90524763269E+01  0.86152836879E+01  0.17993343636E+01  0.12625689886E+02  0.51100000000E-03 0.  1.
        -12    1    3    3    0    0 -0.11126906173E+01  0.25163969182E+02  0.13304232693E+02  0.28486242872E+02  0.00000000000E+00 0.  1.
</event>
<event>
 7    1  0.2580704E-010  0.4778727E+02  0.7816164E-02  0.1312668E+00
        -11   -1    0    0    0    0  0.00000000000E+00  0.00000000000E+00  0.45593999997E+02  0.45594000000E+02  0.51100000000E-03 0.  1.
         11   -1    0    0    0    0 -0.00000000000E+00 -0.00000000000E+00 -0.45593999997E+02  0.45594000000E+02  0.51100000000E-03 0. -1.
    9900012    2    1    2    0    0 -0.21832192568E+02 -0.13972899885E+02  0.34810006080E+02  0.47787273199E+02  0.20000009825E+02 0.  0.
         12    1    1    2    0    0  0.21832192568E+02  0.13972899885E+02 -0.34810006080E+02  0.43400726801E+02  0.00000000000E+00 0. -1.
         11    1    3    3    0    0 -0.37635391837E+01 -0.89823564988E+00 -0.20016394896E+01  0.43563304945E+01  0.51100000000E-03 0. -1.
        -11    1    3    3    0    0 -0.71796428295E+00 -0.22568532544E+01  0.60173501798E+01  0.64666345785E+01  0.51100000000E-03 0.  1.
         12    1    3    3    0    0 -0.17350689102E+02 -0.10817810981E+02  0.30794295390E+02  0.36964308126E+02  0.00000000000E+00 0. -1.
</event>
<event>
 7    1  0.2580704E-010  0.4778725E+02  0.7816164E-02  0.1312668E+00
        -11   -1    0    0    0    0  0.00000000000E+00  0.00000000000E+00  0.45593999997E+02  0.45594000000E+02  0.51100000000E-03 0.  1.
         11   -1    0    0    0    0 -0.00000000000E+00 -0.00000000000E+00 -0.45593999997E+02  0.45594000000E+02  0.51100000000E-03 0. -1.
    9900012    2    1    2    0    0  0.48740182986E+01 -0.56604157746E+01  0.42753108838E+02  0.47787254886E+02  0.19999926326E+02 0.  0.
         12    1    1    2    0    0 -0.48740182986E+01  0.56604157746E+01 -0.42753108838E+02  0.43400745114E+02  0.00000000000E+00 0. -1.
         11    1    3    3    0    0  0.33941102522E+01  0.29614669188E-01  0.34377468187E+01  0.48310418010E+01  0.51100000000E-03 0. -1.
        -11    1    3    3    0    0 -0.31359455365E+01 -0.74538237338E+01  0.84431211165E+01  0.11691019507E+02  0.51100000000E-03 0.  1.
        -12    1    3    3    0    0  0.46158535829E+01  0.17637932900E+01  0.30872240903E+02  0.31265193578E+02  0.00000000000E+00 0.  1.
</event>
<event>
 7    1  0.2580704E-010  0.4778727E+02  0.7816164E-02  0.1312668E+00
        -11   -1    0    0    0    0  0.00000000000E+00  0.00000000000E+00  0.45593999997E+02  0.45594000000E+02  0.51100000000E-03 0. -1.
         11   -1    0    0    0    0 -0.00000000000E+00 -0.00000000000E+00 -0.45593999997E+02  0.45594000000E+02  0.51100000000E-03 0.  1.
    9900012    2    1    2    0    0 -0.27683760613E+02 -0.30778815880E+02 -0.13034458713E+02  0.47787271636E+02  0.20000002695E+02 0.  0.
         12    1    1    2    0    0  0.27683760613E+02  0.30778815880E+02  0.13034458713E+02  0.43400728364E+02  0.00000000000E+00 0. -1.
         11    1    3    3    0    0 -0.16483926850E+02 -0.18024500597E+02 -0.30805600210E+01  0.24618942229E+02  0.51100000000E-03 0. -1.
        -11    1    3    3    0    0 -0.62293494912E+01 -0.14224058573E+02 -0.59918551468E+01  0.16644247227E+02  0.51100000000E-03 0.  1.
        -12    1    3    3    0    0 -0.49704842719E+01  0.14697432908E+01 -0.39620435448E+01  0.65240821798E+01  0.00000000000E+00 0.  1.
</event>
<event>
 7    1  0.2580704E-010  0.4778726E+02  0.7816164E-02  0.1312668E+00
        -11   -1    0    0    0    0  0.00000000000E+00  0.00000000000E+00  0.45593999997E+02  0.45594000000E+02  0.51100000000E-03 0.  1.
         11   -1    0    0    0    0 -0.00000000000E+00 -0.00000000000E+00 -0.45593999997E+02  0.45594000000E+02  0.51100000000E-03 0. -1.
    9900012    2    1    2    0    0  0.30285674253E+02  0.19283734560E+02  0.24383183852E+02  0.47787261086E+02  0.19999954597E+02 0.  0.
         12    1    1    2    0    0 -0.30285674253E+02 -0.19283734560E+02 -0.24383183852E+02  0.43400738914E+02  0.00000000000E+00 0. -1.
         11    1    3    3    0    0  0.10179948552E+02  0.69350577169E+01  0.26627547934E+01  0.12602247474E+02  0.51100000000E-03 0. -1.
        -11    1    3    3    0    0  0.14178690989E+02  0.70279412995E+00  0.82567910444E+01  0.16422661062E+02  0.51100000000E-03 0.  1.
        -12    1    3    3    0    0  0.59270347117E+01  0.11645882713E+02  0.13463638014E+02  0.18762352550E+02  0.00000000000E+00 0.  1.
</event>
<event>
 7    1  0.2580704E-010  0.4778727E+02  0.7816164E-02  0.1312668E+00
        -11   -1    0    0    0    0  0.00000000000E+00  0.00000000000E+00  0.45593999997E+02  0.45594000000E+02  0.51100000000E-03 0.  1.
         11   -1    0    0    0    0 -0.00000000000E+00 -0.00000000000E+00 -0.45593999997E+02  0.45594000000E+02  0.51100000000E-03 0. -1.
    9900012    2    1    2    0    0 -0.16252129513E+02  0.38732699835E+02  0.10921066246E+02  0.47787269152E+02  0.19999991372E+02 0.  0.
         12    1    1    2    0    0  0.16252129513E+02 -0.38732699835E+02 -0.10921066246E+02  0.43400730848E+02  0.00000000000E+00 0. -1.
         11    1    3    3    0    0 -0.82059658535E+01  0.66272934694E+01  0.64676882953E+01  0.12372949788E+02  0.51100000000E-03 0. -1.
        -11    1    3    3    0    0 -0.53532934147E+01  0.29517522880E+02  0.71111970365E+01  0.30830358916E+02  0.51100000000E-03 0.  1.
         12    1    3    3    0    0 -0.26928702451E+01  0.25878834851E+01 -0.26578190860E+01  0.45839604474E+01  0.00000000000E+00 0. -1.
</event>
<event>
 7    1  0.2580704E-010  0.4778727E+02  0.7816164E-02  0.1312668E+00
        -11   -1    0    0    0    0  0.00000000000E+00  0.00000000000E+00  0.45593999997E+02  0.45594000000E+02  0.51100000000E-03 0. -1.
         11   -1    0    0    0    0 -0.00000000000E+00 -0.00000000000E+00 -0.45593999997E+02  0.45594000000E+02  0.51100000000E-03 0.  1.
    9900012    2    1    2    0    0 -0.11589152375E+02  0.54308434321E+01 -0.41470720442E+02  0.47787272274E+02  0.20000005607E+02 0.  0.
         12    1    1    2    0    0  0.11589152375E+02 -0.54308434321E+01  0.41470720442E+02  0.43400727726E+02  0.00000000000E+00 0. -1.
         11    1    3    3    0    0 -0.23186654108E+01 -0.41331998293E+00 -0.89111830555E+00  0.25181609939E+01  0.51100000000E-03 0. -1.
        -11    1    3    3    0    0 -0.59803605073E+00  0.49772601051E+01 -0.33951152442E+02  0.34319258699E+02  0.51100000000E-03 0.  1.
        -12    1    3    3    0    0 -0.86724509133E+01  0.86690331002E+00 -0.66284496943E+01  0.10949852581E+02  0.00000000000E+00 0.  1.
</event>
<event>
 7    1  0.2580704E-010  0.4778727E+02  0.7816164E-02  0.1312668E+00
        -11   -1    0    0    0    0  0.00000000000E+00  0.00000000000E+00  0.45593999997E+02  0.45594000000E+02  0.51100000000E-03 0.  1.
         11   -1    0    0    0    0 -0.00000000000E+00 -0.00000000000E+00 -0.45593999997E+02  0.45594000000E+02  0.51100000000E-03 0. -1.
    9900012    2    1    2    0    0  0.30192166833E+02  0.12927247776E+01  0.31151005754E+02  0.47787271494E+02  0.20000002048E+02 0.  0.
         12    1    1    2    0    0 -0.30192166833E+02 -0.12927247776E+01 -0.31151005754E+02  0.43400728506E+02  0.00000000000E+00 0. -1.
         11    1    3    3    0    0  0.23274994109E+02 -0.25416968254E+01  0.14315214070E+02  0.27442866608E+02  0.51100000000E-03 0. -1.
        -11    1    3    3    0    0  0.86959649990E+01  0.27861889315E+01  0.11943560755E+02  0.15034337358E+02  0.51100000000E-03 0.  1.
        -12    1    3    3    0    0 -0.17787922748E+01  0.10482326715E+01  0.48922309287E+01  0.53100675279E+01  0.00000000000E+00 0.  1.
</event>
<event>
 7    1  0.2580704E-010  0.4778727E+02  0.7816164E-02  0.1312668E+00
        -11   -1    0    0    0    0  0.00000000000E+00  0.00000000000E+00  0.45593999997E+02  0.45594000000E+02  0.51100000000E-03 0.  1.
         11   -1    0    0    0    0 -0.00000000000E+00 -0.00000000000E+00 -0.45593999997E+02  0.45594000000E+02  0.51100000000E-03 0. -1.
    9900012    2    1    2    0    0  0.28074461463E+02 -0.33051724889E+02 -0.17410425471E+01  0.47787272659E+02  0.20000007361E+02 0.  0.
         12    1    1    2    0    0 -0.28074461463E+02  0.33051724889E+02  0.17410425471E+01  0.43400727341E+02  0.00000000000E+00 0. -1.
         11    1    3    3    0    0  0.87799149732E+01 -0.12127447922E+02  0.53315763200E+01  0.15893004950E+02  0.51100000000E-03 0. -1.
        -11    1    3    3    0    0  0.18552817096E+02 -0.20922356016E+02 -0.34254371186E+01  0.28172426646E+02  0.51100000000E-03 0.  1.
         12    1    3    3    0    0  0.74172939401E+00 -0.19209517224E-02 -0.36471817486E+01  0.37218410621E+01  0.00000000000E+00 0. -1.
</event>
<event>
 7    1  0.2580704E-010  0.4778727E+02  0.7816164E-02  0.1312668E+00
        -11   -1    0    0    0    0  0.00000000000E+00  0.00000000000E+00  0.45593999997E+02  0.45594000000E+02  0.51100000000E-03 0.  1.
         11   -1    0    0    0    0 -0.00000000000E+00 -0.00000000000E+00 -0.45593999997E+02  0.45594000000E+02  0.51100000000E-03 0. -1.
    9900012    2    1    2    0    0 -0.41327879576E+02  0.11347324304E+02  0.68460202573E+01  0.47787269678E+02  0.19999993771E+02 0.  0.
         12    1    1    2    0    0  0.41327879576E+02 -0.11347324304E+02 -0.68460202573E+01  0.43400730322E+02  0.00000000000E+00 0. -1.
         11    1    3    3    0    0 -0.13664530797E+01 -0.74373722984E-01  0.44096399342E+01  0.46171040794E+01  0.51100000000E-03 0. -1.
        -11    1    3    3    0    0 -0.18134963856E+02  0.98892885685E+00  0.50146507608E+01  0.18841486588E+02  0.51100000000E-03 0.  1.
         12    1    3    3    0    0 -0.21826462640E+02  0.10432769170E+02 -0.25782704377E+01  0.24328679011E+02  0.00000000000E+00 0. -1.
</event>
<event>
 7    1  0.2580704E-010  0.4778727E+02  0.7816164E-02  0.1312668E+00
        -11   -1    0    0    0    0  0.00000000000E+00  0.00000000000E+00  0.45593999997E+02  0.45594000000E+02  0.51100000000E-03 0. -1.
         11   -1    0    0    0    0 -0.00000000000E+00 -0.00000000000E+00 -0.45593999997E+02  0.45594000000E+02  0.51100000000E-03 0.  1.
    9900012    2    1    2    0    0 -0.86216253326E+00 -0.33356535298E+02 -0.27752866774E+02  0.47787269758E+02  0.19999994137E+02 0.  0.
         12    1    1    2    0    0  0.86216253326E+00  0.33356535298E+02  0.27752866774E+02  0.43400730242E+02  0.00000000000E+00 0. -1.
         11    1    3    3    0    0  0.13741165993E+01 -0.14637309231E+01  0.16350006280E+01  0.25891952337E+01  0.51100000000E-03 0. -1.
        -11    1    3    3    0    0 -0.61184407137E+01 -0.10442677060E+02 -0.71463491140E+01  0.14055430511E+02  0.51100000000E-03 0.  1.
         12    1    3    3    0    0  0.38821615812E+01 -0.21450127316E+02 -0.22241518288E+02  0.31142644013E+02  0.00000000000E+00 0. -1.
</event>
<event>
 7    1  0.2580704E-010  0.4778727E+02  0.7816164E-02  0.1312668E+00
        -11   -1    0    0    0    0  0.00000000000E+00  0.00000000000E+00  0.45593999997E+02  0.45594000000E+02  0.51100000000E-03 0.  1.
         11   -1    0    0    0    0 -0.00000000000E+00 -0.00000000000E+00 -0.45593999997E+02  0.45594000000E+02  0.51100000000E-03 0. -1.
    9900012    2    1    2    0    0 -0.11864311438E+02 -0.40285797084E+02  0.10950610270E+02  0.47787271920E+02  0.20000003992E+02 0.  0.
         12    1    1    2    0    0  0.11864311438E+02  0.40285797084E+02 -0.10950610270E+02  0.43400728080E+02  0.00000000000E+00 0. -1.
         11    1    3    3    0    0  0.25729745096E+01 -0.19477549320E+01  0.23440258211E+01  0.39885341184E+01  0.51100000000E-03 0. -1.
        -11    1    3    3    0    0 -0.55497373009E+01 -0.22409159649E+02  0.10687290247E+02  0.25439893738E+02  0.51100000000E-03 0.  1.
         12    1    3    3    0    0 -0.88875486470E+01 -0.15928882503E+02 -0.20807057985E+01  0.18358844064E+02  0.00000000000E+00 0. -1.
</event>
<event>
 7    1  0.2580704E-010  0.4778727E+02  0.7816164E-02  0.1312668E+00
        -11   -1    0    0    0    0  0.00000000000E+00  0.00000000000E+00  0.45593999997E+02  0.45594000000E+02  0.51100000000E-03 0.  1.
         11   -1    0    0    0    0 -0.00000000000E+00 -0.00000000000E+00 -0.45593999997E+02  0.45594000000E+02  0.51100000000E-03 0. -1.
    9900012    2    1    2    0    0  0.25062857403E+02  0.56682851718E+01  0.34976375257E+02  0.47787273001E+02  0.20000008919E+02 0.  0.
         12    1    1    2    0    0 -0.25062857403E+02 -0.56682851718E+01 -0.34976375257E+02  0.43400726999E+02  0.00000000000E+00 0. -1.
         11    1    3    3    0    0  0.28695041241E+01  0.38550512209E+01  0.83993890335E+01  0.96770455321E+01  0.51100000000E-03 0. -1.
        -11    1    3    3    0    0  0.21603770425E+02 -0.13474019858E+01  0.15624970944E+02  0.26696031652E+02  0.51100000000E-03 0.  1.
         12    1    3    3    0    0  0.58958285368E+00  0.31606359367E+01  0.10952015279E+02  0.11414195817E+02  0.00000000000E+00 0. -1.
</event>
<event>
 7    1  0.2580704E-010  0.4778727E+02  0.7816164E-02  0.1312668E+00
        -11   -1    0    0    0    0  0.00000000000E+00  0.00000000000E+00  0.45593999997E+02  0.45594000000E+02  0.51100000000E-03 0.  1.
         11   -1    0    0    0    0 -0.00000000000E+00 -0.00000000000E+00 -0.45593999997E+02  0.45594000000E+02  0.51100000000E-03 0. -1.
    9900012    2    1    2    0    0 -0.13910807254E+02 -0.22976427350E+02  0.34091005438E+02  0.47787269315E+02  0.19999992114E+02 0.  0.
         12    1    1    2    0    0  0.13910807254E+02  0.22976427350E+02 -0.34091005438E+02  0.43400730685E+02  0.00000000000E+00 0. -1.
         11    1    3    3    0    0  0.64931886437E+00  0.15620286464E+00  0.11559220084E+02  0.11578496600E+02  0.51100000000E-03 0.  1.
        -11    1    3    3    0    0 -0.58388172473E+01 -0.34756250535E+01  0.62938313597E+01  0.92619690026E+01  0.51100000000E-03 0. -1.
        -12    1    3    3    0    0 -0.87213088714E+01 -0.19657005162E+02  0.16237953994E+02  0.26946803712E+02  0.00000000000E+00 0.  1.
</event>
<event>
 7    1  0.2580704E-010  0.4778727E+02  0.7816164E-02  0.1312668E+00
        -11   -1    0    0    0    0  0.00000000000E+00  0.00000000000E+00  0.45593999997E+02  0.45594000000E+02  0.51100000000E-03 0.  1.
         11   -1    0    0    0    0 -0.00000000000E+00 -0.00000000000E+00 -0.45593999997E+02  0.45594000000E+02  0.51100000000E-03 0. -1.
    9900012    2    1    2    0    0 -0.22012104275E+02 -0.99729501306E+01  0.36050392579E+02  0.47787271043E+02  0.19999999993E+02 0.  0.
         12    1    1    2    0    0  0.22012104275E+02  0.99729501306E+01 -0.36050392579E+02  0.43400728957E+02  0.00000000000E+00 0. -1.
         11    1    3    3    0    0 -0.10235547236E+01 -0.27103502636E+01 -0.53712867631E+00  0.29465522734E+01  0.51100000000E-03 0. -1.
        -11    1    3    3    0    0 -0.70497486298E+01 -0.80790719772E+01  0.22910326416E+02  0.25295324005E+02  0.51100000000E-03 0.  1.
        -12    1    3    3    0    0 -0.13938800921E+02  0.81647211022E+00  0.13677194839E+02  0.19545394764E+02  0.00000000000E+00 0.  1.
</event>
<event>
 7    1  0.2580704E-010  0.4778727E+02  0.7816164E-02  0.1312668E+00
        -11   -1    0    0    0    0  0.00000000000E+00  0.00000000000E+00  0.45593999997E+02  0.45594000000E+02  0.51100000000E-03 0. -1.
         11   -1    0    0    0    0 -0.00000000000E+00 -0.00000000000E+00 -0.45593999997E+02  0.45594000000E+02  0.51100000000E-03 0.  1.
    9900012    2    1    2    0    0 -0.40596185021E+02  0.31598175712E+00 -0.15345130065E+02  0.47787273054E+02  0.20000009162E+02 0.  0.
         12    1    1    2    0    0  0.40596185021E+02 -0.31598175712E+00  0.15345130065E+02  0.43400726946E+02  0.00000000000E+00 0. -1.
         11    1    3    3    0    0 -0.11171831484E+02  0.59290582173E+01  0.18495094093E+01  0.12782184295E+02  0.51100000000E-03 0. -1.
        -11    1    3    3    0    0 -0.50353156865E+01 -0.83097976888E+00 -0.64113219413E+00  0.51435379060E+01  0.51100000000E-03 0.  1.
         12    1    3    3    0    0 -0.24389037851E+02 -0.47820966913E+01 -0.16553507280E+02  0.29861550853E+02  0.00000000000E+00 0. -1.
</event>
<event>
 7    1  0.2580704E-010  0.4778727E+02  0.7816164E-02  0.1312668E+00
        -11   -1    0    0    0    0  0.00000000000E+00  0.00000000000E+00  0.45593999997E+02  0.45594000000E+02  0.51100000000E-03 0.  1.
         11   -1    0    0    0    0 -0.00000000000E+00 -0.00000000000E+00 -0.45593999997E+02  0.45594000000E+02  0.51100000000E-03 0. -1.
    9900012    2    1    2    0    0  0.76895644488E+01 -0.20063704494E+02  0.37708643186E+02  0.47787269472E+02  0.19999992831E+02 0.  0.
         12    1    1    2    0    0 -0.76895644488E+01  0.20063704494E+02 -0.37708643186E+02  0.43400730528E+02  0.00000000000E+00 0. -1.
         11    1    3    3    0    0 -0.19208961008E+00  0.35874291845E+00 -0.85321221598E+00  0.94528633041E+00  0.51100000000E-03 0. -1.
        -11    1    3    3    0    0  0.10958335163E+02 -0.20592461797E+02  0.32073336347E+02  0.39658964902E+02  0.51100000000E-03 0.  1.
        -12    1    3    3    0    0 -0.30766811040E+01  0.17001438440E+00  0.64885190552E+01  0.71830182400E+01  0.00000000000E+00 0.  1.
</event>
<event>
 7    1  0.2580704E-010  0.4778727E+02  0.7816164E-02  0.1312668E+00
        -11   -1    0    0    0    0  0.00000000000E+00  0.00000000000E+00  0.45593999997E+02  0.45594000000E+02  0.51100000000E-03 0.  1.
         11   -1    0    0    0    0 -0.00000000000E+00 -0.00000000000E+00 -0.45593999997E+02  0.45594000000E+02  0.51100000000E-03 0. -1.
    9900012    2    1    2    0    0  0.32232223297E+02  0.28248053618E+02  0.68377621265E+01  0.47787265643E+02  0.19999975371E+02 0.  0.
         12    1    1    2    0    0 -0.32232223297E+02 -0.28248053618E+02 -0.68377621265E+01  0.43400734357E+02  0.00000000000E+00 0. -1.
         11    1    3    3    0    0  0.14749624680E+02  0.80797362586E+01  0.36295749467E+01  0.17204865032E+02  0.51100000000E-03 0. -1.
        -11    1    3    3    0    0  0.55320617280E+01  0.20784334408E+01  0.63507313642E+01  0.86749859741E+01  0.51100000000E-03 0.  1.
        -12    1    3    3    0    0  0.11950536889E+02  0.18089883919E+02 -0.31425441844E+01  0.21907414637E+02  0.00000000000E+00 0.  1.
</event>
<event>
 7    1  0.2580704E-010  0.4778727E+02  0.7816164E-02  0.1312668E+00
        -11   -1    0    0    0    0  0.00000000000E+00  0.00000000000E+00  0.45593999997E+02  0.45594000000E+02  0.51100000000E-03 0. -1.
         11   -1    0    0    0    0 -0.00000000000E+00 -0.00000000000E+00 -0.45593999997E+02  0.45594000000E+02  0.51100000000E-03 0.  1.
    9900012    2    1    2    0    0  0.29174827998E+02 -0.20016105322E+02 -0.25135798475E+02  0.47787269292E+02  0.19999992011E+02 0.  0.
         12    1    1    2    0    0 -0.29174827998E+02  0.20016105322E+02  0.25135798475E+02  0.43400730708E+02  0.00000000000E+00 0. -1.
         11    1    3    3    0    0  0.49697501833E+01 -0.10446762125E+02 -0.38304195778E+01  0.12186277946E+02  0.51100000000E-03 0. -1.
        -11    1    3    3    0    0  0.92734891404E+01 -0.98312835868E+01 -0.11398395022E+02  0.17679794884E+02  0.51100000000E-03 0.  1.
        -12    1    3    3    0    0  0.14931588674E+02  0.26194038995E+00 -0.99069838758E+01  0.17921196462E+02  0.00000000000E+00 0.  1.
</event>
<event>
 7    1  0.2580704E-010  0.4778727E+02  0.7816164E-02  0.1312668E+00
        -11   -1    0    0    0    0  0.00000000000E+00  0.00000000000E+00  0.45593999997E+02  0.45594000000E+02  0.51100000000E-03 0.  1.
         11   -1    0    0    0    0 -0.00000000000E+00 -0.00000000000E+00 -0.45593999997E+02  0.45594000000E+02  0.51100000000E-03 0. -1.
    9900012    2    1    2    0    0  0.20830477712E+02  0.82907778379E+01  0.37161507342E+02  0.47787269282E+02  0.19999991966E+02 0.  0.
         12    1    1    2    0    0 -0.20830477712E+02 -0.82907778379E+01 -0.37161507342E+02  0.43400730718E+02  0.00000000000E+00 0. -1.
         11    1    3    3    0    0  0.17322707861E+02  0.77806537353E+01  0.19418260072E+02  0.27160331453E+02  0.51100000000E-03 0. -1.
        -11    1    3    3    0    0  0.13749026893E+01  0.49291178836E+01  0.59153321817E+01  0.78216184768E+01  0.51100000000E-03 0.  1.
        -12    1    3    3    0    0  0.21328671622E+01 -0.44189937810E+01  0.11827915089E+02  0.12805319353E+02  0.00000000000E+00 0.  1.
</event>
<event>
 7    1  0.2580704E-010  0.4778727E+02  0.7816164E-02  0.1312668E+00
        -11   -1    0    0    0    0  0.00000000000E+00  0.00000000000E+00  0.45593999997E+02  0.45594000000E+02  0.51100000000E-03 0. -1.
         11   -1    0    0    0    0 -0.00000000000E+00 -0.00000000000E+00 -0.45593999997E+02  0.45594000000E+02  0.51100000000E-03 0.  1.
    9900012    2    1    2    0    0 -0.28283172993E+02  0.32897984969E+02 -0.11866668322E+01  0.47787268811E+02  0.19999989818E+02 0.  0.
         12    1    1    2    0    0  0.28283172993E+02 -0.32897984969E+02  0.11866668322E+01  0.43400731189E+02  0.00000000000E+00 0. -1.
         11    1    3    3    0    0 -0.18179836718E+02  0.21133534387E+02 -0.25802337175E+01  0.27996255912E+02  0.51100000000E-03 0. -1.
        -11    1    3    3    0    0 -0.78077217273E+01  0.12291913711E+02 -0.29426643161E+01  0.14856343251E+02  0.51100000000E-03 0.  1.
         12    1    3    3    0    0 -0.22956145472E+01 -0.52746312956E+00  0.43362312014E+01  0.49346696479E+01  0.00000000000E+00 0. -1.
</event>
<event>
 7    1  0.2580704E-010  0.4778727E+02  0.7816164E-02  0.1312668E+00
        -11   -1    0    0    0    0  0.00000000000E+00  0.00000000000E+00  0.45593999997E+02  0.45594000000E+02  0.51100000000E-03 0. -1.
         11   -1    0    0    0    0 -0.00000000000E+00 -0.00000000000E+00 -0.45593999997E+02  0.45594000000E+02  0.51100000000E-03 0.  1.
    9900012    2    1    2    0    0  0.25834132432E+01  0.33070199707E+02 -0.27987694872E+02  0.47787271931E+02  0.20000004041E+02 0.  0.
         12    1    1    2    0    0 -0.25834132432E+01 -0.33070199707E+02  0.27987694872E+02  0.43400728069E+02  0.00000000000E+00 0. -1.
         11    1    3    3    0    0 -0.46445151391E+01  0.58820012450E+01 -0.11263872971E+02  0.13529386316E+02  0.51100000000E-03 0. -1.
        -11    1    3    3    0    0 -0.64481914585E+00  0.15224470035E+02 -0.11184770087E+02  0.18902363920E+02  0.51100000000E-03 0.  1.
         12    1    3    3    0    0  0.78727475282E+01  0.11963728427E+02 -0.55390518143E+01  0.15355521695E+02  0.00000000000E+00 0. -1.
</event>
<event>
 7    1  0.2580704E-010  0.4778728E+02  0.7816164E-02  0.1312668E+00
        -11   -1    0    0    0    0  0.00000000000E+00  0.00000000000E+00  0.45593999997E+02  0.45594000000E+02  0.51100000000E-03 0.  1.
         11   -1    0    0    0    0 -0.00000000000E+00 -0.00000000000E+00 -0.45593999997E+02  0.45594000000E+02  0.51100000000E-03 0. -1.
    9900012    2    1    2    0    0 -0.23732507535E+02  0.33449212150E+02  0.14196518463E+02  0.47787275999E+02  0.20000022590E+02 0.  0.
         12    1    1    2    0    0  0.23732507535E+02 -0.33449212150E+02 -0.14196518463E+02  0.43400724001E+02  0.00000000000E+00 0. -1.
         11    1    3    3    0    0 -0.31785762633E+01  0.32253004866E+01  0.59700652020E+01  0.74931694941E+01  0.51100000000E-03 0. -1.
        -11    1    3    3    0    0 -0.14555092433E+02  0.98825856921E+01  0.12956155861E+00  0.17593550016E+02  0.51100000000E-03 0.  1.
        -12    1    3    3    0    0 -0.59988388384E+01  0.20341325971E+02  0.80968917020E+01  0.22700556489E+02  0.00000000000E+00 0.  1.
</event>
<event>
 7    1  0.2580704E-010  0.4778726E+02  0.7816164E-02  0.1312668E+00
        -11   -1    0    0    0    0  0.00000000000E+00  0.00000000000E+00  0.45593999997E+02  0.45594000000E+02  0.51100000000E-03 0.  1.
         11   -1    0    0    0    0 -0.00000000000E+00 -0.00000000000E+00 -0.45593999997E+02  0.45594000000E+02  0.51100000000E-03 0. -1.
    9900012    2    1    2    0    0  0.32124012955E+02  0.12544772361E+02  0.26349586814E+02  0.47787259831E+02  0.19999948872E+02 0.  0.
         12    1    1    2    0    0 -0.32124012955E+02 -0.12544772361E+02 -0.26349586814E+02  0.43400740169E+02  0.00000000000E+00 0. -1.
         11    1    3    3    0    0  0.61757630047E+01 -0.73259773838E+00  0.11060810356E+00  0.62200468286E+01  0.51100000000E-03 0. -1.
        -11    1    3    3    0    0  0.22356198497E+01  0.45301846077E+01 -0.11401326939E+00  0.50530751013E+01  0.51100000000E-03 0.  1.
        -12    1    3    3    0    0  0.23712630101E+02  0.87471854917E+01  0.26352991980E+02  0.36514137901E+02  0.00000000000E+00 0.  1.
</event>
<event>
 7    1  0.2580704E-010  0.4778727E+02  0.7816164E-02  0.1312668E+00
        -11   -1    0    0    0    0  0.00000000000E+00  0.00000000000E+00  0.45593999997E+02  0.45594000000E+02  0.51100000000E-03 0. -1.
         11   -1    0    0    0    0 -0.00000000000E+00 -0.00000000000E+00 -0.45593999997E+02  0.45594000000E+02  0.51100000000E-03 0.  1.
    9900012    2    1    2    0    0 -0.23257221346E+02 -0.56814357827E+01 -0.36200091374E+02  0.47787266449E+02  0.19999979049E+02 0.  0.
         12    1    1    2    0    0  0.23257221346E+02  0.56814357827E+01  0.36200091374E+02  0.43400733551E+02  0.00000000000E+00 0. -1.
         11    1    3    3    0    0 -0.11534265561E+02  0.36394390484E+01 -0.12996564241E+02  0.17753745548E+02  0.51100000000E-03 0. -1.
        -11    1    3    3    0    0 -0.13341351907E+02 -0.49425587230E+01 -0.19112587510E+02  0.23826698450E+02  0.51100000000E-03 0.  1.
         12    1    3    3    0    0  0.16183961229E+01 -0.43783161082E+01 -0.40909396222E+01  0.62068224516E+01  0.00000000000E+00 0. -1.
</event>
<event>
 7    1  0.2580704E-010  0.4778727E+02  0.7816164E-02  0.1312668E+00
        -11   -1    0    0    0    0  0.00000000000E+00  0.00000000000E+00  0.45593999997E+02  0.45594000000E+02  0.51100000000E-03 0.  1.
         11   -1    0    0    0    0 -0.00000000000E+00 -0.00000000000E+00 -0.45593999997E+02  0.45594000000E+02  0.51100000000E-03 0. -1.
    9900012    2    1    2    0    0  0.30700084804E+01  0.32443285778E+02  0.28664110383E+02  0.47787274566E+02  0.20000016054E+02 0.  0.
         12    1    1    2    0    0 -0.30700084804E+01 -0.32443285778E+02 -0.28664110383E+02  0.43400725434E+02  0.00000000000E+00 0. -1.
         11    1    3    3    0    0  0.35720583039E+01  0.38497147937E+01  0.67783085681E+01  0.85746936869E+01  0.51100000000E-03 0. -1.
        -11    1    3    3    0    0  0.35143492214E+01  0.58086789085E+00  0.21415644187E+00  0.35684620215E+01  0.51100000000E-03 0.  1.
        -12    1    3    3    0    0 -0.40163990448E+01  0.28012703094E+02  0.21671645374E+02  0.35644118857E+02  0.00000000000E+00 0.  1.
</event>
<event>
 7    1  0.2580704E-010  0.4778727E+02  0.7816164E-02  0.1312668E+00
        -11   -1    0    0    0    0  0.00000000000E+00  0.00000000000E+00  0.45593999997E+02  0.45594000000E+02  0.51100000000E-03 0. -1.
         11   -1    0    0    0    0 -0.00000000000E+00 -0.00000000000E+00 -0.45593999997E+02  0.45594000000E+02  0.51100000000E-03 0.  1.
    9900012    2    1    2    0    0 -0.43183721008E+02  0.34589484519E+01  0.26124592591E+01  0.47787273879E+02  0.20000012922E+02 0.  0.
         12    1    1    2    0    0  0.43183721008E+02 -0.34589484519E+01 -0.26124592591E+01  0.43400726121E+02  0.00000000000E+00 0. -1.
         11    1    3    3    0    0 -0.16301115726E+02  0.72005929815E+01  0.13789302475E+01  0.17873901703E+02  0.51100000000E-03 0. -1.
        -11    1    3    3    0    0 -0.26255969706E+02 -0.19600797081E+00  0.15254243254E+01  0.26300974962E+02  0.51100000000E-03 0.  1.
        -12    1    3    3    0    0 -0.62663557559E+00 -0.35456365588E+01 -0.29189531385E+00  0.36123972132E+01  0.00000000000E+00 0.  1.
</event>
<event>
 7    1  0.2580704E-010  0.4778727E+02  0.7816164E-02  0.1312668E+00
        -11   -1    0    0    0    0  0.00000000000E+00  0.00000000000E+00  0.45593999997E+02  0.45594000000E+02  0.51100000000E-03 0. -1.
         11   -1    0    0    0    0 -0.00000000000E+00 -0.00000000000E+00 -0.45593999997E+02  0.45594000000E+02  0.51100000000E-03 0.  1.
    9900012    2    1    2    0    0 -0.11753160420E+02 -0.34808114295E+02 -0.23105884046E+02  0.47787268691E+02  0.19999989269E+02 0.  0.
         12    1    1    2    0    0  0.11753160420E+02  0.34808114295E+02  0.23105884046E+02  0.43400731309E+02  0.00000000000E+00 0. -1.
         11    1    3    3    0    0  0.57546445091E+00 -0.85513957609E+00 -0.37599981560E+01  0.38987189464E+01  0.51100000000E-03 0. -1.
        -11    1    3    3    0    0  0.35155285810E+01 -0.10652297516E+02 -0.55121618768E+01  0.12498572414E+02  0.51100000000E-03 0.  1.
         12    1    3    3    0    0 -0.15844153452E+02 -0.23300677203E+02 -0.13833724013E+02  0.31389977330E+02  0.00000000000E+00 0. -1.
</event>
<event>
 7    1  0.2580704E-010  0.4778728E+02  0.7816164E-02  0.1312668E+00
        -11   -1    0    0    0    0  0.00000000000E+00  0.00000000000E+00  0.45593999997E+02  0.45594000000E+02  0.51100000000E-03 0.  1.
         11   -1    0    0    0    0 -0.00000000000E+00 -0.00000000000E+00 -0.45593999997E+02  0.45594000000E+02  0.51100000000E-03 0. -1.
    9900012    2    1    2    0    0 -0.30782751180E+02  0.29309058283E+02  0.87763127930E+01  0.47787281874E+02  0.20000049376E+02 0.  0.
         12    1    1    2    0    0  0.30782751180E+02 -0.29309058283E+02 -0.87763127930E+01  0.43400718126E+02  0.00000000000E+00 0. -1.
         11    1    3    3    0    0 -0.66418365494E-01  0.10996696771E+01  0.56113613198E+01  0.57184841454E+01  0.51100000000E-03 0. -1.
        -11    1    3    3    0    0 -0.37933123293E+01  0.53041353846E+01 -0.44818932404E+00  0.65363556006E+01  0.51100000000E-03 0.  1.
        -12    1    3    3    0    0 -0.26923020485E+02  0.22905253221E+02  0.36131407972E+01  0.35532442128E+02  0.00000000000E+00 0.  1.
</event>
<event>
 7    1  0.2580704E-010  0.4778727E+02  0.7816164E-02  0.1312668E+00
        -11   -1    0    0    0    0  0.00000000000E+00  0.00000000000E+00  0.45593999997E+02  0.45594000000E+02  0.51100000000E-03 0.  1.
         11   -1    0    0    0    0 -0.00000000000E+00 -0.00000000000E+00 -0.45593999997E+02  0.45594000000E+02  0.51100000000E-03 0. -1.
    9900012    2    1    2    0    0  0.56912533629E+01  0.43010535514E+02  0.11519767835E+01  0.47787267511E+02  0.19999983890E+02 0.  0.
         12    1    1    2    0    0 -0.56912533629E+01 -0.43010535514E+02 -0.11519767835E+01  0.43400732489E+02  0.00000000000E+00 0. -1.
         11    1    3    3    0    0  0.20641649110E+01  0.19899870968E+02  0.13630433369E+01  0.20053017945E+02  0.51100000000E-03 0. -1.
        -11    1    3    3    0    0  0.49022058305E+00  0.22864112895E+02  0.32015866158E+01  0.23092382550E+02  0.51100000000E-03 0.  1.
         12    1    3    3    0    0  0.31368678688E+01  0.24655165154E+00 -0.34126531692E+01  0.46418670162E+01  0.00000000000E+00 0. -1.
</event>
<event>
 7    1  0.2580704E-010  0.4778727E+02  0.7816164E-02  0.1312668E+00
        -11   -1    0    0    0    0  0.00000000000E+00  0.00000000000E+00  0.45593999997E+02  0.45594000000E+02  0.51100000000E-03 0. -1.
         11   -1    0    0    0    0 -0.00000000000E+00 -0.00000000000E+00 -0.45593999997E+02  0.45594000000E+02  0.51100000000E-03 0.  1.
    9900012    2    1    2    0    0 -0.34863235964E+02 -0.84504286658E+01  0.24428840938E+02  0.47787271480E+02  0.20000001984E+02 0.  0.
         12    1    1    2    0    0  0.34863235964E+02  0.84504286658E+01 -0.24428840938E+02  0.43400728520E+02  0.00000000000E+00 0. -1.
         11    1    3    3    0    0 -0.15626124105E+02 -0.94762064786E+01  0.66716625070E+01  0.19454699294E+02  0.51100000000E-03 0. -1.
        -11    1    3    3    0    0 -0.18500814704E+02 -0.15118148258E+01  0.12295511530E+02  0.22265339271E+02  0.51100000000E-03 0.  1.
         12    1    3    3    0    0 -0.73629715478E+00  0.25375926386E+01  0.54616669012E+01  0.60672329146E+01  0.00000000000E+00 0. -1.
</event>
<event>
 7    1  0.2580704E-010  0.4778727E+02  0.7816164E-02  0.1312668E+00
        -11   -1    0    0    0    0  0.00000000000E+00  0.00000000000E+00  0.45593999997E+02  0.45594000000E+02  0.51100000000E-03 0.  1.
         11   -1    0    0    0    0 -0.00000000000E+00 -0.00000000000E+00 -0.45593999997E+02  0.45594000000E+02  0.51100000000E-03 0. -1.
    9900012    2    1    2    0    0 -0.31020851594E+02  0.28345946168E+02  0.10855303352E+02  0.47787268340E+02  0.19999987668E+02 0.  0.
         12    1    1    2    0    0  0.31020851594E+02 -0.28345946168E+02 -0.10855303352E+02  0.43400731660E+02  0.00000000000E+00 0. -1.
         11    1    3    3    0    0 -0.37634591000E+01  0.39847960742E+01 -0.19353144476E+01  0.58127159249E+01  0.51100000000E-03 0. -1.
        -11    1    3    3    0    0 -0.56108695065E+01  0.13904044578E+02  0.56430319633E+00  0.15004091128E+02  0.51100000000E-03 0.  1.
         12    1    3    3    0    0 -0.21646522987E+02  0.10457105517E+02  0.12226314603E+02  0.26970461286E+02  0.00000000000E+00 0. -1.
</event>
<event>
 7    1  0.2580704E-010  0.4778724E+02  0.7816164E-02  0.1312668E+00
        -11   -1    0    0    0    0  0.00000000000E+00  0.00000000000E+00  0.45593999997E+02  0.45594000000E+02  0.51100000000E-03 0.  1.
         11   -1    0    0    0    0 -0.00000000000E+00 -0.00000000000E+00 -0.45593999997E+02  0.45594000000E+02  0.51100000000E-03 0. -1.
    9900012    2    1    2    0    0  0.29843590393E+02  0.24311749023E+02  0.20048069626E+02  0.47787238211E+02  0.19999850300E+02 0.  0.
         12    1    1    2    0    0 -0.29843590393E+02 -0.24311749023E+02 -0.20048069626E+02  0.43400761789E+02  0.00000000000E+00 0. -1.
         11    1    3    3    0    0  0.25138124350E+01  0.57356249835E+01 -0.34568298138E+00  0.62718533062E+01  0.51100000000E-03 0. -1.
        -11    1    3    3    0    0  0.84398913675E+01  0.13608028597E+02  0.13018238387E+02  0.20636975058E+02  0.51100000000E-03 0.  1.
         12    1    3    3    0    0  0.18889886590E+02  0.49680954426E+01  0.73755142210E+01  0.20878409847E+02  0.00000000000E+00 0. -1.
</event>
<event>
 7    1  0.2580704E-010  0.4778727E+02  0.7816164E-02  0.1312668E+00
        -11   -1    0    0    0    0  0.00000000000E+00  0.00000000000E+00  0.45593999997E+02  0.45594000000E+02  0.51100000000E-03 0.  1.
         11   -1    0    0    0    0 -0.00000000000E+00 -0.00000000000E+00 -0.45593999997E+02  0.45594000000E+02  0.51100000000E-03 0. -1.
    9900012    2    1    2    0    0  0.30789104544E+02 -0.29651080251E+02 -0.75144999903E+01  0.47787271564E+02  0.20000002367E+02 0.  0.
         12    1    1    2    0    0 -0.30789104544E+02  0.29651080251E+02  0.75144999903E+01  0.43400728436E+02  0.00000000000E+00 0. -1.
         11    1    3    3    0    0  0.41502539649E+01  0.18029698565E+01 -0.18480136700E+01  0.48877871335E+01  0.51100000000E-03 0. -1.
        -11    1    3    3    0    0 -0.92074738348E+00 -0.19119967031E+01 -0.30868904361E+00  0.21444804321E+01  0.51100000000E-03 0.  1.
        -12    1    3    3    0    0  0.27559597963E+02 -0.29542053404E+02 -0.53577972767E+01  0.40755003998E+02  0.00000000000E+00 0.  1.
</event>
<event>
 7    1  0.2580704E-010  0.4778727E+02  0.7816164E-02  0.1312668E+00
        -11   -1    0    0    0    0  0.00000000000E+00  0.00000000000E+00  0.45593999997E+02  0.45594000000E+02  0.51100000000E-03 0. -1.
         11   -1    0    0    0    0 -0.00000000000E+00 -0.00000000000E+00 -0.45593999997E+02  0.45594000000E+02  0.51100000000E-03 0.  1.
    9900012    2    1    2    0    0 -0.27342198468E+02  0.27458301914E+02 -0.19546583985E+02  0.47787272972E+02  0.20000008787E+02 0.  0.
         12    1    1    2    0    0  0.27342198468E+02 -0.27458301914E+02  0.19546583985E+02  0.43400727028E+02  0.00000000000E+00 0. -1.
         11    1    3    3    0    0 -0.65006939115E+01  0.52054874493E+01 -0.59939254054E+01  0.10260763273E+02  0.51100000000E-03 0.  1.
        -11    1    3    3    0    0  0.14093027171E+01  0.15447016776E+01 -0.57882900123E+01  0.61543918423E+01  0.51100000000E-03 0. -1.
         12    1    3    3    0    0 -0.22250807274E+02  0.20708112787E+02 -0.77643685678E+01  0.31372117857E+02  0.00000000000E+00 0. -1.
</event>
<event>
 7    1  0.2580704E-010  0.4778727E+02  0.7816164E-02  0.1312668E+00
        -11   -1    0    0    0    0  0.00000000000E+00  0.00000000000E+00  0.45593999997E+02  0.45594000000E+02  0.51100000000E-03 0.  1.
         11   -1    0    0    0    0 -0.00000000000E+00 -0.00000000000E+00 -0.45593999997E+02  0.45594000000E+02  0.51100000000E-03 0. -1.
    9900012    2    1    2    0    0 -0.42362084016E+01  0.37031867007E+02  0.22233277169E+02  0.47787271327E+02  0.20000001290E+02 0.  0.
         12    1    1    2    0    0  0.42362084016E+01 -0.37031867007E+02 -0.22233277169E+02  0.43400728673E+02  0.00000000000E+00 0. -1.
         11    1    3    3    0    0 -0.28501784814E+01  0.30295169413E+01  0.19679266409E+01  0.46015460227E+01  0.51100000000E-03 0. -1.
        -11    1    3    3    0    0  0.62332154812E+01  0.50940032325E+01  0.25924378663E+01  0.84571022531E+01  0.51100000000E-03 0.  1.
        -12    1    3    3    0    0 -0.76192454014E+01  0.28908346833E+02  0.17672912662E+02  0.34728623052E+02  0.00000000000E+00 0.  1.
</event>
<event>
 7    1  0.2580704E-010  0.4778727E+02  0.7816164E-02  0.1312668E+00
        -11   -1    0    0    0    0  0.00000000000E+00  0.00000000000E+00  0.45593999997E+02  0.45594000000E+02  0.51100000000E-03 0. -1.
         11   -1    0    0    0    0 -0.00000000000E+00 -0.00000000000E+00 -0.45593999997E+02  0.45594000000E+02  0.51100000000E-03 0.  1.
    9900012    2    1    2    0    0  0.28211494312E+02 -0.32748692548E+02 -0.39061873735E+01  0.47787267578E+02  0.19999984197E+02 0.  0.
         12    1    1    2    0    0 -0.28211494312E+02  0.32748692548E+02  0.39061873735E+01  0.43400732422E+02  0.00000000000E+00 0. -1.
         11    1    3    3    0    0  0.31211808709E+01 -0.40530551992E+01 -0.51456947699E+01  0.72558391246E+01  0.51100000000E-03 0. -1.
        -11    1    3    3    0    0  0.13786711720E+02 -0.11304300229E+02 -0.56056271395E+01  0.18689132661E+02  0.51100000000E-03 0.  1.
         12    1    3    3    0    0  0.11303601721E+02 -0.17391337120E+02  0.68451345359E+01  0.21842295793E+02  0.00000000000E+00 0. -1.
</event>
<event>
 7    1  0.2580704E-010  0.4778727E+02  0.7816164E-02  0.1312668E+00
        -11   -1    0    0    0    0  0.00000000000E+00  0.00000000000E+00  0.45593999997E+02  0.45594000000E+02  0.51100000000E-03 0.  1.
         11   -1    0    0    0    0 -0.00000000000E+00 -0.00000000000E+00 -0.45593999997E+02  0.45594000000E+02  0.51100000000E-03 0. -1.
    9900012    2    1    2    0    0  0.66181785727E+01 -0.41144631236E+02  0.12121965015E+02  0.47787274166E+02  0.20000014230E+02 0.  0.
         12    1    1    2    0    0 -0.66181785727E+01  0.41144631236E+02 -0.12121965015E+02  0.43400725834E+02  0.00000000000E+00 0. -1.
         11    1    3    3    0    0  0.49515203613E+01 -0.12458820646E+02  0.60355031485E+01  0.14702621000E+02  0.51100000000E-03 0. -1.
        -11    1    3    3    0    0  0.66468821639E+01 -0.21847851251E+02  0.83706371483E+01  0.24322360357E+02  0.51100000000E-03 0.  1.
         12    1    3    3    0    0 -0.49802239525E+01 -0.68379593387E+01 -0.22841752823E+01  0.87622928081E+01  0.00000000000E+00 0. -1.
</event>
<event>
 7    1  0.2580704E-010  0.4778727E+02  0.7816164E-02  0.1312668E+00
        -11   -1    0    0    0    0  0.00000000000E+00  0.00000000000E+00  0.45593999997E+02  0.45594000000E+02  0.51100000000E-03 0.  1.
         11   -1    0    0    0    0 -0.00000000000E+00 -0.00000000000E+00 -0.45593999997E+02  0.45594000000E+02  0.51100000000E-03 0. -1.
    9900012    2    1    2    0    0 -0.34487875071E+02 -0.17723876772E+02  0.19495493777E+02  0.47787267145E+02  0.19999982222E+02 0.  0.
         12    1    1    2    0    0  0.34487875071E+02  0.17723876772E+02 -0.19495493777E+02  0.43400732855E+02  0.00000000000E+00 0. -1.
         11    1    3    3    0    0 -0.19114094039E+02 -0.11468185871E+02  0.52085292160E+01  0.22890973220E+02  0.51100000000E-03 0. -1.
        -11    1    3    3    0    0  0.73890990275E+00 -0.19923122845E+01 -0.93739185251E+00  0.23224986178E+01  0.51100000000E-03 0.  1.
        -12    1    3    3    0    0 -0.16112690935E+02 -0.42633786161E+01  0.15224356414E+02  0.22573795308E+02  0.00000000000E+00 0.  1.
</event>
<event>
 7    1  0.2580704E-010  0.4778727E+02  0.7816164E-02  0.1312668E+00
        -11   -1    0    0    0    0  0.00000000000E+00  0.00000000000E+00  0.45593999997E+02  0.45594000000E+02  0.51100000000E-03 0. -1.
         11   -1    0    0    0    0 -0.00000000000E+00 -0.00000000000E+00 -0.45593999997E+02  0.45594000000E+02  0.51100000000E-03 0.  1.
    9900012    2    1    2    0    0 -0.21166146282E+02 -0.20020693047E+02 -0.32168141357E+02  0.47787271701E+02  0.20000002994E+02 0.  0.
         12    1    1    2    0    0  0.21166146282E+02  0.20020693047E+02  0.32168141357E+02  0.43400728299E+02  0.00000000000E+00 0. -1.
         11    1    3    3    0    0  0.13259350910E+01 -0.53019872176E+01 -0.11336570157E+02  0.12585189530E+02  0.51100000000E-03 0. -1.
        -11    1    3    3    0    0 -0.64005157987E+01 -0.49489780312E+01 -0.11838723496E+02  0.14339259406E+02  0.51100000000E-03 0.  1.
        -12    1    3    3    0    0 -0.16091565575E+02 -0.97697277979E+01 -0.89928477041E+01  0.20862822765E+02  0.00000000000E+00 0.  1.
</event>
<event>
 7    1  0.2580704E-010  0.4778727E+02  0.7816164E-02  0.1312668E+00
        -11   -1    0    0    0    0  0.00000000000E+00  0.00000000000E+00  0.45593999997E+02  0.45594000000E+02  0.51100000000E-03 0.  1.
         11   -1    0    0    0    0 -0.00000000000E+00 -0.00000000000E+00 -0.45593999997E+02  0.45594000000E+02  0.51100000000E-03 0. -1.
    9900012    2    1    2    0    0  0.17194352505E+02 -0.34729475749E+02  0.19540762339E+02  0.47787266866E+02  0.19999980947E+02 0.  0.
         12    1    1    2    0    0 -0.17194352505E+02  0.34729475749E+02 -0.19540762339E+02  0.43400733134E+02  0.00000000000E+00 0. -1.
         11    1    3    3    0    0  0.51767194896E+01 -0.12176178267E+02  0.47465726526E+01  0.14056588991E+02  0.51100000000E-03 0. -1.
        -11    1    3    3    0    0  0.32813506667E+01 -0.18177152902E+02  0.35056319063E+01  0.18800680976E+02  0.51100000000E-03 0.  1.
         12    1    3    3    0    0  0.87362823485E+01 -0.43761445797E+01  0.11288557780E+02  0.14929996899E+02  0.00000000000E+00 0. -1.
</event>
<event>
 7    1  0.2580704E-010  0.4778727E+02  0.7816164E-02  0.1312668E+00
        -11   -1    0    0    0    0  0.00000000000E+00  0.00000000000E+00  0.45593999997E+02  0.45594000000E+02  0.51100000000E-03 0.  1.
         11   -1    0    0    0    0 -0.00000000000E+00 -0.00000000000E+00 -0.45593999997E+02  0.45594000000E+02  0.51100000000E-03 0. -1.
    9900012    2    1    2    0    0 -0.28150827948E+02 -0.10177866000E+02  0.31425547607E+02  0.47787272899E+02  0.20000008458E+02 0.  0.
         12    1    1    2    0    0  0.28150827948E+02  0.10177866000E+02 -0.31425547607E+02  0.43400727101E+02  0.00000000000E+00 0. -1.
         11    1    3    3    0    0  0.46373217690E+00  0.83268054692E+00 -0.13798384903E+01  0.16770089283E+01  0.51100000000E-03 0. -1.
        -11    1    3    3    0    0 -0.72839695275E+00  0.12338295807E+01  0.37637944754E+01  0.40272877560E+01  0.51100000000E-03 0.  1.
        -12    1    3    3    0    0 -0.27886163172E+02 -0.12244376127E+02  0.29041591622E+02  0.42082976215E+02  0.00000000000E+00 0.  1.
</event>
<event>
 7    1  0.2580704E-010  0.4778727E+02  0.7816164E-02  0.1312668E+00
        -11   -1    0    0    0    0  0.00000000000E+00  0.00000000000E+00  0.45593999997E+02  0.45594000000E+02  0.51100000000E-03 0. -1.
         11   -1    0    0    0    0 -0.00000000000E+00 -0.00000000000E+00 -0.45593999997E+02  0.45594000000E+02  0.51100000000E-03 0.  1.
    9900012    2    1    2    0    0  0.25561184776E+01  0.40008761150E+02  0.16624937728E+02  0.47787271148E+02  0.20000000471E+02 0.  0.
         12    1    1    2    0    0 -0.25561184776E+01 -0.40008761150E+02 -0.16624937728E+02  0.43400728852E+02  0.00000000000E+00 0. -1.
         11    1    3    3    0    0  0.11914845514E+01  0.28332460329E+01  0.75895588346E+01  0.81883039809E+01  0.51100000000E-03 0. -1.
        -11    1    3    3    0    0 -0.38051261112E+01  0.12904188217E+02  0.54926668554E+01  0.14531567284E+02  0.51100000000E-03 0.  1.
        -12    1    3    3    0    0  0.51697600373E+01  0.24271326900E+02  0.35427120380E+01  0.25067399883E+02  0.00000000000E+00 0.  1.
</event>
<event>
 7    1  0.2580704E-010  0.4778727E+02  0.7816164E-02  0.1312668E+00
        -11   -1    0    0    0    0  0.00000000000E+00  0.00000000000E+00  0.45593999997E+02  0.45594000000E+02  0.51100000000E-03 0.  1.
         11   -1    0    0    0    0 -0.00000000000E+00 -0.00000000000E+00 -0.45593999997E+02  0.45594000000E+02  0.51100000000E-03 0. -1.
    9900012    2    1    2    0    0  0.21219652140E+02 -0.21532817693E+01  0.37798321049E+02  0.47787270359E+02  0.19999996873E+02 0.  0.
         12    1    1    2    0    0 -0.21219652140E+02  0.21532817693E+01 -0.37798321049E+02  0.43400729641E+02  0.00000000000E+00 0. -1.
         11    1    3    3    0    0  0.36116478734E+01  0.73759685244E+00  0.16462696528E+01  0.40371095488E+01  0.51100000000E-03 0. -1.
        -11    1    3    3    0    0  0.36609062390E+01  0.47495190821E+01  0.24372991350E+01  0.64730667644E+01  0.51100000000E-03 0.  1.
         12    1    3    3    0    0  0.13947098028E+02 -0.76403977039E+01  0.33714752261E+02  0.37277094045E+02  0.00000000000E+00 0. -1.
</event>
<event>
 7    1  0.2580704E-010  0.4778727E+02  0.7816164E-02  0.1312668E+00
        -11   -1    0    0    0    0  0.00000000000E+00  0.00000000000E+00  0.45593999997E+02  0.45594000000E+02  0.51100000000E-03 0.  1.
         11   -1    0    0    0    0 -0.00000000000E+00 -0.00000000000E+00 -0.45593999997E+02  0.45594000000E+02  0.51100000000E-03 0. -1.
    9900012    2    1    2    0    0  0.25269161478E+01 -0.36104681587E+02  0.23951823801E+02  0.47787271882E+02  0.20000003820E+02 0.  0.
         12    1    1    2    0    0 -0.25269161478E+01  0.36104681587E+02 -0.23951823801E+02  0.43400728118E+02  0.00000000000E+00 0. -1.
         11    1    3    3    0    0  0.10559205934E+01 -0.23246990866E+02  0.16148583673E+02  0.28325153266E+02  0.51100000000E-03 0.  1.
        -11    1    3    3    0    0  0.56921505481E+01 -0.11585159882E+02  0.77442976156E+01  0.15052928392E+02  0.51100000000E-03 0. -1.
         12    1    3    3    0    0 -0.42211549936E+01 -0.12725308398E+01  0.58942512523E-01  0.44091902248E+01  0.00000000000E+00 0. -1.
</event>
<event>
 7    1  0.2580704E-010  0.4778728E+02  0.7816164E-02  0.1312668E+00
        -11   -1    0    0    0    0  0.00000000000E+00  0.00000000000E+00  0.45593999997E+02  0.45594000000E+02  0.51100000000E-03 0. -1.
         11   -1    0    0    0    0 -0.00000000000E+00 -0.00000000000E+00 -0.45593999997E+02  0.45594000000E+02  0.51100000000E-03 0.  1.
    9900012    2    1    2    0    0 -0.48953202628E+01  0.61202612351E+01 -0.42687247844E+02  0.47787275507E+02  0.20000020347E+02 0.  0.
         12    1    1    2    0    0  0.48953202628E+01 -0.61202612351E+01  0.42687247844E+02  0.43400724493E+02  0.00000000000E+00 0. -1.
         11    1    3    3    0    0 -0.34197336671E+01 -0.21088797234E+01 -0.49521165416E+01  0.63769436680E+01  0.51100000000E-03 0. -1.
        -11    1    3    3    0    0 -0.59074505188E+01  0.42494302368E+01 -0.33023164863E+02  0.33815455738E+02  0.51100000000E-03 0.  1.
        -12    1    3    3    0    0  0.44318639231E+01  0.39797107217E+01 -0.47119664389E+01  0.75948761006E+01  0.00000000000E+00 0.  1.
</event>
<event>
 7    1  0.2580704E-010  0.4778728E+02  0.7816164E-02  0.1312668E+00
        -11   -1    0    0    0    0  0.00000000000E+00  0.00000000000E+00  0.45593999997E+02  0.45594000000E+02  0.51100000000E-03 0. -1.
         11   -1    0    0    0    0 -0.00000000000E+00 -0.00000000000E+00 -0.45593999997E+02  0.45594000000E+02  0.51100000000E-03 0.  1.
    9900012    2    1    2    0    0  0.86400372896E+01  0.29150659174E+02 -0.30971135715E+02  0.47787280857E+02  0.20000044740E+02 0.  0.
         12    1    1    2    0    0 -0.86400372896E+01 -0.29150659174E+02  0.30971135715E+02  0.43400719143E+02  0.00000000000E+00 0. -1.
         11    1    3    3    0    0  0.52110677076E+01  0.60211909713E+01 -0.12939034822E+02  0.15193044124E+02  0.51100000000E-03 0.  1.
        -11    1    3    3    0    0  0.37080877244E+01 -0.41204401260E-01 -0.42195674951E+01  0.56175050050E+01  0.51100000000E-03 0. -1.
         12    1    3    3    0    0 -0.27911814244E+00  0.23170672604E+02 -0.13812533397E+02  0.26976731728E+02  0.00000000000E+00 0. -1.
</event>
<event>
 7    1  0.2580704E-010  0.4778727E+02  0.7816164E-02  0.1312668E+00
        -11   -1    0    0    0    0  0.00000000000E+00  0.00000000000E+00  0.45593999997E+02  0.45594000000E+02  0.51100000000E-03 0. -1.
         11   -1    0    0    0    0 -0.00000000000E+00 -0.00000000000E+00 -0.45593999997E+02  0.45594000000E+02  0.51100000000E-03 0.  1.
    9900012    2    1    2    0    0 -0.43090983691E+02 -0.88874048505E+00 -0.50990668275E+01  0.47787271692E+02  0.20000002954E+02 0.  0.
         12    1    1    2    0    0  0.43090983691E+02  0.88874048505E+00  0.50990668275E+01  0.43400728308E+02  0.00000000000E+00 0. -1.
         11    1    3    3    0    0 -0.83459649248E+00  0.23227905251E+00 -0.20863869663E+01  0.22590962126E+01  0.51100000000E-03 0. -1.
        -11    1    3    3    0    0 -0.34535619663E+02 -0.62232553308E+01 -0.64051437085E+01  0.35671610541E+02  0.51100000000E-03 0.  1.
        -12    1    3    3    0    0 -0.77207675361E+01  0.51022357933E+01  0.33924638473E+01  0.98565649388E+01  0.00000000000E+00 0.  1.
</event>
<event>
 7    1  0.2580704E-010  0.4778728E+02  0.7816164E-02  0.1312668E+00
        -11   -1    0    0    0    0  0.00000000000E+00  0.00000000000E+00  0.45593999997E+02  0.45594000000E+02  0.51100000000E-03 0.  1.
         11   -1    0    0    0    0 -0.00000000000E+00 -0.00000000000E+00 -0.45593999997E+02  0.45594000000E+02  0.51100000000E-03 0. -1.
    9900012    2    1    2    0    0 -0.19948674429E+02 -0.38544056748E+02  0.16949637516E+00  0.47787278219E+02  0.20000032713E+02 0.  0.
         12    1    1    2    0    0  0.19948674429E+02  0.38544056748E+02 -0.16949637516E+00  0.43400721781E+02  0.00000000000E+00 0. -1.
         11    1    3    3    0    0 -0.16087396874E+02 -0.16698601506E+02 -0.40569472805E+01  0.23539465838E+02  0.51100000000E-03 0. -1.
        -11    1    3    3    0    0  0.28117076926E+00 -0.25798061555E+01  0.37195066585E+01  0.45353265423E+01  0.51100000000E-03 0.  1.
        -12    1    3    3    0    0 -0.41424483242E+01 -0.19265649086E+02  0.50693699723E+00  0.19712485839E+02  0.00000000000E+00 0.  1.
</event>
<event>
 7    1  0.2580704E-010  0.4778727E+02  0.7816164E-02  0.1312668E+00
        -11   -1    0    0    0    0  0.00000000000E+00  0.00000000000E+00  0.45593999997E+02  0.45594000000E+02  0.51100000000E-03 0. -1.
         11   -1    0    0    0    0 -0.00000000000E+00 -0.00000000000E+00 -0.45593999997E+02  0.45594000000E+02  0.51100000000E-03 0.  1.
    9900012    2    1    2    0    0  0.32515124391E+01  0.42140536953E+02 -0.98603359718E+01  0.47787269438E+02  0.19999992675E+02 0.  0.
         12    1    1    2    0    0 -0.32515124391E+01 -0.42140536953E+02  0.98603359718E+01  0.43400730562E+02  0.00000000000E+00 0. -1.
         11    1    3    3    0    0 -0.36151627335E+01  0.26619257933E+02  0.63127747105E+00  0.26871040285E+02  0.51100000000E-03 0. -1.
        -11    1    3    3    0    0  0.20454065436E+01  0.10828036194E+02 -0.44867517638E+01  0.11897940889E+02  0.51100000000E-03 0.  1.
         12    1    3    3    0    0  0.48212686290E+01  0.46932428258E+01 -0.60048616790E+01  0.90182882633E+01  0.00000000000E+00 0. -1.
</event>
<event>
 7    1  0.2580704E-010  0.4778728E+02  0.7816164E-02  0.1312668E+00
        -11   -1    0    0    0    0  0.00000000000E+00  0.00000000000E+00  0.45593999997E+02  0.45594000000E+02  0.51100000000E-03 0. -1.
         11   -1    0    0    0    0 -0.00000000000E+00 -0.00000000000E+00 -0.45593999997E+02  0.45594000000E+02  0.51100000000E-03 0.  1.
    9900012    2    1    2    0    0  0.38310815168E+02  0.18941556496E+02 -0.75578817670E+01  0.47787277677E+02  0.20000030240E+02 0.  0.
         12    1    1    2    0    0 -0.38310815168E+02 -0.18941556496E+02  0.75578817670E+01  0.43400722323E+02  0.00000000000E+00 0. -1.
         11    1    3    3    0    0  0.89728208200E+01 -0.23245596431E+01  0.18599285617E+01  0.94538048169E+01  0.51100000000E-03 0. -1.
        -11    1    3    3    0    0  0.10580707197E+01  0.16501524831E+01 -0.25857253805E+01  0.32447639159E+01  0.51100000000E-03 0.  1.
        -12    1    3    3    0    0  0.28279923629E+02  0.19615963656E+02 -0.68320849482E+01  0.35088708944E+02  0.00000000000E+00 0.  1.
</event>
<event>
 7    1  0.2580704E-010  0.4778728E+02  0.7816164E-02  0.1312668E+00
        -11   -1    0    0    0    0  0.00000000000E+00  0.00000000000E+00  0.45593999997E+02  0.45594000000E+02  0.51100000000E-03 0.  1.
         11   -1    0    0    0    0 -0.00000000000E+00 -0.00000000000E+00 -0.45593999997E+02  0.45594000000E+02  0.51100000000E-03 0. -1.
    9900012    2    1    2    0    0  0.48282436972E+01  0.23878369801E+02  0.35918439444E+02  0.47787276807E+02  0.20000026273E+02 0.  0.
         12    1    1    2    0    0 -0.48282436972E+01 -0.23878369801E+02 -0.35918439444E+02  0.43400723193E+02  0.00000000000E+00 0. -1.
         11    1    3    3    0    0 -0.14551030354E+01  0.73293718821E+00 -0.96827333793E+00  0.18952770994E+01  0.51100000000E-03 0. -1.
        -11    1    3    3    0    0 -0.11546502864E+01 -0.31974127473E+00  0.73298757553E+01  0.74271482156E+01  0.51100000000E-03 0.  1.
         12    1    3    3    0    0  0.74379970190E+01  0.23465173888E+02  0.29556837027E+02  0.38464851492E+02  0.00000000000E+00 0. -1.
</event>
<event>
 7    1  0.2580704E-010  0.4778727E+02  0.7816164E-02  0.1312668E+00
        -11   -1    0    0    0    0  0.00000000000E+00  0.00000000000E+00  0.45593999997E+02  0.45594000000E+02  0.51100000000E-03 0.  1.
         11   -1    0    0    0    0 -0.00000000000E+00 -0.00000000000E+00 -0.45593999997E+02  0.45594000000E+02  0.51100000000E-03 0. -1.
    9900012    2    1    2    0    0 -0.25218005147E+02 -0.77361805540E+01  0.34464862098E+02  0.47787274285E+02  0.20000014774E+02 0.  0.
         12    1    1    2    0    0  0.25218005147E+02  0.77361805540E+01 -0.34464862098E+02  0.43400725715E+02  0.00000000000E+00 0. -1.
         11    1    3    3    0    0 -0.26991790068E+01 -0.13215316472E+01 -0.24034418951E+01  0.38481874188E+01  0.51100000000E-03 0. -1.
        -11    1    3    3    0    0 -0.23394517748E+01 -0.21377323967E+01  0.36140863565E+01  0.48067197609E+01  0.51100000000E-03 0.  1.
        -12    1    3    3    0    0 -0.20179374366E+02 -0.42769165101E+01  0.33254217637E+02  0.39132367105E+02  0.00000000000E+00 0.  1.
</event>
<event>
 7    1  0.2580704E-010  0.4778727E+02  0.7816164E-02  0.1312668E+00
        -11   -1    0    0    0    0  0.00000000000E+00  0.00000000000E+00  0.45593999997E+02  0.45594000000E+02  0.51100000000E-03 0.  1.
         11   -1    0    0    0    0 -0.00000000000E+00 -0.00000000000E+00 -0.45593999997E+02  0.45594000000E+02  0.51100000000E-03 0. -1.
    9900012    2    1    2    0    0  0.16959090644E+02 -0.12542009120E+02  0.37930337784E+02  0.47787271059E+02  0.20000000065E+02 0.  0.
         12    1    1    2    0    0 -0.16959090644E+02  0.12542009120E+02 -0.37930337784E+02  0.43400728941E+02  0.00000000000E+00 0. -1.
         11    1    3    3    0    0 -0.12499638299E+01 -0.35846487571E+01  0.21970414565E+00  0.38026814829E+01  0.51100000000E-03 0.  1.
        -11    1    3    3    0    0  0.66812532423E+01 -0.81862154851E+01  0.13372686684E+02  0.17043533033E+02  0.51100000000E-03 0. -1.
        -12    1    3    3    0    0  0.11527801231E+02 -0.77114487798E+00  0.24337946955E+02  0.26941056542E+02  0.00000000000E+00 0.  1.
</event>
<event>
 7    1  0.2580704E-010  0.4778727E+02  0.7816164E-02  0.1312668E+00
        -11   -1    0    0    0    0  0.00000000000E+00  0.00000000000E+00  0.45593999997E+02  0.45594000000E+02  0.51100000000E-03 0. -1.
         11   -1    0    0    0    0 -0.00000000000E+00 -0.00000000000E+00 -0.45593999997E+02  0.45594000000E+02  0.51100000000E-03 0.  1.
    9900012    2    1    2    0    0  0.42127499257E+02  0.10260483130E+02  0.19026020232E+01  0.47787267263E+02  0.19999982757E+02 0.  0.
         12    1    1    2    0    0 -0.42127499257E+02 -0.10260483130E+02 -0.19026020232E+01  0.43400732737E+02  0.00000000000E+00 0. -1.
         11    1    3    3    0    0  0.12015287034E+02  0.94600791453E+00 -0.46431596945E+01  0.12915919855E+02  0.51100000000E-03 0. -1.
        -11    1    3    3    0    0  0.17483984787E+02  0.11917619005E+02  0.58765029083E+01  0.21960251672E+02  0.51100000000E-03 0.  1.
         12    1    3    3    0    0  0.12628227436E+02 -0.26031437900E+01  0.66925880931E+00  0.12911095736E+02  0.00000000000E+00 0. -1.
</event>
<event>
 7    1  0.2580704E-010  0.4778727E+02  0.7816164E-02  0.1312668E+00
        -11   -1    0    0    0    0  0.00000000000E+00  0.00000000000E+00  0.45593999997E+02  0.45594000000E+02  0.51100000000E-03 0. -1.
         11   -1    0    0    0    0 -0.00000000000E+00 -0.00000000000E+00 -0.45593999997E+02  0.45594000000E+02  0.51100000000E-03 0.  1.
    9900012    2    1    2    0    0 -0.38905267296E+01  0.41596410356E+02 -0.11756934801E+02  0.47787273408E+02  0.20000010778E+02 0.  0.
         12    1    1    2    0    0  0.38905267296E+01 -0.41596410356E+02  0.11756934801E+02  0.43400726592E+02  0.00000000000E+00 0. -1.
         11    1    3    3    0    0  0.36010899818E+01  0.67785866025E+01  0.25514658252E+01  0.80886997412E+01  0.51100000000E-03 0. -1.
        -11    1    3    3    0    0  0.50667579672E+00  0.18907908805E+02 -0.48110978795E+01  0.19516977195E+02  0.51100000000E-03 0.  1.
        -12    1    3    3    0    0 -0.79982925081E+01  0.15909914948E+02 -0.94973027470E+01  0.20181596473E+02  0.00000000000E+00 0.  1.
</event>
<event>
 7    1  0.2580704E-010  0.4778727E+02  0.7816164E-02  0.1312668E+00
        -11   -1    0    0    0    0  0.00000000000E+00  0.00000000000E+00  0.45593999997E+02  0.45594000000E+02  0.51100000000E-03 0.  1.
         11   -1    0    0    0    0 -0.00000000000E+00 -0.00000000000E+00 -0.45593999997E+02  0.45594000000E+02  0.51100000000E-03 0. -1.
    9900012    2    1    2    0    0 -0.75289504531E+01  0.57272189903E+01  0.42357255386E+02  0.47787271710E+02  0.20000003034E+02 0.  0.
         12    1    1    2    0    0  0.75289504531E+01 -0.57272189903E+01 -0.42357255386E+02  0.43400728290E+02  0.00000000000E+00 0. -1.
         11    1    3    3    0    0  0.20252686790E+01  0.15697849570E+01  0.16583515279E+01  0.30522234657E+01  0.51100000000E-03 0. -1.
        -11    1    3    3    0    0  0.93490995009E+00 -0.21407483716E+00 -0.10764363092E+01  0.14417350795E+01  0.51100000000E-03 0.  1.
        -12    1    3    3    0    0 -0.10489129082E+02  0.43715088705E+01  0.41775340167E+02  0.43293313165E+02  0.00000000000E+00 0.  1.
</event>
<event>
 7    1  0.2580704E-010  0.4778727E+02  0.7816164E-02  0.1312668E+00
        -11   -1    0    0    0    0  0.00000000000E+00  0.00000000000E+00  0.45593999997E+02  0.45594000000E+02  0.51100000000E-03 0.  1.
         11   -1    0    0    0    0 -0.00000000000E+00 -0.00000000000E+00 -0.45593999997E+02  0.45594000000E+02  0.51100000000E-03 0. -1.
    9900012    2    1    2    0    0  0.27844165507E+02  0.33102278394E+02 -0.35446650816E+01  0.47787273760E+02  0.20000012381E+02 0.  0.
         12    1    1    2    0    0 -0.27844165507E+02 -0.33102278394E+02  0.35446650816E+01  0.43400726240E+02  0.00000000000E+00 0. -1.
         11    1    3    3    0    0 -0.84574297301E+00 -0.10729968704E+01 -0.15784175302E+01  0.20875836800E+01  0.51100000000E-03 0. -1.
        -11    1    3    3    0    0 -0.44785769734E+00 -0.20936978431E+00  0.28999647910E+00  0.57315830506E+00  0.51100000000E-03 0.  1.
        -12    1    3    3    0    0  0.29137766177E+02  0.34384645048E+02 -0.22562440305E+01  0.45126531775E+02  0.00000000000E+00 0.  1.
</event>
<event>
 7    1  0.2580704E-010  0.4778727E+02  0.7816164E-02  0.1312668E+00
        -11   -1    0    0    0    0  0.00000000000E+00  0.00000000000E+00  0.45593999997E+02  0.45594000000E+02  0.51100000000E-03 0. -1.
         11   -1    0    0    0    0 -0.00000000000E+00 -0.00000000000E+00 -0.45593999997E+02  0.45594000000E+02  0.51100000000E-03 0.  1.
    9900012    2    1    2    0    0  0.10314711381E+02  0.14536176809E+01 -0.42132138027E+02  0.47787270398E+02  0.19999997054E+02 0.  0.
         12    1    1    2    0    0 -0.10314711381E+02 -0.14536176809E+01  0.42132138027E+02  0.43400729602E+02  0.00000000000E+00 0. -1.
         11    1    3    3    0    0  0.85799141745E+01  0.42651940049E+01 -0.21046179048E+02  0.23124628860E+02  0.51100000000E-03 0. -1.
        -11    1    3    3    0    0  0.59688112439E+01  0.20131590084E+01 -0.11764191780E+02  0.13344501690E+02  0.51100000000E-03 0.  1.
        -12    1    3    3    0    0 -0.42340140379E+01 -0.48247353324E+01 -0.93217671991E+01  0.11318139848E+02  0.00000000000E+00 0.  1.
</event>
<event>
 7    1  0.2580704E-010  0.4778726E+02  0.7816164E-02  0.1312668E+00
        -11   -1    0    0    0    0  0.00000000000E+00  0.00000000000E+00  0.45593999997E+02  0.45594000000E+02  0.51100000000E-03 0.  1.
         11   -1    0    0    0    0 -0.00000000000E+00 -0.00000000000E+00 -0.45593999997E+02  0.45594000000E+02  0.51100000000E-03 0. -1.
    9900012    2    1    2    0    0 -0.30840818876E+01  0.23207764920E+02  0.36544660266E+02  0.47787261439E+02  0.19999956207E+02 0.  0.
         12    1    1    2    0    0  0.30840818876E+01 -0.23207764920E+02 -0.36544660266E+02  0.43400738561E+02  0.00000000000E+00 0. -1.
         11    1    3    3    0    0  0.10626681536E+01  0.44384105254E+01  0.59772176978E+00  0.46028277365E+01  0.51100000000E-03 0. -1.
        -11    1    3    3    0    0 -0.46839426148E+01  0.20950791506E+02  0.34006293072E+02  0.40215705289E+02  0.51100000000E-03 0.  1.
         12    1    3    3    0    0  0.53719257362E+00 -0.21814371115E+01  0.19406454237E+01  0.29687284135E+01  0.00000000000E+00 0. -1.
</event>
<event>
 7    1  0.2580704E-010  0.4778727E+02  0.7816164E-02  0.1312668E+00
        -11   -1    0    0    0    0  0.00000000000E+00  0.00000000000E+00  0.45593999997E+02  0.45594000000E+02  0.51100000000E-03 0. -1.
         11   -1    0    0    0    0 -0.00000000000E+00 -0.00000000000E+00 -0.45593999997E+02  0.45594000000E+02  0.51100000000E-03 0.  1.
    9900012    2    1    2    0    0 -0.71375254300E+01  0.55806372124E+01 -0.42444497347E+02  0.47787272633E+02  0.20000007241E+02 0.  0.
         12    1    1    2    0    0  0.71375254300E+01 -0.55806372124E+01  0.42444497347E+02  0.43400727367E+02  0.00000000000E+00 0. -1.
         11    1    3    3    0    0 -0.12474954312E+01  0.24811832281E+01 -0.41193842039E+01  0.49680822802E+01  0.51100000000E-03 0. -1.
        -11    1    3    3    0    0  0.76740154999E+00 -0.16460466727E+01 -0.33027125166E+02  0.33077021809E+02  0.51100000000E-03 0.  1.
        -12    1    3    3    0    0 -0.66574315487E+01  0.47455006570E+01 -0.52979879773E+01  0.97421685429E+01  0.00000000000E+00 0.  1.
</event>
<event>
 7    1  0.2580704E-010  0.4778727E+02  0.7816164E-02  0.1312668E+00
        -11   -1    0    0    0    0  0.00000000000E+00  0.00000000000E+00  0.45593999997E+02  0.45594000000E+02  0.51100000000E-03 0. -1.
         11   -1    0    0    0    0 -0.00000000000E+00 -0.00000000000E+00 -0.45593999997E+02  0.45594000000E+02  0.51100000000E-03 0.  1.
    9900012    2    1    2    0    0  0.10275373823E+02 -0.16575860662E+01 -0.42134217115E+02  0.47787272464E+02  0.20000006472E+02 0.  0.
         12    1    1    2    0    0 -0.10275373823E+02  0.16575860662E+01  0.42134217115E+02  0.43400727536E+02  0.00000000000E+00 0. -1.
         11    1    3    3    0    0 -0.16221779270E+01 -0.20456315541E+01 -0.65138038042E+01  0.70175287632E+01  0.51100000000E-03 0. -1.
        -11    1    3    3    0    0  0.13658483360E+02 -0.45537086493E+01 -0.23455276199E+02  0.27521635344E+02  0.51100000000E-03 0.  1.
        -12    1    3    3    0    0 -0.17609316106E+01  0.49417541372E+01 -0.12165137112E+02  0.13248108357E+02  0.00000000000E+00 0.  1.
</event>
<event>
 7    1  0.2580704E-010  0.4778728E+02  0.7816164E-02  0.1312668E+00
        -11   -1    0    0    0    0  0.00000000000E+00  0.00000000000E+00  0.45593999997E+02  0.45594000000E+02  0.51100000000E-03 0.  1.
         11   -1    0    0    0    0 -0.00000000000E+00 -0.00000000000E+00 -0.45593999997E+02  0.45594000000E+02  0.51100000000E-03 0. -1.
    9900012    2    1    2    0    0  0.27582041254E+02 -0.19935384758E+02  0.26933887592E+02  0.47787275743E+02  0.20000021425E+02 0.  0.
         12    1    1    2    0    0 -0.27582041254E+02  0.19935384758E+02 -0.26933887592E+02  0.43400724257E+02  0.00000000000E+00 0. -1.
         11    1    3    3    0    0  0.39101666231E+00 -0.55957002803E+01  0.27292695296E+01  0.62380820838E+01  0.51100000000E-03 0. -1.
        -11    1    3    3    0    0 -0.54281112285E+00 -0.41779246654E+01  0.35169168793E+01  0.54880235989E+01  0.51100000000E-03 0.  1.
        -12    1    3    3    0    0  0.27733835715E+02 -0.10161759812E+02  0.20687701183E+02  0.36061170061E+02  0.00000000000E+00 0.  1.
</event>
<event>
 7    1  0.2580704E-010  0.4778726E+02  0.7816164E-02  0.1312668E+00
        -11   -1    0    0    0    0  0.00000000000E+00  0.00000000000E+00  0.45593999997E+02  0.45594000000E+02  0.51100000000E-03 0.  1.
         11   -1    0    0    0    0 -0.00000000000E+00 -0.00000000000E+00 -0.45593999997E+02  0.45594000000E+02  0.51100000000E-03 0. -1.
    9900012    2    1    2    0    0 -0.39968260183E+02  0.38471858199E+01 -0.16473046229E+02  0.47787263683E+02  0.19999966436E+02 0.  0.
         12    1    1    2    0    0  0.39968260183E+02 -0.38471858199E+01  0.16473046229E+02  0.43400736317E+02  0.00000000000E+00 0. -1.
         11    1    3    3    0    0 -0.69900800676E+01  0.70471613436E+01 -0.76637531651E+01  0.12540207941E+02  0.51100000000E-03 0. -1.
        -11    1    3    3    0    0 -0.43070167991E+00  0.68361161575E+00 -0.14389761577E+01  0.16502973738E+01  0.51100000000E-03 0.  1.
        -12    1    3    3    0    0 -0.32547478436E+02 -0.38835871395E+01 -0.73703169062E+01  0.33596758369E+02  0.00000000000E+00 0.  1.
</event>
<event>
 7    1  0.2580704E-010  0.4778727E+02  0.7816164E-02  0.1312668E+00
        -11   -1    0    0    0    0  0.00000000000E+00  0.00000000000E+00  0.45593999997E+02  0.45594000000E+02  0.51100000000E-03 0. -1.
         11   -1    0    0    0    0 -0.00000000000E+00 -0.00000000000E+00 -0.45593999997E+02  0.45594000000E+02  0.51100000000E-03 0.  1.
    9900012    2    1    2    0    0  0.29598362477E+02 -0.26510893526E+02 -0.17456589670E+02  0.47787273511E+02  0.20000011247E+02 0.  0.
         12    1    1    2    0    0 -0.29598362477E+02  0.26510893526E+02  0.17456589670E+02  0.43400726489E+02  0.00000000000E+00 0. -1.
         11    1    3    3    0    0  0.24661179580E+00 -0.63486721714E+01 -0.35082588663E+00  0.63631387523E+01  0.51100000000E-03 0.  1.
        -11    1    3    3    0    0  0.91849928915E+01 -0.37593930934E+01  0.64660006528E+00  0.99456132416E+01  0.51100000000E-03 0. -1.
        -12    1    3    3    0    0  0.20166757789E+02 -0.16402828262E+02 -0.17752363848E+02  0.31478521517E+02  0.00000000000E+00 0.  1.
</event>
<event>
 7    1  0.2580704E-010  0.4778727E+02  0.7816164E-02  0.1312668E+00
        -11   -1    0    0    0    0  0.00000000000E+00  0.00000000000E+00  0.45593999997E+02  0.45594000000E+02  0.51100000000E-03 0. -1.
         11   -1    0    0    0    0 -0.00000000000E+00 -0.00000000000E+00 -0.45593999997E+02  0.45594000000E+02  0.51100000000E-03 0.  1.
    9900012    2    1    2    0    0  0.75919220154E+00 -0.33232970143E+02 -0.27903702129E+02  0.47787271091E+02  0.20000000214E+02 0.  0.
         12    1    1    2    0    0 -0.75919220154E+00  0.33232970143E+02  0.27903702129E+02  0.43400728909E+02  0.00000000000E+00 0. -1.
         11    1    3    3    0    0 -0.40257820960E+01 -0.71999644390E+01 -0.76406693863E+01  0.11243942295E+02  0.51100000000E-03 0. -1.
        -11    1    3    3    0    0 -0.38846856156E+01 -0.10704697335E+02 -0.27665499696E+01  0.11719007056E+02  0.51100000000E-03 0.  1.
        -12    1    3    3    0    0  0.86696599132E+01 -0.15328308368E+02 -0.17496482773E+02  0.24824321740E+02  0.00000000000E+00 0.  1.
</event>
<event>
 7    1  0.2580704E-010  0.4778726E+02  0.7816164E-02  0.1312668E+00
        -11   -1    0    0    0    0  0.00000000000E+00  0.00000000000E+00  0.45593999997E+02  0.45594000000E+02  0.51100000000E-03 0. -1.
         11   -1    0    0    0    0 -0.00000000000E+00 -0.00000000000E+00 -0.45593999997E+02  0.45594000000E+02  0.51100000000E-03 0.  1.
    9900012    2    1    2    0    0 -0.13574845341E+02  0.38374738561E+02  0.15057455953E+02  0.47787263077E+02  0.19999963673E+02 0.  0.
         12    1    1    2    0    0  0.13574845341E+02 -0.38374738561E+02 -0.15057455953E+02  0.43400736923E+02  0.00000000000E+00 0. -1.
         11    1    3    3    0    0  0.35426752649E+01  0.29324733298E+01  0.30166275977E+01  0.54999991079E+01  0.51100000000E-03 0. -1.
        -11    1    3    3    0    0 -0.47981975937E+01  0.19718652908E+02  0.84938908464E+01  0.21999867150E+02  0.51100000000E-03 0.  1.
         12    1    3    3    0    0 -0.12319323013E+02  0.15723612323E+02  0.35469375086E+01  0.20287396819E+02  0.00000000000E+00 0. -1.
</event>
<event>
 7    1  0.2580704E-010  0.4778727E+02  0.7816164E-02  0.1312668E+00
        -11   -1    0    0    0    0  0.00000000000E+00  0.00000000000E+00  0.45593999997E+02  0.45594000000E+02  0.51100000000E-03 0.  1.
         11   -1    0    0    0    0 -0.00000000000E+00 -0.00000000000E+00 -0.45593999997E+02  0.45594000000E+02  0.51100000000E-03 0. -1.
    9900012    2    1    2    0    0 -0.18751259128E+02  0.27442969214E+02 -0.27908723529E+02  0.47787272734E+02  0.20000007704E+02 0.  0.
         12    1    1    2    0    0  0.18751259128E+02 -0.27442969214E+02  0.27908723529E+02  0.43400727266E+02  0.00000000000E+00 0. -1.
         11    1    3    3    0    0 -0.42645544784E+01  0.41672323481E+01 -0.89352696756E+01  0.10742034015E+02  0.51100000000E-03 0.  1.
        -11    1    3    3    0    0 -0.82264256234E+01  0.43830372313E+01  0.31887252708E+00  0.93266700305E+01  0.51100000000E-03 0. -1.
        -12    1    3    3    0    0 -0.62602790259E+01  0.18892699635E+02 -0.19292326380E+02  0.27718568689E+02  0.00000000000E+00 0.  1.
</event>
<event>
 7    1  0.2580704E-010  0.4778725E+02  0.7816164E-02  0.1312668E+00
        -11   -1    0    0    0    0  0.00000000000E+00  0.00000000000E+00  0.45593999997E+02  0.45594000000E+02  0.51100000000E-03 0. -1.
         11   -1    0    0    0    0 -0.00000000000E+00 -0.00000000000E+00 -0.45593999997E+02  0.45594000000E+02  0.51100000000E-03 0.  1.
    9900012    2    1    2    0    0  0.38972234118E+01  0.27998281938E+02 -0.32932245401E+02  0.47787251977E+02  0.19999913066E+02 0.  0.
         12    1    1    2    0    0 -0.38972234118E+01 -0.27998281938E+02  0.32932245401E+02  0.43400748023E+02  0.00000000000E+00 0. -1.
         11    1    3    3    0    0  0.54493704421E+01  0.11274970375E+02 -0.11453350404E+02  0.16970557767E+02  0.51100000000E-03 0. -1.
        -11    1    3    3    0    0 -0.34241626021E+01  0.18098196340E+02 -0.21723461647E+02  0.28481193558E+02  0.51100000000E-03 0.  1.
        -12    1    3    3    0    0  0.18720155719E+01 -0.13748847771E+01  0.24456665101E+00  0.23355006526E+01  0.00000000000E+00 0.  1.
</event>
<event>
 7    1  0.2580704E-010  0.4778727E+02  0.7816164E-02  0.1312668E+00
        -11   -1    0    0    0    0  0.00000000000E+00  0.00000000000E+00  0.45593999997E+02  0.45594000000E+02  0.51100000000E-03 0.  1.
         11   -1    0    0    0    0 -0.00000000000E+00 -0.00000000000E+00 -0.45593999997E+02  0.45594000000E+02  0.51100000000E-03 0. -1.
    9900012    2    1    2    0    0  0.64093664478E+01 -0.96223005593E+01  0.41832462695E+02  0.47787267501E+02  0.19999983842E+02 0.  0.
         12    1    1    2    0    0 -0.64093664478E+01  0.96223005593E+01 -0.41832462695E+02  0.43400732499E+02  0.00000000000E+00 0. -1.
         11    1    3    3    0    0 -0.37639989840E+01 -0.99423226295E-01  0.30986748637E+01  0.48764084633E+01  0.51100000000E-03 0.  1.
        -11    1    3    3    0    0  0.28242493688E+01 -0.85895298391E+00  0.46139695573E+00  0.29878206334E+01  0.51100000000E-03 0. -1.
        -12    1    3    3    0    0  0.73491160630E+01 -0.86639243491E+01  0.38272390876E+02  0.39923038404E+02  0.00000000000E+00 0.  1.
</event>
<event>
 7    1  0.2580704E-010  0.4778727E+02  0.7816164E-02  0.1312668E+00
        -11   -1    0    0    0    0  0.00000000000E+00  0.00000000000E+00  0.45593999997E+02  0.45594000000E+02  0.51100000000E-03 0.  1.
         11   -1    0    0    0    0 -0.00000000000E+00 -0.00000000000E+00 -0.45593999997E+02  0.45594000000E+02  0.51100000000E-03 0. -1.
    9900012    2    1    2    0    0 -0.28683327589E+00  0.30476610994E+02  0.30898506325E+02  0.47787265167E+02  0.19999973201E+02 0.  0.
         12    1    1    2    0    0  0.28683327589E+00 -0.30476610994E+02 -0.30898506325E+02  0.43400734833E+02  0.00000000000E+00 0. -1.
         11    1    3    3    0    0 -0.60193598417E+01  0.82084646148E+01  0.14613429337E+02  0.17809096032E+02  0.51100000000E-03 0. -1.
        -11    1    3    3    0    0  0.16261224125E+01  0.78599770797E+01  0.11925185549E+02  0.14374754413E+02  0.51100000000E-03 0.  1.
         12    1    3    3    0    0  0.41064041533E+01  0.14408169299E+02  0.43598914388E+01  0.15603414722E+02  0.00000000000E+00 0. -1.
</event>
<event>
 7    1  0.2580704E-010  0.4778727E+02  0.7816164E-02  0.1312668E+00
        -11   -1    0    0    0    0  0.00000000000E+00  0.00000000000E+00  0.45593999997E+02  0.45594000000E+02  0.51100000000E-03 0.  1.
         11   -1    0    0    0    0 -0.00000000000E+00 -0.00000000000E+00 -0.45593999997E+02  0.45594000000E+02  0.51100000000E-03 0. -1.
    9900012    2    1    2    0    0 -0.32871146122E+02 -0.24976739798E+02  0.13389307716E+02  0.47787270289E+02  0.19999996557E+02 0.  0.
         12    1    1    2    0    0  0.32871146122E+02  0.24976739798E+02 -0.13389307716E+02  0.43400729711E+02  0.00000000000E+00 0. -1.
         11    1    3    3    0    0 -0.10516758235E+02 -0.17336855236E+01  0.53932981554E+01  0.11945523619E+02  0.51100000000E-03 0. -1.
        -11    1    3    3    0    0 -0.16979733637E-01 -0.18797138212E+01 -0.25636201511E+01  0.31789559452E+01  0.51100000000E-03 0.  1.
        -12    1    3    3    0    0 -0.22337408153E+02 -0.21363340454E+02  0.10559629712E+02  0.32662790725E+02  0.00000000000E+00 0.  1.
</event>
<event>
 7    1  0.2580704E-010  0.4778728E+02  0.7816164E-02  0.1312668E+00
        -11   -1    0    0    0    0  0.00000000000E+00  0.00000000000E+00  0.45593999997E+02  0.45594000000E+02  0.51100000000E-03 0. -1.
         11   -1    0    0    0    0 -0.00000000000E+00 -0.00000000000E+00 -0.45593999997E+02  0.45594000000E+02  0.51100000000E-03 0.  1.
    9900012    2    1    2    0    0  0.35361657324E+02  0.37319709986E+01 -0.24884701906E+02  0.47787276444E+02  0.20000024618E+02 0.  0.
         12    1    1    2    0    0 -0.35361657324E+02 -0.37319709986E+01  0.24884701906E+02  0.43400723556E+02  0.00000000000E+00 0. -1.
         11    1    3    3    0    0  0.16551714289E+02 -0.46827500952E+01 -0.12097517751E+02  0.21029439611E+02  0.51100000000E-03 0. -1.
        -11    1    3    3    0    0  0.14072708817E+02  0.95752152902E+00 -0.10633787918E+02  0.17664524524E+02  0.51100000000E-03 0.  1.
         12    1    3    3    0    0  0.47372342191E+01  0.74571995648E+01 -0.21533962365E+01  0.90933123089E+01  0.00000000000E+00 0. -1.
</event>
<event>
 7    1  0.2580704E-010  0.4778728E+02  0.7816164E-02  0.1312668E+00
        -11   -1    0    0    0    0  0.00000000000E+00  0.00000000000E+00  0.45593999997E+02  0.45594000000E+02  0.51100000000E-03 0.  1.
         11   -1    0    0    0    0 -0.00000000000E+00 -0.00000000000E+00 -0.45593999997E+02  0.45594000000E+02  0.51100000000E-03 0. -1.
    9900012    2    1    2    0    0  0.27436842943E+02  0.10478822738E+02  0.31953662244E+02  0.47787278722E+02  0.20000035004E+02 0.  0.
         12    1    1    2    0    0 -0.27436842943E+02 -0.10478822738E+02 -0.31953662244E+02  0.43400721278E+02  0.00000000000E+00 0. -1.
         11    1    3    3    0    0  0.17976737624E+02 -0.14578460756E+01  0.21975284391E+02  0.28428885577E+02  0.51100000000E-03 0. -1.
        -11    1    3    3    0    0  0.72121147603E+01  0.38506758178E+01  0.54009877503E+01  0.97986209493E+01  0.51100000000E-03 0.  1.
        -12    1    3    3    0    0  0.22479905581E+01  0.80859929961E+01  0.45773901028E+01  0.95597721958E+01  0.00000000000E+00 0.  1.
</event>
<event>
 7    1  0.2750308E-010  0.4778727E+02  0.7816164E-02  0.1312668E+00
        -11   -1    0    0    0    0  0.00000000000E+00  0.00000000000E+00  0.45593999997E+02  0.45594000000E+02  0.51100000000E-03 0.  1.
         11   -1    0    0    0    0 -0.00000000000E+00 -0.00000000000E+00 -0.45593999997E+02  0.45594000000E+02  0.51100000000E-03 0. -1.
    9900012    2    1    2    0    0 -0.19013351303E+02  0.39014194458E+02 -0.92743971644E-01  0.47787268457E+02  0.19999988203E+02 0.  0.
         12    1    1    2    0    0  0.19013351303E+02 -0.39014194458E+02  0.92743971644E-01  0.43400731543E+02  0.00000000000E+00 0. -1.
         11    1    3    3    0    0  0.14792802952E+01  0.96525696296E+01  0.73796992289E+00  0.97931083173E+01  0.51100000000E-03 0. -1.
        -11    1    3    3    0    0 -0.21110987389E+01  0.14862269939E+01 -0.36656954519E+01  0.44836293301E+01  0.51100000000E-03 0.  1.
        -12    1    3    3    0    0 -0.18381532860E+02  0.27875397835E+02  0.28349815573E+01  0.33510530810E+02  0.00000000000E+00 0.  1.
</event>
<event>
 7    1  0.2580704E-010  0.4778727E+02  0.7816164E-02  0.1312668E+00
        -11   -1    0    0    0    0  0.00000000000E+00  0.00000000000E+00  0.45593999997E+02  0.45594000000E+02  0.51100000000E-03 0.  1.
         11   -1    0    0    0    0 -0.00000000000E+00 -0.00000000000E+00 -0.45593999997E+02  0.45594000000E+02  0.51100000000E-03 0. -1.
    9900012    2    1    2    0    0  0.40448359453E+02 -0.43752154802E+01  0.15113269286E+02  0.47787271879E+02  0.20000003807E+02 0.  0.
         12    1    1    2    0    0 -0.40448359453E+02  0.43752154802E+01 -0.15113269286E+02  0.43400728121E+02  0.00000000000E+00 0. -1.
         11    1    3    3    0    0  0.26838032716E+02 -0.85324281869E+01  0.56763591589E+01  0.28728093992E+02  0.51100000000E-03 0. -1.
        -11    1    3    3    0    0  0.11667363415E+02 -0.20898545306E+00  0.76688592281E+01  0.13963611499E+02  0.51100000000E-03 0.  1.
         12    1    3    3    0    0  0.19429633211E+01  0.43661981597E+01  0.17680508985E+01  0.50955663882E+01  0.00000000000E+00 0. -1.
</event>
<event>
 7    1  0.2580704E-010  0.4778728E+02  0.7816164E-02  0.1312668E+00
        -11   -1    0    0    0    0  0.00000000000E+00  0.00000000000E+00  0.45593999997E+02  0.45594000000E+02  0.51100000000E-03 0. -1.
         11   -1    0    0    0    0 -0.00000000000E+00 -0.00000000000E+00 -0.45593999997E+02  0.45594000000E+02  0.51100000000E-03 0.  1.
    9900012    2    1    2    0    0 -0.28146359191E+02  0.19535129943E+02 -0.26641760207E+02  0.47787283133E+02  0.20000055118E+02 0.  0.
         12    1    1    2    0    0  0.28146359191E+02 -0.19535129943E+02  0.26641760207E+02  0.43400716867E+02  0.00000000000E+00 0. -1.
         11    1    3    3    0    0 -0.61544717459E+01 -0.26211874822E+01 -0.39030095151E+01  0.77447808119E+01  0.51100000000E-03 0. -1.
        -11    1    3    3    0    0 -0.85174827726E+01  0.27115886933E+01 -0.90037015997E+01  0.12687271920E+02  0.51100000000E-03 0.  1.
        -12    1    3    3    0    0 -0.13474404673E+02  0.19444728731E+02 -0.13735049093E+02  0.27355230401E+02  0.00000000000E+00 0.  1.
</event>
<event>
 7    1  0.2580704E-010  0.4778726E+02  0.7816164E-02  0.1312668E+00
        -11   -1    0    0    0    0  0.00000000000E+00  0.00000000000E+00  0.45593999997E+02  0.45594000000E+02  0.51100000000E-03 0. -1.
         11   -1    0    0    0    0 -0.00000000000E+00 -0.00000000000E+00 -0.45593999997E+02  0.45594000000E+02  0.51100000000E-03 0.  1.
    9900012    2    1    2    0    0  0.12919175536E+02  0.10588544776E+02 -0.40057484800E+02  0.47787257317E+02  0.19999937409E+02 0.  0.
         12    1    1    2    0    0 -0.12919175536E+02 -0.10588544776E+02  0.40057484800E+02  0.43400742683E+02  0.00000000000E+00 0. -1.
         11    1    3    3    0    0  0.74602650988E+01 -0.42609842274E+01 -0.18664318415E+02  0.20546735120E+02  0.51100000000E-03 0. -1.
        -11    1    3    3    0    0  0.16912955826E+01  0.35163644232E+00 -0.35141966388E+01  0.39158277813E+01  0.51100000000E-03 0.  1.
        -12    1    3    3    0    0  0.37676148549E+01  0.14497892561E+02 -0.17878969745E+02  0.23324694415E+02  0.00000000000E+00 0.  1.
</event>
<event>
 7    1  0.2580704E-010  0.4778727E+02  0.7816164E-02  0.1312668E+00
        -11   -1    0    0    0    0  0.00000000000E+00  0.00000000000E+00  0.45593999997E+02  0.45594000000E+02  0.51100000000E-03 0.  1.
         11   -1    0    0    0    0 -0.00000000000E+00 -0.00000000000E+00 -0.45593999997E+02  0.45594000000E+02  0.51100000000E-03 0. -1.
    9900012    2    1    2    0    0 -0.14795493367E+02 -0.13239231676E+02  0.38593256936E+02  0.47787270049E+02  0.19999995464E+02 0.  0.
         12    1    1    2    0    0  0.14795493367E+02  0.13239231676E+02 -0.38593256936E+02  0.43400729951E+02  0.00000000000E+00 0. -1.
         11    1    3    3    0    0  0.54345138983E+00  0.36406993452E+00  0.10334738050E+01  0.12230922685E+01  0.51100000000E-03 0. -1.
        -11    1    3    3    0    0 -0.40769005725E+01 -0.54604194273E+01  0.32708611181E+00  0.68223371498E+01  0.51100000000E-03 0.  1.
        -12    1    3    3    0    0 -0.11262044184E+02 -0.81428821828E+01  0.37232697019E+02  0.39741840631E+02  0.00000000000E+00 0.  1.
</event>
<event>
 7    1  0.2580704E-010  0.4778726E+02  0.7816164E-02  0.1312668E+00
        -11   -1    0    0    0    0  0.00000000000E+00  0.00000000000E+00  0.45593999997E+02  0.45594000000E+02  0.51100000000E-03 0.  1.
         11   -1    0    0    0    0 -0.00000000000E+00 -0.00000000000E+00 -0.45593999997E+02  0.45594000000E+02  0.51100000000E-03 0. -1.
    9900012    2    1    2    0    0  0.24760103096E+02 -0.19664070822E+02  0.29730223068E+02  0.47787256340E+02  0.19999932956E+02 0.  0.
         12    1    1    2    0    0 -0.24760103096E+02  0.19664070822E+02 -0.29730223068E+02  0.43400743660E+02  0.00000000000E+00 0. -1.
         11    1    3    3    0    0 -0.82383734972E+00 -0.55969915509E+01  0.50950479259E+01  0.76134444259E+01  0.51100000000E-03 0. -1.
        -11    1    3    3    0    0  0.49671683569E+01 -0.56105124888E+01  0.78653964474E+00  0.75345375934E+01  0.51100000000E-03 0.  1.
        -12    1    3    3    0    0  0.20616772088E+02 -0.84565667822E+01  0.23848635497E+02  0.32639274320E+02  0.00000000000E+00 0.  1.
</event>
<event>
 7    1  0.2580704E-010  0.4778727E+02  0.7816164E-02  0.1312668E+00
        -11   -1    0    0    0    0  0.00000000000E+00  0.00000000000E+00  0.45593999997E+02  0.45594000000E+02  0.51100000000E-03 0.  1.
         11   -1    0    0    0    0 -0.00000000000E+00 -0.00000000000E+00 -0.45593999997E+02  0.45594000000E+02  0.51100000000E-03 0. -1.
    9900012    2    1    2    0    0  0.15281685840E+02 -0.19981352598E+02  0.35367202546E+02  0.47787269710E+02  0.19999993916E+02 0.  0.
         12    1    1    2    0    0 -0.15281685840E+02  0.19981352598E+02 -0.35367202546E+02  0.43400730290E+02  0.00000000000E+00 0. -1.
         11    1    3    3    0    0  0.33983914947E+01 -0.15812357388E+02  0.15078667365E+02  0.22112121578E+02  0.51100000000E-03 0. -1.
        -11    1    3    3    0    0 -0.87944605154E+00 -0.37649771353E+00 -0.42880722283E+00  0.10483567052E+01  0.51100000000E-03 0.  1.
        -12    1    3    3    0    0  0.12762740397E+02 -0.37924974964E+01  0.20717342404E+02  0.24626791427E+02  0.00000000000E+00 0.  1.
</event>
<event>
 7    1  0.2580704E-010  0.4778727E+02  0.7816164E-02  0.1312668E+00
        -11   -1    0    0    0    0  0.00000000000E+00  0.00000000000E+00  0.45593999997E+02  0.45594000000E+02  0.51100000000E-03 0. -1.
         11   -1    0    0    0    0 -0.00000000000E+00 -0.00000000000E+00 -0.45593999997E+02  0.45594000000E+02  0.51100000000E-03 0.  1.
    9900012    2    1    2    0    0 -0.93719884989E+01 -0.12957671616E+02 -0.40347092151E+02  0.47787271122E+02  0.20000000354E+02 0.  0.
         12    1    1    2    0    0  0.93719884989E+01  0.12957671616E+02  0.40347092151E+02  0.43400728878E+02  0.00000000000E+00 0. -1.
         11    1    3    3    0    0 -0.62072359143E+01 -0.83521775185E+01 -0.11443758414E+02  0.15467651855E+02  0.51100000000E-03 0. -1.
        -11    1    3    3    0    0 -0.75306180140E+01 -0.25212902340E+01 -0.24581495721E+02  0.25832480412E+02  0.51100000000E-03 0.  1.
        -12    1    3    3    0    0  0.43658654295E+01 -0.20842038633E+01 -0.43218380161E+01  0.64871388554E+01  0.00000000000E+00 0.  1.
</event>
<event>
 7    1  0.2580704E-010  0.4778727E+02  0.7816164E-02  0.1312668E+00
        -11   -1    0    0    0    0  0.00000000000E+00  0.00000000000E+00  0.45593999997E+02  0.45594000000E+02  0.51100000000E-03 0. -1.
         11   -1    0    0    0    0 -0.00000000000E+00 -0.00000000000E+00 -0.45593999997E+02  0.45594000000E+02  0.51100000000E-03 0.  1.
    9900012    2    1    2    0    0 -0.45311993385E+01  0.32025930213E+02 -0.28938405768E+02  0.47787270722E+02  0.19999998532E+02 0.  0.
         12    1    1    2    0    0  0.45311993385E+01 -0.32025930213E+02  0.28938405768E+02  0.43400729278E+02  0.00000000000E+00 0. -1.
         11    1    3    3    0    0 -0.16228982910E+01 -0.13564913096E+01  0.53599965570E-01  0.21158309841E+01  0.51100000000E-03 0. -1.
        -11    1    3    3    0    0  0.12158922007E+01  0.19752672328E+02 -0.22665184713E+02  0.30089151804E+02  0.51100000000E-03 0.  1.
         12    1    3    3    0    0 -0.41241932482E+01  0.13629749195E+02 -0.63268210205E+01  0.15582287935E+02  0.00000000000E+00 0. -1.
</event>
<event>
 7    1  0.2580704E-010  0.4778728E+02  0.7816164E-02  0.1312668E+00
        -11   -1    0    0    0    0  0.00000000000E+00  0.00000000000E+00  0.45593999997E+02  0.45594000000E+02  0.51100000000E-03 0. -1.
         11   -1    0    0    0    0 -0.00000000000E+00 -0.00000000000E+00 -0.45593999997E+02  0.45594000000E+02  0.51100000000E-03 0.  1.
    9900012    2    1    2    0    0  0.27917202002E+02 -0.23261634946E+02 -0.23730762020E+02  0.47787275420E+02  0.20000019950E+02 0.  0.
         12    1    1    2    0    0 -0.27917202002E+02  0.23261634946E+02  0.23730762020E+02  0.43400724580E+02  0.00000000000E+00 0. -1.
         11    1    3    3    0    0  0.34125129766E+01 -0.56455472642E+01 -0.14042424690E+02  0.15514739449E+02  0.51100000000E-03 0. -1.
        -11    1    3    3    0    0  0.46880139117E+01 -0.48869425746E+01 -0.45709475187E+01  0.81702658245E+01  0.51100000000E-03 0.  1.
         12    1    3    3    0    0  0.19816675114E+02 -0.12729145107E+02 -0.51173898112E+01  0.24102270147E+02  0.00000000000E+00 0. -1.
</event>
<event>
 7    1  0.2580704E-010  0.4778727E+02  0.7816164E-02  0.1312668E+00
        -11   -1    0    0    0    0  0.00000000000E+00  0.00000000000E+00  0.45593999997E+02  0.45594000000E+02  0.51100000000E-03 0. -1.
         11   -1    0    0    0    0 -0.00000000000E+00 -0.00000000000E+00 -0.45593999997E+02  0.45594000000E+02  0.51100000000E-03 0.  1.
    9900012    2    1    2    0    0 -0.79170880652E+00 -0.18280835080E+01 -0.43354981714E+02  0.47787272684E+02  0.20000007474E+02 0.  0.
         12    1    1    2    0    0  0.79170880652E+00  0.18280835080E+01  0.43354981714E+02  0.43400727316E+02  0.00000000000E+00 0. -1.
         11    1    3    3    0    0 -0.54377322230E+01  0.24399619043E+01 -0.93038383612E+01  0.11049151747E+02  0.51100000000E-03 0. -1.
        -11    1    3    3    0    0 -0.29315554924E+01  0.80129292791E+00 -0.26235364268E+01  0.40148513802E+01  0.51100000000E-03 0.  1.
        -12    1    3    3    0    0  0.75775789088E+01 -0.50693383402E+01 -0.31427606926E+02  0.32723269556E+02  0.00000000000E+00 0.  1.
</event>
<event>
 7    1  0.2580704E-010  0.4778727E+02  0.7816164E-02  0.1312668E+00
        -11   -1    0    0    0    0  0.00000000000E+00  0.00000000000E+00  0.45593999997E+02  0.45594000000E+02  0.51100000000E-03 0. -1.
         11   -1    0    0    0    0 -0.00000000000E+00 -0.00000000000E+00 -0.45593999997E+02  0.45594000000E+02  0.51100000000E-03 0.  1.
    9900012    2    1    2    0    0  0.10958623512E+02 -0.36369178382E+02 -0.20995591089E+02  0.47787269469E+02  0.19999992819E+02 0.  0.
         12    1    1    2    0    0 -0.10958623512E+02  0.36369178382E+02  0.20995591089E+02  0.43400730531E+02  0.00000000000E+00 0. -1.
         11    1    3    3    0    0  0.92359650120E+01 -0.19938206617E+02 -0.10575460222E+02  0.24385969163E+02  0.51100000000E-03 0.  1.
        -11    1    3    3    0    0  0.77716655939E+00 -0.16335576330E+02 -0.39004795272E+01  0.16812756547E+02  0.51100000000E-03 0. -1.
         12    1    3    3    0    0  0.94549194016E+00 -0.95395434244E-01 -0.65196513390E+01  0.65885437602E+01  0.00000000000E+00 0. -1.
</event>
<event>
 7    1  0.2580704E-010  0.4778727E+02  0.7816164E-02  0.1312668E+00
        -11   -1    0    0    0    0  0.00000000000E+00  0.00000000000E+00  0.45593999997E+02  0.45594000000E+02  0.51100000000E-03 0.  1.
         11   -1    0    0    0    0 -0.00000000000E+00 -0.00000000000E+00 -0.45593999997E+02  0.45594000000E+02  0.51100000000E-03 0. -1.
    9900012    2    1    2    0    0 -0.12432579603E+02 -0.75643425632E+01  0.40888080555E+02  0.47787269067E+02  0.19999990985E+02 0.  0.
         12    1    1    2    0    0  0.12432579603E+02  0.75643425632E+01 -0.40888080555E+02  0.43400730933E+02  0.00000000000E+00 0. -1.
         11    1    3    3    0    0 -0.73379637746E+01 -0.12403870433E+02  0.25752055481E+02  0.29510507889E+02  0.51100000000E-03 0. -1.
        -11    1    3    3    0    0  0.10417832109E+01 -0.66311374378E+00  0.53093873031E+01  0.54511123536E+01  0.51100000000E-03 0.  1.
         12    1    3    3    0    0 -0.61363990394E+01  0.55026416135E+01  0.98266377712E+01  0.12825648825E+02  0.00000000000E+00 0. -1.
</event>
<event>
 7    1  0.2580704E-010  0.4778727E+02  0.7816164E-02  0.1312668E+00
        -11   -1    0    0    0    0  0.00000000000E+00  0.00000000000E+00  0.45593999997E+02  0.45594000000E+02  0.51100000000E-03 0.  1.
         11   -1    0    0    0    0 -0.00000000000E+00 -0.00000000000E+00 -0.45593999997E+02  0.45594000000E+02  0.51100000000E-03 0. -1.
    9900012    2    1    2    0    0  0.12710239842E+01  0.13026297029E+02  0.41380233465E+02  0.47787266851E+02  0.19999980880E+02 0.  0.
         12    1    1    2    0    0 -0.12710239842E+01 -0.13026297029E+02 -0.41380233465E+02  0.43400733149E+02  0.00000000000E+00 0. -1.
         11    1    3    3    0    0 -0.92151184350E+00  0.11450746943E+02  0.20573087238E+02  0.23563121788E+02  0.51100000000E-03 0. -1.
        -11    1    3    3    0    0  0.39536734835E+01  0.58135827298E+01  0.81653551243E+01  0.10775077853E+02  0.51100000000E-03 0.  1.
        -12    1    3    3    0    0 -0.17611376558E+01 -0.42380326437E+01  0.12641791103E+02  0.13449067210E+02  0.00000000000E+00 0.  1.
</event>
<event>
 7    1  0.2580704E-010  0.4778728E+02  0.7816164E-02  0.1312668E+00
        -11   -1    0    0    0    0  0.00000000000E+00  0.00000000000E+00  0.45593999997E+02  0.45594000000E+02  0.51100000000E-03 0. -1.
         11   -1    0    0    0    0 -0.00000000000E+00 -0.00000000000E+00 -0.45593999997E+02  0.45594000000E+02  0.51100000000E-03 0.  1.
    9900012    2    1    2    0    0 -0.34162931342E+02 -0.26350490547E+02 -0.47083320865E+01  0.47787278566E+02  0.20000034293E+02 0.  0.
         12    1    1    2    0    0  0.34162931342E+02  0.26350490547E+02  0.47083320865E+01  0.43400721434E+02  0.00000000000E+00 0. -1.
         11    1    3    3    0    0 -0.10014034777E+02 -0.36034196592E+01 -0.67907362189E+01  0.12624564326E+02  0.51100000000E-03 0. -1.
        -11    1    3    3    0    0 -0.16746855066E+02 -0.13129006840E+02 -0.38961131859E+01  0.21633485004E+02  0.51100000000E-03 0.  1.
         12    1    3    3    0    0 -0.74020414986E+01 -0.96180640482E+01  0.59785173184E+01  0.13529229236E+02  0.00000000000E+00 0. -1.
</event>
<event>
 7    1  0.2580704E-010  0.4778727E+02  0.7816164E-02  0.1312668E+00
        -11   -1    0    0    0    0  0.00000000000E+00  0.00000000000E+00  0.45593999997E+02  0.45594000000E+02  0.51100000000E-03 0.  1.
         11   -1    0    0    0    0 -0.00000000000E+00 -0.00000000000E+00 -0.45593999997E+02  0.45594000000E+02  0.51100000000E-03 0. -1.
    9900012    2    1    2    0    0  0.25300346832E+02  0.21661020710E+02  0.27826537287E+02  0.47787267916E+02  0.19999985738E+02 0.  0.
         12    1    1    2    0    0 -0.25300346832E+02 -0.21661020710E+02 -0.27826537287E+02  0.43400732084E+02  0.00000000000E+00 0. -1.
         11    1    3    3    0    0  0.37906788426E+01  0.94277269834E+00  0.59242876476E+01  0.70961433780E+01  0.51100000000E-03 0. -1.
        -11    1    3    3    0    0  0.39048577237E+01  0.10716080952E+02  0.78067867533E+00  0.11432049872E+02  0.51100000000E-03 0.  1.
        -12    1    3    3    0    0  0.17604810265E+02  0.10002167060E+02  0.21121570964E+02  0.29259074667E+02  0.00000000000E+00 0.  1.
</event>
<event>
 7    1  0.2580704E-010  0.4778727E+02  0.7816164E-02  0.1312668E+00
        -11   -1    0    0    0    0  0.00000000000E+00  0.00000000000E+00  0.45593999997E+02  0.45594000000E+02  0.51100000000E-03 0.  1.
         11   -1    0    0    0    0 -0.00000000000E+00 -0.00000000000E+00 -0.45593999997E+02  0.45594000000E+02  0.51100000000E-03 0. -1.
    9900012    2    1    2    0    0  0.16961309217E+01  0.40851733982E+02  0.14556172910E+02  0.47787271905E+02  0.20000003922E+02 0.  0.
         12    1    1    2    0    0 -0.16961309217E+01 -0.40851733982E+02 -0.14556172910E+02  0.43400728095E+02  0.00000000000E+00 0. -1.
         11    1    3    3    0    0  0.26483268691E+01  0.14037984201E+02 -0.30574225938E+01  0.14609122794E+02  0.51100000000E-03 0. -1.
        -11    1    3    3    0    0  0.35162705976E+01  0.12124872611E+02  0.63178109616E+01  0.14117061676E+02  0.51100000000E-03 0.  1.
         12    1    3    3    0    0 -0.44684665450E+01  0.14688877169E+02  0.11295784542E+02  0.19061087435E+02  0.00000000000E+00 0. -1.
</event>
<event>
 7    1  0.2580704E-010  0.4778726E+02  0.7816164E-02  0.1312668E+00
        -11   -1    0    0    0    0  0.00000000000E+00  0.00000000000E+00  0.45593999997E+02  0.45594000000E+02  0.51100000000E-03 0.  1.
         11   -1    0    0    0    0 -0.00000000000E+00 -0.00000000000E+00 -0.45593999997E+02  0.45594000000E+02  0.51100000000E-03 0. -1.
    9900012    2    1    2    0    0 -0.58176654554E+01  0.34556474054E+02  0.25605247849E+02  0.47787264432E+02  0.19999969853E+02 0.  0.
         12    1    1    2    0    0  0.58176654554E+01 -0.34556474054E+02 -0.25605247849E+02  0.43400735568E+02  0.00000000000E+00 0. -1.
         11    1    3    3    0    0 -0.31475775502E+00  0.29152071733E+01 -0.23463168769E+01  0.37553573006E+01  0.51100000000E-03 0. -1.
        -11    1    3    3    0    0 -0.63066337878E+01  0.83207154672E+01  0.11169510436E+02  0.15289404804E+02  0.51100000000E-03 0.  1.
        -12    1    3    3    0    0  0.80372608740E+00  0.23320551414E+02  0.16782054289E+02  0.28742502327E+02  0.00000000000E+00 0.  1.
</event>
<event>
 7    1  0.2580704E-010  0.4778724E+02  0.7816164E-02  0.1312668E+00
        -11   -1    0    0    0    0  0.00000000000E+00  0.00000000000E+00  0.45593999997E+02  0.45594000000E+02  0.51100000000E-03 0.  1.
         11   -1    0    0    0    0 -0.00000000000E+00 -0.00000000000E+00 -0.45593999997E+02  0.45594000000E+02  0.51100000000E-03 0. -1.
    9900012    2    1    2    0    0 -0.31480336294E+01 -0.29320339454E+01  0.43187025807E+02  0.47787238061E+02  0.19999849615E+02 0.  0.
         12    1    1    2    0    0  0.31480336294E+01  0.29320339454E+01 -0.43187025807E+02  0.43400761939E+02  0.00000000000E+00 0. -1.
         11    1    3    3    0    0 -0.48771508897E+01  0.17077807926E+01  0.70546763064E+01  0.87448026899E+01  0.51100000000E-03 0. -1.
        -11    1    3    3    0    0 -0.26582930856E+00 -0.26306203552E+01 -0.15143117585E+00  0.26483504935E+01  0.51100000000E-03 0.  1.
        -12    1    3    3    0    0  0.19949465689E+01 -0.20091943828E+01  0.36283780677E+02  0.36394084878E+02  0.00000000000E+00 0.  1.
</event>
<event>
 7    1  0.2580704E-010  0.4778727E+02  0.7816164E-02  0.1312668E+00
        -11   -1    0    0    0    0  0.00000000000E+00  0.00000000000E+00  0.45593999997E+02  0.45594000000E+02  0.51100000000E-03 0.  1.
         11   -1    0    0    0    0 -0.00000000000E+00 -0.00000000000E+00 -0.45593999997E+02  0.45594000000E+02  0.51100000000E-03 0. -1.
    9900012    2    1    2    0    0  0.18370010440E+02  0.37257689468E+02  0.12571022913E+02  0.47787270454E+02  0.19999997306E+02 0.  0.
         12    1    1    2    0    0 -0.18370010440E+02 -0.37257689468E+02 -0.12571022913E+02  0.43400729546E+02  0.00000000000E+00 0. -1.
         11    1    3    3    0    0  0.78810744097E+01  0.57966612523E+01 -0.17608118587E+01  0.99404765574E+01  0.51100000000E-03 0. -1.
        -11    1    3    3    0    0 -0.19235380419E+01  0.60673885124E+01  0.51576104479E+00  0.63858602925E+01  0.51100000000E-03 0.  1.
        -12    1    3    3    0    0  0.12412474072E+02  0.25393639703E+02  0.13816073727E+02  0.31460933604E+02  0.00000000000E+00 0.  1.
</event>
<event>
 7    1  0.2580704E-010  0.4778727E+02  0.7816164E-02  0.1312668E+00
        -11   -1    0    0    0    0  0.00000000000E+00  0.00000000000E+00  0.45593999997E+02  0.45594000000E+02  0.51100000000E-03 0. -1.
         11   -1    0    0    0    0 -0.00000000000E+00 -0.00000000000E+00 -0.45593999997E+02  0.45594000000E+02  0.51100000000E-03 0.  1.
    9900012    2    1    2    0    0  0.17765722349E+02  0.23043386462E+02 -0.32202556398E+02  0.47787272024E+02  0.20000004468E+02 0.  0.
         12    1    1    2    0    0 -0.17765722349E+02 -0.23043386462E+02  0.32202556398E+02  0.43400727976E+02  0.00000000000E+00 0. -1.
         11    1    3    3    0    0  0.16852952424E+01  0.14056183575E+02 -0.56410321851E+01  0.15239349104E+02  0.51100000000E-03 0. -1.
        -11    1    3    3    0    0  0.57182019246E+01  0.51561605194E+01 -0.12241018049E+02  0.14461201461E+02  0.51100000000E-03 0.  1.
         12    1    3    3    0    0  0.10362225182E+02  0.38310423680E+01 -0.14320506164E+02  0.18086721459E+02  0.00000000000E+00 0. -1.
</event>
<event>
 7    1  0.2580704E-010  0.4778726E+02  0.7816164E-02  0.1312668E+00
        -11   -1    0    0    0    0  0.00000000000E+00  0.00000000000E+00  0.45593999997E+02  0.45594000000E+02  0.51100000000E-03 0.  1.
         11   -1    0    0    0    0 -0.00000000000E+00 -0.00000000000E+00 -0.45593999997E+02  0.45594000000E+02  0.51100000000E-03 0. -1.
    9900012    2    1    2    0    0 -0.27048090167E+02  0.11488141808E+02  0.31938186273E+02  0.47787258920E+02  0.19999944719E+02 0.  0.
         12    1    1    2    0    0  0.27048090167E+02 -0.11488141808E+02 -0.31938186273E+02  0.43400741080E+02  0.00000000000E+00 0. -1.
         11    1    3    3    0    0 -0.21958464001E+02  0.95171283289E+01  0.21938765649E+02  0.32466279605E+02  0.51100000000E-03 0. -1.
        -11    1    3    3    0    0 -0.58335107298E+01 -0.17653063256E+01  0.97563414812E+01  0.11503580017E+02  0.51100000000E-03 0.  1.
         12    1    3    3    0    0  0.74388456360E+00  0.37363198050E+01  0.24307914275E+00  0.38173992978E+01  0.00000000000E+00 0. -1.
</event>
<event>
 7    1  0.2580704E-010  0.4778727E+02  0.7816164E-02  0.1312668E+00
        -11   -1    0    0    0    0  0.00000000000E+00  0.00000000000E+00  0.45593999997E+02  0.45594000000E+02  0.51100000000E-03 0.  1.
         11   -1    0    0    0    0 -0.00000000000E+00 -0.00000000000E+00 -0.45593999997E+02  0.45594000000E+02  0.51100000000E-03 0. -1.
    9900012    2    1    2    0    0  0.16387794946E+02  0.38813708654E+02  0.10419186448E+02  0.47787271332E+02  0.20000001313E+02 0.  0.
         12    1    1    2    0    0 -0.16387794946E+02 -0.38813708654E+02 -0.10419186448E+02  0.43400728668E+02  0.00000000000E+00 0. -1.
         11    1    3    3    0    0  0.84209577073E+01  0.11144439591E+02  0.40358911917E+01  0.14539583229E+02  0.51100000000E-03 0. -1.
        -11    1    3    3    0    0  0.61496314685E+00  0.95308593071E+01  0.94517157643E+01  0.13436904032E+02  0.51100000000E-03 0.  1.
         12    1    3    3    0    0  0.73518740919E+01  0.18138409755E+02 -0.30684205081E+01  0.19810784072E+02  0.00000000000E+00 0. -1.
</event>
<event>
 7    1  0.2580704E-010  0.4778727E+02  0.7816164E-02  0.1312668E+00
        -11   -1    0    0    0    0  0.00000000000E+00  0.00000000000E+00  0.45593999997E+02  0.45594000000E+02  0.51100000000E-03 0.  1.
         11   -1    0    0    0    0 -0.00000000000E+00 -0.00000000000E+00 -0.45593999997E+02  0.45594000000E+02  0.51100000000E-03 0. -1.
    9900012    2    1    2    0    0 -0.48090864929E+01  0.34480786829E+02  0.25914695044E+02  0.47787269678E+02  0.19999993770E+02 0.  0.
         12    1    1    2    0    0  0.48090864929E+01 -0.34480786829E+02 -0.25914695044E+02  0.43400730322E+02  0.00000000000E+00 0. -1.
         11    1    3    3    0    0  0.37691458204E+00  0.42664309356E+01  0.11333491797E+02  0.12115796883E+02  0.51100000000E-03 0. -1.
        -11    1    3    3    0    0  0.10405231001E+01  0.12755375820E+02  0.10817631074E+02  0.16757190783E+02  0.51100000000E-03 0.  1.
         12    1    3    3    0    0 -0.62265241751E+01  0.17458980074E+02  0.37635721722E+01  0.18914282012E+02  0.00000000000E+00 0. -1.
</event>
<event>
 7    1  0.2580704E-010  0.4778727E+02  0.7816164E-02  0.1312668E+00
        -11   -1    0    0    0    0  0.00000000000E+00  0.00000000000E+00  0.45593999997E+02  0.45594000000E+02  0.51100000000E-03 0.  1.
         11   -1    0    0    0    0 -0.00000000000E+00 -0.00000000000E+00 -0.45593999997E+02  0.45594000000E+02  0.51100000000E-03 0. -1.
    9900012    2    1    2    0    0  0.32868067512E+02 -0.15954025243E+02  0.23426108978E+02  0.47787269991E+02  0.19999995198E+02 0.  0.
         12    1    1    2    0    0 -0.32868067512E+02  0.15954025243E+02 -0.23426108978E+02  0.43400730009E+02  0.00000000000E+00 0. -1.
         11    1    3    3    0    0  0.19196693129E+01 -0.46920828275E+01  0.60622853771E+01  0.79026625757E+01  0.51100000000E-03 0. -1.
        -11    1    3    3    0    0  0.10081718626E+02  0.96442116266E+00  0.10840893907E+02  0.14835637486E+02  0.51100000000E-03 0.  1.
         12    1    3    3    0    0  0.20866679573E+02 -0.12226363578E+02  0.65229296939E+01  0.25048969930E+02  0.00000000000E+00 0. -1.
</event>
<event>
 7    1  0.7148742E-010  0.4778728E+02  0.7816164E-02  0.1312668E+00
        -11   -1    0    0    0    0  0.00000000000E+00  0.00000000000E+00  0.45593999997E+02  0.45594000000E+02  0.51100000000E-03 0. -1.
         11   -1    0    0    0    0 -0.00000000000E+00 -0.00000000000E+00 -0.45593999997E+02  0.45594000000E+02  0.51100000000E-03 0.  1.
    9900012    2    1    2    0    0 -0.40743885059E+01 -0.29968365894E+02 -0.31127464373E+02  0.47787278412E+02  0.20000033594E+02 0.  0.
         12    1    1    2    0    0  0.40743885059E+01  0.29968365894E+02  0.31127464373E+02  0.43400721588E+02  0.00000000000E+00 0. -1.
         11    1    3    3    0    0 -0.13487091484E+01  0.77095723047E+00  0.41544461427E+00  0.16081000923E+01  0.51100000000E-03 0. -1.
        -11    1    3    3    0    0 -0.80497623105E+01 -0.16228329274E+02 -0.14799072783E+02  0.23391663040E+02  0.51100000000E-03 0.  1.
        -12    1    3    3    0    0  0.53240829530E+01 -0.14510993850E+02 -0.16743836204E+02  0.22787515280E+02  0.00000000000E+00 0.  1.
</event>
<event>
 7    1  0.2580704E-010  0.4778726E+02  0.7816164E-02  0.1312668E+00
        -11   -1    0    0    0    0  0.00000000000E+00  0.00000000000E+00  0.45593999997E+02  0.45594000000E+02  0.51100000000E-03 0.  1.
         11   -1    0    0    0    0 -0.00000000000E+00 -0.00000000000E+00 -0.45593999997E+02  0.45594000000E+02  0.51100000000E-03 0. -1.
    9900012    2    1    2    0    0 -0.49950304589E+01 -0.42456052485E+02  0.74938157912E+01  0.47787262713E+02  0.19999962015E+02 0.  0.
         12    1    1    2    0    0  0.49950304589E+01  0.42456052485E+02 -0.74938157912E+01  0.43400737287E+02  0.00000000000E+00 0. -1.
         11    1    3    3    0    0  0.11117845310E+00 -0.94292756773E+01  0.84445674487E+01  0.12658369567E+02  0.51100000000E-03 0.  1.
        -11    1    3    3    0    0  0.21092763688E+01 -0.12360646212E+01  0.50802692605E+00  0.24969970297E+01  0.51100000000E-03 0. -1.
         12    1    3    3    0    0 -0.72154852808E+01 -0.31790712187E+02 -0.14587785835E+01  0.32631896116E+02  0.00000000000E+00 0. -1.
</event>
<event>
 7    1  0.2580704E-010  0.4778727E+02  0.7816164E-02  0.1312668E+00
        -11   -1    0    0    0    0  0.00000000000E+00  0.00000000000E+00  0.45593999997E+02  0.45594000000E+02  0.51100000000E-03 0. -1.
         11   -1    0    0    0    0 -0.00000000000E+00 -0.00000000000E+00 -0.45593999997E+02  0.45594000000E+02  0.51100000000E-03 0.  1.
    9900012    2    1    2    0    0  0.34558399756E+02  0.10732360166E+02 -0.23961568214E+02  0.47787270747E+02  0.19999998645E+02 0.  0.
         12    1    1    2    0    0 -0.34558399756E+02 -0.10732360166E+02  0.23961568214E+02  0.43400729253E+02  0.00000000000E+00 0. -1.
         11    1    3    3    0    0  0.34203179584E+01  0.46694110286E+00 -0.57003879895E+01  0.66641602938E+01  0.51100000000E-03 0.  1.
        -11    1    3    3    0    0  0.25724756995E+02  0.26832932466E+01 -0.18506927211E+02  0.31803608917E+02  0.51100000000E-03 0. -1.
         12    1    3    3    0    0  0.54133248026E+01  0.75821258162E+01  0.24574698643E+00  0.93195015367E+01  0.00000000000E+00 0. -1.
</event>
<event>
 7    1  0.2580704E-010  0.4778727E+02  0.7816164E-02  0.1312668E+00
        -11   -1    0    0    0    0  0.00000000000E+00  0.00000000000E+00  0.45593999997E+02  0.45594000000E+02  0.51100000000E-03 0. -1.
         11   -1    0    0    0    0 -0.00000000000E+00 -0.00000000000E+00 -0.45593999997E+02  0.45594000000E+02  0.51100000000E-03 0.  1.
    9900012    2    1    2    0    0  0.22437932874E+02 -0.13296035417E+02  0.34689740651E+02  0.47787268487E+02  0.19999988338E+02 0.  0.
         12    1    1    2    0    0 -0.22437932874E+02  0.13296035417E+02 -0.34689740651E+02  0.43400731513E+02  0.00000000000E+00 0. -1.
         11    1    3    3    0    0  0.21359143958E+01  0.89498555112E+00  0.50281428254E+00  0.23697999719E+01  0.51100000000E-03 0. -1.
        -11    1    3    3    0    0  0.11818766984E+02 -0.24206670000E+01  0.26226751828E+02  0.28868415153E+02  0.51100000000E-03 0.  1.
         12    1    3    3    0    0  0.84832514944E+01 -0.11770353968E+02  0.79601745399E+01  0.16549053362E+02  0.00000000000E+00 0. -1.
</event>
<event>
 7    1  0.2580704E-010  0.4778728E+02  0.7816164E-02  0.1312668E+00
        -11   -1    0    0    0    0  0.00000000000E+00  0.00000000000E+00  0.45593999997E+02  0.45594000000E+02  0.51100000000E-03 0.  1.
         11   -1    0    0    0    0 -0.00000000000E+00 -0.00000000000E+00 -0.45593999997E+02  0.45594000000E+02  0.51100000000E-03 0. -1.
    9900012    2    1    2    0    0 -0.21217242185E+02  0.34743374742E+02  0.15044890855E+02  0.47787283471E+02  0.20000056658E+02 0.  0.
         12    1    1    2    0    0  0.21217242185E+02 -0.34743374742E+02 -0.15044890855E+02  0.43400716529E+02  0.00000000000E+00 0. -1.
         11    1    3    3    0    0 -0.44898699286E+01  0.20926384857E+01  0.97834347552E+00  0.50492795550E+01  0.51100000000E-03 0. -1.
        -11    1    3    3    0    0 -0.13699603973E+02  0.31579487184E+02  0.72149188172E+01  0.35170985395E+02  0.51100000000E-03 0.  1.
         12    1    3    3    0    0 -0.30277682828E+01  0.10712490722E+01  0.68516285622E+01  0.75670185215E+01  0.00000000000E+00 0. -1.
</event>
<event>
 7    1  0.2580704E-010  0.4778727E+02  0.7816164E-02  0.1312668E+00
        -11   -1    0    0    0    0  0.00000000000E+00  0.00000000000E+00  0.45593999997E+02  0.45594000000E+02  0.51100000000E-03 0. -1.
         11   -1    0    0    0    0 -0.00000000000E+00 -0.00000000000E+00 -0.45593999997E+02  0.45594000000E+02  0.51100000000E-03 0.  1.
    9900012    2    1    2    0    0  0.30877771510E+02 -0.29833845722E+02 -0.63346728381E+01  0.47787271850E+02  0.20000003672E+02 0.  0.
         12    1    1    2    0    0 -0.30877771510E+02  0.29833845722E+02  0.63346728381E+01  0.43400728150E+02  0.00000000000E+00 0. -1.
         11    1    3    3    0    0  0.21616474885E+02 -0.16361199431E+02 -0.78551280830E+01  0.28225234645E+02  0.51100000000E-03 0. -1.
        -11    1    3    3    0    0  0.60488694702E+01 -0.56535935323E+00  0.15137947333E+01  0.62609925588E+01  0.51100000000E-03 0.  1.
         12    1    3    3    0    0  0.32124271546E+01 -0.12907286938E+02  0.66605115723E-02  0.13301044646E+02  0.00000000000E+00 0. -1.
</event>
<event>
 7    1  0.2580704E-010  0.4778727E+02  0.7816164E-02  0.1312668E+00
        -11   -1    0    0    0    0  0.00000000000E+00  0.00000000000E+00  0.45593999997E+02  0.45594000000E+02  0.51100000000E-03 0. -1.
         11   -1    0    0    0    0 -0.00000000000E+00 -0.00000000000E+00 -0.45593999997E+02  0.45594000000E+02  0.51100000000E-03 0.  1.
    9900012    2    1    2    0    0  0.25936285975E+02 -0.34773946729E+02  0.13056925211E+01  0.47787272653E+02  0.20000007335E+02 0.  0.
         12    1    1    2    0    0 -0.25936285975E+02  0.34773946729E+02 -0.13056925211E+01  0.43400727347E+02  0.00000000000E+00 0. -1.
         11    1    3    3    0    0  0.17199826043E+02 -0.11810645217E+02 -0.18953070981E+01  0.20950359080E+02  0.51100000000E-03 0. -1.
        -11    1    3    3    0    0  0.83415482005E+01 -0.10207787054E+02 -0.14324381159E+01  0.13260174288E+02  0.51100000000E-03 0.  1.
        -12    1    3    3    0    0  0.39491173104E+00 -0.12755514458E+02  0.46334377351E+01  0.13576739285E+02  0.00000000000E+00 0.  1.
</event>
<event>
 7    1  0.2580704E-010  0.4778727E+02  0.7816164E-02  0.1312668E+00
        -11   -1    0    0    0    0  0.00000000000E+00  0.00000000000E+00  0.45593999997E+02  0.45594000000E+02  0.51100000000E-03 0.  1.
         11   -1    0    0    0    0 -0.00000000000E+00 -0.00000000000E+00 -0.45593999997E+02  0.45594000000E+02  0.51100000000E-03 0. -1.
    9900012    2    1    2    0    0 -0.30041031429E+02 -0.27394393499E+02  0.15189040981E+02  0.47787270392E+02  0.19999997027E+02 0.  0.
         12    1    1    2    0    0  0.30041031429E+02  0.27394393499E+02 -0.15189040981E+02  0.43400729608E+02  0.00000000000E+00 0. -1.
         11    1    3    3    0    0 -0.98903940303E+01 -0.29988306712E+01 -0.15643471983E+01  0.10452753794E+02  0.51100000000E-03 0. -1.
        -11    1    3    3    0    0 -0.98484314131E+01 -0.13584482992E+02  0.30247845869E+01  0.17049313813E+02  0.51100000000E-03 0.  1.
         12    1    3    3    0    0 -0.10302205986E+02 -0.10811079837E+02  0.13728603593E+02  0.20285202785E+02  0.00000000000E+00 0. -1.
</event>
<event>
 7    1  0.2580704E-010  0.4778727E+02  0.7816164E-02  0.1312668E+00
        -11   -1    0    0    0    0  0.00000000000E+00  0.00000000000E+00  0.45593999997E+02  0.45594000000E+02  0.51100000000E-03 0. -1.
         11   -1    0    0    0    0 -0.00000000000E+00 -0.00000000000E+00 -0.45593999997E+02  0.45594000000E+02  0.51100000000E-03 0.  1.
    9900012    2    1    2    0    0  0.14302278723E+02  0.40099073594E+02 -0.84340184564E+01  0.47787267897E+02  0.19999985650E+02 0.  0.
         12    1    1    2    0    0 -0.14302278723E+02 -0.40099073594E+02  0.84340184564E+01  0.43400732103E+02  0.00000000000E+00 0. -1.
         11    1    3    3    0    0  0.11011621550E+01  0.84908410022E+01  0.35914913886E+01  0.92847051473E+01  0.51100000000E-03 0. -1.
        -11    1    3    3    0    0  0.71656824149E+01  0.26101618446E+02 -0.45864487027E+01  0.27453178358E+02  0.51100000000E-03 0.  1.
         12    1    3    3    0    0  0.60354341535E+01  0.55066141451E+01 -0.74390611422E+01  0.11049384392E+02  0.00000000000E+00 0. -1.
</event>
<event>
 7    1  0.2580704E-010  0.4778724E+02  0.7816164E-02  0.1312668E+00
        -11   -1    0    0    0    0  0.00000000000E+00  0.00000000000E+00  0.45593999997E+02  0.45594000000E+02  0.51100000000E-03 0. -1.
         11   -1    0    0    0    0 -0.00000000000E+00 -0.00000000000E+00 -0.45593999997E+02  0.45594000000E+02  0.51100000000E-03 0.  1.
    9900012    2    1    2    0    0 -0.11269203025E+02  0.26364036509E+02 -0.32581723991E+02  0.47787238531E+02  0.19999851756E+02 0.  0.
         12    1    1    2    0    0  0.11269203025E+02 -0.26364036509E+02  0.32581723991E+02  0.43400761469E+02  0.00000000000E+00 0. -1.
         11    1    3    3    0    0 -0.11159287661E+01  0.32342749554E+01  0.73300467760E-02  0.34213864863E+01  0.51100000000E-03 0. -1.
        -11    1    3    3    0    0 -0.78844602371E+01  0.25435579739E+02 -0.30616008222E+02  0.40576759230E+02  0.51100000000E-03 0.  1.
        -12    1    3    3    0    0 -0.22688140218E+01 -0.23058181847E+01 -0.19730458156E+01  0.37890928145E+01  0.00000000000E+00 0.  1.
</event>
<event>
 7    1  0.2580704E-010  0.4778727E+02  0.7816164E-02  0.1312668E+00
        -11   -1    0    0    0    0  0.00000000000E+00  0.00000000000E+00  0.45593999997E+02  0.45594000000E+02  0.51100000000E-03 0.  1.
         11   -1    0    0    0    0 -0.00000000000E+00 -0.00000000000E+00 -0.45593999997E+02  0.45594000000E+02  0.51100000000E-03 0. -1.
    9900012    2    1    2    0    0  0.17302587103E+02  0.31566679028E+02  0.24244351231E+02  0.47787270607E+02  0.19999998004E+02 0.  0.
         12    1    1    2    0    0 -0.17302587103E+02 -0.31566679028E+02 -0.24244351231E+02  0.43400729393E+02  0.00000000000E+00 0. -1.
         11    1    3    3    0    0  0.52057996093E-01  0.71948410561E+01  0.17144669185E+01  0.73964751695E+01  0.51100000000E-03 0. -1.
        -11    1    3    3    0    0 -0.15291377556E+01  0.84882882739E+01  0.83266124615E+01  0.11988401705E+02  0.51100000000E-03 0.  1.
        -12    1    3    3    0    0  0.18779666862E+02  0.15883549698E+02  0.14203271851E+02  0.28402393732E+02  0.00000000000E+00 0.  1.
</event>
<event>
 7    1  0.2580704E-010  0.4778727E+02  0.7816164E-02  0.1312668E+00
        -11   -1    0    0    0    0  0.00000000000E+00  0.00000000000E+00  0.45593999997E+02  0.45594000000E+02  0.51100000000E-03 0. -1.
         11   -1    0    0    0    0 -0.00000000000E+00 -0.00000000000E+00 -0.45593999997E+02  0.45594000000E+02  0.51100000000E-03 0.  1.
    9900012    2    1    2    0    0 -0.19875860938E+01  0.21434143691E+02 -0.37686211031E+02  0.47787268253E+02  0.19999987274E+02 0.  0.
         12    1    1    2    0    0  0.19875860938E+01 -0.21434143691E+02  0.37686211031E+02  0.43400731747E+02  0.00000000000E+00 0. -1.
         11    1    3    3    0    0  0.41937159738E+01  0.14135311249E+02 -0.24075634942E+02  0.28231728177E+02  0.51100000000E-03 0. -1.
        -11    1    3    3    0    0 -0.19135580060E+01  0.84885846480E+01 -0.54430919880E+01  0.10263772417E+02  0.51100000000E-03 0.  1.
         12    1    3    3    0    0 -0.42677440617E+01 -0.11897522056E+01 -0.81674841014E+01  0.92917676593E+01  0.00000000000E+00 0. -1.
</event>
<event>
 7    1  0.2580704E-010  0.4778727E+02  0.7816164E-02  0.1312668E+00
        -11   -1    0    0    0    0  0.00000000000E+00  0.00000000000E+00  0.45593999997E+02  0.45594000000E+02  0.51100000000E-03 0.  1.
         11   -1    0    0    0    0 -0.00000000000E+00 -0.00000000000E+00 -0.45593999997E+02  0.45594000000E+02  0.51100000000E-03 0. -1.
    9900012    2    1    2    0    0  0.24433551143E+02  0.16527884297E+02  0.31834796998E+02  0.47787266358E+02  0.19999978631E+02 0.  0.
         12    1    1    2    0    0 -0.24433551143E+02 -0.16527884297E+02 -0.31834796998E+02  0.43400733642E+02  0.00000000000E+00 0. -1.
         11    1    3    3    0    0  0.24574807925E+01  0.31980589634E+01  0.11343434736E+02  0.12039115618E+02  0.51100000000E-03 0. -1.
        -11    1    3    3    0    0  0.19391729358E+02  0.91460166794E+01  0.21884588895E+02  0.30636971456E+02  0.51100000000E-03 0.  1.
         12    1    3    3    0    0  0.25843409917E+01  0.41838086545E+01 -0.13932266335E+01  0.51111792838E+01  0.00000000000E+00 0. -1.
</event>
<event>
 7    1  0.2580704E-010  0.4778727E+02  0.7816164E-02  0.1312668E+00
        -11   -1    0    0    0    0  0.00000000000E+00  0.00000000000E+00  0.45593999997E+02  0.45594000000E+02  0.51100000000E-03 0.  1.
         11   -1    0    0    0    0 -0.00000000000E+00 -0.00000000000E+00 -0.45593999997E+02  0.45594000000E+02  0.51100000000E-03 0. -1.
    9900012    2    1    2    0    0  0.31573437850E+02  0.21007781968E+02  0.21104845722E+02  0.47787269663E+02  0.19999993700E+02 0.  0.
         12    1    1    2    0    0 -0.31573437850E+02 -0.21007781968E+02 -0.21104845722E+02  0.43400730337E+02  0.00000000000E+00 0. -1.
         11    1    3    3    0    0  0.16653857251E+02  0.10206898045E+02  0.81500276397E+01  0.21164939873E+02  0.51100000000E-03 0. -1.
        -11    1    3    3    0    0 -0.24246386213E+01 -0.42069546553E+00  0.23447722029E+01  0.33990901817E+01  0.51100000000E-03 0.  1.
        -12    1    3    3    0    0  0.17344219220E+02  0.11221579388E+02  0.10610045880E+02  0.23223239608E+02  0.00000000000E+00 0.  1.
</event>
<event>
 7    1  0.2580704E-010  0.4778727E+02  0.7816164E-02  0.1312668E+00
        -11   -1    0    0    0    0  0.00000000000E+00  0.00000000000E+00  0.45593999997E+02  0.45594000000E+02  0.51100000000E-03 0. -1.
         11   -1    0    0    0    0 -0.00000000000E+00 -0.00000000000E+00 -0.45593999997E+02  0.45594000000E+02  0.51100000000E-03 0.  1.
    9900012    2    1    2    0    0  0.14042345787E+02 -0.41065724924E+02 -0.20450203846E+00  0.47787273511E+02  0.20000011245E+02 0.  0.
         12    1    1    2    0    0 -0.14042345787E+02  0.41065724924E+02  0.20450203846E+00  0.43400726489E+02  0.00000000000E+00 0. -1.
         11    1    3    3    0    0 -0.29765788155E+01 -0.95219368705E+01  0.30609055566E+01  0.10435346008E+02  0.51100000000E-03 0. -1.
        -11    1    3    3    0    0 -0.22606095674E-01  0.20429781925E+00  0.10425585070E+01  0.10626274682E+01  0.51100000000E-03 0.  1.
        -12    1    3    3    0    0  0.17041530698E+02 -0.31748085872E+02 -0.43079661020E+01  0.36289300035E+02  0.00000000000E+00 0.  1.
</event>
<event>
 7    1  0.2580704E-010  0.4778726E+02  0.7816164E-02  0.1312668E+00
        -11   -1    0    0    0    0  0.00000000000E+00  0.00000000000E+00  0.45593999997E+02  0.45594000000E+02  0.51100000000E-03 0.  1.
         11   -1    0    0    0    0 -0.00000000000E+00 -0.00000000000E+00 -0.45593999997E+02  0.45594000000E+02  0.51100000000E-03 0. -1.
    9900012    2    1    2    0    0  0.37263623428E+02  0.21741386731E+02 -0.47284719847E+01  0.47787262964E+02  0.19999963160E+02 0.  0.
         12    1    1    2    0    0 -0.37263623428E+02 -0.21741386731E+02  0.47284719847E+01  0.43400737036E+02  0.00000000000E+00 0. -1.
         11    1    3    3    0    0  0.16624921621E+02  0.93944743509E+01 -0.60603358720E+01  0.20034266604E+02  0.51100000000E-03 0. -1.
        -11    1    3    3    0    0  0.35757510743E+01  0.39219528584E+01 -0.53964566082E+01  0.75689797301E+01  0.51100000000E-03 0.  1.
         12    1    3    3    0    0  0.17062950732E+02  0.84249595214E+01  0.67283204955E+01  0.20184016630E+02  0.00000000000E+00 0. -1.
</event>
<event>
 7    1  0.2580704E-010  0.4778727E+02  0.7816164E-02  0.1312668E+00
        -11   -1    0    0    0    0  0.00000000000E+00  0.00000000000E+00  0.45593999997E+02  0.45594000000E+02  0.51100000000E-03 0.  1.
         11   -1    0    0    0    0 -0.00000000000E+00 -0.00000000000E+00 -0.45593999997E+02  0.45594000000E+02  0.51100000000E-03 0. -1.
    9900012    2    1    2    0    0 -0.65147042018E+01  0.33871462429E+02  0.26342089929E+02  0.47787273742E+02  0.20000012301E+02 0.  0.
         12    1    1    2    0    0  0.65147042018E+01 -0.33871462429E+02 -0.26342089929E+02  0.43400726258E+02  0.00000000000E+00 0. -1.
         11    1    3    3    0    0 -0.31981136929E+01  0.70746409131E+00 -0.96843876176E+00  0.34155981218E+01  0.51100000000E-03 0. -1.
        -11    1    3    3    0    0 -0.43120617215E+01  0.45614327432E+01  0.60612588868E+01  0.87257896213E+01  0.51100000000E-03 0.  1.
        -12    1    3    3    0    0  0.99547121266E+00  0.28602565594E+02  0.21249269803E+02  0.35645885999E+02  0.00000000000E+00 0.  1.
</event>
<event>
 7    1  0.2580704E-010  0.4778728E+02  0.7816164E-02  0.1312668E+00
        -11   -1    0    0    0    0  0.00000000000E+00  0.00000000000E+00  0.45593999997E+02  0.45594000000E+02  0.51100000000E-03 0. -1.
         11   -1    0    0    0    0 -0.00000000000E+00 -0.00000000000E+00 -0.45593999997E+02  0.45594000000E+02  0.51100000000E-03 0.  1.
    9900012    2    1    2    0    0  0.10102855407E+02 -0.37208771191E+02 -0.19926425120E+02  0.47787276976E+02  0.20000027045E+02 0.  0.
         12    1    1    2    0    0 -0.10102855407E+02  0.37208771191E+02  0.19926425120E+02  0.43400723024E+02  0.00000000000E+00 0. -1.
         11    1    3    3    0    0  0.24436119137E+01 -0.87398369688E+01 -0.51567796183E+01  0.10437833382E+02  0.51100000000E-03 0. -1.
        -11    1    3    3    0    0  0.82253801436E+01 -0.30513077637E+02 -0.11872572961E+02  0.33758891782E+02  0.51100000000E-03 0.  1.
         12    1    3    3    0    0 -0.56613664995E+00  0.20441434144E+01 -0.28970725412E+01  0.35905518119E+01  0.00000000000E+00 0. -1.
</event>
<event>
 7    1  0.2580704E-010  0.4778728E+02  0.7816164E-02  0.1312668E+00
        -11   -1    0    0    0    0  0.00000000000E+00  0.00000000000E+00  0.45593999997E+02  0.45594000000E+02  0.51100000000E-03 0.  1.
         11   -1    0    0    0    0 -0.00000000000E+00 -0.00000000000E+00 -0.45593999997E+02  0.45594000000E+02  0.51100000000E-03 0. -1.
    9900012    2    1    2    0    0  0.14061362496E+02  0.25459660520E+02  0.32213454111E+02  0.47787275872E+02  0.20000022011E+02 0.  0.
         12    1    1    2    0    0 -0.14061362496E+02 -0.25459660520E+02 -0.32213454111E+02  0.43400724128E+02  0.00000000000E+00 0. -1.
         11    1    3    3    0    0 -0.12531213204E+01 -0.39329504131E+00  0.77701740649E+00  0.15260243590E+01  0.51100000000E-03 0. -1.
        -11    1    3    3    0    0  0.38161560953E+01  0.84614166235E+01  0.95432359156E+00  0.93310959913E+01  0.51100000000E-03 0.  1.
        -12    1    3    3    0    0  0.11498327721E+02  0.17391538938E+02  0.30482113113E+02  0.36930155522E+02  0.00000000000E+00 0.  1.
</event>
<event>
 7    1  0.2580704E-010  0.4778726E+02  0.7816164E-02  0.1312668E+00
        -11   -1    0    0    0    0  0.00000000000E+00  0.00000000000E+00  0.45593999997E+02  0.45594000000E+02  0.51100000000E-03 0.  1.
         11   -1    0    0    0    0 -0.00000000000E+00 -0.00000000000E+00 -0.45593999997E+02  0.45594000000E+02  0.51100000000E-03 0. -1.
    9900012    2    1    2    0    0  0.25047474181E+02 -0.57695307337E+01  0.34970855130E+02  0.47787260879E+02  0.19999953653E+02 0.  0.
         12    1    1    2    0    0 -0.25047474181E+02  0.57695307337E+01 -0.34970855130E+02  0.43400739121E+02  0.00000000000E+00 0. -1.
         11    1    3    3    0    0  0.86257479796E+01 -0.94714905854E+00  0.21014291510E+02  0.22735458374E+02  0.51100000000E-03 0. -1.
        -11    1    3    3    0    0  0.12077115747E+02  0.97189530903E+00  0.12959682218E+02  0.17741326577E+02  0.51100000000E-03 0.  1.
         12    1    3    3    0    0  0.43446104540E+01 -0.57942769841E+01  0.99688140143E+00  0.73104759281E+01  0.00000000000E+00 0. -1.
</event>
<event>
 7    1  0.2580704E-010  0.4778727E+02  0.7816164E-02  0.1312668E+00
        -11   -1    0    0    0    0  0.00000000000E+00  0.00000000000E+00  0.45593999997E+02  0.45594000000E+02  0.51100000000E-03 0. -1.
         11   -1    0    0    0    0 -0.00000000000E+00 -0.00000000000E+00 -0.45593999997E+02  0.45594000000E+02  0.51100000000E-03 0.  1.
    9900012    2    1    2    0    0 -0.43128864612E+02 -0.32469951581E+01 -0.36030170488E+01  0.47787266456E+02  0.19999979081E+02 0.  0.
         12    1    1    2    0    0  0.43128864612E+02  0.32469951581E+01  0.36030170488E+01  0.43400733544E+02  0.00000000000E+00 0. -1.
         11    1    3    3    0    0 -0.74718183655E+01 -0.10451899935E+01 -0.27424474627E+01  0.80275469576E+01  0.51100000000E-03 0.  1.
        -11    1    3    3    0    0 -0.31935023072E+02 -0.62209336055E+01 -0.49687596713E+01  0.32912524766E+02  0.51100000000E-03 0. -1.
         12    1    3    3    0    0 -0.37220231745E+01  0.40191284409E+01  0.41081900852E+01  0.68471947330E+01  0.00000000000E+00 0. -1.
</event>
<event>
 7    1  0.2580704E-010  0.4778727E+02  0.7816164E-02  0.1312668E+00
        -11   -1    0    0    0    0  0.00000000000E+00  0.00000000000E+00  0.45593999997E+02  0.45594000000E+02  0.51100000000E-03 0.  1.
         11   -1    0    0    0    0 -0.00000000000E+00 -0.00000000000E+00 -0.45593999997E+02  0.45594000000E+02  0.51100000000E-03 0. -1.
    9900012    2    1    2    0    0 -0.25535554197E+02 -0.81300498543E+01  0.34138850458E+02  0.47787270175E+02  0.19999996034E+02 0.  0.
         12    1    1    2    0    0  0.25535554197E+02  0.81300498543E+01 -0.34138850458E+02  0.43400729825E+02  0.00000000000E+00 0. -1.
         11    1    3    3    0    0  0.22226275100E+00  0.68471496166E+00 -0.10644934603E+01  0.12850610481E+01  0.51100000000E-03 0. -1.
        -11    1    3    3    0    0 -0.14776544580E+02 -0.11189732048E+02  0.26257739265E+02  0.32140710082E+02  0.51100000000E-03 0.  1.
         12    1    3    3    0    0 -0.10981272368E+02  0.23749672325E+01  0.89456046534E+01  0.14361499044E+02  0.00000000000E+00 0. -1.
</event>
<event>
 7    1  0.2580704E-010  0.4778728E+02  0.7816164E-02  0.1312668E+00
        -11   -1    0    0    0    0  0.00000000000E+00  0.00000000000E+00  0.45593999997E+02  0.45594000000E+02  0.51100000000E-03 0. -1.
         11   -1    0    0    0    0 -0.00000000000E+00 -0.00000000000E+00 -0.45593999997E+02  0.45594000000E+02  0.51100000000E-03 0.  1.
    9900012    2    1    2    0    0  0.23015644066E+02 -0.22827128938E+02 -0.28858709031E+02  0.47787276801E+02  0.20000026245E+02 0.  0.
         12    1    1    2    0    0 -0.23015644066E+02  0.22827128938E+02  0.28858709031E+02  0.43400723199E+02  0.00000000000E+00 0. -1.
         11    1    3    3    0    0  0.69300341736E+01 -0.74707149004E+01 -0.75913095510E+01  0.12706885367E+02  0.51100000000E-03 0.  1.
        -11    1    3    3    0    0  0.78108721110E+01  0.17024236770E+01 -0.24344406311E+01  0.83567021580E+01  0.51100000000E-03 0. -1.
         12    1    3    3    0    0  0.82747377812E+01 -0.17058837714E+02 -0.18832958849E+02  0.26723689276E+02  0.00000000000E+00 0. -1.
</event>
<event>
 7    1  0.2580704E-010  0.4778727E+02  0.7816164E-02  0.1312668E+00
        -11   -1    0    0    0    0  0.00000000000E+00  0.00000000000E+00  0.45593999997E+02  0.45594000000E+02  0.51100000000E-03 0. -1.
         11   -1    0    0    0    0 -0.00000000000E+00 -0.00000000000E+00 -0.45593999997E+02  0.45594000000E+02  0.51100000000E-03 0.  1.
    9900012    2    1    2    0    0  0.27303212899E+02 -0.19027935372E+02 -0.27858489381E+02  0.47787272014E+02  0.20000004421E+02 0.  0.
         12    1    1    2    0    0 -0.27303212899E+02  0.19027935372E+02  0.27858489381E+02  0.43400727986E+02  0.00000000000E+00 0. -1.
         11    1    3    3    0    0  0.29731240162E+01 -0.69567507771E+00 -0.19025854836E+01  0.35976745285E+01  0.51100000000E-03 0. -1.
        -11    1    3    3    0    0  0.98710102846E+01 -0.15428735820E+02 -0.57961893508E+01  0.19211417030E+02  0.51100000000E-03 0.  1.
        -12    1    3    3    0    0  0.14459078598E+02 -0.29035244740E+01 -0.20159714547E+02  0.24978180455E+02  0.00000000000E+00 0.  1.
</event>
<event>
 7    1  0.2580704E-010  0.4778727E+02  0.7816164E-02  0.1312668E+00
        -11   -1    0    0    0    0  0.00000000000E+00  0.00000000000E+00  0.45593999997E+02  0.45594000000E+02  0.51100000000E-03 0.  1.
         11   -1    0    0    0    0 -0.00000000000E+00 -0.00000000000E+00 -0.45593999997E+02  0.45594000000E+02  0.51100000000E-03 0. -1.
    9900012    2    1    2    0    0  0.46324377667E+01 -0.16219775708E+02  0.39988532822E+02  0.47787270041E+02  0.19999995426E+02 0.  0.
         12    1    1    2    0    0 -0.46324377667E+01  0.16219775708E+02 -0.39988532822E+02  0.43400729959E+02  0.00000000000E+00 0. -1.
         11    1    3    3    0    0 -0.18383407263E+01  0.38928195886E+01  0.10204275285E+02  0.11075232518E+02  0.51100000000E-03 0. -1.
        -11    1    3    3    0    0 -0.44627672623E+00 -0.23577469965E+01  0.30059614303E+01  0.38462888863E+01  0.51100000000E-03 0.  1.
        -12    1    3    3    0    0  0.69170552193E+01 -0.17754848300E+02  0.26778296107E+02  0.32865748637E+02  0.00000000000E+00 0.  1.
</event>
<event>
 7    1  0.2580704E-010  0.4778726E+02  0.7816164E-02  0.1312668E+00
        -11   -1    0    0    0    0  0.00000000000E+00  0.00000000000E+00  0.45593999997E+02  0.45594000000E+02  0.51100000000E-03 0.  1.
         11   -1    0    0    0    0 -0.00000000000E+00 -0.00000000000E+00 -0.45593999997E+02  0.45594000000E+02  0.51100000000E-03 0. -1.
    9900012    2    1    2    0    0  0.15785909311E+02 -0.30438473749E+02  0.26606920758E+02  0.47787264416E+02  0.19999969780E+02 0.  0.
         12    1    1    2    0    0 -0.15785909311E+02  0.30438473749E+02 -0.26606920758E+02  0.43400735584E+02  0.00000000000E+00 0. -1.
         11    1    3    3    0    0  0.11704965996E+02 -0.41726726848E+01  0.50205570038E+01  0.13402366179E+02  0.51100000000E-03 0. -1.
        -11    1    3    3    0    0  0.20737847802E+01 -0.61056242434E+01  0.42774210530E+01  0.77379300748E+01  0.51100000000E-03 0.  1.
         12    1    3    3    0    0  0.20071585350E+01 -0.20160176821E+02  0.17308942701E+02  0.26646968163E+02  0.00000000000E+00 0. -1.
</event>
<event>
 7    1  0.2580704E-010  0.4778729E+02  0.7816164E-02  0.1312668E+00
        -11   -1    0    0    0    0  0.00000000000E+00  0.00000000000E+00  0.45593999997E+02  0.45594000000E+02  0.51100000000E-03 0.  1.
         11   -1    0    0    0    0 -0.00000000000E+00 -0.00000000000E+00 -0.45593999997E+02  0.45594000000E+02  0.51100000000E-03 0. -1.
    9900012    2    1    2    0    0 -0.78432573123E+01  0.98943053927E+01  0.41523579496E+02  0.47787290113E+02  0.20000086943E+02 0.  0.
         12    1    1    2    0    0  0.78432573123E+01 -0.98943053927E+01 -0.41523579496E+02  0.43400709887E+02  0.00000000000E+00 0. -1.
         11    1    3    3    0    0 -0.83946707917E+00 -0.53259271423E+01  0.15309760351E+02  0.16231419136E+02  0.51100000000E-03 0. -1.
        -11    1    3    3    0    0 -0.57386243752E+00  0.71287268916E+01  0.92609770935E+01  0.11701015434E+02  0.51100000000E-03 0.  1.
        -12    1    3    3    0    0 -0.64299277956E+01  0.80915056434E+01  0.16952842051E+02  0.19854855544E+02  0.00000000000E+00 0.  1.
</event>
<event>
 7    1  0.2580704E-010  0.4778727E+02  0.7816164E-02  0.1312668E+00
        -11   -1    0    0    0    0  0.00000000000E+00  0.00000000000E+00  0.45593999997E+02  0.45594000000E+02  0.51100000000E-03 0.  1.
         11   -1    0    0    0    0 -0.00000000000E+00 -0.00000000000E+00 -0.45593999997E+02  0.45594000000E+02  0.51100000000E-03 0. -1.
    9900012    2    1    2    0    0 -0.78876955276E+01 -0.20509373262E+02  0.37426905784E+02  0.47787269489E+02  0.19999992908E+02 0.  0.
         12    1    1    2    0    0  0.78876955276E+01  0.20509373262E+02 -0.37426905784E+02  0.43400730511E+02  0.00000000000E+00 0. -1.
         11    1    3    3    0    0 -0.53360553592E+01  0.16326374918E+00  0.64461863945E+01  0.83697945699E+01  0.51100000000E-03 0. -1.
        -11    1    3    3    0    0 -0.15382477275E+01 -0.24499334872E+01  0.14631086586E+02  0.14914324494E+02  0.51100000000E-03 0.  1.
        -12    1    3    3    0    0 -0.10133924410E+01 -0.18222703524E+02  0.16349632804E+02  0.24503150426E+02  0.00000000000E+00 0.  1.
</event>
<event>
 7    1  0.2580704E-010  0.4778727E+02  0.7816164E-02  0.1312668E+00
        -11   -1    0    0    0    0  0.00000000000E+00  0.00000000000E+00  0.45593999997E+02  0.45594000000E+02  0.51100000000E-03 0.  1.
         11   -1    0    0    0    0 -0.00000000000E+00 -0.00000000000E+00 -0.45593999997E+02  0.45594000000E+02  0.51100000000E-03 0. -1.
    9900012    2    1    2    0    0  0.17860213392E+02  0.37782476929E+02  0.11709860257E+02  0.47787267143E+02  0.19999982212E+02 0.  0.
         12    1    1    2    0    0 -0.17860213392E+02 -0.37782476929E+02 -0.11709860257E+02  0.43400732857E+02  0.00000000000E+00 0. -1.
         11    1    3    3    0    0 -0.17037348037E+01  0.36408985416E+01  0.26410194070E+01  0.48097648842E+01  0.51100000000E-03 0. -1.
        -11    1    3    3    0    0  0.64435998257E+01  0.25413216331E+02  0.64992214426E+01  0.27010950050E+02  0.51100000000E-03 0.  1.
         12    1    3    3    0    0  0.13120348370E+02  0.87283620563E+01  0.25696194073E+01  0.15966552209E+02  0.00000000000E+00 0. -1.
</event>
<event>
 7    1  0.2580704E-010  0.4778728E+02  0.7816164E-02  0.1312668E+00
        -11   -1    0    0    0    0  0.00000000000E+00  0.00000000000E+00  0.45593999997E+02  0.45594000000E+02  0.51100000000E-03 0.  1.
         11   -1    0    0    0    0 -0.00000000000E+00 -0.00000000000E+00 -0.45593999997E+02  0.45594000000E+02  0.51100000000E-03 0. -1.
    9900012    2    1    2    0    0 -0.17249026117E+02  0.10905371743E+02  0.38303610425E+02  0.47787278734E+02  0.20000035058E+02 0.  0.
         12    1    1    2    0    0  0.17249026117E+02 -0.10905371743E+02 -0.38303610425E+02  0.43400721266E+02  0.00000000000E+00 0. -1.
         11    1    3    3    0    0 -0.61342269778E+01  0.73231135291E+01  0.36589409988E+01  0.10229593436E+02  0.51100000000E-03 0. -1.
        -11    1    3    3    0    0 -0.43088139825E+01 -0.21906228677E+01  0.69890839808E+01  0.84977645082E+01  0.51100000000E-03 0.  1.
        -12    1    3    3    0    0 -0.68059851564E+01  0.57728810816E+01  0.27655585446E+02  0.29059920789E+02  0.00000000000E+00 0.  1.
</event>
<event>
 7    1  0.2580704E-010  0.4778727E+02  0.7816164E-02  0.1312668E+00
        -11   -1    0    0    0    0  0.00000000000E+00  0.00000000000E+00  0.45593999997E+02  0.45594000000E+02  0.51100000000E-03 0.  1.
         11   -1    0    0    0    0 -0.00000000000E+00 -0.00000000000E+00 -0.45593999997E+02  0.45594000000E+02  0.51100000000E-03 0. -1.
    9900012    2    1    2    0    0 -0.41757739067E+01  0.21255497768E+02  0.37608376336E+02  0.47787271392E+02  0.20000001586E+02 0.  0.
         12    1    1    2    0    0  0.41757739067E+01 -0.21255497768E+02 -0.37608376336E+02  0.43400728608E+02  0.00000000000E+00 0. -1.
         11    1    3    3    0    0 -0.27332737081E+00  0.37078581560E+01 -0.28085387909E+00  0.37285116493E+01  0.51100000000E-03 0.  1.
        -11    1    3    3    0    0  0.39231704876E+01  0.42047120942E+01  0.46463486759E+01  0.73932013870E+01  0.51100000000E-03 0. -1.
        -12    1    3    3    0    0 -0.78256170235E+01  0.13342927517E+02  0.33242881539E+02  0.36665558356E+02  0.00000000000E+00 0.  1.
</event>
<event>
 7    1  0.2580704E-010  0.4778727E+02  0.7816164E-02  0.1312668E+00
        -11   -1    0    0    0    0  0.00000000000E+00  0.00000000000E+00  0.45593999997E+02  0.45594000000E+02  0.51100000000E-03 0.  1.
         11   -1    0    0    0    0 -0.00000000000E+00 -0.00000000000E+00 -0.45593999997E+02  0.45594000000E+02  0.51100000000E-03 0. -1.
    9900012    2    1    2    0    0  0.21095616821E+02 -0.37786975113E+02  0.32775630596E+01  0.47787274696E+02  0.20000016650E+02 0.  0.
         12    1    1    2    0    0 -0.21095616821E+02  0.37786975113E+02 -0.32775630596E+01  0.43400725304E+02  0.00000000000E+00 0. -1.
         11    1    3    3    0    0  0.84006932163E+01 -0.13039159849E+02 -0.48095557495E+01  0.16239555500E+02  0.51100000000E-03 0. -1.
        -11    1    3    3    0    0 -0.53966975622E-01 -0.11132106692E+02 -0.20695295567E+00  0.11134161020E+02  0.51100000000E-03 0.  1.
        -12    1    3    3    0    0  0.12748890580E+02 -0.13615708572E+02  0.82940717647E+01  0.20413558176E+02  0.00000000000E+00 0.  1.
</event>
<event>
 7    1  0.2580704E-010  0.4778727E+02  0.7816164E-02  0.1312668E+00
        -11   -1    0    0    0    0  0.00000000000E+00  0.00000000000E+00  0.45593999997E+02  0.45594000000E+02  0.51100000000E-03 0.  1.
         11   -1    0    0    0    0 -0.00000000000E+00 -0.00000000000E+00 -0.45593999997E+02  0.45594000000E+02  0.51100000000E-03 0. -1.
    9900012    2    1    2    0    0  0.10711097086E+02 -0.36534146981E+02  0.20836317035E+02  0.47787267242E+02  0.19999982662E+02 0.  0.
         12    1    1    2    0    0 -0.10711097086E+02  0.36534146981E+02 -0.20836317035E+02  0.43400732758E+02  0.00000000000E+00 0. -1.
         11    1    3    3    0    0  0.80973393183E+01 -0.54669435530E+01  0.34487205354E+01  0.10360890379E+02  0.51100000000E-03 0. -1.
        -11    1    3    3    0    0 -0.21577088286E+01 -0.51998196109E+01 -0.44550595989E+00  0.56473274383E+01  0.51100000000E-03 0.  1.
        -12    1    3    3    0    0  0.47714665958E+01 -0.25867383817E+02  0.17833102460E+02  0.31779049425E+02  0.00000000000E+00 0.  1.
</event>
<event>
 7    1  0.2580704E-010  0.4778727E+02  0.7816164E-02  0.1312668E+00
        -11   -1    0    0    0    0  0.00000000000E+00  0.00000000000E+00  0.45593999997E+02  0.45594000000E+02  0.51100000000E-03 0.  1.
         11   -1    0    0    0    0 -0.00000000000E+00 -0.00000000000E+00 -0.45593999997E+02  0.45594000000E+02  0.51100000000E-03 0. -1.
    9900012    2    1    2    0    0 -0.24214592638E+02 -0.24910142383E+02  0.26014643806E+02  0.47787269793E+02  0.19999994295E+02 0.  0.
         12    1    1    2    0    0  0.24214592638E+02  0.24910142383E+02 -0.26014643806E+02  0.43400730207E+02  0.00000000000E+00 0. -1.
         11    1    3    3    0    0  0.16659248377E+01 -0.44416379751E+01  0.29058120511E+01  0.55630205288E+01  0.51100000000E-03 0. -1.
        -11    1    3    3    0    0 -0.51551686158E+01 -0.69778428261E+01  0.12730227690E+02  0.15405348139E+02  0.51100000000E-03 0.  1.
        -12    1    3    3    0    0 -0.20725348860E+02 -0.13490661582E+02  0.10378604064E+02  0.26818901126E+02  0.00000000000E+00 0.  1.
</event>
<event>
 7    1  0.2580704E-010  0.4778727E+02  0.7816164E-02  0.1312668E+00
        -11   -1    0    0    0    0  0.00000000000E+00  0.00000000000E+00  0.45593999997E+02  0.45594000000E+02  0.51100000000E-03 0.  1.
         11   -1    0    0    0    0 -0.00000000000E+00 -0.00000000000E+00 -0.45593999997E+02  0.45594000000E+02  0.51100000000E-03 0. -1.
    9900012    2    1    2    0    0 -0.30414964735E+02 -0.19342664390E+02  0.24174672338E+02  0.47787268115E+02  0.19999986642E+02 0.  0.
         12    1    1    2    0    0  0.30414964735E+02  0.19342664390E+02 -0.24174672338E+02  0.43400731885E+02  0.00000000000E+00 0. -1.
         11    1    3    3    0    0 -0.15744552613E+02 -0.12185564678E+02  0.82156834971E+01  0.21537789559E+02  0.51100000000E-03 0.  1.
        -11    1    3    3    0    0 -0.17023716704E+02 -0.64348453565E+01  0.15081501502E+02  0.23636113322E+02  0.51100000000E-03 0. -1.
         12    1    3    3    0    0  0.23533045823E+01 -0.72225435585E+00  0.87748733982E+00  0.26133652334E+01  0.00000000000E+00 0. -1.
</event>
<event>
 7    1  0.2825678E-010  0.4778728E+02  0.7816164E-02  0.1312668E+00
        -11   -1    0    0    0    0  0.00000000000E+00  0.00000000000E+00  0.45593999997E+02  0.45594000000E+02  0.51100000000E-03 0. -1.
         11   -1    0    0    0    0 -0.00000000000E+00 -0.00000000000E+00 -0.45593999997E+02  0.45594000000E+02  0.51100000000E-03 0.  1.
    9900012    2    1    2    0    0  0.15436370993E+02 -0.55077336280E-01 -0.40562769030E+02  0.47787276339E+02  0.20000024141E+02 0.  0.
         12    1    1    2    0    0 -0.15436370993E+02  0.55077336280E-01  0.40562769030E+02  0.43400723661E+02  0.00000000000E+00 0. -1.
         11    1    3    3    0    0 -0.53522962693E+00  0.73489369321E+00  0.72097336422E+00  0.11603199330E+01  0.51100000000E-03 0. -1.
        -11    1    3    3    0    0 -0.22868810855E+01  0.21815922366E+01 -0.54535510564E+01  0.63032046748E+01  0.51100000000E-03 0.  1.
        -12    1    3    3    0    0  0.18258481705E+02 -0.29715632661E+01 -0.35830191337E+02  0.40323751731E+02  0.00000000000E+00 0.  1.
</event>
<event>
 7    1  0.2580704E-010  0.4778727E+02  0.7816164E-02  0.1312668E+00
        -11   -1    0    0    0    0  0.00000000000E+00  0.00000000000E+00  0.45593999997E+02  0.45594000000E+02  0.51100000000E-03 0.  1.
         11   -1    0    0    0    0 -0.00000000000E+00 -0.00000000000E+00 -0.45593999997E+02  0.45594000000E+02  0.51100000000E-03 0. -1.
    9900012    2    1    2    0    0  0.28556253183E+02  0.19509236788E+01  0.32624496800E+02  0.47787268549E+02  0.19999988621E+02 0.  0.
         12    1    1    2    0    0 -0.28556253183E+02 -0.19509236788E+01 -0.32624496800E+02  0.43400731451E+02  0.00000000000E+00 0. -1.
         11    1    3    3    0    0  0.80812481438E+01  0.40731243021E+01  0.16569510233E+02  0.18879766492E+02  0.51100000000E-03 0. -1.
        -11    1    3    3    0    0  0.72432298599E+00  0.24059238176E+00  0.70180417070E+01  0.70594219412E+01  0.51100000000E-03 0.  1.
         12    1    3    3    0    0  0.19750682053E+02 -0.23627930051E+01  0.90369448596E+01  0.21848080116E+02  0.00000000000E+00 0. -1.
</event>
<event>
 7    1  0.2580704E-010  0.4778727E+02  0.7816164E-02  0.1312668E+00
        -11   -1    0    0    0    0  0.00000000000E+00  0.00000000000E+00  0.45593999997E+02  0.45594000000E+02  0.51100000000E-03 0.  1.
         11   -1    0    0    0    0 -0.00000000000E+00 -0.00000000000E+00 -0.45593999997E+02  0.45594000000E+02  0.51100000000E-03 0. -1.
    9900012    2    1    2    0    0 -0.53459499706E+01  0.27621759407E+02  0.33046666454E+02  0.47787274919E+02  0.20000017665E+02 0.  0.
         12    1    1    2    0    0  0.53459499706E+01 -0.27621759407E+02 -0.33046666454E+02  0.43400725081E+02  0.00000000000E+00 0. -1.
         11    1    3    3    0    0 -0.37046461926E+00 -0.24457156685E+00 -0.33563094238E+00  0.55651385970E+00  0.51100000000E-03 0. -1.
        -11    1    3    3    0    0 -0.10665205006E+02  0.14995145246E+02  0.24303072207E+02  0.30483443010E+02  0.51100000000E-03 0.  1.
         12    1    3    3    0    0  0.56897196551E+01  0.12871185728E+02  0.90792251891E+01  0.16747318049E+02  0.00000000000E+00 0. -1.
</event>
<event>
 7    1  0.2580704E-010  0.4778725E+02  0.7816164E-02  0.1312668E+00
        -11   -1    0    0    0    0  0.00000000000E+00  0.00000000000E+00  0.45593999997E+02  0.45594000000E+02  0.51100000000E-03 0. -1.
         11   -1    0    0    0    0 -0.00000000000E+00 -0.00000000000E+00 -0.45593999997E+02  0.45594000000E+02  0.51100000000E-03 0.  1.
    9900012    2    1    2    0    0 -0.23751172133E+02  0.13952764376E+02 -0.33538440754E+02  0.47787253236E+02  0.19999918804E+02 0.  0.
         12    1    1    2    0    0  0.23751172133E+02 -0.13952764376E+02  0.33538440754E+02  0.43400746764E+02  0.00000000000E+00 0. -1.
         11    1    3    3    0    0 -0.16391704136E+02  0.33807301558E+01 -0.20369895528E+02  0.26363799896E+02  0.51100000000E-03 0. -1.
        -11    1    3    3    0    0 -0.92045988831E+01  0.69751116015E+01 -0.12983497359E+02  0.17376651760E+02  0.51100000000E-03 0.  1.
         12    1    3    3    0    0  0.18451308863E+01  0.35969226191E+01 -0.18504786724E+00  0.40468015801E+01  0.00000000000E+00 0. -1.
</event>
<event>
 7    1  0.2580704E-010  0.4778727E+02  0.7816164E-02  0.1312668E+00
        -11   -1    0    0    0    0  0.00000000000E+00  0.00000000000E+00  0.45593999997E+02  0.45594000000E+02  0.51100000000E-03 0.  1.
         11   -1    0    0    0    0 -0.00000000000E+00 -0.00000000000E+00 -0.45593999997E+02  0.45594000000E+02  0.51100000000E-03 0. -1.
    9900012    2    1    2    0    0 -0.22289870926E+02  0.33910561941E+02 -0.15390204429E+02  0.47787274782E+02  0.20000017043E+02 0.  0.
         12    1    1    2    0    0  0.22289870926E+02 -0.33910561941E+02  0.15390204429E+02  0.43400725218E+02  0.00000000000E+00 0. -1.
         11    1    3    3    0    0 -0.48659808524E+01  0.26681532283E+01 -0.38494008557E+01  0.67538654498E+01  0.51100000000E-03 0. -1.
        -11    1    3    3    0    0 -0.10846666467E+02  0.13273362645E+02 -0.13470956797E+02  0.21801353322E+02  0.51100000000E-03 0.  1.
        -12    1    3    3    0    0 -0.65772236063E+01  0.17969046067E+02  0.19301532239E+01  0.19232056011E+02  0.00000000000E+00 0.  1.
</event>
<event>
 7    1  0.2580704E-010  0.4778727E+02  0.7816164E-02  0.1312668E+00
        -11   -1    0    0    0    0  0.00000000000E+00  0.00000000000E+00  0.45593999997E+02  0.45594000000E+02  0.51100000000E-03 0.  1.
         11   -1    0    0    0    0 -0.00000000000E+00 -0.00000000000E+00 -0.45593999997E+02  0.45594000000E+02  0.51100000000E-03 0. -1.
    9900012    2    1    2    0    0  0.40069904902E+02 -0.15943244531E+02  0.48825105816E+01  0.47787271497E+02  0.20000002063E+02 0.  0.
         12    1    1    2    0    0 -0.40069904902E+02  0.15943244531E+02 -0.48825105816E+01  0.43400728503E+02  0.00000000000E+00 0. -1.
         11    1    3    3    0    0  0.25251224437E+02 -0.17617297546E+02  0.15985274778E+01  0.30830971420E+02  0.51100000000E-03 0. -1.
        -11    1    3    3    0    0  0.51529185466E+01 -0.27650868261E+01  0.82406805527E-01  0.58485097116E+01  0.51100000000E-03 0.  1.
        -12    1    3    3    0    0  0.96657619186E+01  0.44391398409E+01  0.32015762983E+01  0.11107790365E+02  0.00000000000E+00 0.  1.
</event>
<event>
 7    1  0.2580704E-010  0.4778727E+02  0.7816164E-02  0.1312668E+00
        -11   -1    0    0    0    0  0.00000000000E+00  0.00000000000E+00  0.45593999997E+02  0.45594000000E+02  0.51100000000E-03 0. -1.
         11   -1    0    0    0    0 -0.00000000000E+00 -0.00000000000E+00 -0.45593999997E+02  0.45594000000E+02  0.51100000000E-03 0.  1.
    9900012    2    1    2    0    0  0.21693948412E+02 -0.30471217407E+02  0.22011374364E+02  0.47787273170E+02  0.20000009692E+02 0.  0.
         12    1    1    2    0    0 -0.21693948412E+02  0.30471217407E+02 -0.22011374364E+02  0.43400726830E+02  0.00000000000E+00 0. -1.
         11    1    3    3    0    0  0.40343079192E+01 -0.19471905001E+02  0.92202581424E+01  0.21919030208E+02  0.51100000000E-03 0. -1.
        -11    1    3    3    0    0  0.84258836485E+01 -0.85597020659E+01  0.34210415389E+01  0.12488696497E+02  0.51100000000E-03 0.  1.
        -12    1    3    3    0    0  0.92337568442E+01 -0.24396103394E+01  0.93700746831E+01  0.13379546466E+02  0.00000000000E+00 0.  1.
</event>
<event>
 7    1  0.2580704E-010  0.4778727E+02  0.7816164E-02  0.1312668E+00
        -11   -1    0    0    0    0  0.00000000000E+00  0.00000000000E+00  0.45593999997E+02  0.45594000000E+02  0.51100000000E-03 0.  1.
         11   -1    0    0    0    0 -0.00000000000E+00 -0.00000000000E+00 -0.45593999997E+02  0.45594000000E+02  0.51100000000E-03 0. -1.
    9900012    2    1    2    0    0  0.37956413889E+02 -0.19405774413E+02 -0.81455404420E+01  0.47787271147E+02  0.20000000467E+02 0.  0.
         12    1    1    2    0    0 -0.37956413889E+02  0.19405774413E+02  0.81455404420E+01  0.43400728853E+02  0.00000000000E+00 0. -1.
         11    1    3    3    0    0  0.71363581520E+01  0.56078777472E+00 -0.73516432055E+01  0.10261030586E+02  0.51100000000E-03 0. -1.
        -11    1    3    3    0    0  0.84418367363E+01 -0.78222127928E+01 -0.32173533201E+01  0.11950020214E+02  0.51100000000E-03 0.  1.
        -12    1    3    3    0    0  0.22378219001E+02 -0.12144349395E+02  0.24234560836E+01  0.25576220347E+02  0.00000000000E+00 0.  1.
</event>
<event>
 7    1  0.2580704E-010  0.4778727E+02  0.7816164E-02  0.1312668E+00
        -11   -1    0    0    0    0  0.00000000000E+00  0.00000000000E+00  0.45593999997E+02  0.45594000000E+02  0.51100000000E-03 0. -1.
         11   -1    0    0    0    0 -0.00000000000E+00 -0.00000000000E+00 -0.45593999997E+02  0.45594000000E+02  0.51100000000E-03 0.  1.
    9900012    2    1    2    0    0  0.18773541069E+02  0.38018592969E+02  0.92608828697E+01  0.47787271814E+02  0.20000003508E+02 0.  0.
         12    1    1    2    0    0 -0.18773541069E+02 -0.38018592969E+02 -0.92608828697E+01  0.43400728186E+02  0.00000000000E+00 0. -1.
         11    1    3    3    0    0  0.38348783297E+01  0.18986960589E+01  0.27304809352E+01  0.50761072611E+01  0.51100000000E-03 0. -1.
        -11    1    3    3    0    0  0.13262550647E+00  0.92811155818E+01 -0.42633348194E+01  0.10214338942E+02  0.51100000000E-03 0.  1.
        -12    1    3    3    0    0  0.14806037232E+02  0.26838781328E+02  0.10793736754E+02  0.32496825611E+02  0.00000000000E+00 0.  1.
</event>
<event>
 7    1  0.2580704E-010  0.4778729E+02  0.7816164E-02  0.1312668E+00
        -11   -1    0    0    0    0  0.00000000000E+00  0.00000000000E+00  0.45593999997E+02  0.45594000000E+02  0.51100000000E-03 0.  1.
         11   -1    0    0    0    0 -0.00000000000E+00 -0.00000000000E+00 -0.45593999997E+02  0.45594000000E+02  0.51100000000E-03 0. -1.
    9900012    2    1    2    0    0 -0.17973193755E+02 -0.45671801370E+00  0.39501616396E+02  0.47787285916E+02  0.20000067804E+02 0.  0.
         12    1    1    2    0    0  0.17973193755E+02  0.45671801370E+00 -0.39501616396E+02  0.43400714084E+02  0.00000000000E+00 0. -1.
         11    1    3    3    0    0 -0.10103220453E+02 -0.55849868725E+01  0.14644000713E+02  0.18647088219E+02  0.51100000000E-03 0.  1.
        -11    1    3    3    0    0 -0.39176707315E+00 -0.29182298878E+01  0.14476616919E+01  0.32810473561E+01  0.51100000000E-03 0. -1.
        -12    1    3    3    0    0 -0.74782062283E+01  0.80464987466E+01  0.23409953991E+02  0.25859150341E+02  0.00000000000E+00 0.  1.
</event>
<event>
 7    1  0.2580704E-010  0.4778727E+02  0.7816164E-02  0.1312668E+00
        -11   -1    0    0    0    0  0.00000000000E+00  0.00000000000E+00  0.45593999997E+02  0.45594000000E+02  0.51100000000E-03 0. -1.
         11   -1    0    0    0    0 -0.00000000000E+00 -0.00000000000E+00 -0.45593999997E+02  0.45594000000E+02  0.51100000000E-03 0.  1.
    9900012    2    1    2    0    0  0.11033210092E+02 -0.13686884272E+02 -0.39680737053E+02  0.47787269372E+02  0.19999992372E+02 0.  0.
         12    1    1    2    0    0 -0.11033210092E+02  0.13686884272E+02  0.39680737053E+02  0.43400730628E+02  0.00000000000E+00 0. -1.
         11    1    3    3    0    0  0.51092175891E+01 -0.18699756047E+01 -0.61825319682E+01  0.82355701037E+01  0.51100000000E-03 0. -1.
        -11    1    3    3    0    0  0.11499367373E+02 -0.85935563554E+01 -0.25703576144E+02  0.29440762348E+02  0.51100000000E-03 0.  1.
         12    1    3    3    0    0 -0.55753748695E+01 -0.32233523116E+01 -0.77946289410E+01  0.10110936919E+02  0.00000000000E+00 0. -1.
</event>
<event>
 7    1  0.2580704E-010  0.4778727E+02  0.7816164E-02  0.1312668E+00
        -11   -1    0    0    0    0  0.00000000000E+00  0.00000000000E+00  0.45593999997E+02  0.45594000000E+02  0.51100000000E-03 0.  1.
         11   -1    0    0    0    0 -0.00000000000E+00 -0.00000000000E+00 -0.45593999997E+02  0.45594000000E+02  0.51100000000E-03 0. -1.
    9900012    2    1    2    0    0 -0.11545599864E+02 -0.11382134535E+02  0.40258780574E+02  0.47787271018E+02  0.19999999882E+02 0.  0.
         12    1    1    2    0    0  0.11545599864E+02  0.11382134535E+02 -0.40258780574E+02  0.43400728982E+02  0.00000000000E+00 0. -1.
         11    1    3    3    0    0 -0.39920777800E+01 -0.76726268670E+00  0.13717173333E+02  0.14306859248E+02  0.51100000000E-03 0. -1.
        -11    1    3    3    0    0 -0.64144455910E+00  0.20071829981E+01  0.14682256023E+02  0.14832696211E+02  0.51100000000E-03 0.  1.
         12    1    3    3    0    0 -0.69120775247E+01 -0.12622054846E+02  0.11859351218E+02  0.18647715559E+02  0.00000000000E+00 0. -1.
</event>
<event>
 7    1  0.2580704E-010  0.4778730E+02  0.7816164E-02  0.1312668E+00
        -11   -1    0    0    0    0  0.00000000000E+00  0.00000000000E+00  0.45593999997E+02  0.45594000000E+02  0.51100000000E-03 0.  1.
         11   -1    0    0    0    0 -0.00000000000E+00 -0.00000000000E+00 -0.45593999997E+02  0.45594000000E+02  0.51100000000E-03 0. -1.
    9900012    2    1    2    0    0 -0.32182241936E+02  0.10548082366E+02  0.27141521635E+02  0.47787297998E+02  0.20000122892E+02 0.  0.
         12    1    1    2    0    0  0.32182241936E+02 -0.10548082366E+02 -0.27141521635E+02  0.43400702002E+02  0.00000000000E+00 0. -1.
         11    1    3    3    0    0 -0.22366435737E+02  0.10149496041E+02  0.94852562033E+01  0.26329447449E+02  0.51100000000E-03 0. -1.
        -11    1    3    3    0    0  0.58698029184E+00  0.16050225554E+01  0.21513276590E+01  0.27475178296E+01  0.51100000000E-03 0.  1.
        -12    1    3    3    0    0 -0.10402786491E+02 -0.12064362308E+01  0.15504937773E+02  0.18710332720E+02  0.00000000000E+00 0.  1.
</event>
<event>
 7    1  0.2580704E-010  0.4778727E+02  0.7816164E-02  0.1312668E+00
        -11   -1    0    0    0    0  0.00000000000E+00  0.00000000000E+00  0.45593999997E+02  0.45594000000E+02  0.51100000000E-03 0. -1.
         11   -1    0    0    0    0 -0.00000000000E+00 -0.00000000000E+00 -0.45593999997E+02  0.45594000000E+02  0.51100000000E-03 0.  1.
    9900012    2    1    2    0    0 -0.45461534844E+01 -0.42363921945E+02  0.82615861510E+01  0.47787271898E+02  0.20000003893E+02 0.  0.
         12    1    1    2    0    0  0.45461534844E+01  0.42363921945E+02 -0.82615861510E+01  0.43400728102E+02  0.00000000000E+00 0. -1.
         11    1    3    3    0    0  0.45550524969E+00 -0.81515395932E+00  0.33744093447E+01  0.35012283125E+01  0.51100000000E-03 0. -1.
        -11    1    3    3    0    0  0.41659764950E+01 -0.17736903235E+02  0.45015194141E+01  0.18767439192E+02  0.51100000000E-03 0.  1.
        -12    1    3    3    0    0 -0.91676352291E+01 -0.23811864750E+02  0.38565739219E+00  0.25518604394E+02  0.00000000000E+00 0.  1.
</event>
<event>
 7    1  0.2580704E-010  0.4778727E+02  0.7816164E-02  0.1312668E+00
        -11   -1    0    0    0    0  0.00000000000E+00  0.00000000000E+00  0.45593999997E+02  0.45594000000E+02  0.51100000000E-03 0. -1.
         11   -1    0    0    0    0 -0.00000000000E+00 -0.00000000000E+00 -0.45593999997E+02  0.45594000000E+02  0.51100000000E-03 0.  1.
    9900012    2    1    2    0    0 -0.18016489168E+02  0.34186395611E+02 -0.19756513930E+02  0.47787269943E+02  0.19999994978E+02 0.  0.
         12    1    1    2    0    0  0.18016489168E+02 -0.34186395611E+02  0.19756513930E+02  0.43400730057E+02  0.00000000000E+00 0. -1.
         11    1    3    3    0    0 -0.88863963979E+01  0.46339647408E+01 -0.73593235864E+01  0.12433877676E+02  0.51100000000E-03 0. -1.
        -11    1    3    3    0    0  0.90213766026E+00  0.14132932699E+00  0.11375684611E+01  0.14587284194E+01  0.51100000000E-03 0.  1.
        -12    1    3    3    0    0 -0.10032230430E+02  0.29411101544E+02 -0.13534758805E+02  0.33894663847E+02  0.00000000000E+00 0.  1.
</event>
<event>
 7    1  0.2580704E-010  0.4778728E+02  0.7816164E-02  0.1312668E+00
        -11   -1    0    0    0    0  0.00000000000E+00  0.00000000000E+00  0.45593999997E+02  0.45594000000E+02  0.51100000000E-03 0. -1.
         11   -1    0    0    0    0 -0.00000000000E+00 -0.00000000000E+00 -0.45593999997E+02  0.45594000000E+02  0.51100000000E-03 0.  1.
    9900012    2    1    2    0    0  0.12305658483E+02 -0.29155564576E+02 -0.29700954103E+02  0.47787275915E+02  0.20000022209E+02 0.  0.
         12    1    1    2    0    0 -0.12305658483E+02  0.29155564576E+02  0.29700954103E+02  0.43400724085E+02  0.00000000000E+00 0. -1.
         11    1    3    3    0    0  0.50025077497E+01 -0.29890529853E+00 -0.28529225618E+01  0.57665930642E+01  0.51100000000E-03 0. -1.
        -11    1    3    3    0    0  0.69250243026E+01 -0.77645512848E+01 -0.13550336134E+02  0.17083788451E+02  0.51100000000E-03 0.  1.
        -12    1    3    3    0    0  0.37812643077E+00 -0.21092107993E+02 -0.13297695407E+02  0.24936894400E+02  0.00000000000E+00 0.  1.
</event>
<event>
 7    1  0.2580704E-010  0.4778727E+02  0.7816164E-02  0.1312668E+00
        -11   -1    0    0    0    0  0.00000000000E+00  0.00000000000E+00  0.45593999997E+02  0.45594000000E+02  0.51100000000E-03 0. -1.
         11   -1    0    0    0    0 -0.00000000000E+00 -0.00000000000E+00 -0.45593999997E+02  0.45594000000E+02  0.51100000000E-03 0.  1.
    9900012    2    1    2    0    0  0.19482142667E+02 -0.95249570044E+01  0.37594478000E+02  0.47787268843E+02  0.19999989963E+02 0.  0.
         12    1    1    2    0    0 -0.19482142667E+02  0.95249570044E+01 -0.37594478000E+02  0.43400731157E+02  0.00000000000E+00 0. -1.
         11    1    3    3    0    0 -0.63657930327E+00  0.12906091587E+01  0.45264884754E+01  0.47497371916E+01  0.51100000000E-03 0. -1.
        -11    1    3    3    0    0  0.12401940016E+00  0.29637453022E+01  0.18837003491E+01  0.35139001543E+01  0.51100000000E-03 0.  1.
        -12    1    3    3    0    0  0.19994702571E+02 -0.13779311465E+02  0.31184289176E+02  0.39523631497E+02  0.00000000000E+00 0.  1.
</event>
<event>
 7    1  0.2580704E-010  0.4778728E+02  0.7816164E-02  0.1312668E+00
        -11   -1    0    0    0    0  0.00000000000E+00  0.00000000000E+00  0.45593999997E+02  0.45594000000E+02  0.51100000000E-03 0. -1.
         11   -1    0    0    0    0 -0.00000000000E+00 -0.00000000000E+00 -0.45593999997E+02  0.45594000000E+02  0.51100000000E-03 0.  1.
    9900012    2    1    2    0    0 -0.40691039231E+02 -0.12576722163E+02 -0.83479311692E+01  0.47787279167E+02  0.20000037032E+02 0.  0.
         12    1    1    2    0    0  0.40691039231E+02  0.12576722163E+02  0.83479311692E+01  0.43400720833E+02  0.00000000000E+00 0. -1.
         11    1    3    3    0    0 -0.58546380285E+01  0.88976131175E+00 -0.72768411210E+01  0.93819442867E+01  0.51100000000E-03 0. -1.
        -11    1    3    3    0    0 -0.49835619756E+01  0.93832690715E+00  0.10954703916E+01  0.51881020605E+01  0.51100000000E-03 0.  1.
         12    1    3    3    0    0 -0.29852839227E+02 -0.14404810382E+02 -0.21665604398E+01  0.33217232819E+02  0.00000000000E+00 0. -1.
</event>
<event>
 7    1  0.2580704E-010  0.4778727E+02  0.7816164E-02  0.1312668E+00
        -11   -1    0    0    0    0  0.00000000000E+00  0.00000000000E+00  0.45593999997E+02  0.45594000000E+02  0.51100000000E-03 0.  1.
         11   -1    0    0    0    0 -0.00000000000E+00 -0.00000000000E+00 -0.45593999997E+02  0.45594000000E+02  0.51100000000E-03 0. -1.
    9900012    2    1    2    0    0  0.13391539264E+02 -0.33881719576E+02  0.23586415426E+02  0.47787271459E+02  0.20000001890E+02 0.  0.
         12    1    1    2    0    0 -0.13391539264E+02  0.33881719576E+02 -0.23586415426E+02  0.43400728541E+02  0.00000000000E+00 0. -1.
         11    1    3    3    0    0 -0.45575970984E+01 -0.13743195818E+02  0.96159874336E+01  0.17381436569E+02  0.51100000000E-03 0.  1.
        -11    1    3    3    0    0  0.29538059225E+01 -0.29875818211E+01  0.26403836202E+01  0.49620802581E+01  0.51100000000E-03 0. -1.
        -12    1    3    3    0    0  0.14995330440E+02 -0.17150941936E+02  0.11330044372E+02  0.25443754632E+02  0.00000000000E+00 0.  1.
</event>
<event>
 7    1  0.2580704E-010  0.4778728E+02  0.7816164E-02  0.1312668E+00
        -11   -1    0    0    0    0  0.00000000000E+00  0.00000000000E+00  0.45593999997E+02  0.45594000000E+02  0.51100000000E-03 0. -1.
         11   -1    0    0    0    0 -0.00000000000E+00 -0.00000000000E+00 -0.45593999997E+02  0.45594000000E+02  0.51100000000E-03 0.  1.
    9900012    2    1    2    0    0 -0.28391123815E+02 -0.23498223491E+02 -0.22921613653E+02  0.47787276605E+02  0.20000025354E+02 0.  0.
         12    1    1    2    0    0  0.28391123815E+02  0.23498223491E+02  0.22921613653E+02  0.43400723395E+02  0.00000000000E+00 0. -1.
         11    1    3    3    0    0  0.76825349217E+00 -0.54300389296E+01 -0.28561216117E+01  0.61832812589E+01  0.51100000000E-03 0. -1.
        -11    1    3    3    0    0 -0.11022124340E+02 -0.10140056580E+02 -0.14945219698E+02  0.21158155980E+02  0.51100000000E-03 0.  1.
         12    1    3    3    0    0 -0.18137252968E+02 -0.79281279816E+01 -0.51202723431E+01  0.20445839366E+02  0.00000000000E+00 0. -1.
</event>
<event>
 7    1  0.2580704E-010  0.4778727E+02  0.7816164E-02  0.1312668E+00
        -11   -1    0    0    0    0  0.00000000000E+00  0.00000000000E+00  0.45593999997E+02  0.45594000000E+02  0.51100000000E-03 0.  1.
         11   -1    0    0    0    0 -0.00000000000E+00 -0.00000000000E+00 -0.45593999997E+02  0.45594000000E+02  0.51100000000E-03 0. -1.
    9900012    2    1    2    0    0  0.11914734679E+02 -0.39607418703E+02  0.13149711655E+02  0.47787269184E+02  0.19999991517E+02 0.  0.
         12    1    1    2    0    0 -0.11914734679E+02  0.39607418703E+02 -0.13149711655E+02  0.43400730816E+02  0.00000000000E+00 0. -1.
         11    1    3    3    0    0  0.51378057022E+01 -0.32045771851E+01  0.31956612543E+01  0.68467958552E+01  0.51100000000E-03 0. -1.
        -11    1    3    3    0    0  0.32756951647E+01 -0.76157243479E+01 -0.34670444913E+01  0.89860911370E+01  0.51100000000E-03 0.  1.
        -12    1    3    3    0    0  0.35012338120E+01 -0.28787117170E+02  0.13421094892E+02  0.31954382192E+02  0.00000000000E+00 0.  1.
</event>
<event>
 7    1  0.3090027E-010  0.4778728E+02  0.7816164E-02  0.1312668E+00
        -11   -1    0    0    0    0  0.00000000000E+00  0.00000000000E+00  0.45593999997E+02  0.45594000000E+02  0.51100000000E-03 0.  1.
         11   -1    0    0    0    0 -0.00000000000E+00 -0.00000000000E+00 -0.45593999997E+02  0.45594000000E+02  0.51100000000E-03 0. -1.
    9900012    2    1    2    0    0 -0.32234231141E+02 -0.21271376445E+02  0.19801656277E+02  0.47787277605E+02  0.20000029912E+02 0.  0.
         12    1    1    2    0    0  0.32234231141E+02  0.21271376445E+02 -0.19801656277E+02  0.43400722395E+02  0.00000000000E+00 0. -1.
         11    1    3    3    0    0  0.12824378407E+01  0.19786042984E+00  0.22056685282E+01  0.25590563656E+01  0.51100000000E-03 0. -1.
        -11    1    3    3    0    0 -0.10734864900E+02 -0.95815652695E+01  0.56528292075E+00  0.14400113280E+02  0.51100000000E-03 0.  1.
        -12    1    3    3    0    0 -0.22781804081E+02 -0.11887671605E+02  0.17030704828E+02  0.30828107959E+02  0.00000000000E+00 0.  1.
</event>
<event>
 7    1  0.2580704E-010  0.4778724E+02  0.7816164E-02  0.1312668E+00
        -11   -1    0    0    0    0  0.00000000000E+00  0.00000000000E+00  0.45593999997E+02  0.45594000000E+02  0.51100000000E-03 0.  1.
         11   -1    0    0    0    0 -0.00000000000E+00 -0.00000000000E+00 -0.45593999997E+02  0.45594000000E+02  0.51100000000E-03 0. -1.
    9900012    2    1    2    0    0  0.11765615188E+02  0.31628766088E+02  0.27291351262E+02  0.47787235045E+02  0.19999835862E+02 0.  0.
         12    1    1    2    0    0 -0.11765615188E+02 -0.31628766088E+02 -0.27291351262E+02  0.43400764955E+02  0.00000000000E+00 0. -1.
         11    1    3    3    0    0  0.37925422508E+00  0.18531265974E+02  0.12593129677E+02  0.22408448578E+02  0.51100000000E-03 0. -1.
        -11    1    3    3    0    0  0.28521730757E+01  0.11333301383E+02  0.10477926533E+02  0.15696036321E+02  0.51100000000E-03 0.  1.
         12    1    3    3    0    0  0.85341878872E+01  0.17641987305E+01  0.42202950528E+01  0.96827501459E+01  0.00000000000E+00 0. -1.
</event>
<event>
 7    1  0.2580704E-010  0.4778727E+02  0.7816164E-02  0.1312668E+00
        -11   -1    0    0    0    0  0.00000000000E+00  0.00000000000E+00  0.45593999997E+02  0.45594000000E+02  0.51100000000E-03 0.  1.
         11   -1    0    0    0    0 -0.00000000000E+00 -0.00000000000E+00 -0.45593999997E+02  0.45594000000E+02  0.51100000000E-03 0. -1.
    9900012    2    1    2    0    0  0.15847442362E+02 -0.52179140512E+01  0.40065632776E+02  0.47787274358E+02  0.20000015109E+02 0.  0.
         12    1    1    2    0    0 -0.15847442362E+02  0.52179140512E+01 -0.40065632776E+02  0.43400725642E+02  0.00000000000E+00 0. -1.
         11    1    3    3    0    0  0.50990183261E+01  0.36055616169E+01  0.11999020762E+02  0.13526882936E+02  0.51100000000E-03 0. -1.
        -11    1    3    3    0    0  0.46313939327E+01  0.29888801235E+01  0.41733145246E+01  0.69137376675E+01  0.51100000000E-03 0.  1.
         12    1    3    3    0    0  0.61170301035E+01 -0.11812355792E+02  0.23893297490E+02  0.27346653755E+02  0.00000000000E+00 0. -1.
</event>
<event>
 7    1  0.2580704E-010  0.4778727E+02  0.7816164E-02  0.1312668E+00
        -11   -1    0    0    0    0  0.00000000000E+00  0.00000000000E+00  0.45593999997E+02  0.45594000000E+02  0.51100000000E-03 0.  1.
         11   -1    0    0    0    0 -0.00000000000E+00 -0.00000000000E+00 -0.45593999997E+02  0.45594000000E+02  0.51100000000E-03 0. -1.
    9900012    2    1    2    0    0  0.42229853125E+02  0.87262852414E+01 -0.49107034205E+01  0.47787267781E+02  0.19999985120E+02 0.  0.
         12    1    1    2    0    0 -0.42229853125E+02 -0.87262852414E+01  0.49107034205E+01  0.43400732219E+02  0.00000000000E+00 0. -1.
         11    1    3    3    0    0  0.11715827169E+02  0.36273798597E+01  0.28185169184E+01  0.12584217448E+02  0.51100000000E-03 0. -1.
        -11    1    3    3    0    0  0.22807279464E+02  0.97268772186E+01 -0.28045307581E+01  0.24952946320E+02  0.51100000000E-03 0.  1.
         12    1    3    3    0    0  0.77067464917E+01 -0.46279718370E+01 -0.49246895808E+01  0.10250104013E+02  0.00000000000E+00 0. -1.
</event>
<event>
 7    1  0.2580704E-010  0.4778728E+02  0.7816164E-02  0.1312668E+00
        -11   -1    0    0    0    0  0.00000000000E+00  0.00000000000E+00  0.45593999997E+02  0.45594000000E+02  0.51100000000E-03 0. -1.
         11   -1    0    0    0    0 -0.00000000000E+00 -0.00000000000E+00 -0.45593999997E+02  0.45594000000E+02  0.51100000000E-03 0.  1.
    9900012    2    1    2    0    0  0.40530444642E+02 -0.37637330771E+01 -0.15057886962E+02  0.47787278931E+02  0.20000035957E+02 0.  0.
         12    1    1    2    0    0 -0.40530444642E+02  0.37637330771E+01  0.15057886962E+02  0.43400721069E+02  0.00000000000E+00 0. -1.
         11    1    3    3    0    0  0.11433152133E+02 -0.29986063034E+01 -0.55536255359E+00  0.11832879416E+02  0.51100000000E-03 0. -1.
        -11    1    3    3    0    0  0.13779407128E+02 -0.61207529142E+01 -0.14840216440E+01  0.15150511461E+02  0.51100000000E-03 0.  1.
         12    1    3    3    0    0  0.15317885382E+02  0.53556261405E+01 -0.13018502764E+02  0.20803888054E+02  0.00000000000E+00 0. -1.
</event>
<event>
 7    1  0.2580704E-010  0.4778727E+02  0.7816164E-02  0.1312668E+00
        -11   -1    0    0    0    0  0.00000000000E+00  0.00000000000E+00  0.45593999997E+02  0.45594000000E+02  0.51100000000E-03 0.  1.
         11   -1    0    0    0    0 -0.00000000000E+00 -0.00000000000E+00 -0.45593999997E+02  0.45594000000E+02  0.51100000000E-03 0. -1.
    9900012    2    1    2    0    0 -0.13768751555E+02  0.41008798310E+02  0.35105092311E+01  0.47787265752E+02  0.19999975869E+02 0.  0.
         12    1    1    2    0    0  0.13768751555E+02 -0.41008798310E+02 -0.35105092311E+01  0.43400734248E+02  0.00000000000E+00 0. -1.
         11    1    3    3    0    0  0.37273582726E+00  0.26575846938E+01  0.13330006706E+00  0.26869048309E+01  0.51100000000E-03 0. -1.
        -11    1    3    3    0    0 -0.28621543078E+01  0.30754156088E+02 -0.72608111810E+00  0.30895586061E+02  0.51100000000E-03 0.  1.
         12    1    3    3    0    0 -0.11279333075E+02  0.75970575277E+01  0.41032902821E+01  0.14204774860E+02  0.00000000000E+00 0. -1.
</event>
<event>
 7    1  0.2580704E-010  0.4778727E+02  0.7816164E-02  0.1312668E+00
        -11   -1    0    0    0    0  0.00000000000E+00  0.00000000000E+00  0.45593999997E+02  0.45594000000E+02  0.51100000000E-03 0.  1.
         11   -1    0    0    0    0 -0.00000000000E+00 -0.00000000000E+00 -0.45593999997E+02  0.45594000000E+02  0.51100000000E-03 0. -1.
    9900012    2    1    2    0    0  0.46541697405E+01 -0.26660105435E+02  0.33929351900E+02  0.47787269152E+02  0.19999991373E+02 0.  0.
         12    1    1    2    0    0 -0.46541697405E+01  0.26660105435E+02 -0.33929351900E+02  0.43400730848E+02  0.00000000000E+00 0. -1.
         11    1    3    3    0    0 -0.18907528394E+01 -0.19679604596E+01 -0.40393835345E+00  0.27588006678E+01  0.51100000000E-03 0. -1.
        -11    1    3    3    0    0  0.24896010425E-01 -0.10808741652E+02  0.49618064135E+01  0.11893235012E+02  0.51100000000E-03 0.  1.
         12    1    3    3    0    0  0.65200265695E+01 -0.13883403324E+02  0.29371483840E+02  0.33135233473E+02  0.00000000000E+00 0. -1.
</event>
<event>
 7    1  0.2594142E-010  0.4778727E+02  0.7816164E-02  0.1312668E+00
        -11   -1    0    0    0    0  0.00000000000E+00  0.00000000000E+00  0.45593999997E+02  0.45594000000E+02  0.51100000000E-03 0. -1.
         11   -1    0    0    0    0 -0.00000000000E+00 -0.00000000000E+00 -0.45593999997E+02  0.45594000000E+02  0.51100000000E-03 0.  1.
    9900012    2    1    2    0    0 -0.41511565503E+02 -0.42557184313E+01  0.11929062812E+02  0.47787265566E+02  0.19999975019E+02 0.  0.
         12    1    1    2    0    0  0.41511565503E+02  0.42557184313E+01 -0.11929062812E+02  0.43400734434E+02  0.00000000000E+00 0. -1.
         11    1    3    3    0    0  0.23775777718E+00 -0.19759077846E+01  0.34487958711E+00  0.20198223993E+01  0.51100000000E-03 0. -1.
        -11    1    3    3    0    0 -0.15057740881E+02  0.57906413961E+01  0.18792198997E+01  0.16241876613E+02  0.51100000000E-03 0.  1.
        -12    1    3    3    0    0 -0.26691582399E+02 -0.80704520428E+01  0.97049633253E+01  0.29525566553E+02  0.00000000000E+00 0.  1.
</event>
<event>
 7    1  0.2580704E-010  0.4778727E+02  0.7816164E-02  0.1312668E+00
        -11   -1    0    0    0    0  0.00000000000E+00  0.00000000000E+00  0.45593999997E+02  0.45594000000E+02  0.51100000000E-03 0.  1.
         11   -1    0    0    0    0 -0.00000000000E+00 -0.00000000000E+00 -0.45593999997E+02  0.45594000000E+02  0.51100000000E-03 0. -1.
    9900012    2    1    2    0    0 -0.16964655795E+02 -0.32247842097E+01  0.39817389938E+02  0.47787270502E+02  0.19999997528E+02 0.  0.
         12    1    1    2    0    0  0.16964655795E+02  0.32247842097E+01 -0.39817389938E+02  0.43400729498E+02  0.00000000000E+00 0. -1.
         11    1    3    3    0    0  0.18837806642E+01 -0.81653925828E+00 -0.85997876336E+00  0.22259671349E+01  0.51100000000E-03 0. -1.
        -11    1    3    3    0    0 -0.28789390652E+01 -0.32295508246E+01  0.11542179757E+02  0.12326402658E+02  0.51100000000E-03 0.  1.
        -12    1    3    3    0    0 -0.15969497394E+02  0.82130587323E+00  0.29135188944E+02  0.33234900710E+02  0.00000000000E+00 0.  1.
</event>
<event>
 7    1  0.2580704E-010  0.4778727E+02  0.7816164E-02  0.1312668E+00
        -11   -1    0    0    0    0  0.00000000000E+00  0.00000000000E+00  0.45593999997E+02  0.45594000000E+02  0.51100000000E-03 0.  1.
         11   -1    0    0    0    0 -0.00000000000E+00 -0.00000000000E+00 -0.45593999997E+02  0.45594000000E+02  0.51100000000E-03 0. -1.
    9900012    2    1    2    0    0 -0.30645134924E+02  0.28026578783E+02  0.12609906146E+02  0.47787272520E+02  0.20000006727E+02 0.  0.
         12    1    1    2    0    0  0.30645134924E+02 -0.28026578783E+02 -0.12609906146E+02  0.43400727480E+02  0.00000000000E+00 0. -1.
         11    1    3    3    0    0 -0.13428671118E+02  0.16465437920E+02  0.12536388692E+01  0.21284065978E+02  0.51100000000E-03 0. -1.
        -11    1    3    3    0    0 -0.50385569869E+01  0.99357994965E+01  0.81576372848E+01  0.13807759213E+02  0.51100000000E-03 0.  1.
        -12    1    3    3    0    0 -0.12177906819E+02  0.16253413665E+01  0.31986299923E+01  0.12695447329E+02  0.00000000000E+00 0.  1.
</event>
<event>
 7    1  0.2580704E-010  0.4778728E+02  0.7816164E-02  0.1312668E+00
        -11   -1    0    0    0    0  0.00000000000E+00  0.00000000000E+00  0.45593999997E+02  0.45594000000E+02  0.51100000000E-03 0. -1.
         11   -1    0    0    0    0 -0.00000000000E+00 -0.00000000000E+00 -0.45593999997E+02  0.45594000000E+02  0.51100000000E-03 0.  1.
    9900012    2    1    2    0    0 -0.20315311999E+02  0.36797539929E+02 -0.10809807712E+02  0.47787276628E+02  0.20000025456E+02 0.  0.
         12    1    1    2    0    0  0.20315311999E+02 -0.36797539929E+02  0.10809807712E+02  0.43400723372E+02  0.00000000000E+00 0. -1.
         11    1    3    3    0    0 -0.53129381049E+01 -0.54499495764E+00  0.96427414036E+00  0.54271682938E+01  0.51100000000E-03 0. -1.
        -11    1    3    3    0    0 -0.53371634273E+01  0.67348126137E+01 -0.24299273469E+01  0.89301490225E+01  0.51100000000E-03 0.  1.
        -12    1    3    3    0    0 -0.96652104670E+01  0.30607722273E+02 -0.93441545055E+01  0.33429959311E+02  0.00000000000E+00 0.  1.
</event>
<event>
 7    1  0.3689122E-010  0.4778728E+02  0.7816164E-02  0.1312668E+00
        -11   -1    0    0    0    0  0.00000000000E+00  0.00000000000E+00  0.45593999997E+02  0.45594000000E+02  0.51100000000E-03 0. -1.
         11   -1    0    0    0    0 -0.00000000000E+00 -0.00000000000E+00 -0.45593999997E+02  0.45594000000E+02  0.51100000000E-03 0.  1.
    9900012    2    1    2    0    0  0.19757530978E+02  0.38582672661E+02  0.21541226909E+01  0.47787275299E+02  0.20000019396E+02 0.  0.
         12    1    1    2    0    0 -0.19757530978E+02 -0.38582672661E+02 -0.21541226909E+01  0.43400724701E+02  0.00000000000E+00 0. -1.
         11    1    3    3    0    0 -0.22518586900E+01  0.56124815336E+01 -0.95106594736E+00  0.61217108084E+01  0.51100000000E-03 0. -1.
        -11    1    3    3    0    0  0.61772315054E+01  0.78308156834E+01  0.62811010106E+01  0.11786945894E+02  0.51100000000E-03 0.  1.
        -12    1    3    3    0    0  0.15832158163E+02  0.25139375444E+02 -0.31759123724E+01  0.29878618596E+02  0.00000000000E+00 0.  1.
</event>
<event>
 7    1  0.2580704E-010  0.4778728E+02  0.7816164E-02  0.1312668E+00
        -11   -1    0    0    0    0  0.00000000000E+00  0.00000000000E+00  0.45593999997E+02  0.45594000000E+02  0.51100000000E-03 0.  1.
         11   -1    0    0    0    0 -0.00000000000E+00 -0.00000000000E+00 -0.45593999997E+02  0.45594000000E+02  0.51100000000E-03 0. -1.
    9900012    2    1    2    0    0  0.17068066731E+02 -0.72117629528E+01  0.39246581856E+02  0.47787278644E+02  0.20000034650E+02 0.  0.
         12    1    1    2    0    0 -0.17068066731E+02  0.72117629528E+01 -0.39246581856E+02  0.43400721356E+02  0.00000000000E+00 0. -1.
         11    1    3    3    0    0  0.41952463368E+01  0.43683662886E+01  0.20142445728E+02  0.21033326794E+02  0.51100000000E-03 0. -1.
        -11    1    3    3    0    0  0.10126886382E+02 -0.52195508770E+01  0.14479330777E+02  0.18424129808E+02  0.51100000000E-03 0.  1.
        -12    1    3    3    0    0  0.27459340126E+01 -0.63605783643E+01  0.46248053511E+01  0.83298220429E+01  0.00000000000E+00 0.  1.
</event>
<event>
 7    1  0.2580704E-010  0.4778727E+02  0.7816164E-02  0.1312668E+00
        -11   -1    0    0    0    0  0.00000000000E+00  0.00000000000E+00  0.45593999997E+02  0.45594000000E+02  0.51100000000E-03 0.  1.
         11   -1    0    0    0    0 -0.00000000000E+00 -0.00000000000E+00 -0.45593999997E+02  0.45594000000E+02  0.51100000000E-03 0. -1.
    9900012    2    1    2    0    0  0.16153719083E+02 -0.74525697411E+01  0.39587118386E+02  0.47787269844E+02  0.19999994528E+02 0.  0.
         12    1    1    2    0    0 -0.16153719083E+02  0.74525697411E+01 -0.39587118386E+02  0.43400730156E+02  0.00000000000E+00 0. -1.
         11    1    3    3    0    0  0.26399959759E+01  0.11197915951E+01  0.20188579707E+02  0.20391230046E+02  0.51100000000E-03 0. -1.
        -11    1    3    3    0    0 -0.18358893955E+01 -0.17394536869E+01  0.29058699759E+01  0.38523070463E+01  0.51100000000E-03 0.  1.
        -12    1    3    3    0    0  0.15349612503E+02 -0.68329076493E+01  0.16492668703E+02  0.23543732752E+02  0.00000000000E+00 0.  1.
</event>
<event>
 7    1  0.2580704E-010  0.4778727E+02  0.7816164E-02  0.1312668E+00
        -11   -1    0    0    0    0  0.00000000000E+00  0.00000000000E+00  0.45593999997E+02  0.45594000000E+02  0.51100000000E-03 0. -1.
         11   -1    0    0    0    0 -0.00000000000E+00 -0.00000000000E+00 -0.45593999997E+02  0.45594000000E+02  0.51100000000E-03 0.  1.
    9900012    2    1    2    0    0  0.23893369139E+02  0.38858315108E+01 -0.36022639020E+02  0.47787270775E+02  0.19999998770E+02 0.  0.
         12    1    1    2    0    0 -0.23893369139E+02 -0.38858315108E+01  0.36022639020E+02  0.43400729225E+02  0.00000000000E+00 0. -1.
         11    1    3    3    0    0 -0.17325212799E+00  0.49581600246E+01 -0.82564479597E+01  0.96323569443E+01  0.51100000000E-03 0. -1.
        -11    1    3    3    0    0  0.67597307085E+01 -0.34663703420E+01 -0.13935320659E+02  0.15871447468E+02  0.51100000000E-03 0.  1.
        -12    1    3    3    0    0  0.17306890558E+02  0.23940418282E+01 -0.13830870401E+02  0.22283466362E+02  0.00000000000E+00 0.  1.
</event>
<event>
 7    1  0.2580704E-010  0.4778727E+02  0.7816164E-02  0.1312668E+00
        -11   -1    0    0    0    0  0.00000000000E+00  0.00000000000E+00  0.45593999997E+02  0.45594000000E+02  0.51100000000E-03 0. -1.
         11   -1    0    0    0    0 -0.00000000000E+00 -0.00000000000E+00 -0.45593999997E+02  0.45594000000E+02  0.51100000000E-03 0.  1.
    9900012    2    1    2    0    0 -0.15178893181E+02 -0.55529865309E+01 -0.40278885150E+02  0.47787273664E+02  0.20000011944E+02 0.  0.
         12    1    1    2    0    0  0.15178893181E+02  0.55529865309E+01  0.40278885150E+02  0.43400726336E+02  0.00000000000E+00 0. -1.
         11    1    3    3    0    0 -0.56697515345E+00  0.20372103025E+01 -0.66362895008E+01  0.69650574470E+01  0.51100000000E-03 0. -1.
        -11    1    3    3    0    0 -0.96949917648E+01 -0.28697602096E+01 -0.48131615767E+01  0.11197987034E+02  0.51100000000E-03 0.  1.
        -12    1    3    3    0    0 -0.49169262624E+01 -0.47204366238E+01 -0.28829434072E+02  0.29624229183E+02  0.00000000000E+00 0.  1.
</event>
<event>
 7    1  0.2580704E-010  0.4778727E+02  0.7816164E-02  0.1312668E+00
        -11   -1    0    0    0    0  0.00000000000E+00  0.00000000000E+00  0.45593999997E+02  0.45594000000E+02  0.51100000000E-03 0. -1.
         11   -1    0    0    0    0 -0.00000000000E+00 -0.00000000000E+00 -0.45593999997E+02  0.45594000000E+02  0.51100000000E-03 0.  1.
    9900012    2    1    2    0    0  0.50254966818E+01 -0.43093588305E+02 -0.11446863290E+01  0.47787271012E+02  0.19999999850E+02 0.  0.
         12    1    1    2    0    0 -0.50254966818E+01  0.43093588305E+02  0.11446863290E+01  0.43400728988E+02  0.00000000000E+00 0. -1.
         11    1    3    3    0    0  0.42638508738E+01 -0.18494327133E+02 -0.45406414456E+01  0.19515070724E+02  0.51100000000E-03 0. -1.
        -11    1    3    3    0    0 -0.84001208385E+00 -0.13049126351E+02 -0.48973235120E+01  0.13963133483E+02  0.51100000000E-03 0.  1.
        -12    1    3    3    0    0  0.16016578918E+01 -0.11550134822E+02  0.82932786286E+01  0.14309066804E+02  0.00000000000E+00 0.  1.
</event>
<event>
 7    1  0.2580704E-010  0.4778727E+02  0.7816164E-02  0.1312668E+00
        -11   -1    0    0    0    0  0.00000000000E+00  0.00000000000E+00  0.45593999997E+02  0.45594000000E+02  0.51100000000E-03 0.  1.
         11   -1    0    0    0    0 -0.00000000000E+00 -0.00000000000E+00 -0.45593999997E+02  0.45594000000E+02  0.51100000000E-03 0. -1.
    9900012    2    1    2    0    0 -0.29898465848E+01 -0.38737881344E+02  0.19340647480E+02  0.47787270990E+02  0.19999999753E+02 0.  0.
         12    1    1    2    0    0  0.29898465848E+01  0.38737881344E+02 -0.19340647480E+02  0.43400729010E+02  0.00000000000E+00 0. -1.
         11    1    3    3    0    0 -0.27530908862E+01 -0.13210305887E+02  0.12568238915E+02  0.18440507606E+02  0.51100000000E-03 0. -1.
        -11    1    3    3    0    0  0.55548185899E+01 -0.10548695250E+02  0.57998262033E+01  0.13257788854E+02  0.51100000000E-03 0.  1.
         12    1    3    3    0    0 -0.57915742885E+01 -0.14978880207E+02  0.97258236095E+00  0.16088974531E+02  0.00000000000E+00 0. -1.
</event>
<event>
 7    1  0.2580704E-010  0.4778727E+02  0.7816164E-02  0.1312668E+00
        -11   -1    0    0    0    0  0.00000000000E+00  0.00000000000E+00  0.45593999997E+02  0.45594000000E+02  0.51100000000E-03 0.  1.
         11   -1    0    0    0    0 -0.00000000000E+00 -0.00000000000E+00 -0.45593999997E+02  0.45594000000E+02  0.51100000000E-03 0. -1.
    9900012    2    1    2    0    0  0.31020960664E+02  0.28686641654E+02  0.99196769812E+01  0.47787269576E+02  0.19999993305E+02 0.  0.
         12    1    1    2    0    0 -0.31020960664E+02 -0.28686641654E+02 -0.99196769812E+01  0.43400730424E+02  0.00000000000E+00 0. -1.
         11    1    3    3    0    0  0.13312299227E+02  0.74474356793E+01  0.82291505867E+01  0.17332066482E+02  0.51100000000E-03 0. -1.
        -11    1    3    3    0    0  0.18821780203E+01  0.92502069367E+01  0.44027359397E+01  0.10415997623E+02  0.51100000000E-03 0.  1.
         12    1    3    3    0    0  0.15826483417E+02  0.11988999038E+02 -0.27122095452E+01  0.20039205471E+02  0.00000000000E+00 0. -1.
</event>
<event>
 7    1  0.2580704E-010  0.4778727E+02  0.7816164E-02  0.1312668E+00
        -11   -1    0    0    0    0  0.00000000000E+00  0.00000000000E+00  0.45593999997E+02  0.45594000000E+02  0.51100000000E-03 0.  1.
         11   -1    0    0    0    0 -0.00000000000E+00 -0.00000000000E+00 -0.45593999997E+02  0.45594000000E+02  0.51100000000E-03 0. -1.
    9900012    2    1    2    0    0  0.27042381782E+02  0.28761754420E+02  0.18030363830E+02  0.47787274780E+02  0.20000017033E+02 0.  0.
         12    1    1    2    0    0 -0.27042381782E+02 -0.28761754420E+02 -0.18030363830E+02  0.43400725220E+02  0.00000000000E+00 0. -1.
         11    1    3    3    0    0 -0.55066727631E+00 -0.32871871460E-01 -0.82714227655E+00  0.99422312179E+00  0.51100000000E-03 0. -1.
        -11    1    3    3    0    0  0.15001284049E+02  0.74715328052E+01  0.20942047724E+01  0.16889287121E+02  0.51100000000E-03 0.  1.
        -12    1    3    3    0    0  0.12591765010E+02  0.21323093486E+02  0.16763301334E+02  0.29903764537E+02  0.00000000000E+00 0.  1.
</event>
<event>
 7    1  0.2580704E-010  0.4778727E+02  0.7816164E-02  0.1312668E+00
        -11   -1    0    0    0    0  0.00000000000E+00  0.00000000000E+00  0.45593999997E+02  0.45594000000E+02  0.51100000000E-03 0. -1.
         11   -1    0    0    0    0 -0.00000000000E+00 -0.00000000000E+00 -0.45593999997E+02  0.45594000000E+02  0.51100000000E-03 0.  1.
    9900012    2    1    2    0    0 -0.12272883895E+02  0.22283317360E+02 -0.35163240411E+02  0.47787269732E+02  0.19999994014E+02 0.  0.
         12    1    1    2    0    0  0.12272883895E+02 -0.22283317360E+02  0.35163240411E+02  0.43400730268E+02  0.00000000000E+00 0. -1.
         11    1    3    3    0    0 -0.12440009527E+01  0.10623322179E+02 -0.25755252280E+02  0.27887910154E+02  0.51100000000E-03 0. -1.
        -11    1    3    3    0    0 -0.40873166229E+01  0.87558790898E+01 -0.72224750484E+01  0.12063818711E+02  0.51100000000E-03 0.  1.
         12    1    3    3    0    0 -0.69415663196E+01  0.29041160912E+01 -0.21855130826E+01  0.78355408668E+01  0.00000000000E+00 0. -1.
</event>
<event>
 7    1  0.2580704E-010  0.4778726E+02  0.7816164E-02  0.1312668E+00
        -11   -1    0    0    0    0  0.00000000000E+00  0.00000000000E+00  0.45593999997E+02  0.45594000000E+02  0.51100000000E-03 0.  1.
         11   -1    0    0    0    0 -0.00000000000E+00 -0.00000000000E+00 -0.45593999997E+02  0.45594000000E+02  0.51100000000E-03 0. -1.
    9900012    2    1    2    0    0  0.20117904586E+02  0.36564938193E+02  0.11912153030E+02  0.47787260607E+02  0.19999952413E+02 0.  0.
         12    1    1    2    0    0 -0.20117904586E+02 -0.36564938193E+02 -0.11912153030E+02  0.43400739393E+02  0.00000000000E+00 0. -1.
         11    1    3    3    0    0  0.63276819518E+01  0.52559391083E+01 -0.41488212781E+01  0.92128808227E+01  0.51100000000E-03 0. -1.
        -11    1    3    3    0    0 -0.21191513425E+00  0.71140119918E+01  0.32394803015E+01  0.78197383286E+01  0.51100000000E-03 0.  1.
        -12    1    3    3    0    0  0.14002137768E+02  0.24194987093E+02  0.12821494007E+02  0.30754641456E+02  0.00000000000E+00 0.  1.
</event>
<event>
 7    1  0.2580704E-010  0.4778727E+02  0.7816164E-02  0.1312668E+00
        -11   -1    0    0    0    0  0.00000000000E+00  0.00000000000E+00  0.45593999997E+02  0.45594000000E+02  0.51100000000E-03 0. -1.
         11   -1    0    0    0    0 -0.00000000000E+00 -0.00000000000E+00 -0.45593999997E+02  0.45594000000E+02  0.51100000000E-03 0.  1.
    9900012    2    1    2    0    0 -0.15851102733E+02 -0.48814536066E+01 -0.40106570516E+02  0.47787273673E+02  0.20000011986E+02 0.  0.
         12    1    1    2    0    0  0.15851102733E+02  0.48814536066E+01  0.40106570516E+02  0.43400726327E+02  0.00000000000E+00 0. -1.
         11    1    3    3    0    0 -0.21123855869E+01 -0.69688793976E+01 -0.77031932769E+01  0.10600313196E+02  0.51100000000E-03 0. -1.
        -11    1    3    3    0    0 -0.22250017225E+01 -0.29547757296E+01 -0.16534542884E+02  0.16943212238E+02  0.51100000000E-03 0.  1.
        -12    1    3    3    0    0 -0.11513715424E+02  0.50422015206E+01 -0.15868834355E+02  0.20243748240E+02  0.00000000000E+00 0.  1.
</event>
<event>
 7    1  0.2580704E-010  0.4778727E+02  0.7816164E-02  0.1312668E+00
        -11   -1    0    0    0    0  0.00000000000E+00  0.00000000000E+00  0.45593999997E+02  0.45594000000E+02  0.51100000000E-03 0.  1.
         11   -1    0    0    0    0 -0.00000000000E+00 -0.00000000000E+00 -0.45593999997E+02  0.45594000000E+02  0.51100000000E-03 0. -1.
    9900012    2    1    2    0    0  0.11099994271E+00  0.21704173907E+02 -0.37583771220E+02  0.47787270224E+02  0.19999996260E+02 0.  0.
         12    1    1    2    0    0 -0.11099994271E+00 -0.21704173907E+02  0.37583771220E+02  0.43400729776E+02  0.00000000000E+00 0. -1.
         11    1    3    3    0    0 -0.18134368011E+01  0.87821794604E+01 -0.20711938340E+02  0.22569883012E+02  0.51100000000E-03 0. -1.
        -11    1    3    3    0    0 -0.36691534876E+01  0.10483045232E+02 -0.15317355311E+02  0.18920314443E+02  0.51100000000E-03 0.  1.
         12    1    3    3    0    0  0.55935902313E+01  0.24389492144E+01 -0.15544775691E+01  0.62970727691E+01  0.00000000000E+00 0. -1.
</event>
<event>
 7    1  0.2580704E-010  0.4778727E+02  0.7816164E-02  0.1312668E+00
        -11   -1    0    0    0    0  0.00000000000E+00  0.00000000000E+00  0.45593999997E+02  0.45594000000E+02  0.51100000000E-03 0.  1.
         11   -1    0    0    0    0 -0.00000000000E+00 -0.00000000000E+00 -0.45593999997E+02  0.45594000000E+02  0.51100000000E-03 0. -1.
    9900012    2    1    2    0    0  0.23758684348E+02 -0.29794328241E+02  0.20771280624E+02  0.47787272172E+02  0.20000005139E+02 0.  0.
         12    1    1    2    0    0 -0.23758684348E+02  0.29794328241E+02 -0.20771280624E+02  0.43400727828E+02  0.00000000000E+00 0. -1.
         11    1    3    3    0    0  0.12511337099E+02 -0.68616058793E+01  0.39449172065E+01  0.14804646679E+02  0.51100000000E-03 0. -1.
        -11    1    3    3    0    0  0.13708190302E+02 -0.17755361629E+02  0.14925550599E+02  0.26943262774E+02  0.51100000000E-03 0.  1.
         12    1    3    3    0    0 -0.24608430530E+01 -0.51773607323E+01  0.19008128182E+01  0.60393627192E+01  0.00000000000E+00 0. -1.
</event>
<event>
 7    1  0.2580704E-010  0.4778727E+02  0.7816164E-02  0.1312668E+00
        -11   -1    0    0    0    0  0.00000000000E+00  0.00000000000E+00  0.45593999997E+02  0.45594000000E+02  0.51100000000E-03 0.  1.
         11   -1    0    0    0    0 -0.00000000000E+00 -0.00000000000E+00 -0.45593999997E+02  0.45594000000E+02  0.51100000000E-03 0. -1.
    9900012    2    1    2    0    0  0.14962162861E+02  0.24631565570E+02  0.32450625319E+02  0.47787269320E+02  0.19999992139E+02 0.  0.
         12    1    1    2    0    0 -0.14962162861E+02 -0.24631565570E+02 -0.32450625319E+02  0.43400730680E+02  0.00000000000E+00 0. -1.
         11    1    3    3    0    0  0.17010162989E+02  0.20534995867E+02  0.19382898825E+02  0.32965564872E+02  0.51100000000E-03 0. -1.
        -11    1    3    3    0    0  0.77180738369E-01 -0.46641108387E+00 -0.28479540414E+00  0.55191018189E+00  0.51100000000E-03 0.  1.
         12    1    3    3    0    0 -0.21251808666E+01  0.45629807872E+01  0.13352521898E+02  0.14269794267E+02  0.00000000000E+00 0. -1.
</event>
<event>
 7    1  0.2580704E-010  0.4778730E+02  0.7816164E-02  0.1312668E+00
        -11   -1    0    0    0    0  0.00000000000E+00  0.00000000000E+00  0.45593999997E+02  0.45594000000E+02  0.51100000000E-03 0.  1.
         11   -1    0    0    0    0 -0.00000000000E+00 -0.00000000000E+00 -0.45593999997E+02  0.45594000000E+02  0.51100000000E-03 0. -1.
    9900012    2    1    2    0    0  0.34851633292E+02 -0.52618605505E+01  0.25323852800E+02  0.47787296778E+02  0.20000117328E+02 0.  0.
         12    1    1    2    0    0 -0.34851633292E+02  0.52618605505E+01 -0.25323852800E+02  0.43400703222E+02  0.00000000000E+00 0. -1.
         11    1    3    3    0    0  0.16061565586E+02 -0.10858633018E+02  0.10571262607E+02  0.22082468011E+02  0.51100000000E-03 0.  1.
        -11    1    3    3    0    0  0.21285046108E+01  0.10451698253E+01 -0.75909724425E+00  0.24898073679E+01  0.51100000000E-03 0. -1.
        -12    1    3    3    0    0  0.16661563095E+02  0.45516026426E+01  0.15511687437E+02  0.23215021399E+02  0.00000000000E+00 0.  1.
</event>
<event>
 7    1  0.2580704E-010  0.4778727E+02  0.7816164E-02  0.1312668E+00
        -11   -1    0    0    0    0  0.00000000000E+00  0.00000000000E+00  0.45593999997E+02  0.45594000000E+02  0.51100000000E-03 0.  1.
         11   -1    0    0    0    0 -0.00000000000E+00 -0.00000000000E+00 -0.45593999997E+02  0.45594000000E+02  0.51100000000E-03 0. -1.
    9900012    2    1    2    0    0 -0.26150209329E+02  0.32445959468E+02  0.12126391994E+02  0.47787272857E+02  0.20000008264E+02 0.  0.
         12    1    1    2    0    0  0.26150209329E+02 -0.32445959468E+02 -0.12126391994E+02  0.43400727143E+02  0.00000000000E+00 0. -1.
         11    1    3    3    0    0 -0.15867214849E+02  0.13150941102E+02  0.71857167229E+00  0.20621156719E+02  0.51100000000E-03 0. -1.
        -11    1    3    3    0    0 -0.12549395058E+02  0.17577203430E+02  0.88467331838E+01  0.23339024938E+02  0.51100000000E-03 0.  1.
         12    1    3    3    0    0  0.22664005772E+01  0.17178149362E+01  0.25610871375E+01  0.38270912005E+01  0.00000000000E+00 0. -1.
</event>
<event>
 7    1  0.2580704E-010  0.4778728E+02  0.7816164E-02  0.1312668E+00
        -11   -1    0    0    0    0  0.00000000000E+00  0.00000000000E+00  0.45593999997E+02  0.45594000000E+02  0.51100000000E-03 0.  1.
         11   -1    0    0    0    0 -0.00000000000E+00 -0.00000000000E+00 -0.45593999997E+02  0.45594000000E+02  0.51100000000E-03 0. -1.
    9900012    2    1    2    0    0 -0.17123347912E+02 -0.21282472642E+01  0.39823160982E+02  0.47787278454E+02  0.20000033782E+02 0.  0.
         12    1    1    2    0    0  0.17123347912E+02  0.21282472642E+01 -0.39823160982E+02  0.43400721546E+02  0.00000000000E+00 0. -1.
         11    1    3    3    0    0  0.23759697164E+00 -0.53511592645E+01  0.69670952490E+01  0.87881610286E+01  0.51100000000E-03 0. -1.
        -11    1    3    3    0    0 -0.17616517502E+01 -0.10747915444E+01  0.14004875652E+02  0.14156098899E+02  0.51100000000E-03 0.  1.
         12    1    3    3    0    0 -0.15599293133E+02  0.42977035447E+01  0.18851190081E+02  0.24843018526E+02  0.00000000000E+00 0. -1.
</event>
<event>
 7    1  0.2580704E-010  0.4778727E+02  0.7816164E-02  0.1312668E+00
        -11   -1    0    0    0    0  0.00000000000E+00  0.00000000000E+00  0.45593999997E+02  0.45594000000E+02  0.51100000000E-03 0.  1.
         11   -1    0    0    0    0 -0.00000000000E+00 -0.00000000000E+00 -0.45593999997E+02  0.45594000000E+02  0.51100000000E-03 0. -1.
    9900012    2    1    2    0    0  0.21377614760E+02  0.26513051342E+02  0.26901278342E+02  0.47787273270E+02  0.20000010147E+02 0.  0.
         12    1    1    2    0    0 -0.21377614760E+02 -0.26513051342E+02 -0.26901278342E+02  0.43400726730E+02  0.00000000000E+00 0. -1.
         11    1    3    3    0    0  0.25485980019E+01  0.61539615945E+01 -0.82030880588E+00  0.67111475830E+01  0.51100000000E-03 0. -1.
        -11    1    3    3    0    0  0.74865912903E+01  0.16685353901E+02  0.15127602901E+02  0.23733825097E+02  0.51100000000E-03 0.  1.
        -12    1    3    3    0    0  0.11342425467E+02  0.36737358468E+01  0.12593984247E+02  0.17342300590E+02  0.00000000000E+00 0.  1.
</event>
<event>
 7    1  0.2580704E-010  0.4778727E+02  0.7816164E-02  0.1312668E+00
        -11   -1    0    0    0    0  0.00000000000E+00  0.00000000000E+00  0.45593999997E+02  0.45594000000E+02  0.51100000000E-03 0. -1.
         11   -1    0    0    0    0 -0.00000000000E+00 -0.00000000000E+00 -0.45593999997E+02  0.45594000000E+02  0.51100000000E-03 0.  1.
    9900012    2    1    2    0    0  0.38592083962E+01 -0.38049839671E+02 -0.20516803535E+02  0.47787274019E+02  0.20000013561E+02 0.  0.
         12    1    1    2    0    0 -0.38592083962E+01  0.38049839671E+02  0.20516803535E+02  0.43400725981E+02  0.00000000000E+00 0. -1.
         11    1    3    3    0    0 -0.42738112235E+01 -0.14407668133E+02 -0.57647675181E+01  0.16095928311E+02  0.51100000000E-03 0. -1.
        -11    1    3    3    0    0 -0.25747215219E+01 -0.10197291801E+02 -0.32423488025E+01  0.11005761082E+02  0.51100000000E-03 0.  1.
        -12    1    3    3    0    0  0.10707741142E+02 -0.13444879737E+02 -0.11509687214E+02  0.20685584625E+02  0.00000000000E+00 0.  1.
</event>
<event>
 7    1  0.2580704E-010  0.4778727E+02  0.7816164E-02  0.1312668E+00
        -11   -1    0    0    0    0  0.00000000000E+00  0.00000000000E+00  0.45593999997E+02  0.45594000000E+02  0.51100000000E-03 0.  1.
         11   -1    0    0    0    0 -0.00000000000E+00 -0.00000000000E+00 -0.45593999997E+02  0.45594000000E+02  0.51100000000E-03 0. -1.
    9900012    2    1    2    0    0  0.18937605414E+02 -0.20538456055E+02  0.33213887743E+02  0.47787269419E+02  0.19999992588E+02 0.  0.
         12    1    1    2    0    0 -0.18937605414E+02  0.20538456055E+02 -0.33213887743E+02  0.43400730581E+02  0.00000000000E+00 0. -1.
         11    1    3    3    0    0  0.12714830029E+02 -0.10315504086E+02  0.25207225217E+02  0.30057956195E+02  0.51100000000E-03 0. -1.
        -11    1    3    3    0    0  0.77391587541E+01 -0.75401114365E+01  0.94239328280E+01  0.14337306892E+02  0.51100000000E-03 0.  1.
        -12    1    3    3    0    0 -0.15163833687E+01 -0.26828405333E+01 -0.14172703021E+01  0.33920063321E+01  0.00000000000E+00 0.  1.
</event>
<event>
 7    1  0.2580704E-010  0.4778727E+02  0.7816164E-02  0.1312668E+00
        -11   -1    0    0    0    0  0.00000000000E+00  0.00000000000E+00  0.45593999997E+02  0.45594000000E+02  0.51100000000E-03 0.  1.
         11   -1    0    0    0    0 -0.00000000000E+00 -0.00000000000E+00 -0.45593999997E+02  0.45594000000E+02  0.51100000000E-03 0. -1.
    9900012    2    1    2    0    0  0.38766380427E+02 -0.14279035154E+02 -0.13300389463E+02  0.47787268944E+02  0.19999990422E+02 0.  0.
         12    1    1    2    0    0 -0.38766380427E+02  0.14279035154E+02  0.13300389463E+02  0.43400731056E+02  0.00000000000E+00 0. -1.
         11    1    3    3    0    0  0.39663016157E+01  0.37326144129E+01 -0.11924788894E+01  0.55754789054E+01  0.51100000000E-03 0. -1.
        -11    1    3    3    0    0 -0.54122006182E+00  0.31614863874E+00 -0.17008212743E+00  0.64945924297E+00  0.51100000000E-03 0.  1.
        -12    1    3    3    0    0  0.35341298873E+02 -0.18327798206E+02 -0.11937828446E+02  0.41562330795E+02  0.00000000000E+00 0.  1.
</event>
<event>
 7    1  0.2580704E-010  0.4778728E+02  0.7816164E-02  0.1312668E+00
        -11   -1    0    0    0    0  0.00000000000E+00  0.00000000000E+00  0.45593999997E+02  0.45594000000E+02  0.51100000000E-03 0.  1.
         11   -1    0    0    0    0 -0.00000000000E+00 -0.00000000000E+00 -0.45593999997E+02  0.45594000000E+02  0.51100000000E-03 0. -1.
    9900012    2    1    2    0    0 -0.10149830636E+02  0.10056012610E+02  0.40981464996E+02  0.47787275066E+02  0.20000018335E+02 0.  0.
         12    1    1    2    0    0  0.10149830636E+02 -0.10056012610E+02 -0.40981464996E+02  0.43400724934E+02  0.00000000000E+00 0. -1.
         11    1    3    3    0    0 -0.45689861023E+01 -0.78872907808E+00  0.33731737948E+01  0.57337622267E+01  0.51100000000E-03 0. -1.
        -11    1    3    3    0    0 -0.35634739956E+01  0.74861523311E+01  0.60767049242E+01  0.10279453616E+02  0.51100000000E-03 0.  1.
         12    1    3    3    0    0 -0.20173705381E+01  0.33585893573E+01  0.31531586277E+02  0.31774059223E+02  0.00000000000E+00 0. -1.
</event>
<event>
 7    1  0.2580704E-010  0.4778723E+02  0.7816164E-02  0.1312668E+00
        -11   -1    0    0    0    0  0.00000000000E+00  0.00000000000E+00  0.45593999997E+02  0.45594000000E+02  0.51100000000E-03 0.  1.
         11   -1    0    0    0    0 -0.00000000000E+00 -0.00000000000E+00 -0.45593999997E+02  0.45594000000E+02  0.51100000000E-03 0. -1.
    9900012    2    1    2    0    0 -0.18711440565E+02  0.19860298132E+02  0.33750224559E+02  0.47787226877E+02  0.19999798621E+02 0.  0.
         12    1    1    2    0    0  0.18711440565E+02 -0.19860298132E+02 -0.33750224559E+02  0.43400773123E+02  0.00000000000E+00 0. -1.
         11    1    3    3    0    0 -0.60426211522E+00 -0.12845216800E+01 -0.16995605636E+01  0.22144152774E+01  0.51100000000E-03 0. -1.
        -11    1    3    3    0    0 -0.49836382004E+01  0.71177936277E+01  0.65926875168E+01  0.10907023645E+02  0.51100000000E-03 0.  1.
        -12    1    3    3    0    0 -0.13123540249E+02  0.14027026184E+02  0.28857097606E+02  0.34665787954E+02  0.00000000000E+00 0.  1.
</event>
<event>
 7    1  0.2580704E-010  0.4778727E+02  0.7816164E-02  0.1312668E+00
        -11   -1    0    0    0    0  0.00000000000E+00  0.00000000000E+00  0.45593999997E+02  0.45594000000E+02  0.51100000000E-03 0.  1.
         11   -1    0    0    0    0 -0.00000000000E+00 -0.00000000000E+00 -0.45593999997E+02  0.45594000000E+02  0.51100000000E-03 0. -1.
    9900012    2    1    2    0    0  0.52147787900E+01  0.37451922157E+02  0.21302179595E+02  0.47787271359E+02  0.20000001433E+02 0.  0.
         12    1    1    2    0    0 -0.52147787900E+01 -0.37451922157E+02 -0.21302179595E+02  0.43400728641E+02  0.00000000000E+00 0. -1.
         11    1    3    3    0    0 -0.90360793115E+00  0.21775716655E+01  0.22555071321E+01  0.32627654429E+01  0.51100000000E-03 0. -1.
        -11    1    3    3    0    0 -0.14650362896E+01  0.15950812448E+02  0.17476950391E+02  0.23706930301E+02  0.51100000000E-03 0.  1.
        -12    1    3    3    0    0  0.75834230108E+01  0.19323538044E+02  0.15697220719E+01  0.20817575615E+02  0.00000000000E+00 0.  1.
</event>
<event>
 7    1  0.2580704E-010  0.4778727E+02  0.7816164E-02  0.1312668E+00
        -11   -1    0    0    0    0  0.00000000000E+00  0.00000000000E+00  0.45593999997E+02  0.45594000000E+02  0.51100000000E-03 0.  1.
         11   -1    0    0    0    0 -0.00000000000E+00 -0.00000000000E+00 -0.45593999997E+02  0.45594000000E+02  0.51100000000E-03 0. -1.
    9900012    2    1    2    0    0  0.36633639991E+02  0.12143302012E+02  0.19852962107E+02  0.47787268817E+02  0.19999989845E+02 0.  0.
         12    1    1    2    0    0 -0.36633639991E+02 -0.12143302012E+02 -0.19852962107E+02  0.43400731183E+02  0.00000000000E+00 0. -1.
         11    1    3    3    0    0  0.47084647691E+01  0.43556190624E+01  0.43826190082E+01  0.77684237481E+01  0.51100000000E-03 0. -1.
        -11    1    3    3    0    0  0.23323705361E+02  0.11648791429E+02  0.15976809946E+02  0.30576919888E+02  0.51100000000E-03 0.  1.
         12    1    3    3    0    0  0.86014698607E+01 -0.38611084794E+01 -0.50646684658E+00  0.94419251808E+01  0.00000000000E+00 0. -1.
</event>
<event>
 7    1  0.2580704E-010  0.4778728E+02  0.7816164E-02  0.1312668E+00
        -11   -1    0    0    0    0  0.00000000000E+00  0.00000000000E+00  0.45593999997E+02  0.45594000000E+02  0.51100000000E-03 0.  1.
         11   -1    0    0    0    0 -0.00000000000E+00 -0.00000000000E+00 -0.45593999997E+02  0.45594000000E+02  0.51100000000E-03 0. -1.
    9900012    2    1    2    0    0  0.21389073112E+02 -0.34220551156E+02  0.15971346474E+02  0.47787280211E+02  0.20000041794E+02 0.  0.
         12    1    1    2    0    0 -0.21389073112E+02  0.34220551156E+02 -0.15971346474E+02  0.43400719789E+02  0.00000000000E+00 0. -1.
         11    1    3    3    0    0  0.84778510108E+01 -0.82697240376E+01  0.39966121040E+01  0.12499408066E+02  0.51100000000E-03 0. -1.
        -11    1    3    3    0    0  0.13875838516E+02 -0.23936780576E+02  0.15043102197E+02  0.31492908453E+02  0.51100000000E-03 0.  1.
         12    1    3    3    0    0 -0.96461641528E+00 -0.20140465427E+01 -0.30683678268E+01  0.37949636923E+01  0.00000000000E+00 0. -1.
</event>
<event>
 7    1  0.2580704E-010  0.4778727E+02  0.7816164E-02  0.1312668E+00
        -11   -1    0    0    0    0  0.00000000000E+00  0.00000000000E+00  0.45593999997E+02  0.45594000000E+02  0.51100000000E-03 0.  1.
         11   -1    0    0    0    0 -0.00000000000E+00 -0.00000000000E+00 -0.45593999997E+02  0.45594000000E+02  0.51100000000E-03 0. -1.
    9900012    2    1    2    0    0 -0.31553449157E+02  0.26225796575E+02 -0.14149587828E+02  0.47787269645E+02  0.19999993619E+02 0.  0.
         12    1    1    2    0    0  0.31553449157E+02 -0.26225796575E+02  0.14149587828E+02  0.43400730355E+02  0.00000000000E+00 0. -1.
         11    1    3    3    0    0  0.32436565867E-01  0.87521435069E+00 -0.63164354582E+01  0.63768651742E+01  0.51100000000E-03 0. -1.
        -11    1    3    3    0    0 -0.52850899366E+01  0.33998456075E+01 -0.70687662071E-01  0.62845940839E+01  0.51100000000E-03 0.  1.
         12    1    3    3    0    0 -0.26300795786E+02  0.21950736617E+02 -0.77624647075E+01  0.35125810387E+02  0.00000000000E+00 0. -1.
</event>
<event>
 7    1  0.2813744E-010  0.4778728E+02  0.7816164E-02  0.1312668E+00
        -11   -1    0    0    0    0  0.00000000000E+00  0.00000000000E+00  0.45593999997E+02  0.45594000000E+02  0.51100000000E-03 0. -1.
         11   -1    0    0    0    0 -0.00000000000E+00 -0.00000000000E+00 -0.45593999997E+02  0.45594000000E+02  0.51100000000E-03 0.  1.
    9900012    2    1    2    0    0  0.42278217428E+02  0.92555877514E+01  0.32417947734E+01  0.47787276425E+02  0.20000024532E+02 0.  0.
         12    1    1    2    0    0 -0.42278217428E+02 -0.92555877514E+01 -0.32417947734E+01  0.43400723575E+02  0.00000000000E+00 0. -1.
         11    1    3    3    0    0 -0.78934988850E+00 -0.13428159325E+01  0.48019537042E+00  0.16299741501E+01  0.51100000000E-03 0. -1.
        -11    1    3    3    0    0  0.81378170308E+01  0.57324096727E+01 -0.30581097382E+01  0.10413290648E+02  0.51100000000E-03 0.  1.
        -12    1    3    3    0    0  0.34929750285E+02  0.48659940112E+01  0.58197091412E+01  0.35744011627E+02  0.00000000000E+00 0.  1.
</event>
<event>
 7    1  0.2580704E-010  0.4778727E+02  0.7816164E-02  0.1312668E+00
        -11   -1    0    0    0    0  0.00000000000E+00  0.00000000000E+00  0.45593999997E+02  0.45594000000E+02  0.51100000000E-03 0. -1.
         11   -1    0    0    0    0 -0.00000000000E+00 -0.00000000000E+00 -0.45593999997E+02  0.45594000000E+02  0.51100000000E-03 0.  1.
    9900012    2    1    2    0    0  0.31301499352E+02  0.24927807217E+02 -0.16806064744E+02  0.47787271359E+02  0.20000001436E+02 0.  0.
         12    1    1    2    0    0 -0.31301499352E+02 -0.24927807217E+02  0.16806064744E+02  0.43400728641E+02  0.00000000000E+00 0. -1.
         11    1    3    3    0    0  0.10159654155E+02  0.88387219757E+01  0.16511524026E+01  0.13567161945E+02  0.51100000000E-03 0. -1.
        -11    1    3    3    0    0  0.20114618515E+00  0.50624723167E+01 -0.22985199698E+01  0.55634773351E+01  0.51100000000E-03 0.  1.
        -12    1    3    3    0    0  0.20940699012E+02  0.11026612925E+02 -0.16158697177E+02  0.28656632080E+02  0.00000000000E+00 0.  1.
</event>
<event>
 7    1  0.2580704E-010  0.4778727E+02  0.7816164E-02  0.1312668E+00
        -11   -1    0    0    0    0  0.00000000000E+00  0.00000000000E+00  0.45593999997E+02  0.45594000000E+02  0.51100000000E-03 0.  1.
         11   -1    0    0    0    0 -0.00000000000E+00 -0.00000000000E+00 -0.45593999997E+02  0.45594000000E+02  0.51100000000E-03 0. -1.
    9900012    2    1    2    0    0 -0.83529184796E+01 -0.34977030344E+02  0.24299368047E+02  0.47787272054E+02  0.20000004601E+02 0.  0.
         12    1    1    2    0    0  0.83529184796E+01  0.34977030344E+02 -0.24299368047E+02  0.43400727946E+02  0.00000000000E+00 0. -1.
         11    1    3    3    0    0 -0.80432532488E+01 -0.19563645019E+02  0.18160099743E+02  0.27878654060E+02  0.51100000000E-03 0. -1.
        -11    1    3    3    0    0  0.27848259668E+00 -0.54277656760E+01  0.80617212301E+01  0.97226304179E+01  0.51100000000E-03 0.  1.
         12    1    3    3    0    0 -0.58814782752E+00 -0.99856196488E+01 -0.19224529265E+01  0.10185987576E+02  0.00000000000E+00 0. -1.
</event>
<event>
 7    1  0.2580704E-010  0.4778727E+02  0.7816164E-02  0.1312668E+00
        -11   -1    0    0    0    0  0.00000000000E+00  0.00000000000E+00  0.45593999997E+02  0.45594000000E+02  0.51100000000E-03 0.  1.
         11   -1    0    0    0    0 -0.00000000000E+00 -0.00000000000E+00 -0.45593999997E+02  0.45594000000E+02  0.51100000000E-03 0. -1.
    9900012    2    1    2    0    0 -0.13015518021E+02  0.12945926751E+02  0.39327120470E+02  0.47787272665E+02  0.20000007387E+02 0.  0.
         12    1    1    2    0    0  0.13015518021E+02 -0.12945926751E+02 -0.39327120470E+02  0.43400727335E+02  0.00000000000E+00 0. -1.
         11    1    3    3    0    0 -0.52815265410E+01  0.92809150215E+01  0.10937139861E+02  0.15285644731E+02  0.51100000000E-03 0. -1.
        -11    1    3    3    0    0 -0.75384645820E+01  0.78647448730E+01  0.15516572017E+02  0.18959078764E+02  0.51100000000E-03 0.  1.
        -12    1    3    3    0    0 -0.19552689769E+00 -0.41997331430E+01  0.12873408592E+02  0.13542549169E+02  0.00000000000E+00 0.  1.
</event>
<event>
 7    1  0.2580704E-010  0.4778727E+02  0.7816164E-02  0.1312668E+00
        -11   -1    0    0    0    0  0.00000000000E+00  0.00000000000E+00  0.45593999997E+02  0.45594000000E+02  0.51100000000E-03 0.  1.
         11   -1    0    0    0    0 -0.00000000000E+00 -0.00000000000E+00 -0.45593999997E+02  0.45594000000E+02  0.51100000000E-03 0. -1.
    9900012    2    1    2    0    0 -0.12837251710E+02  0.11296692271E+02  0.39890011396E+02  0.47787270779E+02  0.19999998788E+02 0.  0.
         12    1    1    2    0    0  0.12837251710E+02 -0.11296692271E+02 -0.39890011396E+02  0.43400729221E+02  0.00000000000E+00 0. -1.
         11    1    3    3    0    0  0.40708783486E+01 -0.77054834391E+00  0.11323651597E+02  0.12057814106E+02  0.51100000000E-03 0. -1.
        -11    1    3    3    0    0 -0.11397169260E-01 -0.32610533770E+00  0.32638227905E-01  0.32793307516E+00  0.51100000000E-03 0.  1.
        -12    1    3    3    0    0 -0.16896732890E+02  0.12393345953E+02  0.28533721572E+02  0.35401523597E+02  0.00000000000E+00 0.  1.
</event>
<event>
 7    1  0.2580704E-010  0.4778727E+02  0.7816164E-02  0.1312668E+00
        -11   -1    0    0    0    0  0.00000000000E+00  0.00000000000E+00  0.45593999997E+02  0.45594000000E+02  0.51100000000E-03 0.  1.
         11   -1    0    0    0    0 -0.00000000000E+00 -0.00000000000E+00 -0.45593999997E+02  0.45594000000E+02  0.51100000000E-03 0. -1.
    9900012    2    1    2    0    0  0.59699661378E+01  0.84165132980E+01  0.42156199458E+02  0.47787270230E+02  0.19999996289E+02 0.  0.
         12    1    1    2    0    0 -0.59699661378E+01 -0.84165132980E+01 -0.42156199458E+02  0.43400729770E+02  0.00000000000E+00 0. -1.
         11    1    3    3    0    0  0.11298877575E+01 -0.41989850186E+01  0.78232085266E+01  0.89504588398E+01  0.51100000000E-03 0. -1.
        -11    1    3    3    0    0 -0.31121242117E+01  0.35572386360E+01  0.39831689578E+01  0.61810111657E+01  0.51100000000E-03 0.  1.
        -12    1    3    3    0    0  0.79522025921E+01  0.90582596806E+01  0.30349821974E+02  0.32655800225E+02  0.00000000000E+00 0.  1.
</event>
<event>
 7    1  0.2580704E-010  0.4778727E+02  0.7816164E-02  0.1312668E+00
        -11   -1    0    0    0    0  0.00000000000E+00  0.00000000000E+00  0.45593999997E+02  0.45594000000E+02  0.51100000000E-03 0. -1.
         11   -1    0    0    0    0 -0.00000000000E+00 -0.00000000000E+00 -0.45593999997E+02  0.45594000000E+02  0.51100000000E-03 0.  1.
    9900012    2    1    2    0    0  0.29103812745E+02  0.12106515743E+02 -0.29833265800E+02  0.47787269729E+02  0.19999994004E+02 0.  0.
         12    1    1    2    0    0 -0.29103812745E+02 -0.12106515743E+02  0.29833265800E+02  0.43400730271E+02  0.00000000000E+00 0. -1.
         11    1    3    3    0    0  0.14224476491E+01  0.30839932060E+01 -0.63726287577E+01  0.72211334951E+01  0.51100000000E-03 0. -1.
        -11    1    3    3    0    0  0.18274659940E+02  0.13442371882E+02 -0.16643083559E+02  0.28136325068E+02  0.51100000000E-03 0.  1.
         12    1    3    3    0    0  0.94067051564E+01 -0.44198493448E+01 -0.68175534825E+01  0.12429811166E+02  0.00000000000E+00 0. -1.
</event>
<event>
 7    1  0.2580704E-010  0.4778729E+02  0.7816164E-02  0.1312668E+00
        -11   -1    0    0    0    0  0.00000000000E+00  0.00000000000E+00  0.45593999997E+02  0.45594000000E+02  0.51100000000E-03 0.  1.
         11   -1    0    0    0    0 -0.00000000000E+00 -0.00000000000E+00 -0.45593999997E+02  0.45594000000E+02  0.51100000000E-03 0. -1.
    9900012    2    1    2    0    0 -0.32588129069E+02 -0.26229469785E+02  0.11560733127E+02  0.47787288118E+02  0.20000077845E+02 0.  0.
         12    1    1    2    0    0  0.32588129069E+02  0.26229469785E+02 -0.11560733127E+02  0.43400711882E+02  0.00000000000E+00 0. -1.
         11    1    3    3    0    0 -0.16246352431E+02 -0.73907982162E+01  0.43660120535E+01  0.18374708899E+02  0.51100000000E-03 0. -1.
        -11    1    3    3    0    0 -0.10663380067E+02 -0.31981392128E+01  0.62018118799E+01  0.12743556793E+02  0.51100000000E-03 0.  1.
        -12    1    3    3    0    0 -0.56783965710E+01 -0.15640532356E+02  0.99290919347E+00  0.16669022427E+02  0.00000000000E+00 0.  1.
</event>
<event>
 7    1  0.2640045E-010  0.4778727E+02  0.7816164E-02  0.1312668E+00
        -11   -1    0    0    0    0  0.00000000000E+00  0.00000000000E+00  0.45593999997E+02  0.45594000000E+02  0.51100000000E-03 0. -1.
         11   -1    0    0    0    0 -0.00000000000E+00 -0.00000000000E+00 -0.45593999997E+02  0.45594000000E+02  0.51100000000E-03 0.  1.
    9900012    2    1    2    0    0 -0.35393383738E+02 -0.88996210661E+01 -0.23488903263E+02  0.47787269084E+02  0.19999991062E+02 0.  0.
         12    1    1    2    0    0  0.35393383738E+02  0.88996210661E+01  0.23488903263E+02  0.43400730916E+02  0.00000000000E+00 0. -1.
         11    1    3    3    0    0 -0.11104786019E+01  0.29894791354E+01 -0.13732766573E+00  0.31920224585E+01  0.51100000000E-03 0. -1.
        -11    1    3    3    0    0 -0.11799687227E+02  0.11443922308E+01 -0.91855422448E+01  0.14997214369E+02  0.51100000000E-03 0.  1.
        -12    1    3    3    0    0 -0.22483217909E+02 -0.13033492432E+02 -0.14166033352E+02  0.29598032256E+02  0.00000000000E+00 0.  1.
</event>
<event>
 7    1  0.2580704E-010  0.4778727E+02  0.7816164E-02  0.1312668E+00
        -11   -1    0    0    0    0  0.00000000000E+00  0.00000000000E+00  0.45593999997E+02  0.45594000000E+02  0.51100000000E-03 0.  1.
         11   -1    0    0    0    0 -0.00000000000E+00 -0.00000000000E+00 -0.45593999997E+02  0.45594000000E+02  0.51100000000E-03 0. -1.
    9900012    2    1    2    0    0 -0.36979818274E+00 -0.94415733404E+01  0.42359689513E+02  0.47787270128E+02  0.19999995821E+02 0.  0.
         12    1    1    2    0    0  0.36979818274E+00  0.94415733404E+01 -0.42359689513E+02  0.43400729872E+02  0.00000000000E+00 0. -1.
         11    1    3    3    0    0 -0.35128367205E+00 -0.74390044434E+01  0.61343755597E+01  0.96484584829E+01  0.51100000000E-03 0. -1.
        -11    1    3    3    0    0 -0.41497095698E+01 -0.13455994538E+01  0.50042828166E+01  0.66387931263E+01  0.51100000000E-03 0.  1.
        -12    1    3    3    0    0  0.41311950591E+01 -0.65696944323E+00  0.31221031136E+02  0.31500018519E+02  0.00000000000E+00 0.  1.
</event>
<event>
 7    1  0.2580704E-010  0.4778727E+02  0.7816164E-02  0.1312668E+00
        -11   -1    0    0    0    0  0.00000000000E+00  0.00000000000E+00  0.45593999997E+02  0.45594000000E+02  0.51100000000E-03 0.  1.
         11   -1    0    0    0    0 -0.00000000000E+00 -0.00000000000E+00 -0.45593999997E+02  0.45594000000E+02  0.51100000000E-03 0. -1.
    9900012    2    1    2    0    0  0.13309916124E+02  0.40546485135E+02  0.79026451038E+01  0.47787272775E+02  0.20000007889E+02 0.  0.
         12    1    1    2    0    0 -0.13309916124E+02 -0.40546485135E+02 -0.79026451038E+01  0.43400727225E+02  0.00000000000E+00 0. -1.
         11    1    3    3    0    0 -0.26325676414E+01  0.12849536271E+02 -0.83265336005E+00  0.13142842411E+02  0.51100000000E-03 0. -1.
        -11    1    3    3    0    0  0.57925972182E+01  0.19597491214E+02  0.40059777281E+01  0.20824593687E+02  0.51100000000E-03 0.  1.
         12    1    3    3    0    0  0.10149886547E+02  0.80994576506E+01  0.47293207358E+01  0.13819836677E+02  0.00000000000E+00 0. -1.
</event>
<event>
 7    1  0.2580704E-010  0.4778727E+02  0.7816164E-02  0.1312668E+00
        -11   -1    0    0    0    0  0.00000000000E+00  0.00000000000E+00  0.45593999997E+02  0.45594000000E+02  0.51100000000E-03 0. -1.
         11   -1    0    0    0    0 -0.00000000000E+00 -0.00000000000E+00 -0.45593999997E+02  0.45594000000E+02  0.51100000000E-03 0.  1.
    9900012    2    1    2    0    0 -0.14518167260E+02  0.39411230915E+02 -0.10936231500E+02  0.47787268874E+02  0.19999990104E+02 0.  0.
         12    1    1    2    0    0  0.14518167260E+02 -0.39411230915E+02  0.10936231500E+02  0.43400731126E+02  0.00000000000E+00 0. -1.
         11    1    3    3    0    0 -0.21338714788E+01  0.24785801860E+02 -0.11825325160E+02  0.27545012193E+02  0.51100000000E-03 0. -1.
        -11    1    3    3    0    0 -0.38072545585E+01  0.25921262867E+01 -0.22642166631E+01  0.51323467652E+01  0.51100000000E-03 0.  1.
         12    1    3    3    0    0 -0.85770412222E+01  0.12033302769E+02  0.31533103236E+01  0.15109909915E+02  0.00000000000E+00 0. -1.
</event>
<event>
 7    1  0.2580704E-010  0.4778727E+02  0.7816164E-02  0.1312668E+00
        -11   -1    0    0    0    0  0.00000000000E+00  0.00000000000E+00  0.45593999997E+02  0.45594000000E+02  0.51100000000E-03 0.  1.
         11   -1    0    0    0    0 -0.00000000000E+00 -0.00000000000E+00 -0.45593999997E+02  0.45594000000E+02  0.51100000000E-03 0. -1.
    9900012    2    1    2    0    0 -0.35588051905E+02 -0.16816437402E+02  0.18284452036E+02  0.47787271993E+02  0.20000004324E+02 0.  0.
         12    1    1    2    0    0  0.35588051905E+02  0.16816437402E+02 -0.18284452036E+02  0.43400728007E+02  0.00000000000E+00 0. -1.
         11    1    3    3    0    0 -0.83799586094E+00 -0.13747887811E+01 -0.63107384940E+00  0.17293165471E+01  0.51100000000E-03 0. -1.
        -11    1    3    3    0    0 -0.14616256376E+02  0.23342277675E+01  0.95450787340E+01  0.17612271234E+02  0.51100000000E-03 0.  1.
         12    1    3    3    0    0 -0.20133799669E+02 -0.17775876388E+02  0.93704471518E+01  0.28445684212E+02  0.00000000000E+00 0. -1.
</event>
<event>
 7    1  0.2580704E-010  0.4778728E+02  0.7816164E-02  0.1312668E+00
        -11   -1    0    0    0    0  0.00000000000E+00  0.00000000000E+00  0.45593999997E+02  0.45594000000E+02  0.51100000000E-03 0.  1.
         11   -1    0    0    0    0 -0.00000000000E+00 -0.00000000000E+00 -0.45593999997E+02  0.45594000000E+02  0.51100000000E-03 0. -1.
    9900012    2    1    2    0    0  0.10051390798E+02  0.11259226311E+02  0.40691795362E+02  0.47787275998E+02  0.20000022585E+02 0.  0.
         12    1    1    2    0    0 -0.10051390798E+02 -0.11259226311E+02 -0.40691795362E+02  0.43400724002E+02  0.00000000000E+00 0. -1.
         11    1    3    3    0    0 -0.51301849697E+00 -0.53164917100E+00 -0.14670562060E+00  0.75323410670E+00  0.51100000000E-03 0. -1.
        -11    1    3    3    0    0  0.13056150456E+02  0.10968060996E+02  0.21132421005E+02  0.27154017097E+02  0.51100000000E-03 0.  1.
        -12    1    3    3    0    0 -0.24917411614E+01  0.82281448577E+00  0.19706079978E+02  0.19880024794E+02  0.00000000000E+00 0.  1.
</event>
<event>
 7    1  0.2580704E-010  0.4778729E+02  0.7816164E-02  0.1312668E+00
        -11   -1    0    0    0    0  0.00000000000E+00  0.00000000000E+00  0.45593999997E+02  0.45594000000E+02  0.51100000000E-03 0.  1.
         11   -1    0    0    0    0 -0.00000000000E+00 -0.00000000000E+00 -0.45593999997E+02  0.45594000000E+02  0.51100000000E-03 0. -1.
    9900012    2    1    2    0    0 -0.22286262187E+02 -0.17826457729E+02  0.32698040021E+02  0.47787286888E+02  0.20000072237E+02 0.  0.
         12    1    1    2    0    0  0.22286262187E+02  0.17826457729E+02 -0.32698040021E+02  0.43400713112E+02  0.00000000000E+00 0. -1.
         11    1    3    3    0    0 -0.10788123423E+01  0.27897464302E+01  0.26345131843E+01  0.39858727017E+01  0.51100000000E-03 0. -1.
        -11    1    3    3    0    0 -0.95878714795E+01 -0.12768226747E+02  0.85239365895E+01  0.18100065995E+02  0.51100000000E-03 0.  1.
         12    1    3    3    0    0 -0.11619578365E+02 -0.78479774116E+01  0.21539590247E+02  0.25701348191E+02  0.00000000000E+00 0. -1.
</event>
<event>
 7    1  0.2580704E-010  0.4778727E+02  0.7816164E-02  0.1312668E+00
        -11   -1    0    0    0    0  0.00000000000E+00  0.00000000000E+00  0.45593999997E+02  0.45594000000E+02  0.51100000000E-03 0.  1.
         11   -1    0    0    0    0 -0.00000000000E+00 -0.00000000000E+00 -0.45593999997E+02  0.45594000000E+02  0.51100000000E-03 0. -1.
    9900012    2    1    2    0    0 -0.41625723178E+02 -0.11108194955E+02  0.52469421993E+01  0.47787271576E+02  0.20000002425E+02 0.  0.
         12    1    1    2    0    0  0.41625723178E+02  0.11108194955E+02 -0.52469421993E+01  0.43400728424E+02  0.00000000000E+00 0. -1.
         11    1    3    3    0    0 -0.16921139793E+02 -0.12228679897E+01  0.62434664759E+01  0.18077645087E+02  0.51100000000E-03 0. -1.
        -11    1    3    3    0    0 -0.18628205078E+02 -0.74177081311E+00  0.36852024802E+00  0.18646609767E+02  0.51100000000E-03 0.  1.
        -12    1    3    3    0    0 -0.60763783071E+01 -0.91435561518E+01 -0.13650445246E+01  0.11063016722E+02  0.00000000000E+00 0.  1.
</event>
<event>
 7    1  0.2580704E-010  0.4778727E+02  0.7816164E-02  0.1312668E+00
        -11   -1    0    0    0    0  0.00000000000E+00  0.00000000000E+00  0.45593999997E+02  0.45594000000E+02  0.51100000000E-03 0. -1.
         11   -1    0    0    0    0 -0.00000000000E+00 -0.00000000000E+00 -0.45593999997E+02  0.45594000000E+02  0.51100000000E-03 0.  1.
    9900012    2    1    2    0    0  0.15997713940E+02  0.37490362992E+02  0.14905341679E+02  0.47787269831E+02  0.19999994469E+02 0.  0.
         12    1    1    2    0    0 -0.15997713940E+02 -0.37490362992E+02 -0.14905341679E+02  0.43400730169E+02  0.00000000000E+00 0. -1.
         11    1    3    3    0    0  0.17094644126E+02  0.31003882209E+02  0.18706225644E+02  0.40042358172E+02  0.51100000000E-03 0. -1.
        -11    1    3    3    0    0  0.19729545915E+00  0.64374951695E+00 -0.34947336674E-01  0.67421103242E+00  0.51100000000E-03 0.  1.
         12    1    3    3    0    0 -0.12942256448E+01  0.58427312660E+01 -0.37659366290E+01  0.70707006272E+01  0.00000000000E+00 0. -1.
</event>
<event>
 7    1  0.2580704E-010  0.4778727E+02  0.7816164E-02  0.1312668E+00
        -11   -1    0    0    0    0  0.00000000000E+00  0.00000000000E+00  0.45593999997E+02  0.45594000000E+02  0.51100000000E-03 0.  1.
         11   -1    0    0    0    0 -0.00000000000E+00 -0.00000000000E+00 -0.45593999997E+02  0.45594000000E+02  0.51100000000E-03 0. -1.
    9900012    2    1    2    0    0  0.89050318588E+01 -0.83629295356E+01  0.41645950050E+02  0.47787270301E+02  0.19999996612E+02 0.  0.
         12    1    1    2    0    0 -0.89050318588E+01  0.83629295356E+01 -0.41645950050E+02  0.43400729699E+02  0.00000000000E+00 0. -1.
         11    1    3    3    0    0 -0.10115445817E+00 -0.16984751233E+00  0.77972284746E+01  0.77997341331E+01  0.51100000000E-03 0. -1.
        -11    1    3    3    0    0  0.80194102562E+01 -0.74013359692E+01  0.35930660154E+02  0.37551338916E+02  0.51100000000E-03 0.  1.
         12    1    3    3    0    0  0.98677606068E+00 -0.79174605412E+00 -0.20819385787E+01  0.24361972526E+01  0.00000000000E+00 0. -1.
</event>
<event>
 7    1  0.2580704E-010  0.4778727E+02  0.7816164E-02  0.1312668E+00
        -11   -1    0    0    0    0  0.00000000000E+00  0.00000000000E+00  0.45593999997E+02  0.45594000000E+02  0.51100000000E-03 0. -1.
         11   -1    0    0    0    0 -0.00000000000E+00 -0.00000000000E+00 -0.45593999997E+02  0.45594000000E+02  0.51100000000E-03 0.  1.
    9900012    2    1    2    0    0 -0.14174478128E+02 -0.40979284558E+02 -0.18454813169E+01  0.47787269656E+02  0.19999993671E+02 0.  0.
         12    1    1    2    0    0  0.14174478128E+02  0.40979284558E+02  0.18454813169E+01  0.43400730344E+02  0.00000000000E+00 0. -1.
         11    1    3    3    0    0 -0.26041538047E+01  0.17573114824E+01  0.11901734798E+01  0.33595050019E+01  0.51100000000E-03 0. -1.
        -11    1    3    3    0    0 -0.49759360108E+01 -0.18117047201E+02 -0.23163079890E+01  0.18930203945E+02  0.51100000000E-03 0.  1.
         12    1    3    3    0    0 -0.65943883129E+01 -0.24619548839E+02 -0.71934680769E+00  0.25497560709E+02  0.00000000000E+00 0. -1.
</event>
<event>
 7    1  0.2580704E-010  0.4778728E+02  0.7816164E-02  0.1312668E+00
        -11   -1    0    0    0    0  0.00000000000E+00  0.00000000000E+00  0.45593999997E+02  0.45594000000E+02  0.51100000000E-03 0.  1.
         11   -1    0    0    0    0 -0.00000000000E+00 -0.00000000000E+00 -0.45593999997E+02  0.45594000000E+02  0.51100000000E-03 0. -1.
    9900012    2    1    2    0    0  0.19332704859E+02  0.27589560799E+02  0.27362118518E+02  0.47787275674E+02  0.20000021108E+02 0.  0.
         12    1    1    2    0    0 -0.19332704859E+02 -0.27589560799E+02 -0.27362118518E+02  0.43400724326E+02  0.00000000000E+00 0. -1.
         11    1    3    3    0    0 -0.12651184949E+00  0.38247347642E+01  0.35102312783E+01  0.51929110480E+01  0.51100000000E-03 0. -1.
        -11    1    3    3    0    0  0.20988912235E+02  0.23399217891E+02  0.25380718388E+02  0.40400974009E+02  0.51100000000E-03 0.  1.
        -12    1    3    3    0    0 -0.15296955270E+01  0.36560814375E+00 -0.15288311481E+01  0.21933906172E+01  0.00000000000E+00 0.  1.
</event>
<event>
 7    1  0.2580704E-010  0.4778727E+02  0.7816164E-02  0.1312668E+00
        -11   -1    0    0    0    0  0.00000000000E+00  0.00000000000E+00  0.45593999997E+02  0.45594000000E+02  0.51100000000E-03 0.  1.
         11   -1    0    0    0    0 -0.00000000000E+00 -0.00000000000E+00 -0.45593999997E+02  0.45594000000E+02  0.51100000000E-03 0. -1.
    9900012    2    1    2    0    0 -0.40187528011E+01  0.20691924765E+01  0.43164696918E+02  0.47787274296E+02  0.20000014825E+02 0.  0.
         12    1    1    2    0    0  0.40187528011E+01 -0.20691924765E+01 -0.43164696918E+02  0.43400725704E+02  0.00000000000E+00 0. -1.
         11    1    3    3    0    0 -0.52194362727E+01  0.54368900541E+00  0.46121370463E+01  0.69864097457E+01  0.51100000000E-03 0. -1.
        -11    1    3    3    0    0 -0.38633038875E+01 -0.40183955347E+01  0.20610990119E+02  0.21351476144E+02  0.51100000000E-03 0.  1.
        -12    1    3    3    0    0  0.50639873592E+01  0.55438990058E+01  0.17941569753E+02  0.19449388406E+02  0.00000000000E+00 0.  1.
</event>
<event>
 7    1  0.2580704E-010  0.4778729E+02  0.7816164E-02  0.1312668E+00
        -11   -1    0    0    0    0  0.00000000000E+00  0.00000000000E+00  0.45593999997E+02  0.45594000000E+02  0.51100000000E-03 0.  1.
         11   -1    0    0    0    0 -0.00000000000E+00 -0.00000000000E+00 -0.45593999997E+02  0.45594000000E+02  0.51100000000E-03 0. -1.
    9900012    2    1    2    0    0  0.41539758772E+02  0.11369599857E+02  0.53668144639E+01  0.47787285061E+02  0.20000063906E+02 0.  0.
         12    1    1    2    0    0 -0.41539758772E+02 -0.11369599857E+02 -0.53668144639E+01  0.43400714939E+02  0.00000000000E+00 0. -1.
         11    1    3    3    0    0 -0.75469695135E+00  0.69973455777E+00  0.24757965950E+01  0.26811872334E+01  0.51100000000E-03 0. -1.
        -11    1    3    3    0    0  0.16139671680E+02  0.71747334194E+01  0.57246476926E+01  0.18567105133E+02  0.51100000000E-03 0.  1.
         12    1    3    3    0    0  0.26154784044E+02  0.34951318801E+01 -0.28336298237E+01  0.26538992694E+02  0.00000000000E+00 0. -1.
</event>
<event>
 7    1  0.2580704E-010  0.4778727E+02  0.7816164E-02  0.1312668E+00
        -11   -1    0    0    0    0  0.00000000000E+00  0.00000000000E+00  0.45593999997E+02  0.45594000000E+02  0.51100000000E-03 0.  1.
         11   -1    0    0    0    0 -0.00000000000E+00 -0.00000000000E+00 -0.45593999997E+02  0.45594000000E+02  0.51100000000E-03 0. -1.
    9900012    2    1    2    0    0  0.30556021804E+01 -0.29322169277E+01  0.43193622179E+02  0.47787267314E+02  0.19999982990E+02 0.  0.
         12    1    1    2    0    0 -0.30556021804E+01  0.29322169277E+01 -0.43193622179E+02  0.43400732686E+02  0.00000000000E+00 0. -1.
         11    1    3    3    0    0  0.11775525849E+01 -0.78160161917E+00  0.51729645142E+01  0.53625640609E+01  0.51100000000E-03 0. -1.
        -11    1    3    3    0    0 -0.67045169916E+01  0.36968642687E+01  0.22351531671E+02  0.23626432693E+02  0.51100000000E-03 0.  1.
         12    1    3    3    0    0  0.85825665872E+01 -0.58474795772E+01  0.15669125994E+02  0.18798270560E+02  0.00000000000E+00 0. -1.
</event>
<event>
 7    1  0.2580704E-010  0.4778725E+02  0.7816164E-02  0.1312668E+00
        -11   -1    0    0    0    0  0.00000000000E+00  0.00000000000E+00  0.45593999997E+02  0.45594000000E+02  0.51100000000E-03 0. -1.
         11   -1    0    0    0    0 -0.00000000000E+00 -0.00000000000E+00 -0.45593999997E+02  0.45594000000E+02  0.51100000000E-03 0.  1.
    9900012    2    1    2    0    0 -0.18325803720E+02 -0.38970313666E+02 -0.53948586213E+01  0.47787251979E+02  0.19999913074E+02 0.  0.
         12    1    1    2    0    0  0.18325803720E+02  0.38970313666E+02  0.53948586213E+01  0.43400748021E+02  0.00000000000E+00 0. -1.
         11    1    3    3    0    0 -0.57372364667E+01 -0.12915463857E+02  0.36205826683E+01  0.14588821338E+02  0.51100000000E-03 0. -1.
        -11    1    3    3    0    0 -0.11792094135E+01 -0.41096056182E+01  0.34565583445E+01  0.54979258842E+01  0.51100000000E-03 0.  1.
        -12    1    3    3    0    0 -0.11409357840E+02 -0.21945244191E+02 -0.12471999634E+02  0.27700504757E+02  0.00000000000E+00 0.  1.
</event>
<event>
 7    1  0.2580704E-010  0.4778727E+02  0.7816164E-02  0.1312668E+00
        -11   -1    0    0    0    0  0.00000000000E+00  0.00000000000E+00  0.45593999997E+02  0.45594000000E+02  0.51100000000E-03 0.  1.
         11   -1    0    0    0    0 -0.00000000000E+00 -0.00000000000E+00 -0.45593999997E+02  0.45594000000E+02  0.51100000000E-03 0. -1.
    9900012    2    1    2    0    0  0.47061861024E+01  0.20990699733E+02  0.37694371007E+02  0.47787271106E+02  0.20000000279E+02 0.  0.
         12    1    1    2    0    0 -0.47061861024E+01 -0.20990699733E+02 -0.37694371007E+02  0.43400728894E+02  0.00000000000E+00 0. -1.
         11    1    3    3    0    0  0.36493224081E+01  0.12433393115E+02  0.19143681107E+02  0.23116819525E+02  0.51100000000E-03 0.  1.
        -11    1    3    3    0    0 -0.40591823672E+00  0.10831738523E+02  0.72254548540E+01  0.13026838725E+02  0.51100000000E-03 0. -1.
         12    1    3    3    0    0  0.14627819310E+01 -0.22744319050E+01  0.11325235047E+02  0.11643612856E+02  0.00000000000E+00 0. -1.
</event>
<event>
 7    1  0.2580704E-010  0.4778727E+02  0.7816164E-02  0.1312668E+00
        -11   -1    0    0    0    0  0.00000000000E+00  0.00000000000E+00  0.45593999997E+02  0.45594000000E+02  0.51100000000E-03 0.  1.
         11   -1    0    0    0    0 -0.00000000000E+00 -0.00000000000E+00 -0.45593999997E+02  0.45594000000E+02  0.51100000000E-03 0. -1.
    9900012    2    1    2    0    0  0.36053142824E+02 -0.23587902090E+02  0.52349657440E+01  0.47787273061E+02  0.20000009195E+02 0.  0.
         12    1    1    2    0    0 -0.36053142824E+02  0.23587902090E+02 -0.52349657440E+01  0.43400726939E+02  0.00000000000E+00 0. -1.
         11    1    3    3    0    0  0.11423120560E+02 -0.15208613908E+02  0.11054196316E+01  0.19052862597E+02  0.51100000000E-03 0. -1.
        -11    1    3    3    0    0  0.76743327377E+01 -0.49926944890E+01  0.65749533532E+01  0.11271751997E+02  0.51100000000E-03 0.  1.
         12    1    3    3    0    0  0.16955689526E+02 -0.33865936930E+01 -0.24454072409E+01  0.17462658466E+02  0.00000000000E+00 0. -1.
</event>
<event>
 7    1  0.2580704E-010  0.4778727E+02  0.7816164E-02  0.1312668E+00
        -11   -1    0    0    0    0  0.00000000000E+00  0.00000000000E+00  0.45593999997E+02  0.45594000000E+02  0.51100000000E-03 0. -1.
         11   -1    0    0    0    0 -0.00000000000E+00 -0.00000000000E+00 -0.45593999997E+02  0.45594000000E+02  0.51100000000E-03 0.  1.
    9900012    2    1    2    0    0 -0.38507716435E+02  0.19856801577E+02 -0.25468277131E+01  0.47787272756E+02  0.20000007803E+02 0.  0.
         12    1    1    2    0    0  0.38507716435E+02 -0.19856801577E+02  0.25468277131E+01  0.43400727244E+02  0.00000000000E+00 0. -1.
         11    1    3    3    0    0 -0.22557370984E+02  0.55895464089E+01  0.21881828914E+01  0.23342368333E+02  0.51100000000E-03 0. -1.
        -11    1    3    3    0    0 -0.12384642910E+02  0.58804654445E+01 -0.64831537211E+01  0.15165438875E+02  0.51100000000E-03 0.  1.
        -12    1    3    3    0    0 -0.35657025407E+01  0.83867897239E+01  0.17481431166E+01  0.92794655470E+01  0.00000000000E+00 0.  1.
</event>
<event>
 7    1  0.2580704E-010  0.4778728E+02  0.7816164E-02  0.1312668E+00
        -11   -1    0    0    0    0  0.00000000000E+00  0.00000000000E+00  0.45593999997E+02  0.45594000000E+02  0.51100000000E-03 0.  1.
         11   -1    0    0    0    0 -0.00000000000E+00 -0.00000000000E+00 -0.45593999997E+02  0.45594000000E+02  0.51100000000E-03 0. -1.
    9900012    2    1    2    0    0 -0.35691053408E+02  0.24619506688E+02 -0.19108307067E+01  0.47787277922E+02  0.20000031356E+02 0.  0.
         12    1    1    2    0    0  0.35691053408E+02 -0.24619506688E+02  0.19108307067E+01  0.43400722078E+02  0.00000000000E+00 0. -1.
         11    1    3    3    0    0 -0.59107476169E+01  0.48444659772E+01  0.30996215595E+01  0.82470262561E+01  0.51100000000E-03 0. -1.
        -11    1    3    3    0    0 -0.16267587764E+02  0.14268876299E+02  0.45283870204E+01  0.22107499446E+02  0.51100000000E-03 0.  1.
        -12    1    3    3    0    0 -0.13512718027E+02  0.55061644118E+01 -0.95388392867E+01  0.17432752219E+02  0.00000000000E+00 0.  1.
</event>
<event>
 7    1  0.2580704E-010  0.4778727E+02  0.7816164E-02  0.1312668E+00
        -11   -1    0    0    0    0  0.00000000000E+00  0.00000000000E+00  0.45593999997E+02  0.45594000000E+02  0.51100000000E-03 0. -1.
         11   -1    0    0    0    0 -0.00000000000E+00 -0.00000000000E+00 -0.45593999997E+02  0.45594000000E+02  0.51100000000E-03 0.  1.
    9900012    2    1    2    0    0 -0.18773305637E+02  0.33400350413E+02 -0.20386333356E+02  0.47787274201E+02  0.20000014390E+02 0.  0.
         12    1    1    2    0    0  0.18773305637E+02 -0.33400350413E+02  0.20386333356E+02  0.43400725799E+02  0.00000000000E+00 0. -1.
         11    1    3    3    0    0  0.44809483876E+00  0.58080815365E+00  0.11432045702E+01  0.13583239843E+01  0.51100000000E-03 0. -1.
        -11    1    3    3    0    0 -0.69385686518E+00 -0.59744536756E+00  0.15426106741E+01  0.17938858017E+01  0.51100000000E-03 0.  1.
        -12    1    3    3    0    0 -0.18527543610E+02  0.33416987626E+02 -0.23072148600E+02  0.44635064415E+02  0.00000000000E+00 0.  1.
</event>
<event>
 7    1  0.2580704E-010  0.4778727E+02  0.7816164E-02  0.1312668E+00
        -11   -1    0    0    0    0  0.00000000000E+00  0.00000000000E+00  0.45593999997E+02  0.45594000000E+02  0.51100000000E-03 0. -1.
         11   -1    0    0    0    0 -0.00000000000E+00 -0.00000000000E+00 -0.45593999997E+02  0.45594000000E+02  0.51100000000E-03 0.  1.
    9900012    2    1    2    0    0  0.29830554956E+02  0.14742128279E+02 -0.27864512621E+02  0.47787269374E+02  0.19999992386E+02 0.  0.
         12    1    1    2    0    0 -0.29830554956E+02 -0.14742128279E+02  0.27864512621E+02  0.43400730626E+02  0.00000000000E+00 0. -1.
         11    1    3    3    0    0  0.69092301121E+01  0.71355297360E+01  0.89279565025E+00  0.99724786132E+01  0.51100000000E-03 0. -1.
        -11    1    3    3    0    0  0.69553204822E+01  0.20642364128E+01 -0.56979488929E+01  0.92251925088E+01  0.51100000000E-03 0.  1.
         12    1    3    3    0    0  0.15966004362E+02  0.55423621305E+01 -0.23059359379E+02  0.28589598252E+02  0.00000000000E+00 0. -1.
</event>
<event>
 7    1  0.2580704E-010  0.4778727E+02  0.7816164E-02  0.1312668E+00
        -11   -1    0    0    0    0  0.00000000000E+00  0.00000000000E+00  0.45593999997E+02  0.45594000000E+02  0.51100000000E-03 0.  1.
         11   -1    0    0    0    0 -0.00000000000E+00 -0.00000000000E+00 -0.45593999997E+02  0.45594000000E+02  0.51100000000E-03 0. -1.
    9900012    2    1    2    0    0  0.17308256655E+02  0.15236737747E+02  0.36768045898E+02  0.47787272762E+02  0.20000007833E+02 0.  0.
         12    1    1    2    0    0 -0.17308256655E+02 -0.15236737747E+02 -0.36768045898E+02  0.43400727238E+02  0.00000000000E+00 0. -1.
         11    1    3    3    0    0  0.12314269832E+02  0.21991505861E+01  0.12850454554E+02  0.17933535270E+02  0.51100000000E-03 0. -1.
        -11    1    3    3    0    0  0.46006013977E+01  0.27888916036E+01  0.16049289201E+02  0.16926994232E+02  0.51100000000E-03 0.  1.
         12    1    3    3    0    0  0.39338542570E+00  0.10248695557E+02  0.78683021430E+01  0.12926743261E+02  0.00000000000E+00 0. -1.
</event>
<event>
 7    1  0.2580704E-010  0.4778727E+02  0.7816164E-02  0.1312668E+00
        -11   -1    0    0    0    0  0.00000000000E+00  0.00000000000E+00  0.45593999997E+02  0.45594000000E+02  0.51100000000E-03 0. -1.
         11   -1    0    0    0    0 -0.00000000000E+00 -0.00000000000E+00 -0.45593999997E+02  0.45594000000E+02  0.51100000000E-03 0.  1.
    9900012    2    1    2    0    0  0.24981163223E+02 -0.26147165674E+02 -0.23997717187E+02  0.47787271678E+02  0.20000002887E+02 0.  0.
         12    1    1    2    0    0 -0.24981163223E+02  0.26147165674E+02  0.23997717187E+02  0.43400728322E+02  0.00000000000E+00 0. -1.
         11    1    3    3    0    0  0.68387679169E+01 -0.16871708849E+02 -0.82704152172E+01  0.19995576367E+02  0.51100000000E-03 0. -1.
        -11    1    3    3    0    0  0.32843404493E+01 -0.54488098001E+01 -0.90410468814E+01  0.11055177493E+02  0.51100000000E-03 0.  1.
        -12    1    3    3    0    0  0.14858054857E+02 -0.38266470245E+01 -0.66862550880E+01  0.16736517818E+02  0.00000000000E+00 0.  1.
</event>
<event>
 7    1  0.2580704E-010  0.4778728E+02  0.7816164E-02  0.1312668E+00
        -11   -1    0    0    0    0  0.00000000000E+00  0.00000000000E+00  0.45593999997E+02  0.45594000000E+02  0.51100000000E-03 0. -1.
         11   -1    0    0    0    0 -0.00000000000E+00 -0.00000000000E+00 -0.45593999997E+02  0.45594000000E+02  0.51100000000E-03 0.  1.
    9900012    2    1    2    0    0 -0.21762548664E+02 -0.37370017090E+02  0.36736399055E+01  0.47787281897E+02  0.20000049483E+02 0.  0.
         12    1    1    2    0    0  0.21762548664E+02  0.37370017090E+02 -0.36736399055E+01  0.43400718103E+02  0.00000000000E+00 0. -1.
         11    1    3    3    0    0 -0.50861430243E+01 -0.23118406511E+01 -0.21489003678E+00  0.55910317517E+01  0.51100000000E-03 0. -1.
        -11    1    3    3    0    0 -0.10165937887E+02 -0.19526733862E+02 -0.58022063940E+01  0.22766317835E+02  0.51100000000E-03 0.  1.
         12    1    3    3    0    0 -0.65104677530E+01 -0.15531442577E+02  0.96907363363E+01  0.19429932311E+02  0.00000000000E+00 0. -1.
</event>
<event>
 7    1  0.2580704E-010  0.4778727E+02  0.7816164E-02  0.1312668E+00
        -11   -1    0    0    0    0  0.00000000000E+00  0.00000000000E+00  0.45593999997E+02  0.45594000000E+02  0.51100000000E-03 0.  1.
         11   -1    0    0    0    0 -0.00000000000E+00 -0.00000000000E+00 -0.45593999997E+02  0.45594000000E+02  0.51100000000E-03 0. -1.
    9900012    2    1    2    0    0 -0.15531383128E+02 -0.14394442459E+02  0.37884027505E+02  0.47787269873E+02  0.19999994657E+02 0.  0.
         12    1    1    2    0    0  0.15531383128E+02  0.14394442459E+02 -0.37884027505E+02  0.43400730127E+02  0.00000000000E+00 0. -1.
         11    1    3    3    0    0 -0.82685719442E+01 -0.45363743767E+01  0.44136221540E+01  0.10412878337E+02  0.51100000000E-03 0. -1.
        -11    1    3    3    0    0  0.15066579686E+01 -0.68233690173E+01  0.10632274964E+02  0.12722957759E+02  0.51100000000E-03 0.  1.
         12    1    3    3    0    0 -0.87694691526E+01 -0.30346990648E+01  0.22838130388E+02  0.24651433776E+02  0.00000000000E+00 0. -1.
</event>
<event>
 7    1  0.2580704E-010  0.4778727E+02  0.7816164E-02  0.1312668E+00
        -11   -1    0    0    0    0  0.00000000000E+00  0.00000000000E+00  0.45593999997E+02  0.45594000000E+02  0.51100000000E-03 0. -1.
         11   -1    0    0    0    0 -0.00000000000E+00 -0.00000000000E+00 -0.45593999997E+02  0.45594000000E+02  0.51100000000E-03 0.  1.
    9900012    2    1    2    0    0  0.27947428135E+02 -0.33840882325E+01 -0.33031989676E+02  0.47787272650E+02  0.20000007322E+02 0.  0.
         12    1    1    2    0    0 -0.27947428135E+02  0.33840882325E+01  0.33031989676E+02  0.43400727350E+02  0.00000000000E+00 0. -1.
         11    1    3    3    0    0  0.11638082067E+02 -0.43150630530E+01 -0.16447699119E+02  0.20605618891E+02  0.51100000000E-03 0. -1.
        -11    1    3    3    0    0  0.37932449342E+01 -0.44424369922E+01 -0.11011267393E+02  0.12464829057E+02  0.51100000000E-03 0.  1.
         12    1    3    3    0    0  0.12516101134E+02  0.53734118127E+01 -0.55730231640E+01  0.14716824702E+02  0.00000000000E+00 0. -1.
</event>
<event>
 7    1  0.2580704E-010  0.4778726E+02  0.7816164E-02  0.1312668E+00
        -11   -1    0    0    0    0  0.00000000000E+00  0.00000000000E+00  0.45593999997E+02  0.45594000000E+02  0.51100000000E-03 0.  1.
         11   -1    0    0    0    0 -0.00000000000E+00 -0.00000000000E+00 -0.45593999997E+02  0.45594000000E+02  0.51100000000E-03 0. -1.
    9900012    2    1    2    0    0 -0.28617464923E+02  0.19677378498E+02  0.26028175213E+02  0.47787257746E+02  0.19999939369E+02 0.  0.
         12    1    1    2    0    0  0.28617464923E+02 -0.19677378498E+02 -0.26028175213E+02  0.43400742254E+02  0.00000000000E+00 0. -1.
         11    1    3    3    0    0 -0.22701464777E+02  0.47031539106E+01  0.11242618454E+02  0.25765725872E+02  0.51100000000E-03 0. -1.
        -11    1    3    3    0    0 -0.28048142882E+01  0.41488429564E+01  0.37862671909E+01  0.62781924604E+01  0.51100000000E-03 0.  1.
         12    1    3    3    0    0 -0.31111858584E+01  0.10825381631E+02  0.10999289568E+02  0.15743339414E+02  0.00000000000E+00 0. -1.
</event>
<event>
 7    1  0.2580704E-010  0.4778727E+02  0.7816164E-02  0.1312668E+00
        -11   -1    0    0    0    0  0.00000000000E+00  0.00000000000E+00  0.45593999997E+02  0.45594000000E+02  0.51100000000E-03 0. -1.
         11   -1    0    0    0    0 -0.00000000000E+00 -0.00000000000E+00 -0.45593999997E+02  0.45594000000E+02  0.51100000000E-03 0.  1.
    9900012    2    1    2    0    0 -0.35690044306E+02  0.68827730616E+01 -0.23716473281E+02  0.47787274977E+02  0.20000017931E+02 0.  0.
         12    1    1    2    0    0  0.35690044306E+02 -0.68827730616E+01  0.23716473281E+02  0.43400725023E+02  0.00000000000E+00 0. -1.
         11    1    3    3    0    0 -0.21289195373E+02 -0.42901374172E+00 -0.22498815782E+02  0.30977582286E+02  0.51100000000E-03 0. -1.
        -11    1    3    3    0    0 -0.83610192507E+01  0.21201142968E+01 -0.18442843147E+01  0.88205959230E+01  0.51100000000E-03 0.  1.
         12    1    3    3    0    0 -0.60398296824E+01  0.51916725065E+01  0.62662681547E+00  0.79890967683E+01  0.00000000000E+00 0. -1.
</event>
<event>
 7    1  0.2580704E-010  0.4778726E+02  0.7816164E-02  0.1312668E+00
        -11   -1    0    0    0    0  0.00000000000E+00  0.00000000000E+00  0.45593999997E+02  0.45594000000E+02  0.51100000000E-03 0. -1.
         11   -1    0    0    0    0 -0.00000000000E+00 -0.00000000000E+00 -0.45593999997E+02  0.45594000000E+02  0.51100000000E-03 0.  1.
    9900012    2    1    2    0    0  0.18803814342E+02 -0.36528570572E+02 -0.13989424204E+02  0.47787263930E+02  0.19999967563E+02 0.  0.
         12    1    1    2    0    0 -0.18803814342E+02  0.36528570572E+02  0.13989424204E+02  0.43400736070E+02  0.00000000000E+00 0. -1.
         11    1    3    3    0    0  0.98462781767E+01 -0.12717887773E+02  0.29997405341E+00  0.16086760022E+02  0.51100000000E-03 0. -1.
        -11    1    3    3    0    0  0.60305462676E+00 -0.42707242681E+01  0.21630006014E+01  0.48250733176E+01  0.51100000000E-03 0.  1.
        -12    1    3    3    0    0  0.83544815388E+01 -0.19539958531E+02 -0.16452398859E+02  0.26875430590E+02  0.00000000000E+00 0.  1.
</event>
<event>
 7    1  0.2580704E-010  0.4778727E+02  0.7816164E-02  0.1312668E+00
        -11   -1    0    0    0    0  0.00000000000E+00  0.00000000000E+00  0.45593999997E+02  0.45594000000E+02  0.51100000000E-03 0. -1.
         11   -1    0    0    0    0 -0.00000000000E+00 -0.00000000000E+00 -0.45593999997E+02  0.45594000000E+02  0.51100000000E-03 0.  1.
    9900012    2    1    2    0    0  0.93104260316E+01  0.34342481504E+02 -0.24850217386E+02  0.47787269904E+02  0.19999994801E+02 0.  0.
         12    1    1    2    0    0 -0.93104260316E+01 -0.34342481504E+02  0.24850217386E+02  0.43400730096E+02  0.00000000000E+00 0. -1.
         11    1    3    3    0    0  0.16140989015E+01  0.10016549733E+02  0.16556829203E+01  0.10279974222E+02  0.51100000000E-03 0.  1.
        -11    1    3    3    0    0 -0.88148852284E+00  0.26328300232E+01 -0.52931567300E+01  0.59771501885E+01  0.51100000000E-03 0. -1.
        -12    1    3    3    0    0  0.85778156530E+01  0.21693101748E+02 -0.21212743576E+02  0.31530145494E+02  0.00000000000E+00 0.  1.
</event>
<event>
 7    1  0.2580704E-010  0.4778729E+02  0.7816164E-02  0.1312668E+00
        -11   -1    0    0    0    0  0.00000000000E+00  0.00000000000E+00  0.45593999997E+02  0.45594000000E+02  0.51100000000E-03 0.  1.
         11   -1    0    0    0    0 -0.00000000000E+00 -0.00000000000E+00 -0.45593999997E+02  0.45594000000E+02  0.51100000000E-03 0. -1.
    9900012    2    1    2    0    0  0.76007936179E+01  0.28243494069E+02  0.32064852057E+02  0.47787288505E+02  0.20000079611E+02 0.  0.
         12    1    1    2    0    0 -0.76007936179E+01 -0.28243494069E+02 -0.32064852057E+02  0.43400711495E+02  0.00000000000E+00 0. -1.
         11    1    3    3    0    0  0.42891022940E+01  0.81943598286E+01  0.35400077845E+01  0.99033119140E+01  0.51100000000E-03 0. -1.
        -11    1    3    3    0    0  0.75305506411E+00  0.64898250507E+01  0.38694545914E+00  0.65448184213E+01  0.51100000000E-03 0.  1.
        -12    1    3    3    0    0  0.25586362597E+01  0.13559309189E+02  0.28137898813E+02  0.31339158170E+02  0.00000000000E+00 0.  1.
</event>
<event>
 7    1  0.2580704E-010  0.4778727E+02  0.7816164E-02  0.1312668E+00
        -11   -1    0    0    0    0  0.00000000000E+00  0.00000000000E+00  0.45593999997E+02  0.45594000000E+02  0.51100000000E-03 0.  1.
         11   -1    0    0    0    0 -0.00000000000E+00 -0.00000000000E+00 -0.45593999997E+02  0.45594000000E+02  0.51100000000E-03 0. -1.
    9900012    2    1    2    0    0 -0.41450574195E+02 -0.12082281033E+02  0.44149651054E+01  0.47787268060E+02  0.19999986394E+02 0.  0.
         12    1    1    2    0    0  0.41450574195E+02  0.12082281033E+02 -0.44149651054E+01  0.43400731940E+02  0.00000000000E+00 0. -1.
         11    1    3    3    0    0 -0.94107757492E+01 -0.69029135858E+00 -0.30297384482E+01  0.99105256009E+01  0.51100000000E-03 0. -1.
        -11    1    3    3    0    0 -0.24461097417E+02 -0.91726574143E+01 -0.12205713056E+01  0.26152872221E+02  0.51100000000E-03 0.  1.
         12    1    3    3    0    0 -0.75787010291E+01 -0.22193322598E+01  0.86652748592E+01  0.11723870238E+02  0.00000000000E+00 0. -1.
</event>
<event>
 7    1  0.2580704E-010  0.4778728E+02  0.7816164E-02  0.1312668E+00
        -11   -1    0    0    0    0  0.00000000000E+00  0.00000000000E+00  0.45593999997E+02  0.45594000000E+02  0.51100000000E-03 0. -1.
         11   -1    0    0    0    0 -0.00000000000E+00 -0.00000000000E+00 -0.45593999997E+02  0.45594000000E+02  0.51100000000E-03 0.  1.
    9900012    2    1    2    0    0 -0.21320159190E+02  0.37798366851E+02 -0.59728815310E+00  0.47787280218E+02  0.20000041825E+02 0.  0.
         12    1    1    2    0    0  0.21320159190E+02 -0.37798366851E+02  0.59728815310E+00  0.43400719782E+02  0.00000000000E+00 0. -1.
         11    1    3    3    0    0 -0.15775316797E+02  0.19958535668E+02  0.18915384006E+01  0.25510423043E+02  0.51100000000E-03 0. -1.
        -11    1    3    3    0    0 -0.21144511395E+01  0.16134324814E+02  0.19781827812E+01  0.16392087976E+02  0.51100000000E-03 0.  1.
         12    1    3    3    0    0 -0.34303912533E+01  0.17055063689E+01 -0.44670093348E+01  0.58847691987E+01  0.00000000000E+00 0. -1.
</event>
<event>
 7    1  0.2580704E-010  0.4778727E+02  0.7816164E-02  0.1312668E+00
        -11   -1    0    0    0    0  0.00000000000E+00  0.00000000000E+00  0.45593999997E+02  0.45594000000E+02  0.51100000000E-03 0. -1.
         11   -1    0    0    0    0 -0.00000000000E+00 -0.00000000000E+00 -0.45593999997E+02  0.45594000000E+02  0.51100000000E-03 0.  1.
    9900012    2    1    2    0    0 -0.24143726640E+02 -0.32222646711E+02 -0.16198925484E+02  0.47787266320E+02  0.19999978457E+02 0.  0.
         12    1    1    2    0    0  0.24143726640E+02  0.32222646711E+02  0.16198925484E+02  0.43400733680E+02  0.00000000000E+00 0. -1.
         11    1    3    3    0    0 -0.12640581917E+02 -0.14169431332E+02 -0.56457305046E+01  0.19809880582E+02  0.51100000000E-03 0. -1.
        -11    1    3    3    0    0 -0.71524586909E+01 -0.71186982790E+00  0.55637032224E-01  0.71880122230E+01  0.51100000000E-03 0.  1.
        -12    1    3    3    0    0 -0.43506860323E+01 -0.17341345552E+02 -0.10608832012E+02  0.20789373515E+02  0.00000000000E+00 0.  1.
</event>
<event>
 7    1  0.2580704E-010  0.4778727E+02  0.7816164E-02  0.1312668E+00
        -11   -1    0    0    0    0  0.00000000000E+00  0.00000000000E+00  0.45593999997E+02  0.45594000000E+02  0.51100000000E-03 0. -1.
         11   -1    0    0    0    0 -0.00000000000E+00 -0.00000000000E+00 -0.45593999997E+02  0.45594000000E+02  0.51100000000E-03 0.  1.
    9900012    2    1    2    0    0  0.19005513485E+02 -0.96103408749E+01 -0.37816067995E+02  0.47787271975E+02  0.20000004241E+02 0.  0.
         12    1    1    2    0    0 -0.19005513485E+02  0.96103408749E+01  0.37816067995E+02  0.43400728025E+02  0.00000000000E+00 0. -1.
         11    1    3    3    0    0  0.10703475263E+02 -0.66588389207E+01 -0.75844319286E+01  0.14711496403E+02  0.51100000000E-03 0. -1.
        -11    1    3    3    0    0  0.22200870646E+01 -0.27973930991E+01 -0.17976838613E+01  0.39982323909E+01  0.51100000000E-03 0.  1.
        -12    1    3    3    0    0  0.60819511567E+01 -0.15410885514E+00 -0.28433952205E+02  0.29077543180E+02  0.00000000000E+00 0.  1.
</event>
<event>
 7    1  0.2580704E-010  0.4778727E+02  0.7816164E-02  0.1312668E+00
        -11   -1    0    0    0    0  0.00000000000E+00  0.00000000000E+00  0.45593999997E+02  0.45594000000E+02  0.51100000000E-03 0.  1.
         11   -1    0    0    0    0 -0.00000000000E+00 -0.00000000000E+00 -0.45593999997E+02  0.45594000000E+02  0.51100000000E-03 0. -1.
    9900012    2    1    2    0    0  0.15081648880E+02 -0.39582736439E+02 -0.94537951180E+01  0.47787269602E+02  0.19999993423E+02 0.  0.
         12    1    1    2    0    0 -0.15081648880E+02  0.39582736439E+02  0.94537951180E+01  0.43400730398E+02  0.00000000000E+00 0. -1.
         11    1    3    3    0    0  0.10356200408E+01 -0.11965803470E+02  0.16459752646E+01  0.12122796558E+02  0.51100000000E-03 0. -1.
        -11    1    3    3    0    0  0.11689378319E+02 -0.26606655538E+02 -0.55993137544E+01  0.29595742923E+02  0.51100000000E-03 0.  1.
         12    1    3    3    0    0  0.23566505206E+01 -0.10102774312E+01 -0.55004566281E+01  0.60687301210E+01  0.00000000000E+00 0. -1.
</event>
<event>
 7    1  0.2580704E-010  0.4778727E+02  0.7816164E-02  0.1312668E+00
        -11   -1    0    0    0    0  0.00000000000E+00  0.00000000000E+00  0.45593999997E+02  0.45594000000E+02  0.51100000000E-03 0.  1.
         11   -1    0    0    0    0 -0.00000000000E+00 -0.00000000000E+00 -0.45593999997E+02  0.45594000000E+02  0.51100000000E-03 0. -1.
    9900012    2    1    2    0    0  0.75074356255E+01  0.22089143569E+02  0.36596880109E+02  0.47787268589E+02  0.19999988806E+02 0.  0.
         12    1    1    2    0    0 -0.75074356255E+01 -0.22089143569E+02 -0.36596880109E+02  0.43400731411E+02  0.00000000000E+00 0. -1.
         11    1    3    3    0    0  0.36877137684E+01  0.83050601682E+00  0.16738233186E+02  0.17159761756E+02  0.51100000000E-03 0. -1.
        -11    1    3    3    0    0 -0.22015084364E+01  0.21346335907E+01  0.13850221861E+01  0.33647565557E+01  0.51100000000E-03 0.  1.
        -12    1    3    3    0    0  0.60212302935E+01  0.19124003961E+02  0.18473624737E+02  0.27262750277E+02  0.00000000000E+00 0.  1.
</event>
<event>
 7    1  0.2580704E-010  0.4778727E+02  0.7816164E-02  0.1312668E+00
        -11   -1    0    0    0    0  0.00000000000E+00  0.00000000000E+00  0.45593999997E+02  0.45594000000E+02  0.51100000000E-03 0. -1.
         11   -1    0    0    0    0 -0.00000000000E+00 -0.00000000000E+00 -0.45593999997E+02  0.45594000000E+02  0.51100000000E-03 0.  1.
    9900012    2    1    2    0    0  0.21108100586E+01  0.37495806331E+02 -0.21753905386E+02  0.47787269465E+02  0.19999992797E+02 0.  0.
         12    1    1    2    0    0 -0.21108100586E+01 -0.37495806331E+02  0.21753905386E+02  0.43400730535E+02  0.00000000000E+00 0. -1.
         11    1    3    3    0    0 -0.67100770741E+00  0.65968928216E+01 -0.12655662261E+02  0.14287583202E+02  0.51100000000E-03 0. -1.
        -11    1    3    3    0    0  0.29182000299E-01 -0.60668395627E+00 -0.27210886956E+00  0.66555278525E+00  0.51100000000E-03 0.  1.
        -12    1    3    3    0    0  0.27526357657E+01  0.31505597465E+02 -0.88261342554E+01  0.32834133477E+02  0.00000000000E+00 0.  1.
</event>
<event>
 7    1  0.2580704E-010  0.4778727E+02  0.7816164E-02  0.1312668E+00
        -11   -1    0    0    0    0  0.00000000000E+00  0.00000000000E+00  0.45593999997E+02  0.45594000000E+02  0.51100000000E-03 0.  1.
         11   -1    0    0    0    0 -0.00000000000E+00 -0.00000000000E+00 -0.45593999997E+02  0.45594000000E+02  0.51100000000E-03 0. -1.
    9900012    2    1    2    0    0 -0.48367912582E+01  0.13932972354E+02  0.40817903598E+02  0.47787268181E+02  0.19999986944E+02 0.  0.
         12    1    1    2    0    0  0.48367912582E+01 -0.13932972354E+02 -0.40817903598E+02  0.43400731819E+02  0.00000000000E+00 0. -1.
         11    1    3    3    0    0  0.39665689758E+00  0.10202105461E+02  0.33347327813E+02  0.34875271541E+02  0.51100000000E-03 0. -1.
        -11    1    3    3    0    0 -0.19436463147E+01  0.22782803212E+01  0.86289293738E+01  0.91338242055E+01  0.51100000000E-03 0.  1.
        -12    1    3    3    0    0 -0.32898018411E+01  0.14525865721E+01 -0.11583535893E+01  0.37781724340E+01  0.00000000000E+00 0.  1.
</event>
<event>
 7    1  0.2580704E-010  0.4778727E+02  0.7816164E-02  0.1312668E+00
        -11   -1    0    0    0    0  0.00000000000E+00  0.00000000000E+00  0.45593999997E+02  0.45594000000E+02  0.51100000000E-03 0.  1.
         11   -1    0    0    0    0 -0.00000000000E+00 -0.00000000000E+00 -0.45593999997E+02  0.45594000000E+02  0.51100000000E-03 0. -1.
    9900012    2    1    2    0    0 -0.42577706963E+02  0.57722531783E+01  0.61190865437E+01  0.47787271238E+02  0.20000000881E+02 0.  0.
         12    1    1    2    0    0  0.42577706963E+02 -0.57722531783E+01 -0.61190865437E+01  0.43400728762E+02  0.00000000000E+00 0. -1.
         11    1    3    3    0    0 -0.72133547102E+01  0.40171158403E+01 -0.38817354944E+01  0.91234629697E+01  0.51100000000E-03 0.  1.
        -11    1    3    3    0    0  0.80277415772E+00 -0.74256828062E+00  0.34509471942E+00  0.11467103497E+01  0.51100000000E-03 0. -1.
        -12    1    3    3    0    0 -0.36167126411E+02  0.24977056186E+01  0.96557273187E+01  0.37517097918E+02  0.00000000000E+00 0.  1.
</event>
<event>
 7    1  0.2580704E-010  0.4778727E+02  0.7816164E-02  0.1312668E+00
        -11   -1    0    0    0    0  0.00000000000E+00  0.00000000000E+00  0.45593999997E+02  0.45594000000E+02  0.51100000000E-03 0. -1.
         11   -1    0    0    0    0 -0.00000000000E+00 -0.00000000000E+00 -0.45593999997E+02  0.45594000000E+02  0.51100000000E-03 0.  1.
    9900012    2    1    2    0    0  0.31964094671E+02  0.33504537622E+01 -0.29166665762E+02  0.47787270971E+02  0.19999999667E+02 0.  0.
         12    1    1    2    0    0 -0.31964094671E+02 -0.33504537622E+01  0.29166665762E+02  0.43400729029E+02  0.00000000000E+00 0. -1.
         11    1    3    3    0    0  0.19749887928E+02  0.84411106403E+01 -0.23602601064E+02  0.31912273490E+02  0.51100000000E-03 0. -1.
        -11    1    3    3    0    0  0.11211098379E+01 -0.20296016181E+01 -0.34775899381E+01  0.41796892271E+01  0.51100000000E-03 0.  1.
         12    1    3    3    0    0  0.11093096905E+02 -0.30610552600E+01 -0.20864747595E+01  0.11695308254E+02  0.00000000000E+00 0. -1.
</event>
<event>
 7    1  0.2580704E-010  0.4778727E+02  0.7816164E-02  0.1312668E+00
        -11   -1    0    0    0    0  0.00000000000E+00  0.00000000000E+00  0.45593999997E+02  0.45594000000E+02  0.51100000000E-03 0.  1.
         11   -1    0    0    0    0 -0.00000000000E+00 -0.00000000000E+00 -0.45593999997E+02  0.45594000000E+02  0.51100000000E-03 0. -1.
    9900012    2    1    2    0    0  0.38671063150E+02 -0.88634971774E+01  0.17595745158E+02  0.47787274718E+02  0.20000016749E+02 0.  0.
         12    1    1    2    0    0 -0.38671063150E+02  0.88634971774E+01 -0.17595745158E+02  0.43400725282E+02  0.00000000000E+00 0. -1.
         11    1    3    3    0    0  0.65733054230E+01 -0.12427402209E+00  0.83628749031E+01  0.10637737782E+02  0.51100000000E-03 0. -1.
        -11    1    3    3    0    0  0.20619383019E+02 -0.22638545331E+00  0.98356321720E+01  0.22846222159E+02  0.51100000000E-03 0.  1.
         12    1    3    3    0    0  0.11478374708E+02 -0.85128377020E+01 -0.60276191740E+00  0.14303314777E+02  0.00000000000E+00 0. -1.
</event>
<event>
 7    1  0.2580704E-010  0.4778727E+02  0.7816164E-02  0.1312668E+00
        -11   -1    0    0    0    0  0.00000000000E+00  0.00000000000E+00  0.45593999997E+02  0.45594000000E+02  0.51100000000E-03 0.  1.
         11   -1    0    0    0    0 -0.00000000000E+00 -0.00000000000E+00 -0.45593999997E+02  0.45594000000E+02  0.51100000000E-03 0. -1.
    9900012    2    1    2    0    0 -0.13740619149E+02 -0.25223585503E+02  0.32535973798E+02  0.47787268771E+02  0.19999989634E+02 0.  0.
         12    1    1    2    0    0  0.13740619149E+02  0.25223585503E+02 -0.32535973798E+02  0.43400731229E+02  0.00000000000E+00 0. -1.
         11    1    3    3    0    0 -0.81015677214E+01 -0.98848733512E-01  0.69945026808E+01  0.10703655386E+02  0.51100000000E-03 0. -1.
        -11    1    3    3    0    0 -0.34481075907E+01 -0.70789650454E+01  0.12258081692E+02  0.14569205850E+02  0.51100000000E-03 0.  1.
         12    1    3    3    0    0 -0.21909438373E+01 -0.18045771724E+02  0.13283389425E+02  0.22514407535E+02  0.00000000000E+00 0. -1.
</event>
<event>
 7    1  0.2580704E-010  0.4778728E+02  0.7816164E-02  0.1312668E+00
        -11   -1    0    0    0    0  0.00000000000E+00  0.00000000000E+00  0.45593999997E+02  0.45594000000E+02  0.51100000000E-03 0.  1.
         11   -1    0    0    0    0 -0.00000000000E+00 -0.00000000000E+00 -0.45593999997E+02  0.45594000000E+02  0.51100000000E-03 0. -1.
    9900012    2    1    2    0    0 -0.97288725181E+01 -0.33977224375E+02  0.25189681098E+02  0.47787276844E+02  0.20000026441E+02 0.  0.
         12    1    1    2    0    0  0.97288725181E+01  0.33977224375E+02 -0.25189681098E+02  0.43400723156E+02  0.00000000000E+00 0. -1.
         11    1    3    3    0    0 -0.68492065573E+01 -0.41711614750E+01  0.42878348968E+01  0.90937201891E+01  0.51100000000E-03 0. -1.
        -11    1    3    3    0    0 -0.39118669721E+01 -0.80796451479E+01  0.69307437210E+00  0.90035393746E+01  0.51100000000E-03 0.  1.
        -12    1    3    3    0    0  0.10322010113E+01 -0.21726417752E+02  0.20208771829E+02  0.29690017280E+02  0.00000000000E+00 0.  1.
</event>
<event>
 7    1  0.2580704E-010  0.4778727E+02  0.7816164E-02  0.1312668E+00
        -11   -1    0    0    0    0  0.00000000000E+00  0.00000000000E+00  0.45593999997E+02  0.45594000000E+02  0.51100000000E-03 0.  1.
         11   -1    0    0    0    0 -0.00000000000E+00 -0.00000000000E+00 -0.45593999997E+02  0.45594000000E+02  0.51100000000E-03 0. -1.
    9900012    2    1    2    0    0 -0.24218110303E+02 -0.20574404386E+02  0.29560113869E+02  0.47787270577E+02  0.19999997870E+02 0.  0.
         12    1    1    2    0    0  0.24218110303E+02  0.20574404386E+02 -0.29560113869E+02  0.43400729423E+02  0.00000000000E+00 0. -1.
         11    1    3    3    0    0 -0.17007672071E+02 -0.16623018055E+02  0.29940023726E+02  0.38235986447E+02  0.51100000000E-03 0. -1.
        -11    1    3    3    0    0 -0.66885038188E+01 -0.25352191035E+01  0.13247324573E+01  0.72744989918E+01  0.51100000000E-03 0.  1.
        -12    1    3    3    0    0 -0.52193441291E+00 -0.14161672272E+01 -0.17046423149E+01  0.22767851388E+01  0.00000000000E+00 0.  1.
</event>
<event>
 7    1  0.2580704E-010  0.4778725E+02  0.7816164E-02  0.1312668E+00
        -11   -1    0    0    0    0  0.00000000000E+00  0.00000000000E+00  0.45593999997E+02  0.45594000000E+02  0.51100000000E-03 0.  1.
         11   -1    0    0    0    0 -0.00000000000E+00 -0.00000000000E+00 -0.45593999997E+02  0.45594000000E+02  0.51100000000E-03 0. -1.
    9900012    2    1    2    0    0 -0.90759803164E+01  0.22159904966E+02  0.36196545825E+02  0.47787254195E+02  0.19999923176E+02 0.  0.
         12    1    1    2    0    0  0.90759803164E+01 -0.22159904966E+02 -0.36196545825E+02  0.43400745805E+02  0.00000000000E+00 0. -1.
         11    1    3    3    0    0  0.17627659816E+01  0.11555502348E+02  0.11240769472E+02  0.16217024296E+02  0.51100000000E-03 0. -1.
        -11    1    3    3    0    0 -0.31795916887E+01  0.92182903457E+01  0.20247905331E+02  0.22473636794E+02  0.51100000000E-03 0.  1.
         12    1    3    3    0    0 -0.76591546093E+01  0.13861122720E+01  0.47078710212E+01  0.90965931047E+01  0.00000000000E+00 0. -1.
</event>
<event>
 7    1  0.2580704E-010  0.4778727E+02  0.7816164E-02  0.1312668E+00
        -11   -1    0    0    0    0  0.00000000000E+00  0.00000000000E+00  0.45593999997E+02  0.45594000000E+02  0.51100000000E-03 0.  1.
         11   -1    0    0    0    0 -0.00000000000E+00 -0.00000000000E+00 -0.45593999997E+02  0.45594000000E+02  0.51100000000E-03 0. -1.
    9900012    2    1    2    0    0 -0.28069151014E+02 -0.31641000662E+02  0.97259087988E+01  0.47787268859E+02  0.19999990038E+02 0.  0.
         12    1    1    2    0    0  0.28069151014E+02  0.31641000662E+02 -0.97259087988E+01  0.43400731141E+02  0.00000000000E+00 0. -1.
         11    1    3    3    0    0 -0.17941169600E+02 -0.11297247359E+02  0.28773630090E+01  0.21396088023E+02  0.51100000000E-03 0. -1.
        -11    1    3    3    0    0 -0.29837011510E+01  0.31905156602E+00  0.29027184082E+01  0.41749300448E+01  0.51100000000E-03 0.  1.
        -12    1    3    3    0    0 -0.71442802629E+01 -0.20662804869E+02  0.39458273816E+01  0.22216250792E+02  0.00000000000E+00 0.  1.
</event>
<event>
 7    1  0.2580704E-010  0.4778727E+02  0.7816164E-02  0.1312668E+00
        -11   -1    0    0    0    0  0.00000000000E+00  0.00000000000E+00  0.45593999997E+02  0.45594000000E+02  0.51100000000E-03 0.  1.
         11   -1    0    0    0    0 -0.00000000000E+00 -0.00000000000E+00 -0.45593999997E+02  0.45594000000E+02  0.51100000000E-03 0. -1.
    9900012    2    1    2    0    0  0.22195876964E+02 -0.34845196048E+02  0.13295815415E+02  0.47787270175E+02  0.19999996036E+02 0.  0.
         12    1    1    2    0    0 -0.22195876964E+02  0.34845196048E+02 -0.13295815415E+02  0.43400729825E+02  0.00000000000E+00 0. -1.
         11    1    3    3    0    0  0.12222227399E+01 -0.13916473538E+02  0.43020327523E+01  0.14617439934E+02  0.51100000000E-03 0. -1.
        -11    1    3    3    0    0  0.28883857075E+01 -0.63151991114E+01  0.69562392269E+01  0.98292307051E+01  0.51100000000E-03 0.  1.
        -12    1    3    3    0    0  0.18085268517E+02 -0.14613523398E+02  0.20375434358E+01  0.23340599535E+02  0.00000000000E+00 0.  1.
</event>
<event>
 7    1  0.2580704E-010  0.4778727E+02  0.7816164E-02  0.1312668E+00
        -11   -1    0    0    0    0  0.00000000000E+00  0.00000000000E+00  0.45593999997E+02  0.45594000000E+02  0.51100000000E-03 0. -1.
         11   -1    0    0    0    0 -0.00000000000E+00 -0.00000000000E+00 -0.45593999997E+02  0.45594000000E+02  0.51100000000E-03 0.  1.
    9900012    2    1    2    0    0  0.41610508452E+02 -0.12265139244E+02  0.13248659497E+01  0.47787270465E+02  0.19999997360E+02 0.  0.
         12    1    1    2    0    0 -0.41610508452E+02  0.12265139244E+02 -0.13248659497E+01  0.43400729535E+02  0.00000000000E+00 0. -1.
         11    1    3    3    0    0  0.70424046642E+01  0.67975397086E+00  0.27089210746E-01  0.70751864288E+01  0.51100000000E-03 0. -1.
        -11    1    3    3    0    0  0.18146533282E+02 -0.15210446897E+02 -0.21658475698E+01  0.23776990157E+02  0.51100000000E-03 0.  1.
        -12    1    3    3    0    0  0.16421570506E+02  0.22655536814E+01  0.34636243087E+01  0.16935093880E+02  0.00000000000E+00 0.  1.
</event>
<event>
 7    1  0.2580704E-010  0.4778727E+02  0.7816164E-02  0.1312668E+00
        -11   -1    0    0    0    0  0.00000000000E+00  0.00000000000E+00  0.45593999997E+02  0.45594000000E+02  0.51100000000E-03 0.  1.
         11   -1    0    0    0    0 -0.00000000000E+00 -0.00000000000E+00 -0.45593999997E+02  0.45594000000E+02  0.51100000000E-03 0. -1.
    9900012    2    1    2    0    0  0.23276361026E+02  0.22829001971E+02  0.28647357207E+02  0.47787269723E+02  0.19999993975E+02 0.  0.
         12    1    1    2    0    0 -0.23276361026E+02 -0.22829001971E+02 -0.28647357207E+02  0.43400730277E+02  0.00000000000E+00 0. -1.
         11    1    3    3    0    0  0.54861453462E+01  0.13727001937E+02  0.92821503887E+01  0.17455276825E+02  0.51100000000E-03 0. -1.
        -11    1    3    3    0    0  0.67097939345E+01  0.58196920002E+01  0.15992649755E+02  0.18293578001E+02  0.51100000000E-03 0.  1.
         12    1    3    3    0    0  0.11080421746E+02  0.32823080331E+01  0.33725570639E+01  0.12038414897E+02  0.00000000000E+00 0. -1.
</event>
<event>
 7    1  0.2714614E-010  0.4778727E+02  0.7816164E-02  0.1312668E+00
        -11   -1    0    0    0    0  0.00000000000E+00  0.00000000000E+00  0.45593999997E+02  0.45594000000E+02  0.51100000000E-03 0. -1.
         11   -1    0    0    0    0 -0.00000000000E+00 -0.00000000000E+00 -0.45593999997E+02  0.45594000000E+02  0.51100000000E-03 0.  1.
    9900012    2    1    2    0    0  0.43204646277E+02  0.21834184871E+00  0.41151098727E+01  0.47787271177E+02  0.20000000603E+02 0.  0.
         12    1    1    2    0    0 -0.43204646277E+02 -0.21834184871E+00 -0.41151098727E+01  0.43400728823E+02  0.00000000000E+00 0. -1.
         11    1    3    3    0    0  0.41350470449E+01 -0.40838812183E+01  0.23777565010E+01  0.62793651039E+01  0.51100000000E-03 0. -1.
        -11    1    3    3    0    0  0.24672306245E+02  0.55058351469E+00  0.71217401619E+01  0.25685502153E+02  0.51100000000E-03 0.  1.
        -12    1    3    3    0    0  0.14397292988E+02  0.37516395523E+01 -0.53843867901E+01  0.15822403920E+02  0.00000000000E+00 0.  1.
</event>
<event>
 7    1  0.2580704E-010  0.4778721E+02  0.7816164E-02  0.1312668E+00
        -11   -1    0    0    0    0  0.00000000000E+00  0.00000000000E+00  0.45593999997E+02  0.45594000000E+02  0.51100000000E-03 0.  1.
         11   -1    0    0    0    0 -0.00000000000E+00 -0.00000000000E+00 -0.45593999997E+02  0.45594000000E+02  0.51100000000E-03 0. -1.
    9900012    2    1    2    0    0 -0.18824097737E+02  0.37173963518E+02  0.12139942036E+02  0.47787211852E+02  0.19999730117E+02 0.  0.
         12    1    1    2    0    0  0.18824097737E+02 -0.37173963518E+02 -0.12139942036E+02  0.43400788148E+02  0.00000000000E+00 0. -1.
         11    1    3    3    0    0 -0.53183865306E+01  0.10239219940E+02 -0.74434170430E+00  0.11562045888E+02  0.51100000000E-03 0. -1.
        -11    1    3    3    0    0 -0.21916862972E+00  0.17178244669E+02  0.85036363218E+01  0.19169036381E+02  0.51100000000E-03 0.  1.
         12    1    3    3    0    0 -0.13286542576E+02  0.97564989082E+01  0.43806474187E+01  0.17056129584E+02  0.00000000000E+00 0. -1.
</event>
<event>
 7    1  0.2580704E-010  0.4778727E+02  0.7816164E-02  0.1312668E+00
        -11   -1    0    0    0    0  0.00000000000E+00  0.00000000000E+00  0.45593999997E+02  0.45594000000E+02  0.51100000000E-03 0. -1.
         11   -1    0    0    0    0 -0.00000000000E+00 -0.00000000000E+00 -0.45593999997E+02  0.45594000000E+02  0.51100000000E-03 0.  1.
    9900012    2    1    2    0    0  0.30442359031E+02 -0.85777790362E+01  0.29720496498E+02  0.47787269261E+02  0.19999991869E+02 0.  0.
         12    1    1    2    0    0 -0.30442359031E+02  0.85777790362E+01 -0.29720496498E+02  0.43400730739E+02  0.00000000000E+00 0. -1.
         11    1    3    3    0    0  0.26582081925E+01 -0.84845257903E+01  0.47527163877E+01  0.10081743996E+02  0.51100000000E-03 0. -1.
        -11    1    3    3    0    0  0.20803567402E+01  0.13235257458E+01  0.16063935981E+01  0.29428056713E+01  0.51100000000E-03 0.  1.
         12    1    3    3    0    0  0.25703794099E+02 -0.14167789917E+01  0.23361386512E+02  0.34762719594E+02  0.00000000000E+00 0. -1.
</event>
<event>
 7    1  0.2580704E-010  0.4778727E+02  0.7816164E-02  0.1312668E+00
        -11   -1    0    0    0    0  0.00000000000E+00  0.00000000000E+00  0.45593999997E+02  0.45594000000E+02  0.51100000000E-03 0.  1.
         11   -1    0    0    0    0 -0.00000000000E+00 -0.00000000000E+00 -0.45593999997E+02  0.45594000000E+02  0.51100000000E-03 0. -1.
    9900012    2    1    2    0    0 -0.43857919985E+01 -0.23319167081E+02  0.36340125049E+02  0.47787269437E+02  0.19999992671E+02 0.  0.
         12    1    1    2    0    0  0.43857919985E+01  0.23319167081E+02 -0.36340125049E+02  0.43400730563E+02  0.00000000000E+00 0. -1.
         11    1    3    3    0    0  0.97859336964E+00  0.13636415342E+01  0.12550583588E+01  0.20957898182E+01  0.51100000000E-03 0. -1.
        -11    1    3    3    0    0 -0.34595132492E+00 -0.12931633611E+02  0.67120094857E+01  0.14573877376E+02  0.51100000000E-03 0.  1.
        -12    1    3    3    0    0 -0.50184340432E+01 -0.11751175005E+02  0.28373057204E+02  0.31117602243E+02  0.00000000000E+00 0.  1.
</event>
<event>
 7    1  0.2580704E-010  0.4778724E+02  0.7816164E-02  0.1312668E+00
        -11   -1    0    0    0    0  0.00000000000E+00  0.00000000000E+00  0.45593999997E+02  0.45594000000E+02  0.51100000000E-03 0.  1.
         11   -1    0    0    0    0 -0.00000000000E+00 -0.00000000000E+00 -0.45593999997E+02  0.45594000000E+02  0.51100000000E-03 0. -1.
    9900012    2    1    2    0    0  0.27310712872E+02 -0.82987877290E+01  0.32693744422E+02  0.47787241485E+02  0.19999865226E+02 0.  0.
         12    1    1    2    0    0 -0.27310712872E+02  0.82987877290E+01 -0.32693744422E+02  0.43400758515E+02  0.00000000000E+00 0. -1.
         11    1    3    3    0    0  0.29691994921E+01  0.15599581579E+00  0.22805373314E+01  0.37471764170E+01  0.51100000000E-03 0.  1.
        -11    1    3    3    0    0  0.26601396232E+02 -0.40619268949E+01  0.25497515555E+02  0.37070970197E+02  0.51100000000E-03 0. -1.
         12    1    3    3    0    0 -0.22598828522E+01 -0.43928566499E+01  0.49156915357E+01  0.69690948714E+01  0.00000000000E+00 0. -1.
</event>
<event>
 7    1  0.2719716E-010  0.4778727E+02  0.7816164E-02  0.1312668E+00
        -11   -1    0    0    0    0  0.00000000000E+00  0.00000000000E+00  0.45593999997E+02  0.45594000000E+02  0.51100000000E-03 0. -1.
         11   -1    0    0    0    0 -0.00000000000E+00 -0.00000000000E+00 -0.45593999997E+02  0.45594000000E+02  0.51100000000E-03 0.  1.
    9900012    2    1    2    0    0  0.19168968704E+02 -0.34012178490E+02 -0.18956417892E+02  0.47787269291E+02  0.19999992005E+02 0.  0.
         12    1    1    2    0    0 -0.19168968704E+02  0.34012178490E+02  0.18956417892E+02  0.43400730709E+02  0.00000000000E+00 0. -1.
         11    1    3    3    0    0 -0.16592308794E+01 -0.79103599258E+01  0.47435911999E+00  0.80964101985E+01  0.51100000000E-03 0. -1.
        -11    1    3    3    0    0  0.35949796012E+01 -0.11397833297E+02 -0.70096764592E+01  0.13855325566E+02  0.51100000000E-03 0.  1.
        -12    1    3    3    0    0  0.17233219982E+02 -0.14703985267E+02 -0.12421100552E+02  0.25835533527E+02  0.00000000000E+00 0.  1.
</event>
<event>
 7    1  0.2580704E-010  0.4778727E+02  0.7816164E-02  0.1312668E+00
        -11   -1    0    0    0    0  0.00000000000E+00  0.00000000000E+00  0.45593999997E+02  0.45594000000E+02  0.51100000000E-03 0.  1.
         11   -1    0    0    0    0 -0.00000000000E+00 -0.00000000000E+00 -0.45593999997E+02  0.45594000000E+02  0.51100000000E-03 0. -1.
    9900012    2    1    2    0    0 -0.20017823862E+02 -0.28236206375E+02  0.26184474711E+02  0.47787270300E+02  0.19999996604E+02 0.  0.
         12    1    1    2    0    0  0.20017823862E+02  0.28236206375E+02 -0.26184474711E+02  0.43400729700E+02  0.00000000000E+00 0. -1.
         11    1    3    3    0    0 -0.23601929605E+00 -0.72027453415E+01  0.66132515173E+01  0.97811216869E+01  0.51100000000E-03 0. -1.
        -11    1    3    3    0    0 -0.14777384367E+02 -0.22688359714E+02  0.17971425177E+02  0.32497767284E+02  0.51100000000E-03 0.  1.
        -12    1    3    3    0    0 -0.50044201994E+01  0.16548986805E+01  0.15997980159E+01  0.55083813291E+01  0.00000000000E+00 0.  1.
</event>
<event>
 7    1  0.2580704E-010  0.4778727E+02  0.7816164E-02  0.1312668E+00
        -11   -1    0    0    0    0  0.00000000000E+00  0.00000000000E+00  0.45593999997E+02  0.45594000000E+02  0.51100000000E-03 0.  1.
         11   -1    0    0    0    0 -0.00000000000E+00 -0.00000000000E+00 -0.45593999997E+02  0.45594000000E+02  0.51100000000E-03 0. -1.
    9900012    2    1    2    0    0  0.41883536428E+02  0.11764440102E+01  0.11314081779E+02  0.47787273155E+02  0.20000009621E+02 0.  0.
         12    1    1    2    0    0 -0.41883536428E+02 -0.11764440102E+01 -0.11314081779E+02  0.43400726845E+02  0.00000000000E+00 0. -1.
         11    1    3    3    0    0  0.17398605494E+02  0.59887908187E+01  0.85420797761E+01  0.20286552585E+02  0.51100000000E-03 0. -1.
        -11    1    3    3    0    0 -0.11991238837E+01 -0.56657142586E+00  0.66712124531E-01  0.13279126620E+01  0.51100000000E-03 0.  1.
        -12    1    3    3    0    0  0.25684054817E+02 -0.42457753826E+01  0.27052898782E+01  0.26172807908E+02  0.00000000000E+00 0.  1.
</event>
<event>
 7    1  0.2580704E-010  0.4778727E+02  0.7816164E-02  0.1312668E+00
        -11   -1    0    0    0    0  0.00000000000E+00  0.00000000000E+00  0.45593999997E+02  0.45594000000E+02  0.51100000000E-03 0.  1.
         11   -1    0    0    0    0 -0.00000000000E+00 -0.00000000000E+00 -0.45593999997E+02  0.45594000000E+02  0.51100000000E-03 0. -1.
    9900012    2    1    2    0    0  0.31201587435E+02  0.18399561659E+02  0.23906911433E+02  0.47787270260E+02  0.19999996423E+02 0.  0.
         12    1    1    2    0    0 -0.31201587435E+02 -0.18399561659E+02 -0.23906911433E+02  0.43400729740E+02  0.00000000000E+00 0. -1.
         11    1    3    3    0    0  0.54864954746E+01  0.56640619015E+00  0.85513105139E+01  0.10175822342E+02  0.51100000000E-03 0. -1.
        -11    1    3    3    0    0 -0.12027136766E+01  0.37424641474E+01  0.13544240852E+01  0.41577665815E+01  0.51100000000E-03 0.  1.
         12    1    3    3    0    0  0.26917805637E+02  0.14090691321E+02  0.14001176834E+02  0.33453681337E+02  0.00000000000E+00 0. -1.
</event>
<event>
 7    1  0.2580704E-010  0.4778726E+02  0.7816164E-02  0.1312668E+00
        -11   -1    0    0    0    0  0.00000000000E+00  0.00000000000E+00  0.45593999997E+02  0.45594000000E+02  0.51100000000E-03 0.  1.
         11   -1    0    0    0    0 -0.00000000000E+00 -0.00000000000E+00 -0.45593999997E+02  0.45594000000E+02  0.51100000000E-03 0. -1.
    9900012    2    1    2    0    0 -0.77984651341E+00  0.39909460958E+02  0.17036756342E+02  0.47787259209E+02  0.19999946035E+02 0.  0.
         12    1    1    2    0    0  0.77984651341E+00 -0.39909460958E+02 -0.17036756342E+02  0.43400740791E+02  0.00000000000E+00 0. -1.
         11    1    3    3    0    0  0.38901097765E+01  0.14017682739E+02 -0.17326407589E+00  0.14548484599E+02  0.51100000000E-03 0. -1.
        -11    1    3    3    0    0 -0.30882364424E+01  0.67399582808E+00  0.16667611887E+01  0.35734532068E+01  0.51100000000E-03 0.  1.
        -12    1    3    3    0    0 -0.15817198475E+01  0.25217782391E+02  0.15543259230E+02  0.29665321402E+02  0.00000000000E+00 0.  1.
</event>
<event>
 7    1  0.2580704E-010  0.4778727E+02  0.7816164E-02  0.1312668E+00
        -11   -1    0    0    0    0  0.00000000000E+00  0.00000000000E+00  0.45593999997E+02  0.45594000000E+02  0.51100000000E-03 0. -1.
         11   -1    0    0    0    0 -0.00000000000E+00 -0.00000000000E+00 -0.45593999997E+02  0.45594000000E+02  0.51100000000E-03 0.  1.
    9900012    2    1    2    0    0  0.17143957120E+01 -0.37611456679E+02 -0.21588472985E+02  0.47787274292E+02  0.20000014807E+02 0.  0.
         12    1    1    2    0    0 -0.17143957120E+01  0.37611456679E+02  0.21588472985E+02  0.43400725708E+02  0.00000000000E+00 0. -1.
         11    1    3    3    0    0  0.24726527567E+01 -0.15989949221E+02 -0.21828396287E+01  0.16326581910E+02  0.51100000000E-03 0. -1.
        -11    1    3    3    0    0 -0.45186597922E+01 -0.17975686369E+02 -0.10989620729E+02  0.21547977882E+02  0.51100000000E-03 0.  1.
         12    1    3    3    0    0  0.37604027474E+01 -0.36458210885E+01 -0.84160126270E+01  0.99127145006E+01  0.00000000000E+00 0. -1.
</event>
<event>
 7    1  0.2580704E-010  0.4778727E+02  0.7816164E-02  0.1312668E+00
        -11   -1    0    0    0    0  0.00000000000E+00  0.00000000000E+00  0.45593999997E+02  0.45594000000E+02  0.51100000000E-03 0.  1.
         11   -1    0    0    0    0 -0.00000000000E+00 -0.00000000000E+00 -0.45593999997E+02  0.45594000000E+02  0.51100000000E-03 0. -1.
    9900012    2    1    2    0    0  0.20242539432E+02  0.38348336511E+02  0.18077616315E+01  0.47787270537E+02  0.19999997687E+02 0.  0.
         12    1    1    2    0    0 -0.20242539432E+02 -0.38348336511E+02 -0.18077616315E+01  0.43400729463E+02  0.00000000000E+00 0. -1.
         11    1    3    3    0    0 -0.32860581274E+00  0.16094848209E+02  0.32195780998E+01  0.16416997413E+02  0.51100000000E-03 0. -1.
        -11    1    3    3    0    0  0.25742953799E+01  0.71339174885E+01 -0.20506756405E+01  0.78565288951E+01  0.51100000000E-03 0.  1.
        -12    1    3    3    0    0  0.17996849865E+02  0.15119570814E+02  0.63885917223E+00  0.23513744229E+02  0.00000000000E+00 0.  1.
</event>
<event>
 7    1  0.2580704E-010  0.4778727E+02  0.7816164E-02  0.1312668E+00
        -11   -1    0    0    0    0  0.00000000000E+00  0.00000000000E+00  0.45593999997E+02  0.45594000000E+02  0.51100000000E-03 0.  1.
         11   -1    0    0    0    0 -0.00000000000E+00 -0.00000000000E+00 -0.45593999997E+02  0.45594000000E+02  0.51100000000E-03 0. -1.
    9900012    2    1    2    0    0 -0.12457354466E+02  0.49854221485E+01  0.41274490360E+02  0.47787266495E+02  0.19999979257E+02 0.  0.
         12    1    1    2    0    0  0.12457354466E+02 -0.49854221485E+01 -0.41274490360E+02  0.43400733505E+02  0.00000000000E+00 0. -1.
         11    1    3    3    0    0 -0.90710812318E+01 -0.80514828900E+00  0.22323190406E+02  0.24109284698E+02  0.51100000000E-03 0. -1.
        -11    1    3    3    0    0 -0.58333627487E+00 -0.32885934791E+01  0.10298587447E+02  0.10826635301E+02  0.51100000000E-03 0.  1.
         12    1    3    3    0    0 -0.28029369591E+01  0.90791639166E+01  0.86527125071E+01  0.12851346496E+02  0.00000000000E+00 0. -1.
</event>
<event>
 7    1  0.2580704E-010  0.4778726E+02  0.7816164E-02  0.1312668E+00
        -11   -1    0    0    0    0  0.00000000000E+00  0.00000000000E+00  0.45593999997E+02  0.45594000000E+02  0.51100000000E-03 0.  1.
         11   -1    0    0    0    0 -0.00000000000E+00 -0.00000000000E+00 -0.45593999997E+02  0.45594000000E+02  0.51100000000E-03 0. -1.
    9900012    2    1    2    0    0 -0.23419328070E+02  0.30183161225E+02  0.20594561278E+02  0.47787261492E+02  0.19999956447E+02 0.  0.
         12    1    1    2    0    0  0.23419328070E+02 -0.30183161225E+02 -0.20594561278E+02  0.43400738508E+02  0.00000000000E+00 0. -1.
         11    1    3    3    0    0  0.16250981573E+01 -0.41853083195E+00 -0.10221569660E+01  0.19649216784E+01  0.51100000000E-03 0. -1.
        -11    1    3    3    0    0 -0.88185751647E+00  0.16074567395E+01  0.35127862560E+01  0.39624812164E+01  0.51100000000E-03 0.  1.
        -12    1    3    3    0    0 -0.24162568711E+02  0.28994235318E+02  0.18103931988E+02  0.41859858597E+02  0.00000000000E+00 0.  1.
</event>
<event>
 7    1  0.2580704E-010  0.4778727E+02  0.7816164E-02  0.1312668E+00
        -11   -1    0    0    0    0  0.00000000000E+00  0.00000000000E+00  0.45593999997E+02  0.45594000000E+02  0.51100000000E-03 0.  1.
         11   -1    0    0    0    0 -0.00000000000E+00 -0.00000000000E+00 -0.45593999997E+02  0.45594000000E+02  0.51100000000E-03 0. -1.
    9900012    2    1    2    0    0 -0.19700722322E+01  0.13447602850E+02  0.41217764153E+02  0.47787270873E+02  0.19999999217E+02 0.  0.
         12    1    1    2    0    0  0.19700722322E+01 -0.13447602850E+02 -0.41217764153E+02  0.43400729127E+02  0.00000000000E+00 0. -1.
         11    1    3    3    0    0  0.43695363334E+01  0.30838010416E+01  0.12201898860E+02  0.13322500242E+02  0.51100000000E-03 0. -1.
        -11    1    3    3    0    0  0.48631479852E+00  0.10988128249E+02  0.22318669226E+02  0.24881689267E+02  0.51100000000E-03 0.  1.
         12    1    3    3    0    0 -0.68259233641E+01 -0.62432644064E+00  0.66971960669E+01  0.95830813644E+01  0.00000000000E+00 0. -1.
</event>
<event>
 7    1  0.2580704E-010  0.4778727E+02  0.7816164E-02  0.1312668E+00
        -11   -1    0    0    0    0  0.00000000000E+00  0.00000000000E+00  0.45593999997E+02  0.45594000000E+02  0.51100000000E-03 0.  1.
         11   -1    0    0    0    0 -0.00000000000E+00 -0.00000000000E+00 -0.45593999997E+02  0.45594000000E+02  0.51100000000E-03 0. -1.
    9900012    2    1    2    0    0  0.16055807882E+02  0.14042957505E+02  0.37797216672E+02  0.47787271776E+02  0.20000003336E+02 0.  0.
         12    1    1    2    0    0 -0.16055807882E+02 -0.14042957505E+02 -0.37797216672E+02  0.43400728224E+02  0.00000000000E+00 0. -1.
         11    1    3    3    0    0  0.46959058939E+01  0.11037787418E+02  0.11212521286E+02  0.16419650334E+02  0.51100000000E-03 0. -1.
        -11    1    3    3    0    0 -0.13972510950E+00  0.49687508463E+01  0.74056968455E+01  0.89192126394E+01  0.51100000000E-03 0.  1.
         12    1    3    3    0    0  0.11499627098E+02 -0.19635807586E+01  0.19178998540E+02  0.22448408803E+02  0.00000000000E+00 0. -1.
</event>
<event>
 7    1  0.2580704E-010  0.4778727E+02  0.7816164E-02  0.1312668E+00
        -11   -1    0    0    0    0  0.00000000000E+00  0.00000000000E+00  0.45593999997E+02  0.45594000000E+02  0.51100000000E-03 0.  1.
         11   -1    0    0    0    0 -0.00000000000E+00 -0.00000000000E+00 -0.45593999997E+02  0.45594000000E+02  0.51100000000E-03 0. -1.
    9900012    2    1    2    0    0 -0.67574793915E+00  0.24339682250E+02  0.35926962293E+02  0.47787269742E+02  0.19999994063E+02 0.  0.
         12    1    1    2    0    0  0.67574793915E+00 -0.24339682250E+02 -0.35926962293E+02  0.43400730258E+02  0.00000000000E+00 0. -1.
         11    1    3    3    0    0  0.52619966970E+00 -0.54715089986E+00  0.76736715268E+01  0.77111280084E+01  0.51100000000E-03 0.  1.
        -11    1    3    3    0    0 -0.10176527227E+01  0.10142418608E+02  0.21629689393E+02  0.23911247056E+02  0.51100000000E-03 0. -1.
         12    1    3    3    0    0 -0.18429488617E+00  0.14744414542E+02  0.66236013730E+01  0.16164894678E+02  0.00000000000E+00 0. -1.
</event>
<event>
 7    1  0.2580704E-010  0.4778727E+02  0.7816164E-02  0.1312668E+00
        -11   -1    0    0    0    0  0.00000000000E+00  0.00000000000E+00  0.45593999997E+02  0.45594000000E+02  0.51100000000E-03 0.  1.
         11   -1    0    0    0    0 -0.00000000000E+00 -0.00000000000E+00 -0.45593999997E+02  0.45594000000E+02  0.51100000000E-03 0. -1.
    9900012    2    1    2    0    0 -0.66014609009E+01 -0.30056132601E+02  0.30605113526E+02  0.47787269973E+02  0.19999995116E+02 0.  0.
         12    1    1    2    0    0  0.66014609009E+01  0.30056132601E+02 -0.30605113526E+02  0.43400730027E+02  0.00000000000E+00 0. -1.
         11    1    3    3    0    0 -0.45158870508E+01 -0.36412788935E+01  0.43930665138E+01  0.72767562479E+01  0.51100000000E-03 0. -1.
        -11    1    3    3    0    0 -0.14164241015E+01 -0.21875300862E+02  0.10814095807E+02  0.24443398156E+02  0.51100000000E-03 0.  1.
        -12    1    3    3    0    0 -0.66914974856E+00 -0.45395528455E+01  0.15397951205E+02  0.16067115569E+02  0.00000000000E+00 0.  1.
</event>
<event>
 7    1  0.2580704E-010  0.4778727E+02  0.7816164E-02  0.1312668E+00
        -11   -1    0    0    0    0  0.00000000000E+00  0.00000000000E+00  0.45593999997E+02  0.45594000000E+02  0.51100000000E-03 0.  1.
         11   -1    0    0    0    0 -0.00000000000E+00 -0.00000000000E+00 -0.45593999997E+02  0.45594000000E+02  0.51100000000E-03 0. -1.
    9900012    2    1    2    0    0  0.11624867568E+02 -0.25508249900E+02  0.33133290742E+02  0.47787270579E+02  0.19999997876E+02 0.  0.
         12    1    1    2    0    0 -0.11624867568E+02  0.25508249900E+02 -0.33133290742E+02  0.43400729421E+02  0.00000000000E+00 0. -1.
         11    1    3    3    0    0  0.19973271273E+01  0.10879171297E+01 -0.15170259089E+01  0.27339069486E+01  0.51100000000E-03 0. -1.
        -11    1    3    3    0    0  0.32353197975E-01 -0.66455817805E+01  0.85428295781E+01  0.10823342432E+02  0.51100000000E-03 0.  1.
         12    1    3    3    0    0  0.95951872432E+01 -0.19950585249E+02  0.26107487073E+02  0.34230021198E+02  0.00000000000E+00 0. -1.
</event>
<event>
 7    1  0.2580704E-010  0.4778727E+02  0.7816164E-02  0.1312668E+00
        -11   -1    0    0    0    0  0.00000000000E+00  0.00000000000E+00  0.45593999997E+02  0.45594000000E+02  0.51100000000E-03 0. -1.
         11   -1    0    0    0    0 -0.00000000000E+00 -0.00000000000E+00 -0.45593999997E+02  0.45594000000E+02  0.51100000000E-03 0.  1.
    9900012    2    1    2    0    0 -0.31244253739E+02 -0.30121566165E+02  0.33328860532E+00  0.47787271650E+02  0.20000002763E+02 0.  0.
         12    1    1    2    0    0  0.31244253739E+02  0.30121566165E+02 -0.33328860532E+00  0.43400728350E+02  0.00000000000E+00 0. -1.
         11    1    3    3    0    0 -0.35929786247E+01 -0.70356818097E+01  0.30768973897E+01  0.84780665091E+01  0.51100000000E-03 0. -1.
        -11    1    3    3    0    0  0.16108289215E+01 -0.14109337309E+01 -0.19331477023E+01  0.28848854583E+01  0.51100000000E-03 0.  1.
         12    1    3    3    0    0 -0.29262104036E+02 -0.21674950625E+02 -0.81046108208E+00  0.36424319683E+02  0.00000000000E+00 0. -1.
</event>
<event>
 7    1  0.2580704E-010  0.4778722E+02  0.7816164E-02  0.1312668E+00
        -11   -1    0    0    0    0  0.00000000000E+00  0.00000000000E+00  0.45593999997E+02  0.45594000000E+02  0.51100000000E-03 0.  1.
         11   -1    0    0    0    0 -0.00000000000E+00 -0.00000000000E+00 -0.45593999997E+02  0.45594000000E+02  0.51100000000E-03 0. -1.
    9900012    2    1    2    0    0 -0.15190084577E+02  0.37552878688E+02  0.15577867158E+02  0.47787224518E+02  0.19999787867E+02 0.  0.
         12    1    1    2    0    0  0.15190084577E+02 -0.37552878688E+02 -0.15577867158E+02  0.43400775482E+02  0.00000000000E+00 0. -1.
         11    1    3    3    0    0 -0.10595504605E+00  0.22512810391E+02  0.58624545897E+01  0.23263839585E+02  0.51100000000E-03 0. -1.
        -11    1    3    3    0    0 -0.78165737561E+01  0.12563713230E+02  0.56793412344E+01  0.15849310159E+02  0.51100000000E-03 0.  1.
         12    1    3    3    0    0 -0.72675557752E+01  0.24763550672E+01  0.40360713336E+01  0.86740747734E+01  0.00000000000E+00 0. -1.
</event>
<event>
 7    1  0.2580704E-010  0.4778728E+02  0.7816164E-02  0.1312668E+00
        -11   -1    0    0    0    0  0.00000000000E+00  0.00000000000E+00  0.45593999997E+02  0.45594000000E+02  0.51100000000E-03 0.  1.
         11   -1    0    0    0    0 -0.00000000000E+00 -0.00000000000E+00 -0.45593999997E+02  0.45594000000E+02  0.51100000000E-03 0. -1.
    9900012    2    1    2    0    0  0.13884189194E+01 -0.32414107393E+02  0.28827426516E+02  0.47787278984E+02  0.20000036198E+02 0.  0.
         12    1    1    2    0    0 -0.13884189194E+01  0.32414107393E+02 -0.28827426516E+02  0.43400721016E+02  0.00000000000E+00 0. -1.
         11    1    3    3    0    0  0.18157087679E+01 -0.79937696084E+01  0.15284359998E+01  0.83386610286E+01  0.51100000000E-03 0. -1.
        -11    1    3    3    0    0  0.24275720954E+00 -0.64663269146E+01 -0.34396765078E+00  0.64800176570E+01  0.51100000000E-03 0.  1.
        -12    1    3    3    0    0 -0.67004705804E+00 -0.17954010870E+02  0.27642958167E+02  0.32968600298E+02  0.00000000000E+00 0.  1.
</event>
<event>
 7    1  0.2580704E-010  0.4778729E+02  0.7816164E-02  0.1312668E+00
        -11   -1    0    0    0    0  0.00000000000E+00  0.00000000000E+00  0.45593999997E+02  0.45594000000E+02  0.51100000000E-03 0.  1.
         11   -1    0    0    0    0 -0.00000000000E+00 -0.00000000000E+00 -0.45593999997E+02  0.45594000000E+02  0.51100000000E-03 0. -1.
    9900012    2    1    2    0    0 -0.59114482467E+00 -0.20359126594E+02  0.38324646186E+02  0.47787285799E+02  0.20000067272E+02 0.  0.
         12    1    1    2    0    0  0.59114482467E+00  0.20359126594E+02 -0.38324646186E+02  0.43400714201E+02  0.00000000000E+00 0. -1.
         11    1    3    3    0    0  0.52130077534E+01 -0.10022580949E+02  0.22543538654E+02  0.25215842520E+02  0.51100000000E-03 0.  1.
        -11    1    3    3    0    0  0.26661806020E+01 -0.15248338003E+01  0.68369702156E+00  0.31465980041E+01  0.51100000000E-03 0. -1.
        -12    1    3    3    0    0 -0.84703331801E+01 -0.88117118447E+01  0.15097410510E+02  0.19424845274E+02  0.00000000000E+00 0.  1.
</event>
<event>
 7    1  0.2580704E-010  0.4778728E+02  0.7816164E-02  0.1312668E+00
        -11   -1    0    0    0    0  0.00000000000E+00  0.00000000000E+00  0.45593999997E+02  0.45594000000E+02  0.51100000000E-03 0.  1.
         11   -1    0    0    0    0 -0.00000000000E+00 -0.00000000000E+00 -0.45593999997E+02  0.45594000000E+02  0.51100000000E-03 0. -1.
    9900012    2    1    2    0    0 -0.38945557099E+02  0.33705787574E+01 -0.18854844496E+02  0.47787281344E+02  0.20000046958E+02 0.  0.
         12    1    1    2    0    0  0.38945557099E+02 -0.33705787574E+01  0.18854844496E+02  0.43400718656E+02  0.00000000000E+00 0. -1.
         11    1    3    3    0    0 -0.64647671701E+01  0.10924451074E+01 -0.24145588522E+01  0.69868981378E+01  0.51100000000E-03 0. -1.
        -11    1    3    3    0    0 -0.15645192094E+02 -0.46487364005E+00  0.18846040701E+01  0.15765147508E+02  0.51100000000E-03 0.  1.
         12    1    3    3    0    0 -0.16835597835E+02  0.27430072901E+01 -0.18324889714E+02  0.25035235698E+02  0.00000000000E+00 0. -1.
</event>
<event>
 7    1  0.2580704E-010  0.4778727E+02  0.7816164E-02  0.1312668E+00
        -11   -1    0    0    0    0  0.00000000000E+00  0.00000000000E+00  0.45593999997E+02  0.45594000000E+02  0.51100000000E-03 0. -1.
         11   -1    0    0    0    0 -0.00000000000E+00 -0.00000000000E+00 -0.45593999997E+02  0.45594000000E+02  0.51100000000E-03 0.  1.
    9900012    2    1    2    0    0 -0.26772451295E+02 -0.34158533142E+02 -0.23278334551E+00  0.47787265872E+02  0.19999976418E+02 0.  0.
         12    1    1    2    0    0  0.26772451295E+02  0.34158533142E+02  0.23278334551E+00  0.43400734128E+02  0.00000000000E+00 0. -1.
         11    1    3    3    0    0 -0.95711185435E+01 -0.23201502316E+01  0.34190203611E+01  0.10424927231E+02  0.51100000000E-03 0. -1.
        -11    1    3    3    0    0 -0.10367063987E+02 -0.16292604977E+02 -0.59934291775E+01  0.20219945257E+02  0.51100000000E-03 0.  1.
        -12    1    3    3    0    0 -0.68342687647E+01 -0.15545777933E+02  0.23416254709E+01  0.17142393385E+02  0.00000000000E+00 0.  1.
</event>
<event>
 7    1  0.2580704E-010  0.4778727E+02  0.7816164E-02  0.1312668E+00
        -11   -1    0    0    0    0  0.00000000000E+00  0.00000000000E+00  0.45593999997E+02  0.45594000000E+02  0.51100000000E-03 0.  1.
         11   -1    0    0    0    0 -0.00000000000E+00 -0.00000000000E+00 -0.45593999997E+02  0.45594000000E+02  0.51100000000E-03 0. -1.
    9900012    2    1    2    0    0 -0.39440418141E+02  0.17967768603E+02  0.22882142605E+01  0.47787271709E+02  0.20000003028E+02 0.  0.
         12    1    1    2    0    0  0.39440418141E+02 -0.17967768603E+02 -0.22882142605E+01  0.43400728291E+02  0.00000000000E+00 0. -1.
         11    1    3    3    0    0 -0.30807875273E+01  0.68504775457E+01 -0.21313679108E+01  0.78078821600E+01  0.51100000000E-03 0. -1.
        -11    1    3    3    0    0 -0.83055670861E-03  0.21430126541E+01  0.10260618992E+01  0.23759855234E+01  0.51100000000E-03 0.  1.
        -12    1    3    3    0    0 -0.36358800057E+02  0.89742784034E+01  0.33935202721E+01  0.37603404025E+02  0.00000000000E+00 0.  1.
</event>
<event>
 7    1  0.2580704E-010  0.4778727E+02  0.7816164E-02  0.1312668E+00
        -11   -1    0    0    0    0  0.00000000000E+00  0.00000000000E+00  0.45593999997E+02  0.45594000000E+02  0.51100000000E-03 0. -1.
         11   -1    0    0    0    0 -0.00000000000E+00 -0.00000000000E+00 -0.45593999997E+02  0.45594000000E+02  0.51100000000E-03 0.  1.
    9900012    2    1    2    0    0 -0.19949152645E+02 -0.33423733616E+02 -0.19196574799E+02  0.47787272540E+02  0.20000006817E+02 0.  0.
         12    1    1    2    0    0  0.19949152645E+02  0.33423733616E+02  0.19196574799E+02  0.43400727460E+02  0.00000000000E+00 0. -1.
         11    1    3    3    0    0 -0.11190701023E+02 -0.12571322913E+02 -0.23719051113E+01  0.16996937468E+02  0.51100000000E-03 0. -1.
        -11    1    3    3    0    0 -0.11339437007E+02 -0.18111618537E+02 -0.11492233295E+02  0.24262831327E+02  0.51100000000E-03 0.  1.
        -12    1    3    3    0    0  0.25809853846E+01 -0.27407921662E+01 -0.53324363923E+01  0.65275037443E+01  0.00000000000E+00 0.  1.
</event>
<event>
 7    1  0.2580704E-010  0.4778725E+02  0.7816164E-02  0.1312668E+00
        -11   -1    0    0    0    0  0.00000000000E+00  0.00000000000E+00  0.45593999997E+02  0.45594000000E+02  0.51100000000E-03 0. -1.
         11   -1    0    0    0    0 -0.00000000000E+00 -0.00000000000E+00 -0.45593999997E+02  0.45594000000E+02  0.51100000000E-03 0.  1.
    9900012    2    1    2    0    0  0.28100657562E+02 -0.31594007599E+02  0.97876026295E+01  0.47787246126E+02  0.19999886387E+02 0.  0.
         12    1    1    2    0    0 -0.28100657562E+02  0.31594007599E+02 -0.97876026295E+01  0.43400753874E+02  0.00000000000E+00 0. -1.
         11    1    3    3    0    0  0.18311552510E+02 -0.10675873450E+02  0.18575846760E-01  0.21196404756E+02  0.51100000000E-03 0. -1.
        -11    1    3    3    0    0  0.25925453456E+01 -0.12081325599E+01  0.38369239400E+01  0.47856933912E+01  0.51100000000E-03 0.  1.
        -12    1    3    3    0    0  0.71965597065E+01 -0.19710001589E+02  0.59321028427E+01  0.21805147979E+02  0.00000000000E+00 0.  1.
</event>
<event>
 7    1  0.2580704E-010  0.4778729E+02  0.7816164E-02  0.1312668E+00
        -11   -1    0    0    0    0  0.00000000000E+00  0.00000000000E+00  0.45593999997E+02  0.45594000000E+02  0.51100000000E-03 0.  1.
         11   -1    0    0    0    0 -0.00000000000E+00 -0.00000000000E+00 -0.45593999997E+02  0.45594000000E+02  0.51100000000E-03 0. -1.
    9900012    2    1    2    0    0  0.16391495128E+02 -0.23723522312E+02  0.32436633769E+02  0.47787287636E+02  0.20000075646E+02 0.  0.
         12    1    1    2    0    0 -0.16391495128E+02  0.23723522312E+02 -0.32436633769E+02  0.43400712364E+02  0.00000000000E+00 0. -1.
         11    1    3    3    0    0 -0.39137845448E+01 -0.48484019991E+01  0.48747462222E+01  0.79112491049E+01  0.51100000000E-03 0. -1.
        -11    1    3    3    0    0  0.37848314142E+01 -0.21520162804E+01  0.87313400835E+01  0.97566604338E+01  0.51100000000E-03 0.  1.
        -12    1    3    3    0    0  0.16520448259E+02 -0.16723104033E+02  0.18830547464E+02  0.30119378097E+02  0.00000000000E+00 0.  1.
</event>
<event>
 7    1  0.2580704E-010  0.4778727E+02  0.7816164E-02  0.1312668E+00
        -11   -1    0    0    0    0  0.00000000000E+00  0.00000000000E+00  0.45593999997E+02  0.45594000000E+02  0.51100000000E-03 0.  1.
         11   -1    0    0    0    0 -0.00000000000E+00 -0.00000000000E+00 -0.45593999997E+02  0.45594000000E+02  0.51100000000E-03 0. -1.
    9900012    2    1    2    0    0  0.17949889200E+02  0.16904322096E+02  0.35716503243E+02  0.47787271530E+02  0.20000002214E+02 0.  0.
         12    1    1    2    0    0 -0.17949889200E+02 -0.16904322096E+02 -0.35716503243E+02  0.43400728470E+02  0.00000000000E+00 0. -1.
         11    1    3    3    0    0  0.16147057307E+01  0.30647206428E+01  0.15669966473E+02  0.16048290773E+02  0.51100000000E-03 0. -1.
        -11    1    3    3    0    0 -0.15580612260E+01  0.36290616654E+01  0.40432793208E+01  0.56520572611E+01  0.51100000000E-03 0.  1.
         12    1    3    3    0    0  0.17893244696E+02  0.10210539788E+02  0.16003257450E+02  0.26086923496E+02  0.00000000000E+00 0. -1.
</event>
<event>
 7    1  0.2580704E-010  0.4778727E+02  0.7816164E-02  0.1312668E+00
        -11   -1    0    0    0    0  0.00000000000E+00  0.00000000000E+00  0.45593999997E+02  0.45594000000E+02  0.51100000000E-03 0. -1.
         11   -1    0    0    0    0 -0.00000000000E+00 -0.00000000000E+00 -0.45593999997E+02  0.45594000000E+02  0.51100000000E-03 0.  1.
    9900012    2    1    2    0    0 -0.32548696521E+02 -0.67416969206E+01 -0.27906182347E+02  0.47787272635E+02  0.20000007253E+02 0.  0.
         12    1    1    2    0    0  0.32548696521E+02  0.67416969206E+01  0.27906182347E+02  0.43400727365E+02  0.00000000000E+00 0. -1.
         11    1    3    3    0    0  0.10585879224E+01 -0.36501890623E+01 -0.28108186347E+01  0.47270699421E+01  0.51100000000E-03 0. -1.
        -11    1    3    3    0    0 -0.44947090608E+00 -0.17362842525E+01 -0.10409047181E+01  0.20736899465E+01  0.51100000000E-03 0.  1.
        -12    1    3    3    0    0 -0.33157813538E+02 -0.13552236058E+01 -0.24054458994E+02  0.40986512747E+02  0.00000000000E+00 0.  1.
</event>
<event>
 7    1  0.2580704E-010  0.4778727E+02  0.7816164E-02  0.1312668E+00
        -11   -1    0    0    0    0  0.00000000000E+00  0.00000000000E+00  0.45593999997E+02  0.45594000000E+02  0.51100000000E-03 0.  1.
         11   -1    0    0    0    0 -0.00000000000E+00 -0.00000000000E+00 -0.45593999997E+02  0.45594000000E+02  0.51100000000E-03 0. -1.
    9900012    2    1    2    0    0 -0.29301365317E+02  0.29946039461E+02  0.11326413930E+02  0.47787274875E+02  0.20000017466E+02 0.  0.
         12    1    1    2    0    0  0.29301365317E+02 -0.29946039461E+02 -0.11326413930E+02  0.43400725125E+02  0.00000000000E+00 0. -1.
         11    1    3    3    0    0 -0.36437256430E+01  0.11683211903E+01  0.59787043550E+00  0.38728749378E+01  0.51100000000E-03 0. -1.
        -11    1    3    3    0    0 -0.25751500821E+02  0.19976880248E+02  0.40009461721E+01  0.32836307793E+02  0.51100000000E-03 0.  1.
         12    1    3    3    0    0  0.93861146932E-01  0.88008380229E+01  0.67275973224E+01  0.11078092144E+02  0.00000000000E+00 0. -1.
</event>
<event>
 7    1  0.2580704E-010  0.4778727E+02  0.7816164E-02  0.1312668E+00
        -11   -1    0    0    0    0  0.00000000000E+00  0.00000000000E+00  0.45593999997E+02  0.45594000000E+02  0.51100000000E-03 0.  1.
         11   -1    0    0    0    0 -0.00000000000E+00 -0.00000000000E+00 -0.45593999997E+02  0.45594000000E+02  0.51100000000E-03 0. -1.
    9900012    2    1    2    0    0  0.42184042725E+02 -0.20739470446E+01 -0.99914317831E+01  0.47787269291E+02  0.19999992007E+02 0.  0.
         12    1    1    2    0    0 -0.42184042725E+02  0.20739470446E+01  0.99914317831E+01  0.43400730709E+02  0.00000000000E+00 0. -1.
         11    1    3    3    0    0  0.12837669069E+01 -0.20488655711E+00 -0.52947538602E+00  0.14037023965E+01  0.51100000000E-03 0. -1.
        -11    1    3    3    0    0  0.29977019046E+02  0.79501125599E+00  0.23456248096E+01  0.30079156733E+02  0.51100000000E-03 0.  1.
         12    1    3    3    0    0  0.10923256772E+02 -0.26640717435E+01 -0.11807581207E+02  0.16304410162E+02  0.00000000000E+00 0. -1.
</event>
<event>
 7    1  0.2580704E-010  0.4778727E+02  0.7816164E-02  0.1312668E+00
        -11   -1    0    0    0    0  0.00000000000E+00  0.00000000000E+00  0.45593999997E+02  0.45594000000E+02  0.51100000000E-03 0. -1.
         11   -1    0    0    0    0 -0.00000000000E+00 -0.00000000000E+00 -0.45593999997E+02  0.45594000000E+02  0.51100000000E-03 0.  1.
    9900012    2    1    2    0    0  0.33647732802E+01 -0.42099020380E+02  0.99986959493E+01  0.47787272622E+02  0.20000007194E+02 0.  0.
         12    1    1    2    0    0 -0.33647732802E+01  0.42099020380E+02 -0.99986959493E+01  0.43400727378E+02  0.00000000000E+00 0. -1.
         11    1    3    3    0    0 -0.17754255408E+01 -0.31001850132E+01 -0.29233165885E+01  0.46161740766E+01  0.51100000000E-03 0. -1.
        -11    1    3    3    0    0 -0.24245775163E+01 -0.58860521321E+01 -0.10349744418E+01  0.64494463476E+01  0.51100000000E-03 0.  1.
        -12    1    3    3    0    0  0.75647763373E+01 -0.33112783235E+02  0.13956986980E+02  0.36721652198E+02  0.00000000000E+00 0.  1.
</event>
<event>
 7    1  0.2580704E-010  0.4778727E+02  0.7816164E-02  0.1312668E+00
        -11   -1    0    0    0    0  0.00000000000E+00  0.00000000000E+00  0.45593999997E+02  0.45594000000E+02  0.51100000000E-03 0.  1.
         11   -1    0    0    0    0 -0.00000000000E+00 -0.00000000000E+00 -0.45593999997E+02  0.45594000000E+02  0.51100000000E-03 0. -1.
    9900012    2    1    2    0    0 -0.40827358122E+02  0.27794390344E+01  0.14457685648E+02  0.47787272738E+02  0.20000007720E+02 0.  0.
         12    1    1    2    0    0  0.40827358122E+02 -0.27794390344E+01 -0.14457685648E+02  0.43400727262E+02  0.00000000000E+00 0. -1.
         11    1    3    3    0    0 -0.13584997253E+02  0.35154076402E+00 -0.98544030005E+00  0.13625227489E+02  0.51100000000E-03 0. -1.
        -11    1    3    3    0    0 -0.18579865169E+02  0.75471447136E+01  0.77648259819E+01  0.21504960028E+02  0.51100000000E-03 0.  1.
         12    1    3    3    0    0 -0.86624957007E+01 -0.51192464432E+01  0.76782999665E+01  0.12657085221E+02  0.00000000000E+00 0. -1.
</event>
<event>
 7    1  0.2580704E-010  0.4778727E+02  0.7816164E-02  0.1312668E+00
        -11   -1    0    0    0    0  0.00000000000E+00  0.00000000000E+00  0.45593999997E+02  0.45594000000E+02  0.51100000000E-03 0. -1.
         11   -1    0    0    0    0 -0.00000000000E+00 -0.00000000000E+00 -0.45593999997E+02  0.45594000000E+02  0.51100000000E-03 0.  1.
    9900012    2    1    2    0    0 -0.33250891199E+02 -0.51597737336E+01 -0.27411281738E+02  0.47787269626E+02  0.19999993532E+02 0.  0.
         12    1    1    2    0    0  0.33250891199E+02  0.51597737336E+01  0.27411281738E+02  0.43400730374E+02  0.00000000000E+00 0. -1.
         11    1    3    3    0    0 -0.17214513352E+02  0.63918113329E+01 -0.16847676915E+02  0.24920652876E+02  0.51100000000E-03 0. -1.
        -11    1    3    3    0    0 -0.39785956535E+01 -0.45903373719E+01 -0.50207287608E+01  0.78808716594E+01  0.51100000000E-03 0.  1.
         12    1    3    3    0    0 -0.12057782193E+02 -0.69612476946E+01 -0.55428760627E+01  0.14985745091E+02  0.00000000000E+00 0. -1.
</event>
<event>
 7    1  0.2580704E-010  0.4778727E+02  0.7816164E-02  0.1312668E+00
        -11   -1    0    0    0    0  0.00000000000E+00  0.00000000000E+00  0.45593999997E+02  0.45594000000E+02  0.51100000000E-03 0.  1.
         11   -1    0    0    0    0 -0.00000000000E+00 -0.00000000000E+00 -0.45593999997E+02  0.45594000000E+02  0.51100000000E-03 0. -1.
    9900012    2    1    2    0    0 -0.20178033611E+02 -0.28222728373E+02  0.26075814478E+02  0.47787268002E+02  0.19999986130E+02 0.  0.
         12    1    1    2    0    0  0.20178033611E+02  0.28222728373E+02 -0.26075814478E+02  0.43400731998E+02  0.00000000000E+00 0. -1.
         11    1    3    3    0    0 -0.61049462815E+01 -0.20565894744E+02  0.14507710932E+02  0.25897877760E+02  0.51100000000E-03 0. -1.
        -11    1    3    3    0    0 -0.23446832286E+01 -0.43083409979E+01  0.76332290593E+01  0.90733415967E+01  0.51100000000E-03 0.  1.
        -12    1    3    3    0    0 -0.11728404101E+02 -0.33484926306E+01  0.39348744872E+01  0.12816048646E+02  0.00000000000E+00 0.  1.
</event>
<event>
 7    1  0.2580704E-010  0.4778727E+02  0.7816164E-02  0.1312668E+00
        -11   -1    0    0    0    0  0.00000000000E+00  0.00000000000E+00  0.45593999997E+02  0.45594000000E+02  0.51100000000E-03 0.  1.
         11   -1    0    0    0    0 -0.00000000000E+00 -0.00000000000E+00 -0.45593999997E+02  0.45594000000E+02  0.51100000000E-03 0. -1.
    9900012    2    1    2    0    0  0.35007556596E+02 -0.59795813587E+01  0.24946726036E+02  0.47787267840E+02  0.19999985392E+02 0.  0.
         12    1    1    2    0    0 -0.35007556596E+02  0.59795813587E+01 -0.24946726036E+02  0.43400732160E+02  0.00000000000E+00 0. -1.
         11    1    3    3    0    0  0.10399804372E+02  0.51803208129E+01  0.91949743533E+01  0.14816855548E+02  0.51100000000E-03 0. -1.
        -11    1    3    3    0    0  0.22268943254E+01 -0.22721157939E+01 -0.13278202522E+01  0.34474157569E+01  0.51100000000E-03 0.  1.
        -12    1    3    3    0    0  0.22380857899E+02 -0.88877863776E+01  0.17079571935E+02  0.29522996536E+02  0.00000000000E+00 0.  1.
</event>
<event>
 7    1  0.2580704E-010  0.4778728E+02  0.7816164E-02  0.1312668E+00
        -11   -1    0    0    0    0  0.00000000000E+00  0.00000000000E+00  0.45593999997E+02  0.45594000000E+02  0.51100000000E-03 0. -1.
         11   -1    0    0    0    0 -0.00000000000E+00 -0.00000000000E+00 -0.45593999997E+02  0.45594000000E+02  0.51100000000E-03 0.  1.
    9900012    2    1    2    0    0  0.15791959209E+02 -0.30543164064E+02  0.26483041269E+02  0.47787282016E+02  0.20000050023E+02 0.  0.
         12    1    1    2    0    0 -0.15791959209E+02  0.30543164064E+02 -0.26483041269E+02  0.43400717984E+02  0.00000000000E+00 0. -1.
         11    1    3    3    0    0  0.66475959929E+01 -0.15126681037E+01  0.99702146302E+01  0.12078239827E+02  0.51100000000E-03 0. -1.
        -11    1    3    3    0    0 -0.11265610812E+01 -0.19742047710E+01  0.30151790664E+01  0.37759673478E+01  0.51100000000E-03 0.  1.
        -12    1    3    3    0    0  0.10270924297E+02 -0.27056291189E+02  0.13497647572E+02  0.31933074841E+02  0.00000000000E+00 0.  1.
</event>
<event>
 7    1  0.2580704E-010  0.4778727E+02  0.7816164E-02  0.1312668E+00
        -11   -1    0    0    0    0  0.00000000000E+00  0.00000000000E+00  0.45593999997E+02  0.45594000000E+02  0.51100000000E-03 0.  1.
         11   -1    0    0    0    0 -0.00000000000E+00 -0.00000000000E+00 -0.45593999997E+02  0.45594000000E+02  0.51100000000E-03 0. -1.
    9900012    2    1    2    0    0 -0.57692596989E+01  0.19151670294E+02  0.38516909633E+02  0.47787272354E+02  0.20000005970E+02 0.  0.
         12    1    1    2    0    0  0.57692596989E+01 -0.19151670294E+02 -0.38516909633E+02  0.43400727646E+02  0.00000000000E+00 0. -1.
         11    1    3    3    0    0 -0.42285960384E+01  0.16147350250E+02  0.23506096951E+02  0.28829750930E+02  0.51100000000E-03 0. -1.
        -11    1    3    3    0    0  0.10921068743E+01  0.68396064091E+01  0.90504419737E+01  0.11396640445E+02  0.51100000000E-03 0.  1.
         12    1    3    3    0    0 -0.26327705348E+01 -0.38352863652E+01  0.59603707084E+01  0.75608809787E+01  0.00000000000E+00 0. -1.
</event>
<event>
 7    1  0.2580704E-010  0.4778726E+02  0.7816164E-02  0.1312668E+00
        -11   -1    0    0    0    0  0.00000000000E+00  0.00000000000E+00  0.45593999997E+02  0.45594000000E+02  0.51100000000E-03 0.  1.
         11   -1    0    0    0    0 -0.00000000000E+00 -0.00000000000E+00 -0.45593999997E+02  0.45594000000E+02  0.51100000000E-03 0. -1.
    9900012    2    1    2    0    0  0.80252717764E+01  0.18587151729E+02  0.38389281028E+02  0.47787261593E+02  0.19999956906E+02 0.  0.
         12    1    1    2    0    0 -0.80252717764E+01 -0.18587151729E+02 -0.38389281028E+02  0.43400738407E+02  0.00000000000E+00 0. -1.
         11    1    3    3    0    0  0.21733272126E+01  0.36384835901E+01  0.33299184004E+01  0.53898303149E+01  0.51100000000E-03 0. -1.
        -11    1    3    3    0    0 -0.51084046695E+01  0.94304547114E+01  0.22013754885E+02  0.24487439204E+02  0.51100000000E-03 0.  1.
        -12    1    3    3    0    0  0.10960349233E+02  0.55182134275E+01  0.13045607742E+02  0.17909992074E+02  0.00000000000E+00 0.  1.
</event>
<event>
 7    1  0.2580704E-010  0.4778727E+02  0.7816164E-02  0.1312668E+00
        -11   -1    0    0    0    0  0.00000000000E+00  0.00000000000E+00  0.45593999997E+02  0.45594000000E+02  0.51100000000E-03 0.  1.
         11   -1    0    0    0    0 -0.00000000000E+00 -0.00000000000E+00 -0.45593999997E+02  0.45594000000E+02  0.51100000000E-03 0. -1.
    9900012    2    1    2    0    0  0.25038962131E+02  0.13987875348E+02  0.32573195188E+02  0.47787270443E+02  0.19999997256E+02 0.  0.
         12    1    1    2    0    0 -0.25038962131E+02 -0.13987875348E+02 -0.32573195188E+02  0.43400729557E+02  0.00000000000E+00 0. -1.
         11    1    3    3    0    0  0.71384870967E+00  0.82271488801E+01  0.12351423286E+02  0.14857766189E+02  0.51100000000E-03 0.  1.
        -11    1    3    3    0    0  0.86237369298E+01  0.42765865710E+01  0.11169051573E+02  0.14744685302E+02  0.51100000000E-03 0. -1.
         12    1    3    3    0    0  0.15701376492E+02  0.14841398965E+01  0.90527203286E+01  0.18184818952E+02  0.00000000000E+00 0. -1.
</event>
<event>
 7    1  0.2580704E-010  0.4778727E+02  0.7816164E-02  0.1312668E+00
        -11   -1    0    0    0    0  0.00000000000E+00  0.00000000000E+00  0.45593999997E+02  0.45594000000E+02  0.51100000000E-03 0.  1.
         11   -1    0    0    0    0 -0.00000000000E+00 -0.00000000000E+00 -0.45593999997E+02  0.45594000000E+02  0.51100000000E-03 0. -1.
    9900012    2    1    2    0    0  0.38103753166E+01  0.64218224188E+01  0.42753532341E+02  0.47787270849E+02  0.19999999109E+02 0.  0.
         12    1    1    2    0    0 -0.38103753166E+01 -0.64218224188E+01 -0.42753532341E+02  0.43400729151E+02  0.00000000000E+00 0. -1.
         11    1    3    3    0    0  0.54691762319E+00 -0.38736063364E+00 -0.51966639805E+00  0.84806873155E+00  0.51100000000E-03 0. -1.
        -11    1    3    3    0    0  0.56559281618E+01  0.12998607148E+01  0.39326064379E+02  0.39751962229E+02  0.51100000000E-03 0.  1.
         12    1    3    3    0    0 -0.23924704684E+01  0.55093223376E+01  0.39471343600E+01  0.71872398887E+01  0.00000000000E+00 0. -1.
</event>
<event>
 7    1  0.2580704E-010  0.4778727E+02  0.7816164E-02  0.1312668E+00
        -11   -1    0    0    0    0  0.00000000000E+00  0.00000000000E+00  0.45593999997E+02  0.45594000000E+02  0.51100000000E-03 0.  1.
         11   -1    0    0    0    0 -0.00000000000E+00 -0.00000000000E+00 -0.45593999997E+02  0.45594000000E+02  0.51100000000E-03 0. -1.
    9900012    2    1    2    0    0  0.26266034569E+01 -0.16562965657E+02  0.40029895119E+02  0.47787269818E+02  0.19999994409E+02 0.  0.
         12    1    1    2    0    0 -0.26266034569E+01  0.16562965657E+02 -0.40029895119E+02  0.43400730182E+02  0.00000000000E+00 0. -1.
         11    1    3    3    0    0 -0.71923379847E+01 -0.90874394086E+00  0.12767152043E+02  0.14681815719E+02  0.51100000000E-03 0. -1.
        -11    1    3    3    0    0  0.28830534662E+01 -0.22628273639E+01  0.61591056780E+01  0.71670752739E+01  0.51100000000E-03 0.  1.
         12    1    3    3    0    0  0.69358879754E+01 -0.13391394352E+02  0.21103637398E+02  0.25938378826E+02  0.00000000000E+00 0. -1.
</event>
<event>
 7    1  0.2580704E-010  0.4778728E+02  0.7816164E-02  0.1312668E+00
        -11   -1    0    0    0    0  0.00000000000E+00  0.00000000000E+00  0.45593999997E+02  0.45594000000E+02  0.51100000000E-03 0.  1.
         11   -1    0    0    0    0 -0.00000000000E+00 -0.00000000000E+00 -0.45593999997E+02  0.45594000000E+02  0.51100000000E-03 0. -1.
    9900012    2    1    2    0    0  0.11548937031E+02  0.21793539994E+02  0.35711148198E+02  0.47787280678E+02  0.20000043924E+02 0.  0.
         12    1    1    2    0    0 -0.11548937031E+02 -0.21793539994E+02 -0.35711148198E+02  0.43400719322E+02  0.00000000000E+00 0. -1.
         11    1    3    3    0    0  0.35667408676E+01  0.70375438933E+01  0.11794201977E+02  0.14189850774E+02  0.51100000000E-03 0. -1.
        -11    1    3    3    0    0  0.10203694138E+02  0.88342548184E+01  0.23694471308E+02  0.27268799077E+02  0.51100000000E-03 0.  1.
         12    1    3    3    0    0 -0.22214979741E+01  0.59217412821E+01  0.22247491335E+00  0.63286308272E+01  0.00000000000E+00 0. -1.
</event>
<event>
 7    1  0.2580704E-010  0.4778726E+02  0.7816164E-02  0.1312668E+00
        -11   -1    0    0    0    0  0.00000000000E+00  0.00000000000E+00  0.45593999997E+02  0.45594000000E+02  0.51100000000E-03 0.  1.
         11   -1    0    0    0    0 -0.00000000000E+00 -0.00000000000E+00 -0.45593999997E+02  0.45594000000E+02  0.51100000000E-03 0. -1.
    9900012    2    1    2    0    0  0.23872046148E+02  0.92146204510E+01  0.35054814058E+02  0.47787264914E+02  0.19999972049E+02 0.  0.
         12    1    1    2    0    0 -0.23872046148E+02 -0.92146204510E+01 -0.35054814058E+02  0.43400735086E+02  0.00000000000E+00 0. -1.
         11    1    3    3    0    0 -0.21003461048E+01 -0.13734071108E+01  0.41988992498E+01  0.48916721091E+01  0.51100000000E-03 0. -1.
        -11    1    3    3    0    0  0.54981902629E+01  0.11259837727E+01  0.12893713466E+02  0.14062211164E+02  0.51100000000E-03 0.  1.
         12    1    3    3    0    0  0.20474201989E+02  0.94620437890E+01  0.17962201343E+02  0.28833381641E+02  0.00000000000E+00 0. -1.
</event>
<event>
 7    1  0.2580704E-010  0.4778727E+02  0.7816164E-02  0.1312668E+00
        -11   -1    0    0    0    0  0.00000000000E+00  0.00000000000E+00  0.45593999997E+02  0.45594000000E+02  0.51100000000E-03 0.  1.
         11   -1    0    0    0    0 -0.00000000000E+00 -0.00000000000E+00 -0.45593999997E+02  0.45594000000E+02  0.51100000000E-03 0. -1.
    9900012    2    1    2    0    0  0.19803044193E+02 -0.18280000086E+02  0.34019177192E+02  0.47787269831E+02  0.19999994466E+02 0.  0.
         12    1    1    2    0    0 -0.19803044193E+02  0.18280000086E+02 -0.34019177192E+02  0.43400730169E+02  0.00000000000E+00 0. -1.
         11    1    3    3    0    0 -0.22596578225E+00 -0.12655494740E+01  0.10414528696E+01  0.16544788746E+01  0.51100000000E-03 0. -1.
        -11    1    3    3    0    0  0.15203985423E+02 -0.11677677593E+02  0.33833525601E+02  0.38887488754E+02  0.51100000000E-03 0.  1.
        -12    1    3    3    0    0  0.48250245523E+01 -0.53367730182E+01 -0.85580127878E+00  0.72453022026E+01  0.00000000000E+00 0.  1.
</event>
<event>
 7    1  0.2580704E-010  0.4778727E+02  0.7816164E-02  0.1312668E+00
        -11   -1    0    0    0    0  0.00000000000E+00  0.00000000000E+00  0.45593999997E+02  0.45594000000E+02  0.51100000000E-03 0.  1.
         11   -1    0    0    0    0 -0.00000000000E+00 -0.00000000000E+00 -0.45593999997E+02  0.45594000000E+02  0.51100000000E-03 0. -1.
    9900012    2    1    2    0    0  0.14620951118E+02  0.31433250177E+02  0.26111333498E+02  0.47787272295E+02  0.20000005702E+02 0.  0.
         12    1    1    2    0    0 -0.14620951118E+02 -0.31433250177E+02 -0.26111333498E+02  0.43400727705E+02  0.00000000000E+00 0. -1.
         11    1    3    3    0    0  0.56529298882E+01  0.34239016795E+01  0.43143144167E+01  0.78925298972E+01  0.51100000000E-03 0. -1.
        -11    1    3    3    0    0  0.68535685573E+01  0.73181772061E+01  0.36994318454E+00  0.10033143964E+02  0.51100000000E-03 0.  1.
         12    1    3    3    0    0  0.21144526725E+01  0.20691171292E+02  0.21427075896E+02  0.29861598433E+02  0.00000000000E+00 0. -1.
</event>
<event>
 7    1  0.2580704E-010  0.4778727E+02  0.7816164E-02  0.1312668E+00
        -11   -1    0    0    0    0  0.00000000000E+00  0.00000000000E+00  0.45593999997E+02  0.45594000000E+02  0.51100000000E-03 0. -1.
         11   -1    0    0    0    0 -0.00000000000E+00 -0.00000000000E+00 -0.45593999997E+02  0.45594000000E+02  0.51100000000E-03 0.  1.
    9900012    2    1    2    0    0 -0.38767799193E+02  0.19496459056E+02  0.75467814091E+00  0.47787266030E+02  0.19999977139E+02 0.  0.
         12    1    1    2    0    0  0.38767799193E+02 -0.19496459056E+02 -0.75467814091E+00  0.43400733970E+02  0.00000000000E+00 0. -1.
         11    1    3    3    0    0 -0.18686662854E+01 -0.89085842317E+00  0.24767360664E+01  0.32279659571E+01  0.51100000000E-03 0. -1.
        -11    1    3    3    0    0 -0.20105478484E+02  0.62842362999E+01  0.49467806137E+01  0.21637757038E+02  0.51100000000E-03 0.  1.
        -12    1    3    3    0    0 -0.16793654424E+02  0.14103081179E+02 -0.66688385392E+01  0.22921543035E+02  0.00000000000E+00 0.  1.
</event>
<event>
 7    1  0.2580704E-010  0.4778727E+02  0.7816164E-02  0.1312668E+00
        -11   -1    0    0    0    0  0.00000000000E+00  0.00000000000E+00  0.45593999997E+02  0.45594000000E+02  0.51100000000E-03 0. -1.
         11   -1    0    0    0    0 -0.00000000000E+00 -0.00000000000E+00 -0.45593999997E+02  0.45594000000E+02  0.51100000000E-03 0.  1.
    9900012    2    1    2    0    0  0.35833902683E+02  0.16383787353E+02 -0.18196871903E+02  0.47787271705E+02  0.20000003012E+02 0.  0.
         12    1    1    2    0    0 -0.35833902683E+02 -0.16383787353E+02  0.18196871903E+02  0.43400728295E+02  0.00000000000E+00 0. -1.
         11    1    3    3    0    0  0.24050160458E+01 -0.37279651491E+01 -0.26415242594E+01  0.51632816123E+01  0.51100000000E-03 0. -1.
        -11    1    3    3    0    0  0.27554796189E+01  0.31868091229E+01 -0.37938407184E+01  0.56693604554E+01  0.51100000000E-03 0.  1.
        -12    1    3    3    0    0  0.30673407018E+02  0.16924943379E+02 -0.11761506925E+02  0.36954629637E+02  0.00000000000E+00 0.  1.
</event>
<event>
 7    1  0.2580704E-010  0.4778727E+02  0.7816164E-02  0.1312668E+00
        -11   -1    0    0    0    0  0.00000000000E+00  0.00000000000E+00  0.45593999997E+02  0.45594000000E+02  0.51100000000E-03 0.  1.
         11   -1    0    0    0    0 -0.00000000000E+00 -0.00000000000E+00 -0.45593999997E+02  0.45594000000E+02  0.51100000000E-03 0. -1.
    9900012    2    1    2    0    0 -0.68880854008E+01 -0.42412992847E+02  0.61086583192E+01  0.47787269716E+02  0.19999993943E+02 0.  0.
         12    1    1    2    0    0  0.68880854008E+01  0.42412992847E+02 -0.61086583192E+01  0.43400730284E+02  0.00000000000E+00 0. -1.
         11    1    3    3    0    0 -0.53198115384E+01 -0.87575644484E+01 -0.25076547563E+01  0.10549107190E+02  0.51100000000E-03 0. -1.
        -11    1    3    3    0    0  0.95911495972E-01  0.11728107521E+01 -0.36503832421E+00  0.12320459872E+01  0.51100000000E-03 0.  1.
        -12    1    3    3    0    0 -0.16641853584E+01 -0.34828239151E+02  0.89813513997E+01  0.36006116539E+02  0.00000000000E+00 0.  1.
</event>
<event>
 7    1  0.2580704E-010  0.4778727E+02  0.7816164E-02  0.1312668E+00
        -11   -1    0    0    0    0  0.00000000000E+00  0.00000000000E+00  0.45593999997E+02  0.45594000000E+02  0.51100000000E-03 0.  1.
         11   -1    0    0    0    0 -0.00000000000E+00 -0.00000000000E+00 -0.45593999997E+02  0.45594000000E+02  0.51100000000E-03 0. -1.
    9900012    2    1    2    0    0  0.41758705231E+02  0.57293118981E+01  0.10344498243E+02  0.47787272802E+02  0.20000008014E+02 0.  0.
         12    1    1    2    0    0 -0.41758705231E+02 -0.57293118981E+01 -0.10344498243E+02  0.43400727198E+02  0.00000000000E+00 0. -1.
         11    1    3    3    0    0  0.63981908526E+01  0.23666936349E+01 -0.35591924865E+01  0.76945393861E+01  0.51100000000E-03 0. -1.
        -11    1    3    3    0    0  0.13434142524E+02  0.48622621444E+01  0.10772636002E+02  0.17893224003E+02  0.51100000000E-03 0.  1.
         12    1    3    3    0    0  0.21926371855E+02 -0.14996438812E+01  0.31310547271E+01  0.22199509413E+02  0.00000000000E+00 0. -1.
</event>
<event>
 7    1  0.2580704E-010  0.4778728E+02  0.7816164E-02  0.1312668E+00
        -11   -1    0    0    0    0  0.00000000000E+00  0.00000000000E+00  0.45593999997E+02  0.45594000000E+02  0.51100000000E-03 0.  1.
         11   -1    0    0    0    0 -0.00000000000E+00 -0.00000000000E+00 -0.45593999997E+02  0.45594000000E+02  0.51100000000E-03 0. -1.
    9900012    2    1    2    0    0  0.17455157922E+02 -0.33928724478E+02  0.20682883374E+02  0.47787279414E+02  0.20000038158E+02 0.  0.
         12    1    1    2    0    0 -0.17455157922E+02  0.33928724478E+02 -0.20682883374E+02  0.43400720586E+02  0.00000000000E+00 0. -1.
         11    1    3    3    0    0  0.84619726960E+01 -0.12918432288E+02  0.34476320009E+01  0.15823306903E+02  0.51100000000E-03 0. -1.
        -11    1    3    3    0    0  0.11453964625E+02 -0.21438811419E+02  0.16433321813E+02  0.29340586340E+02  0.51100000000E-03 0.  1.
        -12    1    3    3    0    0 -0.24607793986E+01  0.42851922961E+00  0.80192955951E+00  0.26233861701E+01  0.00000000000E+00 0.  1.
</event>
<event>
 7    1  0.2580704E-010  0.4778727E+02  0.7816164E-02  0.1312668E+00
        -11   -1    0    0    0    0  0.00000000000E+00  0.00000000000E+00  0.45593999997E+02  0.45594000000E+02  0.51100000000E-03 0.  1.
         11   -1    0    0    0    0 -0.00000000000E+00 -0.00000000000E+00 -0.45593999997E+02  0.45594000000E+02  0.51100000000E-03 0. -1.
    9900012    2    1    2    0    0 -0.32349759052E+02 -0.21010051381E+02  0.19892062224E+02  0.47787270637E+02  0.19999998141E+02 0.  0.
         12    1    1    2    0    0  0.32349759052E+02  0.21010051381E+02 -0.19892062224E+02  0.43400729363E+02  0.00000000000E+00 0. -1.
         11    1    3    3    0    0  0.40450285263E+00  0.24491613645E+01  0.57910810905E+00  0.25489959612E+01  0.51100000000E-03 0. -1.
        -11    1    3    3    0    0 -0.11886204985E+02 -0.46279701955E+01  0.50573947920E+01  0.13721414629E+02  0.51100000000E-03 0.  1.
        -12    1    3    3    0    0 -0.20868056919E+02 -0.18831242550E+02  0.14255559323E+02  0.31516860046E+02  0.00000000000E+00 0.  1.
</event>
<event>
 7    1  0.2580704E-010  0.4778728E+02  0.7816164E-02  0.1312668E+00
        -11   -1    0    0    0    0  0.00000000000E+00  0.00000000000E+00  0.45593999997E+02  0.45594000000E+02  0.51100000000E-03 0.  1.
         11   -1    0    0    0    0 -0.00000000000E+00 -0.00000000000E+00 -0.45593999997E+02  0.45594000000E+02  0.51100000000E-03 0. -1.
    9900012    2    1    2    0    0  0.25772692216E+01 -0.13319740891E+02  0.41225773950E+02  0.47787282819E+02  0.20000053686E+02 0.  0.
         12    1    1    2    0    0 -0.25772692216E+01  0.13319740891E+02 -0.41225773950E+02  0.43400717181E+02  0.00000000000E+00 0. -1.
         11    1    3    3    0    0  0.45401358133E+01 -0.39108943844E+01  0.53456609544E+01  0.80301942311E+01  0.51100000000E-03 0. -1.
        -11    1    3    3    0    0  0.50196941339E+01 -0.87427190176E+01  0.20013984231E+02  0.22409641454E+02  0.51100000000E-03 0.  1.
        -12    1    3    3    0    0 -0.69825607256E+01 -0.66612748952E+00  0.15866128764E+02  0.17347447134E+02  0.00000000000E+00 0.  1.
</event>
<event>
 7    1  0.2633387E-010  0.4778727E+02  0.7816164E-02  0.1312668E+00
        -11   -1    0    0    0    0  0.00000000000E+00  0.00000000000E+00  0.45593999997E+02  0.45594000000E+02  0.51100000000E-03 0. -1.
         11   -1    0    0    0    0 -0.00000000000E+00 -0.00000000000E+00 -0.45593999997E+02  0.45594000000E+02  0.51100000000E-03 0.  1.
    9900012    2    1    2    0    0 -0.48647449684E+01  0.42781250539E+02 -0.54518410971E+01  0.47787265990E+02  0.19999976954E+02 0.  0.
         12    1    1    2    0    0  0.48647449684E+01 -0.42781250539E+02  0.54518410971E+01  0.43400734010E+02  0.00000000000E+00 0. -1.
         11    1    3    3    0    0  0.18613814835E+01  0.12205619915E+02  0.34155781235E+01  0.12810467311E+02  0.51100000000E-03 0. -1.
        -11    1    3    3    0    0  0.32586894170E+01  0.14459804723E+02 -0.29181955486E+01  0.15106980998E+02  0.51100000000E-03 0.  1.
        -12    1    3    3    0    0 -0.99848158689E+01  0.16115825900E+02 -0.59492236720E+01  0.19869817681E+02  0.00000000000E+00 0.  1.
</event>
<event>
 7    1  0.2580704E-010  0.4778729E+02  0.7816164E-02  0.1312668E+00
        -11   -1    0    0    0    0  0.00000000000E+00  0.00000000000E+00  0.45593999997E+02  0.45594000000E+02  0.51100000000E-03 0. -1.
         11   -1    0    0    0    0 -0.00000000000E+00 -0.00000000000E+00 -0.45593999997E+02  0.45594000000E+02  0.51100000000E-03 0.  1.
    9900012    2    1    2    0    0  0.24246116577E+02  0.89590246028E+01  0.34863784523E+02  0.47787288460E+02  0.20000079406E+02 0.  0.
         12    1    1    2    0    0 -0.24246116577E+02 -0.89590246028E+01 -0.34863784523E+02  0.43400711540E+02  0.00000000000E+00 0. -1.
         11    1    3    3    0    0 -0.15232685974E+01  0.12524075371E+01  0.30906159626E+01  0.36661668195E+01  0.51100000000E-03 0. -1.
        -11    1    3    3    0    0  0.11586152247E+02  0.46417974036E+01  0.45735623058E+01  0.13292956009E+02  0.51100000000E-03 0.  1.
        -12    1    3    3    0    0  0.14183232927E+02  0.30648196620E+01  0.27199606254E+02  0.30828165632E+02  0.00000000000E+00 0.  1.
</event>
<event>
 7    1  0.2580704E-010  0.4778727E+02  0.7816164E-02  0.1312668E+00
        -11   -1    0    0    0    0  0.00000000000E+00  0.00000000000E+00  0.45593999997E+02  0.45594000000E+02  0.51100000000E-03 0.  1.
         11   -1    0    0    0    0 -0.00000000000E+00 -0.00000000000E+00 -0.45593999997E+02  0.45594000000E+02  0.51100000000E-03 0. -1.
    9900012    2    1    2    0    0  0.14762688619E+02 -0.40721725751E+02 -0.27253373609E+01  0.47787269739E+02  0.19999994050E+02 0.  0.
         12    1    1    2    0    0 -0.14762688619E+02  0.40721725751E+02  0.27253373609E+01  0.43400730261E+02  0.00000000000E+00 0. -1.
         11    1    3    3    0    0  0.98535724209E+00 -0.94853077699E+01 -0.71343903324E+01  0.11909723677E+02  0.51100000000E-03 0. -1.
        -11    1    3    3    0    0  0.60527449694E+01 -0.24851404050E+02  0.28748247429E+01  0.25738932039E+02  0.51100000000E-03 0.  1.
         12    1    3    3    0    0  0.77245864074E+01 -0.63850139309E+01  0.15342282286E+01  0.10138614024E+02  0.00000000000E+00 0. -1.
</event>
<event>
 7    1  0.2580704E-010  0.4778727E+02  0.7816164E-02  0.1312668E+00
        -11   -1    0    0    0    0  0.00000000000E+00  0.00000000000E+00  0.45593999997E+02  0.45594000000E+02  0.51100000000E-03 0.  1.
         11   -1    0    0    0    0 -0.00000000000E+00 -0.00000000000E+00 -0.45593999997E+02  0.45594000000E+02  0.51100000000E-03 0. -1.
    9900012    2    1    2    0    0  0.39567955767E+02 -0.92855813697E+00 -0.17808359495E+02  0.47787274064E+02  0.20000013769E+02 0.  0.
         12    1    1    2    0    0 -0.39567955767E+02  0.92855813697E+00  0.17808359495E+02  0.43400725936E+02  0.00000000000E+00 0. -1.
         11    1    3    3    0    0  0.44176613051E+01 -0.91404219440E+00 -0.33528434309E+00  0.45236733294E+01  0.51100000000E-03 0. -1.
        -11    1    3    3    0    0  0.35790127822E+02 -0.35268253249E+01 -0.15289368645E+02  0.39078594399E+02  0.51100000000E-03 0.  1.
        -12    1    3    3    0    0 -0.63983335919E+00  0.35123093823E+01 -0.21837065070E+01  0.41850063362E+01  0.00000000000E+00 0.  1.
</event>
<event>
 7    1  0.2580704E-010  0.4778727E+02  0.7816164E-02  0.1312668E+00
        -11   -1    0    0    0    0  0.00000000000E+00  0.00000000000E+00  0.45593999997E+02  0.45594000000E+02  0.51100000000E-03 0.  1.
         11   -1    0    0    0    0 -0.00000000000E+00 -0.00000000000E+00 -0.45593999997E+02  0.45594000000E+02  0.51100000000E-03 0. -1.
    9900012    2    1    2    0    0 -0.35882059219E+02  0.56172285185E+01  0.23760216502E+02  0.47787270534E+02  0.19999997671E+02 0.  0.
         12    1    1    2    0    0  0.35882059219E+02 -0.56172285185E+01 -0.23760216502E+02  0.43400729466E+02  0.00000000000E+00 0. -1.
         11    1    3    3    0    0 -0.68772479757E+01  0.37572262741E+01  0.43786287215E+00  0.78488861088E+01  0.51100000000E-03 0. -1.
        -11    1    3    3    0    0 -0.18972109368E+02  0.19109486111E+00  0.60863578597E+01  0.19925390922E+02  0.51100000000E-03 0.  1.
        -12    1    3    3    0    0 -0.10032701875E+02  0.16689073833E+01  0.17235995770E+02  0.20012993503E+02  0.00000000000E+00 0.  1.
</event>
<event>
 7    1  0.2580704E-010  0.4778727E+02  0.7816164E-02  0.1312668E+00
        -11   -1    0    0    0    0  0.00000000000E+00  0.00000000000E+00  0.45593999997E+02  0.45594000000E+02  0.51100000000E-03 0.  1.
         11   -1    0    0    0    0 -0.00000000000E+00 -0.00000000000E+00 -0.45593999997E+02  0.45594000000E+02  0.51100000000E-03 0. -1.
    9900012    2    1    2    0    0  0.35050079423E+02  0.25385606109E+02  0.32689738671E+01  0.47787271259E+02  0.20000000979E+02 0.  0.
         12    1    1    2    0    0 -0.35050079423E+02 -0.25385606109E+02 -0.32689738671E+01  0.43400728741E+02  0.00000000000E+00 0. -1.
         11    1    3    3    0    0  0.90188777047E+01  0.64594870011E+01 -0.48766532335E+01  0.12118039214E+02  0.51100000000E-03 0. -1.
        -11    1    3    3    0    0  0.19124197607E+02  0.70609843747E+01  0.15694377277E+01  0.20446407251E+02  0.51100000000E-03 0.  1.
        -12    1    3    3    0    0  0.69070041118E+01  0.11865134733E+02  0.65761893729E+01  0.15222824794E+02  0.00000000000E+00 0.  1.
</event>
<event>
 7    1  0.2580704E-010  0.4778727E+02  0.7816164E-02  0.1312668E+00
        -11   -1    0    0    0    0  0.00000000000E+00  0.00000000000E+00  0.45593999997E+02  0.45594000000E+02  0.51100000000E-03 0. -1.
         11   -1    0    0    0    0 -0.00000000000E+00 -0.00000000000E+00 -0.45593999997E+02  0.45594000000E+02  0.51100000000E-03 0.  1.
    9900012    2    1    2    0    0 -0.37498363858E+02  0.11785230771E+02 -0.18401208018E+02  0.47787269443E+02  0.19999992699E+02 0.  0.
         12    1    1    2    0    0  0.37498363858E+02 -0.11785230771E+02  0.18401208018E+02  0.43400730557E+02  0.00000000000E+00 0. -1.
         11    1    3    3    0    0 -0.17624706529E+01  0.40170161928E+01 -0.45299071607E+01  0.63057736275E+01  0.51100000000E-03 0. -1.
        -11    1    3    3    0    0 -0.11838360459E+02  0.84590364265E+01 -0.89201898888E+01  0.17066688710E+02  0.51100000000E-03 0.  1.
         12    1    3    3    0    0 -0.23897532746E+02 -0.69082184816E+00 -0.49511109683E+01  0.24414807105E+02  0.00000000000E+00 0. -1.
</event>
<event>
 7    1  0.2580704E-010  0.4778733E+02  0.7816164E-02  0.1312668E+00
        -11   -1    0    0    0    0  0.00000000000E+00  0.00000000000E+00  0.45593999997E+02  0.45594000000E+02  0.51100000000E-03 0.  1.
         11   -1    0    0    0    0 -0.00000000000E+00 -0.00000000000E+00 -0.45593999997E+02  0.45594000000E+02  0.51100000000E-03 0. -1.
    9900012    2    1    2    0    0 -0.23143634373E+02  0.25812408136E+02  0.26109580225E+02  0.47787327133E+02  0.20000255728E+02 0.  0.
         12    1    1    2    0    0  0.23143634373E+02 -0.25812408136E+02 -0.26109580225E+02  0.43400672867E+02  0.00000000000E+00 0. -1.
         11    1    3    3    0    0 -0.20842329007E+02  0.22520646060E+02  0.26684883167E+02  0.40665282088E+02  0.51100000000E-03 0.  1.
        -11    1    3    3    0    0 -0.57512905577E-01  0.35964180387E+01  0.16410083797E+01  0.39535350266E+01  0.51100000000E-03 0. -1.
        -12    1    3    3    0    0 -0.22437924607E+01 -0.30465596253E+00 -0.22163113215E+01  0.31685100183E+01  0.00000000000E+00 0.  1.
</event>
<event>
 7    1  0.2580704E-010  0.4778727E+02  0.7816164E-02  0.1312668E+00
        -11   -1    0    0    0    0  0.00000000000E+00  0.00000000000E+00  0.45593999997E+02  0.45594000000E+02  0.51100000000E-03 0. -1.
         11   -1    0    0    0    0 -0.00000000000E+00 -0.00000000000E+00 -0.45593999997E+02  0.45594000000E+02  0.51100000000E-03 0.  1.
    9900012    2    1    2    0    0 -0.46496879281E+01  0.28126879753E+02 -0.32724338571E+02  0.47787270774E+02  0.19999998767E+02 0.  0.
         12    1    1    2    0    0  0.46496879281E+01 -0.28126879753E+02  0.32724338571E+02  0.43400729226E+02  0.00000000000E+00 0. -1.
         11    1    3    3    0    0  0.42605158623E+00  0.68642860073E+01 -0.15777569642E+02  0.17211381304E+02  0.51100000000E-03 0. -1.
        -11    1    3    3    0    0 -0.40574406219E+01  0.16670976657E+02 -0.18861534099E+02  0.25497877479E+02  0.51100000000E-03 0.  1.
         12    1    3    3    0    0 -0.10182988924E+01  0.45916170885E+01  0.19147651700E+01  0.50780119908E+01  0.00000000000E+00 0. -1.
</event>
<event>
 7    1  0.2580704E-010  0.4778727E+02  0.7816164E-02  0.1312668E+00
        -11   -1    0    0    0    0  0.00000000000E+00  0.00000000000E+00  0.45593999997E+02  0.45594000000E+02  0.51100000000E-03 0.  1.
         11   -1    0    0    0    0 -0.00000000000E+00 -0.00000000000E+00 -0.45593999997E+02  0.45594000000E+02  0.51100000000E-03 0. -1.
    9900012    2    1    2    0    0 -0.24428549336E+02  0.35863897891E+02  0.80659810466E+00  0.47787265039E+02  0.19999972621E+02 0.  0.
         12    1    1    2    0    0  0.24428549336E+02 -0.35863897891E+02 -0.80659810466E+00  0.43400734961E+02  0.00000000000E+00 0. -1.
         11    1    3    3    0    0 -0.10945519317E+02  0.19891581919E+02 -0.25728331853E+01  0.22849483479E+02  0.51100000000E-03 0. -1.
        -11    1    3    3    0    0 -0.15073298739E+02  0.16068966772E+02  0.97539226844E+00  0.22053739328E+02  0.51100000000E-03 0.  1.
         12    1    3    3    0    0  0.15902687209E+01 -0.96650800223E-01  0.24040390216E+01  0.28840422326E+01  0.00000000000E+00 0. -1.
</event>
<event>
 7    1  0.2580704E-010  0.4778727E+02  0.7816164E-02  0.1312668E+00
        -11   -1    0    0    0    0  0.00000000000E+00  0.00000000000E+00  0.45593999997E+02  0.45594000000E+02  0.51100000000E-03 0.  1.
         11   -1    0    0    0    0 -0.00000000000E+00 -0.00000000000E+00 -0.45593999997E+02  0.45594000000E+02  0.51100000000E-03 0. -1.
    9900012    2    1    2    0    0 -0.12745973347E+01  0.50841364879E+01  0.43083058415E+02  0.47787274608E+02  0.20000016248E+02 0.  0.
         12    1    1    2    0    0  0.12745973347E+01 -0.50841364879E+01 -0.43083058415E+02  0.43400725392E+02  0.00000000000E+00 0. -1.
         11    1    3    3    0    0  0.15148537317E+01 -0.11814454513E+00  0.81826695832E+01  0.83225489924E+01  0.51100000000E-03 0. -1.
        -11    1    3    3    0    0 -0.82995860548E+01  0.78847652701E+00  0.29271094857E+02  0.30435206888E+02  0.51100000000E-03 0.  1.
         12    1    3    3    0    0  0.55101349884E+01  0.44138045061E+01  0.56292939746E+01  0.90295187280E+01  0.00000000000E+00 0. -1.
</event>
<event>
 7    1  0.2580704E-010  0.4778721E+02  0.7816164E-02  0.1312668E+00
        -11   -1    0    0    0    0  0.00000000000E+00  0.00000000000E+00  0.45593999997E+02  0.45594000000E+02  0.51100000000E-03 0. -1.
         11   -1    0    0    0    0 -0.00000000000E+00 -0.00000000000E+00 -0.45593999997E+02  0.45594000000E+02  0.51100000000E-03 0.  1.
    9900012    2    1    2    0    0 -0.34973581149E+02  0.10283086415E+02 -0.23552825417E+02  0.47787207038E+02  0.19999708165E+02 0.  0.
         12    1    1    2    0    0  0.34973581149E+02 -0.10283086415E+02  0.23552825417E+02  0.43400792962E+02  0.00000000000E+00 0. -1.
         11    1    3    3    0    0 -0.12337009493E+02  0.82859349732E+01 -0.22896873547E+01  0.15036661533E+02  0.51100000000E-03 0. -1.
        -11    1    3    3    0    0 -0.95539820013E+01  0.59008605745E+01 -0.88338978679E+01  0.14287633793E+02  0.51100000000E-03 0.  1.
         12    1    3    3    0    0 -0.13082589655E+02 -0.39037091323E+01 -0.12429240194E+02  0.18462911712E+02  0.00000000000E+00 0. -1.
</event>
<event>
 7    1  0.2619936E-010  0.4778727E+02  0.7816164E-02  0.1312668E+00
        -11   -1    0    0    0    0  0.00000000000E+00  0.00000000000E+00  0.45593999997E+02  0.45594000000E+02  0.51100000000E-03 0. -1.
         11   -1    0    0    0    0 -0.00000000000E+00 -0.00000000000E+00 -0.45593999997E+02  0.45594000000E+02  0.51100000000E-03 0.  1.
    9900012    2    1    2    0    0  0.29919155958E+02 -0.79825110745E+01 -0.30409652577E+02  0.47787270212E+02  0.19999996204E+02 0.  0.
         12    1    1    2    0    0 -0.29919155958E+02  0.79825110745E+01  0.30409652577E+02  0.43400729788E+02  0.00000000000E+00 0. -1.
         11    1    3    3    0    0  0.11422028832E+02  0.31469362901E+01 -0.31144548268E+01  0.12250133868E+02  0.51100000000E-03 0. -1.
        -11    1    3    3    0    0  0.10276297807E+02 -0.20252891630E+01 -0.11908336620E+02  0.15859147963E+02  0.51100000000E-03 0.  1.
         12    1    3    3    0    0  0.82208293184E+01 -0.91041582015E+01 -0.15386861130E+02  0.19677988380E+02  0.00000000000E+00 0. -1.
</event>
<event>
 7    1  0.2580704E-010  0.4778727E+02  0.7816164E-02  0.1312668E+00
        -11   -1    0    0    0    0  0.00000000000E+00  0.00000000000E+00  0.45593999997E+02  0.45594000000E+02  0.51100000000E-03 0. -1.
         11   -1    0    0    0    0 -0.00000000000E+00 -0.00000000000E+00 -0.45593999997E+02  0.45594000000E+02  0.51100000000E-03 0.  1.
    9900012    2    1    2    0    0  0.41973986386E+02 -0.51593101603E+01 -0.97564966245E+01  0.47787271425E+02  0.20000001736E+02 0.  0.
         12    1    1    2    0    0 -0.41973986386E+02  0.51593101603E+01  0.97564966245E+01  0.43400728575E+02  0.00000000000E+00 0. -1.
         11    1    3    3    0    0  0.18763336824E+01 -0.19208734847E+01 -0.31103168102E+01  0.41090697187E+01  0.51100000000E-03 0. -1.
        -11    1    3    3    0    0  0.83935860510E+01  0.42123770549E+01 -0.59215960230E+01  0.11102328898E+02  0.51100000000E-03 0.  1.
         12    1    3    3    0    0  0.31704066652E+02 -0.74508137305E+01 -0.72458379126E+00  0.32575872808E+02  0.00000000000E+00 0. -1.
</event>
<event>
 7    1  0.2580704E-010  0.4778727E+02  0.7816164E-02  0.1312668E+00
        -11   -1    0    0    0    0  0.00000000000E+00  0.00000000000E+00  0.45593999997E+02  0.45594000000E+02  0.51100000000E-03 0. -1.
         11   -1    0    0    0    0 -0.00000000000E+00 -0.00000000000E+00 -0.45593999997E+02  0.45594000000E+02  0.51100000000E-03 0.  1.
    9900012    2    1    2    0    0  0.10327194798E+02 -0.26130145808E+02 -0.33078515076E+02  0.47787266919E+02  0.19999981191E+02 0.  0.
         12    1    1    2    0    0 -0.10327194798E+02  0.26130145808E+02  0.33078515076E+02  0.43400733081E+02  0.00000000000E+00 0. -1.
         11    1    3    3    0    0 -0.30556179615E+00 -0.53496030755E+01  0.10927684736E+01  0.54686163035E+01  0.51100000000E-03 0. -1.
        -11    1    3    3    0    0  0.10719974815E+01 -0.42307771527E+01 -0.17896548527E+01  0.47171515419E+01  0.51100000000E-03 0.  1.
        -12    1    3    3    0    0  0.95607591124E+01 -0.16549765580E+02 -0.32381628697E+02  0.37601499074E+02  0.00000000000E+00 0.  1.
</event>
<event>
 7    1  0.2689538E-010  0.4778727E+02  0.7816164E-02  0.1312668E+00
        -11   -1    0    0    0    0  0.00000000000E+00  0.00000000000E+00  0.45593999997E+02  0.45594000000E+02  0.51100000000E-03 0.  1.
         11   -1    0    0    0    0 -0.00000000000E+00 -0.00000000000E+00 -0.45593999997E+02  0.45594000000E+02  0.51100000000E-03 0. -1.
    9900012    2    1    2    0    0  0.32233664925E+01  0.43258086330E+02 -0.14040217374E+01  0.47787269574E+02  0.19999993297E+02 0.  0.
         12    1    1    2    0    0 -0.32233664925E+01 -0.43258086330E+02  0.14040217374E+01  0.43400730426E+02  0.00000000000E+00 0. -1.
         11    1    3    3    0    0  0.57831012024E+01  0.36118940585E+01  0.26843658633E+00  0.68236424781E+01  0.51100000000E-03 0.  1.
        -11    1    3    3    0    0  0.97479944972E-01  0.12017966242E+02  0.39369403195E+01  0.12646759042E+02  0.51100000000E-03 0. -1.
        -12    1    3    3    0    0 -0.26572146549E+01  0.27628226029E+02 -0.56093986433E+01  0.28316868054E+02  0.00000000000E+00 0.  1.
</event>
<event>
 7    1  0.2580704E-010  0.4778727E+02  0.7816164E-02  0.1312668E+00
        -11   -1    0    0    0    0  0.00000000000E+00  0.00000000000E+00  0.45593999997E+02  0.45594000000E+02  0.51100000000E-03 0. -1.
         11   -1    0    0    0    0 -0.00000000000E+00 -0.00000000000E+00 -0.45593999997E+02  0.45594000000E+02  0.51100000000E-03 0.  1.
    9900012    2    1    2    0    0 -0.36897189749E+02 -0.83696185424E-01 -0.22851995048E+02  0.47787270812E+02  0.19999998940E+02 0.  0.
         12    1    1    2    0    0  0.36897189749E+02  0.83696185424E-01  0.22851995048E+02  0.43400729188E+02  0.00000000000E+00 0. -1.
         11    1    3    3    0    0 -0.19118733932E+02  0.64177034725E+01 -0.12170689996E+02  0.23555012211E+02  0.51100000000E-03 0. -1.
        -11    1    3    3    0    0 -0.85582389726E+01 -0.20428180079E+00 -0.98290339268E+01  0.13034381211E+02  0.51100000000E-03 0.  1.
         12    1    3    3    0    0 -0.92202168442E+01 -0.62971178572E+01 -0.85227112444E+00  0.11197877390E+02  0.00000000000E+00 0. -1.
</event>
<event>
 7    1  0.2580704E-010  0.4778727E+02  0.7816164E-02  0.1312668E+00
        -11   -1    0    0    0    0  0.00000000000E+00  0.00000000000E+00  0.45593999997E+02  0.45594000000E+02  0.51100000000E-03 0.  1.
         11   -1    0    0    0    0 -0.00000000000E+00 -0.00000000000E+00 -0.45593999997E+02  0.45594000000E+02  0.51100000000E-03 0. -1.
    9900012    2    1    2    0    0  0.38544154932E+02 -0.19141568729E+02  0.56188803539E+01  0.47787270176E+02  0.19999996042E+02 0.  0.
         12    1    1    2    0    0 -0.38544154932E+02  0.19141568729E+02 -0.56188803539E+01  0.43400729824E+02  0.00000000000E+00 0. -1.
         11    1    3    3    0    0 -0.12823613491E+01  0.44286463333E+00  0.35667948426E+00  0.14027830298E+01  0.51100000000E-03 0. -1.
        -11    1    3    3    0    0  0.42732078801E+01 -0.70233039001E+01  0.24227912127E+01  0.85707071343E+01  0.51100000000E-03 0.  1.
        -12    1    3    3    0    0  0.35553308401E+02 -0.12561129462E+02  0.28394096569E+01  0.37813780012E+02  0.00000000000E+00 0.  1.
</event>
<event>
 7    1  0.2580704E-010  0.4778728E+02  0.7816164E-02  0.1312668E+00
        -11   -1    0    0    0    0  0.00000000000E+00  0.00000000000E+00  0.45593999997E+02  0.45594000000E+02  0.51100000000E-03 0.  1.
         11   -1    0    0    0    0 -0.00000000000E+00 -0.00000000000E+00 -0.45593999997E+02  0.45594000000E+02  0.51100000000E-03 0. -1.
    9900012    2    1    2    0    0 -0.38295905354E+02  0.68901256886E+01  0.19224268013E+02  0.47787277892E+02  0.20000031221E+02 0.  0.
         12    1    1    2    0    0  0.38295905354E+02 -0.68901256886E+01 -0.19224268013E+02  0.43400722108E+02  0.00000000000E+00 0. -1.
         11    1    3    3    0    0 -0.13697203537E+02  0.20864343167E+01  0.58218181407E+01  0.15028644637E+02  0.51100000000E-03 0. -1.
        -11    1    3    3    0    0 -0.26033852471E+02  0.55936220528E+01  0.14922151009E+02  0.30524099875E+02  0.51100000000E-03 0.  1.
         12    1    3    3    0    0  0.14351506550E+01 -0.78993068098E+00 -0.15197011366E+01  0.22345333804E+01  0.00000000000E+00 0. -1.
</event>
<event>
 7    1  0.2580704E-010  0.4778727E+02  0.7816164E-02  0.1312668E+00
        -11   -1    0    0    0    0  0.00000000000E+00  0.00000000000E+00  0.45593999997E+02  0.45594000000E+02  0.51100000000E-03 0.  1.
         11   -1    0    0    0    0 -0.00000000000E+00 -0.00000000000E+00 -0.45593999997E+02  0.45594000000E+02  0.51100000000E-03 0. -1.
    9900012    2    1    2    0    0 -0.27865721481E+02  0.28751727671E+00  0.33272243978E+02  0.47787270523E+02  0.19999997620E+02 0.  0.
         12    1    1    2    0    0  0.27865721481E+02 -0.28751727671E+00 -0.33272243978E+02  0.43400729477E+02  0.00000000000E+00 0. -1.
         11    1    3    3    0    0 -0.14614140917E+02 -0.52797148358E+01  0.19043088551E+02  0.24578196136E+02  0.51100000000E-03 0. -1.
        -11    1    3    3    0    0 -0.13733368945E+02  0.12442871086E+01  0.92867468513E+01  0.16625201963E+02  0.51100000000E-03 0.  1.
         12    1    3    3    0    0  0.48178838090E+00  0.43229450038E+01  0.49424085760E+01  0.65838724230E+01  0.00000000000E+00 0. -1.
</event>
<event>
 7    1  0.2580704E-010  0.4778726E+02  0.7816164E-02  0.1312668E+00
        -11   -1    0    0    0    0  0.00000000000E+00  0.00000000000E+00  0.45593999997E+02  0.45594000000E+02  0.51100000000E-03 0. -1.
         11   -1    0    0    0    0 -0.00000000000E+00 -0.00000000000E+00 -0.45593999997E+02  0.45594000000E+02  0.51100000000E-03 0.  1.
    9900012    2    1    2    0    0 -0.43269603015E+02  0.32045816881E+01 -0.10472636592E+01  0.47787255190E+02  0.19999927713E+02 0.  0.
         12    1    1    2    0    0  0.43269603015E+02 -0.32045816881E+01  0.10472636592E+01  0.43400744810E+02  0.00000000000E+00 0. -1.
         11    1    3    3    0    0 -0.18093296465E+02  0.39855936967E+01 -0.32180572957E+01  0.18804473593E+02  0.51100000000E-03 0. -1.
        -11    1    3    3    0    0 -0.25904981871E+02  0.96787799132E+00 -0.23046930513E+00  0.25924081274E+02  0.51100000000E-03 0.  1.
         12    1    3    3    0    0  0.72867532015E+00 -0.17488899999E+01  0.24012629417E+01  0.30587003236E+01  0.00000000000E+00 0. -1.
</event>
<event>
 7    1  0.2580704E-010  0.4778727E+02  0.7816164E-02  0.1312668E+00
        -11   -1    0    0    0    0  0.00000000000E+00  0.00000000000E+00  0.45593999997E+02  0.45594000000E+02  0.51100000000E-03 0.  1.
         11   -1    0    0    0    0 -0.00000000000E+00 -0.00000000000E+00 -0.45593999997E+02  0.45594000000E+02  0.51100000000E-03 0. -1.
    9900012    2    1    2    0    0 -0.25654963419E+02 -0.51263878936E+01  0.34628978874E+02  0.47787272141E+02  0.20000005000E+02 0.  0.
         12    1    1    2    0    0  0.25654963419E+02  0.51263878936E+01 -0.34628978874E+02  0.43400727859E+02  0.00000000000E+00 0. -1.
         11    1    3    3    0    0 -0.36119645892E+01  0.28994327656E+01  0.12971609494E+02  0.13773730493E+02  0.51100000000E-03 0. -1.
        -11    1    3    3    0    0 -0.44465560347E+01 -0.67114638410E+01  0.10116870265E+02  0.12929295096E+02  0.51100000000E-03 0.  1.
         12    1    3    3    0    0 -0.17596442795E+02 -0.13143568182E+01  0.11540499115E+02  0.21084246553E+02  0.00000000000E+00 0. -1.
</event>
<event>
 7    1  0.2580704E-010  0.4778727E+02  0.7816164E-02  0.1312668E+00
        -11   -1    0    0    0    0  0.00000000000E+00  0.00000000000E+00  0.45593999997E+02  0.45594000000E+02  0.51100000000E-03 0. -1.
         11   -1    0    0    0    0 -0.00000000000E+00 -0.00000000000E+00 -0.45593999997E+02  0.45594000000E+02  0.51100000000E-03 0.  1.
    9900012    2    1    2    0    0 -0.25073650290E+02  0.29302420632E+02 -0.19907368883E+02  0.47787272707E+02  0.20000007579E+02 0.  0.
         12    1    1    2    0    0  0.25073650290E+02 -0.29302420632E+02  0.19907368883E+02  0.43400727293E+02  0.00000000000E+00 0. -1.
         11    1    3    3    0    0 -0.10036858349E+01  0.39959508982E+00 -0.66504648991E+01  0.67376364644E+01  0.51100000000E-03 0. -1.
        -11    1    3    3    0    0 -0.66617034446E+01  0.23685856646E+01 -0.16641293129E+01  0.72634576798E+01  0.51100000000E-03 0.  1.
        -12    1    3    3    0    0 -0.17408261011E+02  0.26534239877E+02 -0.11592774671E+02  0.33786178562E+02  0.00000000000E+00 0.  1.
</event>
<event>
 7    1  0.3330980E-010  0.4778727E+02  0.7816164E-02  0.1312668E+00
        -11   -1    0    0    0    0  0.00000000000E+00  0.00000000000E+00  0.45593999997E+02  0.45594000000E+02  0.51100000000E-03 0.  1.
         11   -1    0    0    0    0 -0.00000000000E+00 -0.00000000000E+00 -0.45593999997E+02  0.45594000000E+02  0.51100000000E-03 0. -1.
    9900012    2    1    2    0    0  0.57732200489E+01  0.41139014904E+02 -0.12564814492E+02  0.47787272123E+02  0.20000004919E+02 0.  0.
         12    1    1    2    0    0 -0.57732200489E+01 -0.41139014904E+02  0.12564814492E+02  0.43400727877E+02  0.00000000000E+00 0. -1.
         11    1    3    3    0    0 -0.52530179277E+00 -0.44713785722E+00 -0.29001717517E+01  0.29810854881E+01  0.51100000000E-03 0. -1.
        -11    1    3    3    0    0  0.58336390361E+00  0.17571869074E+02 -0.97846725245E+01  0.20120902387E+02  0.51100000000E-03 0.  1.
        -12    1    3    3    0    0  0.57151579381E+01  0.24014283687E+02  0.12002978410E+00  0.24685284248E+02  0.00000000000E+00 0.  1.
</event>
<event>
 7    1  0.2580704E-010  0.4778727E+02  0.7816164E-02  0.1312668E+00
        -11   -1    0    0    0    0  0.00000000000E+00  0.00000000000E+00  0.45593999997E+02  0.45594000000E+02  0.51100000000E-03 0.  1.
         11   -1    0    0    0    0 -0.00000000000E+00 -0.00000000000E+00 -0.45593999997E+02  0.45594000000E+02  0.51100000000E-03 0. -1.
    9900012    2    1    2    0    0  0.28009450573E+02  0.14052006367E+02  0.30027234862E+02  0.47787273764E+02  0.20000012402E+02 0.  0.
         12    1    1    2    0    0 -0.28009450573E+02 -0.14052006367E+02 -0.30027234862E+02  0.43400726236E+02  0.00000000000E+00 0. -1.
         11    1    3    3    0    0  0.43731345689E+01 -0.27458295477E+01  0.94469437759E+01  0.10766087164E+02  0.51100000000E-03 0.  1.
        -11    1    3    3    0    0  0.52199845975E-01 -0.95534498965E+00  0.17877666768E+01  0.20276880492E+01  0.51100000000E-03 0. -1.
        -12    1    3    3    0    0  0.23584116158E+02  0.17753180904E+02  0.18792524409E+02  0.34993498551E+02  0.00000000000E+00 0.  1.
</event>
<event>
 7    1  0.2580704E-010  0.4778727E+02  0.7816164E-02  0.1312668E+00
        -11   -1    0    0    0    0  0.00000000000E+00  0.00000000000E+00  0.45593999997E+02  0.45594000000E+02  0.51100000000E-03 0.  1.
         11   -1    0    0    0    0 -0.00000000000E+00 -0.00000000000E+00 -0.45593999997E+02  0.45594000000E+02  0.51100000000E-03 0. -1.
    9900012    2    1    2    0    0  0.38735109082E+02 -0.31364223356E+01  0.19322975593E+02  0.47787271821E+02  0.20000003541E+02 0.  0.
         12    1    1    2    0    0 -0.38735109082E+02  0.31364223356E+01 -0.19322975593E+02  0.43400728179E+02  0.00000000000E+00 0. -1.
         11    1    3    3    0    0  0.10439476193E+02  0.38436543488E+01  0.28913776785E+01  0.11494190144E+02  0.51100000000E-03 0. -1.
        -11    1    3    3    0    0  0.27550547513E+02 -0.37804059299E+01  0.17478026443E+02  0.32845175382E+02  0.51100000000E-03 0.  1.
         12    1    3    3    0    0  0.74508537704E+00 -0.31996707545E+01 -0.10464285287E+01  0.34479062954E+01  0.00000000000E+00 0. -1.
</event>
<event>
 7    1  0.2580704E-010  0.4778727E+02  0.7816164E-02  0.1312668E+00
        -11   -1    0    0    0    0  0.00000000000E+00  0.00000000000E+00  0.45593999997E+02  0.45594000000E+02  0.51100000000E-03 0.  1.
         11   -1    0    0    0    0 -0.00000000000E+00 -0.00000000000E+00 -0.45593999997E+02  0.45594000000E+02  0.51100000000E-03 0. -1.
    9900012    2    1    2    0    0 -0.32646896344E+02  0.21675356836E+02  0.18654291454E+02  0.47787268156E+02  0.19999986833E+02 0.  0.
         12    1    1    2    0    0  0.32646896344E+02 -0.21675356836E+02 -0.18654291454E+02  0.43400731844E+02  0.00000000000E+00 0. -1.
         11    1    3    3    0    0 -0.11421243256E+02  0.14119561875E+02  0.11019730606E+02  0.21242440724E+02  0.51100000000E-03 0. -1.
        -11    1    3    3    0    0  0.10401640413E+01  0.23297136429E+01  0.69710366204E+00  0.26448933188E+01  0.51100000000E-03 0.  1.
        -12    1    3    3    0    0 -0.22265817130E+02  0.52260813188E+01  0.69374571861E+01  0.23899934113E+02  0.00000000000E+00 0.  1.
</event>
<event>
 7    1  0.2580704E-010  0.4778726E+02  0.7816164E-02  0.1312668E+00
        -11   -1    0    0    0    0  0.00000000000E+00  0.00000000000E+00  0.45593999997E+02  0.45594000000E+02  0.51100000000E-03 0.  1.
         11   -1    0    0    0    0 -0.00000000000E+00 -0.00000000000E+00 -0.45593999997E+02  0.45594000000E+02  0.51100000000E-03 0. -1.
    9900012    2    1    2    0    0 -0.39215512939E+02 -0.14142430363E+02 -0.12073078940E+02  0.47787262371E+02  0.19999960456E+02 0.  0.
         12    1    1    2    0    0  0.39215512939E+02  0.14142430363E+02  0.12073078940E+02  0.43400737629E+02  0.00000000000E+00 0. -1.
         11    1    3    3    0    0 -0.12790735385E+02 -0.32929930572E+00 -0.52165179246E+00  0.12805603093E+02  0.51100000000E-03 0. -1.
        -11    1    3    3    0    0 -0.16079084376E+02 -0.42918270464E+00 -0.50494507340E+01  0.16858769384E+02  0.51100000000E-03 0.  1.
         12    1    3    3    0    0 -0.10345693177E+02 -0.13383948353E+02 -0.65019764138E+01  0.18122889894E+02  0.00000000000E+00 0. -1.
</event>
<event>
 7    1  0.2580704E-010  0.4778728E+02  0.7816164E-02  0.1312668E+00
        -11   -1    0    0    0    0  0.00000000000E+00  0.00000000000E+00  0.45593999997E+02  0.45594000000E+02  0.51100000000E-03 0. -1.
         11   -1    0    0    0    0 -0.00000000000E+00 -0.00000000000E+00 -0.45593999997E+02  0.45594000000E+02  0.51100000000E-03 0.  1.
    9900012    2    1    2    0    0  0.33905463093E+02 -0.25152196522E+02  0.10070207976E+02  0.47787279889E+02  0.20000040328E+02 0.  0.
         12    1    1    2    0    0 -0.33905463093E+02  0.25152196522E+02 -0.10070207976E+02  0.43400720111E+02  0.00000000000E+00 0. -1.
         11    1    3    3    0    0  0.38011245873E+01 -0.37829885775E+00 -0.40734544091E+01  0.55843253163E+01  0.51100000000E-03 0.  1.
        -11    1    3    3    0    0  0.95753075385E+01 -0.37677135998E+01  0.50033508260E+01  0.11441839886E+02  0.51100000000E-03 0. -1.
        -12    1    3    3    0    0  0.20529030967E+02 -0.21006184065E+02  0.91403115586E+01  0.30761114687E+02  0.00000000000E+00 0.  1.
</event>
<event>
 7    1  0.2580704E-010  0.4778727E+02  0.7816164E-02  0.1312668E+00
        -11   -1    0    0    0    0  0.00000000000E+00  0.00000000000E+00  0.45593999997E+02  0.45594000000E+02  0.51100000000E-03 0.  1.
         11   -1    0    0    0    0 -0.00000000000E+00 -0.00000000000E+00 -0.45593999997E+02  0.45594000000E+02  0.51100000000E-03 0. -1.
    9900012    2    1    2    0    0 -0.18633582215E+02 -0.17874253919E+02  0.34884436060E+02  0.47787271682E+02  0.20000002905E+02 0.  0.
         12    1    1    2    0    0  0.18633582215E+02  0.17874253919E+02 -0.34884436060E+02  0.43400728318E+02  0.00000000000E+00 0. -1.
         11    1    3    3    0    0 -0.15260533939E+00 -0.32506663936E+01 -0.19112475623E+01  0.37739883277E+01  0.51100000000E-03 0. -1.
        -11    1    3    3    0    0 -0.45147016232E+01 -0.13575588143E+01  0.94971187725E+01  0.10602865741E+02  0.51100000000E-03 0.  1.
         12    1    3    3    0    0 -0.13966275253E+02 -0.13266028711E+02  0.27298564850E+02  0.33410417613E+02  0.00000000000E+00 0. -1.
</event>
<event>
 7    1  0.2580704E-010  0.4778727E+02  0.7816164E-02  0.1312668E+00
        -11   -1    0    0    0    0  0.00000000000E+00  0.00000000000E+00  0.45593999997E+02  0.45594000000E+02  0.51100000000E-03 0. -1.
         11   -1    0    0    0    0 -0.00000000000E+00 -0.00000000000E+00 -0.45593999997E+02  0.45594000000E+02  0.51100000000E-03 0.  1.
    9900012    2    1    2    0    0  0.25947911069E+02  0.16615712610E+02 -0.30565460979E+02  0.47787269600E+02  0.19999993414E+02 0.  0.
         12    1    1    2    0    0 -0.25947911069E+02 -0.16615712610E+02  0.30565460979E+02  0.43400730400E+02  0.00000000000E+00 0. -1.
         11    1    3    3    0    0  0.89929023013E+01  0.79414118679E+01 -0.24530476786E+01  0.12245642385E+02  0.51100000000E-03 0. -1.
        -11    1    3    3    0    0  0.10231655164E+01  0.51193429016E+01 -0.48682226614E+01  0.71382162731E+01  0.51100000000E-03 0.  1.
        -12    1    3    3    0    0  0.15931843252E+02  0.35549578404E+01 -0.23244190639E+02  0.28403410941E+02  0.00000000000E+00 0.  1.
</event>
<event>
 7    1  0.2580704E-010  0.4778727E+02  0.7816164E-02  0.1312668E+00
        -11   -1    0    0    0    0  0.00000000000E+00  0.00000000000E+00  0.45593999997E+02  0.45594000000E+02  0.51100000000E-03 0. -1.
         11   -1    0    0    0    0 -0.00000000000E+00 -0.00000000000E+00 -0.45593999997E+02  0.45594000000E+02  0.51100000000E-03 0.  1.
    9900012    2    1    2    0    0  0.15129756239E+02 -0.39221838166E+02  0.10787073314E+02  0.47787273466E+02  0.20000011041E+02 0.  0.
         12    1    1    2    0    0 -0.15129756239E+02  0.39221838166E+02 -0.10787073314E+02  0.43400726534E+02  0.00000000000E+00 0. -1.
         11    1    3    3    0    0 -0.94997190262E+00 -0.11244445390E+02  0.49971009403E+01  0.12341434957E+02  0.51100000000E-03 0. -1.
        -11    1    3    3    0    0 -0.21970095361E+01 -0.59756861174E+01  0.11103013741E+01  0.64628511415E+01  0.51100000000E-03 0.  1.
         12    1    3    3    0    0  0.18276737677E+02 -0.22001706660E+02  0.46796709997E+01  0.28982987367E+02  0.00000000000E+00 0. -1.
</event>
<event>
 7    1  0.2580704E-010  0.4778732E+02  0.7816164E-02  0.1312668E+00
        -11   -1    0    0    0    0  0.00000000000E+00  0.00000000000E+00  0.45593999997E+02  0.45594000000E+02  0.51100000000E-03 0.  1.
         11   -1    0    0    0    0 -0.00000000000E+00 -0.00000000000E+00 -0.45593999997E+02  0.45594000000E+02  0.51100000000E-03 0. -1.
    9900012    2    1    2    0    0 -0.23535017958E+02 -0.32449845521E+02  0.16635186832E+02  0.47787320448E+02  0.20000225251E+02 0.  0.
         12    1    1    2    0    0  0.23535017958E+02  0.32449845521E+02 -0.16635186832E+02  0.43400679552E+02  0.00000000000E+00 0. -1.
         11    1    3    3    0    0  0.17275912767E+01  0.27069061262E+00  0.14600291155E+01  0.22780540613E+01  0.51100000000E-03 0. -1.
        -11    1    3    3    0    0 -0.10422563714E+02 -0.52237810937E+01  0.42200186783E+01  0.12398640296E+02  0.51100000000E-03 0.  1.
        -12    1    3    3    0    0 -0.14840045520E+02 -0.27496755040E+02  0.10955139038E+02  0.33110626091E+02  0.00000000000E+00 0.  1.
</event>
<event>
 7    1  0.2580704E-010  0.4778727E+02  0.7816164E-02  0.1312668E+00
        -11   -1    0    0    0    0  0.00000000000E+00  0.00000000000E+00  0.45593999997E+02  0.45594000000E+02  0.51100000000E-03 0.  1.
         11   -1    0    0    0    0 -0.00000000000E+00 -0.00000000000E+00 -0.45593999997E+02  0.45594000000E+02  0.51100000000E-03 0. -1.
    9900012    2    1    2    0    0  0.16904376266E+01  0.42761257458E+02 -0.72277974144E+01  0.47787265280E+02  0.19999973718E+02 0.  0.
         12    1    1    2    0    0 -0.16904376266E+01 -0.42761257458E+02  0.72277974144E+01  0.43400734720E+02  0.00000000000E+00 0. -1.
         11    1    3    3    0    0 -0.22610854668E+01  0.89246332610E+01  0.24941384553E+01  0.95384649304E+01  0.51100000000E-03 0. -1.
        -11    1    3    3    0    0  0.37392076204E+01  0.68538791450E+01  0.30665384836E+01  0.83881458914E+01  0.51100000000E-03 0.  1.
         12    1    3    3    0    0  0.21231547296E+00  0.26982745052E+02 -0.12788474353E+02  0.29860654458E+02  0.00000000000E+00 0. -1.
</event>
<event>
 7    1  0.2580704E-010  0.4778728E+02  0.7816164E-02  0.1312668E+00
        -11   -1    0    0    0    0  0.00000000000E+00  0.00000000000E+00  0.45593999997E+02  0.45594000000E+02  0.51100000000E-03 0. -1.
         11   -1    0    0    0    0 -0.00000000000E+00 -0.00000000000E+00 -0.45593999997E+02  0.45594000000E+02  0.51100000000E-03 0.  1.
    9900012    2    1    2    0    0  0.10665221387E+02 -0.40114471527E+02 -0.12676928117E+02  0.47787282499E+02  0.20000052226E+02 0.  0.
         12    1    1    2    0    0 -0.10665221387E+02  0.40114471527E+02  0.12676928117E+02  0.43400717501E+02  0.00000000000E+00 0. -1.
         11    1    3    3    0    0 -0.12223151163E+00 -0.18740955951E+02  0.38016205336E+00  0.18745209894E+02  0.51100000000E-03 0. -1.
        -11    1    3    3    0    0  0.46430638489E+01 -0.18183597951E+02 -0.76866567577E+01  0.20280186605E+02  0.51100000000E-03 0.  1.
        -12    1    3    3    0    0  0.61443890499E+01 -0.31899176245E+01 -0.53704334127E+01  0.87618860007E+01  0.00000000000E+00 0.  1.
</event>
<event>
 7    1  0.2580704E-010  0.4778727E+02  0.7816164E-02  0.1312668E+00
        -11   -1    0    0    0    0  0.00000000000E+00  0.00000000000E+00  0.45593999997E+02  0.45594000000E+02  0.51100000000E-03 0.  1.
         11   -1    0    0    0    0 -0.00000000000E+00 -0.00000000000E+00 -0.45593999997E+02  0.45594000000E+02  0.51100000000E-03 0. -1.
    9900012    2    1    2    0    0  0.16130413124E+02 -0.15543406152E+02  0.37173048130E+02  0.47787271785E+02  0.20000003375E+02 0.  0.
         12    1    1    2    0    0 -0.16130413124E+02  0.15543406152E+02 -0.37173048130E+02  0.43400728215E+02  0.00000000000E+00 0. -1.
         11    1    3    3    0    0  0.22742501600E+01 -0.94820495301E+01  0.71972032756E+01  0.12119455942E+02  0.51100000000E-03 0. -1.
        -11    1    3    3    0    0  0.74997051185E+01 -0.79557190833E+01  0.10762335044E+02  0.15341671971E+02  0.51100000000E-03 0.  1.
         12    1    3    3    0    0  0.63564578455E+01  0.18943624614E+01  0.19213509810E+02  0.20326143872E+02  0.00000000000E+00 0. -1.
</event>
<event>
 7    1  0.2580704E-010  0.4778727E+02  0.7816164E-02  0.1312668E+00
        -11   -1    0    0    0    0  0.00000000000E+00  0.00000000000E+00  0.45593999997E+02  0.45594000000E+02  0.51100000000E-03 0.  1.
         11   -1    0    0    0    0 -0.00000000000E+00 -0.00000000000E+00 -0.45593999997E+02  0.45594000000E+02  0.51100000000E-03 0. -1.
    9900012    2    1    2    0    0 -0.68586408820E+00  0.38842432034E+02  0.19349888133E+02  0.47787272971E+02  0.20000008784E+02 0.  0.
         12    1    1    2    0    0  0.68586408820E+00 -0.38842432034E+02 -0.19349888133E+02  0.43400727029E+02  0.00000000000E+00 0. -1.
         11    1    3    3    0    0  0.20450134246E+00  0.23526641936E+00  0.20369410568E+01  0.20606552883E+01  0.51100000000E-03 0. -1.
        -11    1    3    3    0    0 -0.46310292907E+01  0.38250436186E+02  0.15232769909E+02  0.41431625361E+02  0.51100000000E-03 0.  1.
         12    1    3    3    0    0  0.37406638601E+01  0.35672942933E+00  0.20801771665E+01  0.42949923218E+01  0.00000000000E+00 0. -1.
</event>
<event>
 7    1  0.2580704E-010  0.4778727E+02  0.7816164E-02  0.1312668E+00
        -11   -1    0    0    0    0  0.00000000000E+00  0.00000000000E+00  0.45593999997E+02  0.45594000000E+02  0.51100000000E-03 0.  1.
         11   -1    0    0    0    0 -0.00000000000E+00 -0.00000000000E+00 -0.45593999997E+02  0.45594000000E+02  0.51100000000E-03 0. -1.
    9900012    2    1    2    0    0 -0.38583002960E+02  0.14737025096E+02 -0.13334007412E+02  0.47787265217E+02  0.19999973428E+02 0.  0.
         12    1    1    2    0    0  0.38583002960E+02 -0.14737025096E+02  0.13334007412E+02  0.43400734783E+02  0.00000000000E+00 0. -1.
         11    1    3    3    0    0 -0.26964823856E+02  0.72971202001E+01 -0.10188947191E+02  0.29734900940E+02  0.51100000000E-03 0. -1.
        -11    1    3    3    0    0 -0.12384523166E+02  0.37718440420E+01 -0.49912424986E+01  0.13875003548E+02  0.51100000000E-03 0.  1.
         12    1    3    3    0    0  0.76634406224E+00  0.36680608542E+01  0.18461822772E+01  0.41773607281E+01  0.00000000000E+00 0. -1.
</event>
<event>
 7    1  0.2580704E-010  0.4778727E+02  0.7816164E-02  0.1312668E+00
        -11   -1    0    0    0    0  0.00000000000E+00  0.00000000000E+00  0.45593999997E+02  0.45594000000E+02  0.51100000000E-03 0. -1.
         11   -1    0    0    0    0 -0.00000000000E+00 -0.00000000000E+00 -0.45593999997E+02  0.45594000000E+02  0.51100000000E-03 0.  1.
    9900012    2    1    2    0    0  0.31717807363E+02  0.25992058992E+02  0.14213262463E+02  0.47787271154E+02  0.20000000498E+02 0.  0.
         12    1    1    2    0    0 -0.31717807363E+02 -0.25992058992E+02 -0.14213262463E+02  0.43400728846E+02  0.00000000000E+00 0. -1.
         11    1    3    3    0    0  0.55774818325E+01  0.93414699916E+01  0.74672465803E+01  0.13195875755E+02  0.51100000000E-03 0. -1.
        -11    1    3    3    0    0  0.18333251349E+02  0.17440864193E+02  0.82231279059E+01  0.26606609736E+02  0.51100000000E-03 0.  1.
         12    1    3    3    0    0  0.78070741814E+01 -0.79027519220E+00 -0.14771120227E+01  0.79847856628E+01  0.00000000000E+00 0. -1.
</event>
<event>
 7    1  0.2580704E-010  0.4778727E+02  0.7816164E-02  0.1312668E+00
        -11   -1    0    0    0    0  0.00000000000E+00  0.00000000000E+00  0.45593999997E+02  0.45594000000E+02  0.51100000000E-03 0.  1.
         11   -1    0    0    0    0 -0.00000000000E+00 -0.00000000000E+00 -0.45593999997E+02  0.45594000000E+02  0.51100000000E-03 0. -1.
    9900012    2    1    2    0    0 -0.18115584330E+02 -0.39437193188E+02 -0.39576860547E+00  0.47787271493E+02  0.20000002046E+02 0.  0.
         12    1    1    2    0    0  0.18115584330E+02  0.39437193188E+02  0.39576860547E+00  0.43400728507E+02  0.00000000000E+00 0. -1.
         11    1    3    3    0    0 -0.12781203998E+02 -0.10532788504E+02 -0.17723210061E+01  0.16656528189E+02  0.51100000000E-03 0. -1.
        -11    1    3    3    0    0 -0.83720409874E+01 -0.20927517983E+02  0.44542855995E+00  0.22544411416E+02  0.51100000000E-03 0.  1.
         12    1    3    3    0    0  0.30376606551E+01 -0.79768867007E+01  0.93112384064E+00  0.85863318884E+01  0.00000000000E+00 0. -1.
</event>
<event>
 7    1  0.2580704E-010  0.4778727E+02  0.7816164E-02  0.1312668E+00
        -11   -1    0    0    0    0  0.00000000000E+00  0.00000000000E+00  0.45593999997E+02  0.45594000000E+02  0.51100000000E-03 0.  1.
         11   -1    0    0    0    0 -0.00000000000E+00 -0.00000000000E+00 -0.45593999997E+02  0.45594000000E+02  0.51100000000E-03 0. -1.
    9900012    2    1    2    0    0  0.69178803813E+01 -0.29779933334E+02  0.30804579257E+02  0.47787267269E+02  0.19999982787E+02 0.  0.
         12    1    1    2    0    0 -0.69178803813E+01  0.29779933334E+02 -0.30804579257E+02  0.43400732731E+02  0.00000000000E+00 0. -1.
         11    1    3    3    0    0  0.10230081974E+02 -0.27579043404E+02  0.25918733120E+02  0.39205088178E+02  0.51100000000E-03 0. -1.
        -11    1    3    3    0    0 -0.12383298841E+01 -0.40522722764E+01  0.33819917837E+01  0.54214610752E+01  0.51100000000E-03 0.  1.
         12    1    3    3    0    0 -0.20738717083E+01  0.18513823465E+01  0.15038543539E+01  0.31607180154E+01  0.00000000000E+00 0. -1.
</event>
<event>
 7    1  0.2580704E-010  0.4778728E+02  0.7816164E-02  0.1312668E+00
        -11   -1    0    0    0    0  0.00000000000E+00  0.00000000000E+00  0.45593999997E+02  0.45594000000E+02  0.51100000000E-03 0.  1.
         11   -1    0    0    0    0 -0.00000000000E+00 -0.00000000000E+00 -0.45593999997E+02  0.45594000000E+02  0.51100000000E-03 0. -1.
    9900012    2    1    2    0    0 -0.12544974222E+02 -0.13580212861E+02  0.39266070428E+02  0.47787275969E+02  0.20000022453E+02 0.  0.
         12    1    1    2    0    0  0.12544974222E+02  0.13580212861E+02 -0.39266070428E+02  0.43400724031E+02  0.00000000000E+00 0. -1.
         11    1    3    3    0    0  0.13057122571E+01 -0.11617302231E+01  0.21433184301E+01  0.27655588519E+01  0.51100000000E-03 0. -1.
        -11    1    3    3    0    0 -0.12853845500E+02 -0.52109218188E+01  0.10427063843E+02  0.17352196143E+02  0.51100000000E-03 0.  1.
        -12    1    3    3    0    0 -0.99684097957E+00 -0.72075608195E+01  0.26695688155E+02  0.27669520975E+02  0.00000000000E+00 0.  1.
</event>
<event>
 7    1  0.2580704E-010  0.4778727E+02  0.7816164E-02  0.1312668E+00
        -11   -1    0    0    0    0  0.00000000000E+00  0.00000000000E+00  0.45593999997E+02  0.45594000000E+02  0.51100000000E-03 0. -1.
         11   -1    0    0    0    0 -0.00000000000E+00 -0.00000000000E+00 -0.45593999997E+02  0.45594000000E+02  0.51100000000E-03 0.  1.
    9900012    2    1    2    0    0 -0.23209386444E+02  0.32511454382E+02 -0.16969179306E+02  0.47787270381E+02  0.19999996975E+02 0.  0.
         12    1    1    2    0    0  0.23209386444E+02 -0.32511454382E+02  0.16969179306E+02  0.43400729619E+02  0.00000000000E+00 0. -1.
         11    1    3    3    0    0 -0.50456714230E+01  0.37395803096E+00 -0.13130185216E+01  0.52271084375E+01  0.51100000000E-03 0. -1.
        -11    1    3    3    0    0 -0.10598081093E+02  0.11092772185E+02 -0.14205159858E+00  0.15342395397E+02  0.51100000000E-03 0.  1.
         12    1    3    3    0    0 -0.75656339284E+01  0.21044724166E+02 -0.15514109186E+02  0.27217766547E+02  0.00000000000E+00 0. -1.
</event>
<event>
 7    1  0.2580704E-010  0.4778727E+02  0.7816164E-02  0.1312668E+00
        -11   -1    0    0    0    0  0.00000000000E+00  0.00000000000E+00  0.45593999997E+02  0.45594000000E+02  0.51100000000E-03 0.  1.
         11   -1    0    0    0    0 -0.00000000000E+00 -0.00000000000E+00 -0.45593999997E+02  0.45594000000E+02  0.51100000000E-03 0. -1.
    9900012    2    1    2    0    0 -0.10134444491E+02 -0.53922481601E+01  0.41854986749E+02  0.47787271652E+02  0.20000002769E+02 0.  0.
         12    1    1    2    0    0  0.10134444491E+02  0.53922481601E+01 -0.41854986749E+02  0.43400728348E+02  0.00000000000E+00 0. -1.
         11    1    3    3    0    0 -0.20363788702E+01 -0.68740561012E+01  0.32259760212E+02  0.33046809458E+02  0.51100000000E-03 0. -1.
        -11    1    3    3    0    0 -0.49381777411E+01 -0.24615990001E+01  0.74008009928E+01  0.92313013512E+01  0.51100000000E-03 0.  1.
         12    1    3    3    0    0 -0.31598878798E+01  0.39434069412E+01  0.21944255450E+01  0.55091608426E+01  0.00000000000E+00 0. -1.
</event>
<event>
 7    1  0.2580704E-010  0.4778727E+02  0.7816164E-02  0.1312668E+00
        -11   -1    0    0    0    0  0.00000000000E+00  0.00000000000E+00  0.45593999997E+02  0.45594000000E+02  0.51100000000E-03 0.  1.
         11   -1    0    0    0    0 -0.00000000000E+00 -0.00000000000E+00 -0.45593999997E+02  0.45594000000E+02  0.51100000000E-03 0. -1.
    9900012    2    1    2    0    0 -0.24051471823E+01 -0.25181181035E+02  0.35266798530E+02  0.47787266253E+02  0.19999978152E+02 0.  0.
         12    1    1    2    0    0  0.24051471823E+01  0.25181181035E+02 -0.35266798530E+02  0.43400733747E+02  0.00000000000E+00 0. -1.
         11    1    3    3    0    0 -0.35081637896E+01  0.36250728943E+00 -0.58984777388E-01  0.35273366971E+01  0.51100000000E-03 0. -1.
        -11    1    3    3    0    0 -0.97637941934E+00 -0.11068705890E+02  0.96749986149E+01  0.14733470918E+02  0.51100000000E-03 0.  1.
        -12    1    3    3    0    0  0.20793960267E+01 -0.14474982434E+02  0.25650784692E+02  0.29526458637E+02  0.00000000000E+00 0.  1.
</event>
<event>
 7    1  0.2580704E-010  0.4778727E+02  0.7816164E-02  0.1312668E+00
        -11   -1    0    0    0    0  0.00000000000E+00  0.00000000000E+00  0.45593999997E+02  0.45594000000E+02  0.51100000000E-03 0.  1.
         11   -1    0    0    0    0 -0.00000000000E+00 -0.00000000000E+00 -0.45593999997E+02  0.45594000000E+02  0.51100000000E-03 0. -1.
    9900012    2    1    2    0    0  0.50892812342E+01  0.32000505873E+02  0.28873694325E+02  0.47787269781E+02  0.19999994238E+02 0.  0.
         12    1    1    2    0    0 -0.50892812342E+01 -0.32000505873E+02 -0.28873694325E+02  0.43400730219E+02  0.00000000000E+00 0. -1.
         11    1    3    3    0    0 -0.39482084918E+01  0.81212185285E+01  0.76493021006E+01  0.11834456623E+02  0.51100000000E-03 0. -1.
        -11    1    3    3    0    0  0.37028334020E+01  0.18125655778E+02  0.21159305940E+02  0.28106344492E+02  0.51100000000E-03 0.  1.
         12    1    3    3    0    0  0.53346563239E+01  0.57536315658E+01  0.65086285085E-01  0.78464686651E+01  0.00000000000E+00 0. -1.
</event>
<event>
 7    1  0.2580704E-010  0.4778724E+02  0.7816164E-02  0.1312668E+00
        -11   -1    0    0    0    0  0.00000000000E+00  0.00000000000E+00  0.45593999997E+02  0.45594000000E+02  0.51100000000E-03 0.  1.
         11   -1    0    0    0    0 -0.00000000000E+00 -0.00000000000E+00 -0.45593999997E+02  0.45594000000E+02  0.51100000000E-03 0. -1.
    9900012    2    1    2    0    0  0.29870843419E+02  0.11029530117E+02  0.29490817397E+02  0.47787238118E+02  0.19999849876E+02 0.  0.
         12    1    1    2    0    0 -0.29870843419E+02 -0.11029530117E+02 -0.29490817397E+02  0.43400761882E+02  0.00000000000E+00 0. -1.
         11    1    3    3    0    0  0.20030646136E+01  0.44659477899E+01  0.39632183807E+01  0.62979407510E+01  0.51100000000E-03 0. -1.
        -11    1    3    3    0    0  0.25332397775E+02  0.10866471513E+02  0.22955879940E+02  0.35871757752E+02  0.51100000000E-03 0.  1.
         12    1    3    3    0    0  0.25353810304E+01 -0.43028891861E+01  0.25717190768E+01  0.56175396151E+01  0.00000000000E+00 0. -1.
</event>
<event>
 7    1  0.2580704E-010  0.4778727E+02  0.7816164E-02  0.1312668E+00
        -11   -1    0    0    0    0  0.00000000000E+00  0.00000000000E+00  0.45593999997E+02  0.45594000000E+02  0.51100000000E-03 0.  1.
         11   -1    0    0    0    0 -0.00000000000E+00 -0.00000000000E+00 -0.45593999997E+02  0.45594000000E+02  0.51100000000E-03 0. -1.
    9900012    2    1    2    0    0  0.21013106935E+01  0.43261841727E+02 -0.27605630793E+01  0.47787272301E+02  0.20000005730E+02 0.  0.
         12    1    1    2    0    0 -0.21013106935E+01 -0.43261841727E+02  0.27605630793E+01  0.43400727699E+02  0.00000000000E+00 0. -1.
         11    1    3    3    0    0  0.75654954098E+01  0.63766069786E+01  0.18661360713E+01  0.10068778548E+02  0.51100000000E-03 0. -1.
        -11    1    3    3    0    0 -0.41708433017E+00  0.12059843695E+02 -0.22385542409E+01  0.12272934231E+02  0.51100000000E-03 0.  1.
         12    1    3    3    0    0 -0.50471003861E+01  0.24825391054E+02 -0.23881449097E+01  0.25445559522E+02  0.00000000000E+00 0. -1.
</event>
<event>
 7    1  0.2815381E-010  0.4778727E+02  0.7816164E-02  0.1312668E+00
        -11   -1    0    0    0    0  0.00000000000E+00  0.00000000000E+00  0.45593999997E+02  0.45594000000E+02  0.51100000000E-03 0. -1.
         11   -1    0    0    0    0 -0.00000000000E+00 -0.00000000000E+00 -0.45593999997E+02  0.45594000000E+02  0.51100000000E-03 0.  1.
    9900012    2    1    2    0    0 -0.22708117177E+02 -0.32493393567E+02 -0.17667595182E+02  0.47787272693E+02  0.20000007517E+02 0.  0.
         12    1    1    2    0    0  0.22708117177E+02  0.32493393567E+02  0.17667595182E+02  0.43400727307E+02  0.00000000000E+00 0. -1.
         11    1    3    3    0    0 -0.39350229867E+01 -0.87783206424E+01 -0.80353789780E+01  0.12534378117E+02  0.51100000000E-03 0. -1.
        -11    1    3    3    0    0 -0.42103684492E+01 -0.15647932806E+02 -0.38469507040E+00  0.16209040506E+02  0.51100000000E-03 0.  1.
        -12    1    3    3    0    0 -0.14562725741E+02 -0.80671401192E+01 -0.92475211337E+01  0.19043854070E+02  0.00000000000E+00 0.  1.
</event>
<event>
 7    1  0.2580704E-010  0.4778727E+02  0.7816164E-02  0.1312668E+00
        -11   -1    0    0    0    0  0.00000000000E+00  0.00000000000E+00  0.45593999997E+02  0.45594000000E+02  0.51100000000E-03 0.  1.
         11   -1    0    0    0    0 -0.00000000000E+00 -0.00000000000E+00 -0.45593999997E+02  0.45594000000E+02  0.51100000000E-03 0. -1.
    9900012    2    1    2    0    0  0.13115496035E+02 -0.23599119171E+01  0.41304216854E+02  0.47787265554E+02  0.19999974969E+02 0.  0.
         12    1    1    2    0    0 -0.13115496035E+02  0.23599119171E+01 -0.41304216854E+02  0.43400734446E+02  0.00000000000E+00 0. -1.
         11    1    3    3    0    0  0.75432892700E+01 -0.41377089541E+01  0.19613546487E+02  0.21417587503E+02  0.51100000000E-03 0. -1.
        -11    1    3    3    0    0 -0.18010458382E+01 -0.27180994601E+01  0.15254908143E+02  0.15599488886E+02  0.51100000000E-03 0.  1.
         12    1    3    3    0    0  0.73732526028E+01  0.44958964971E+01  0.64357622245E+01  0.10770189166E+02  0.00000000000E+00 0. -1.
</event>
<event>
 7    1  0.2580704E-010  0.4778728E+02  0.7816164E-02  0.1312668E+00
        -11   -1    0    0    0    0  0.00000000000E+00  0.00000000000E+00  0.45593999997E+02  0.45594000000E+02  0.51100000000E-03 0.  1.
         11   -1    0    0    0    0 -0.00000000000E+00 -0.00000000000E+00 -0.45593999997E+02  0.45594000000E+02  0.51100000000E-03 0. -1.
    9900012    2    1    2    0    0 -0.12364908659E+02 -0.38797457670E+02  0.15016298337E+02  0.47787275311E+02  0.20000019451E+02 0.  0.
         12    1    1    2    0    0  0.12364908659E+02  0.38797457670E+02 -0.15016298337E+02  0.43400724689E+02  0.00000000000E+00 0. -1.
         11    1    3    3    0    0 -0.86870389827E+00 -0.35916936791E+01  0.87256092796E+01  0.94758201497E+01  0.51100000000E-03 0. -1.
        -11    1    3    3    0    0 -0.13632239065E+01 -0.14006338817E+02  0.43746420751E+01  0.14736804268E+02  0.51100000000E-03 0.  1.
        -12    1    3    3    0    0 -0.10132980854E+02 -0.21199425174E+02  0.19160469825E+01  0.23574650893E+02  0.00000000000E+00 0.  1.
</event>
<event>
 7    1  0.2580704E-010  0.4778727E+02  0.7816164E-02  0.1312668E+00
        -11   -1    0    0    0    0  0.00000000000E+00  0.00000000000E+00  0.45593999997E+02  0.45594000000E+02  0.51100000000E-03 0. -1.
         11   -1    0    0    0    0 -0.00000000000E+00 -0.00000000000E+00 -0.45593999997E+02  0.45594000000E+02  0.51100000000E-03 0.  1.
    9900012    2    1    2    0    0  0.32447252126E+02  0.12169935650E+02 -0.26128370342E+02  0.47787271423E+02  0.20000001727E+02 0.  0.
         12    1    1    2    0    0 -0.32447252126E+02 -0.12169935650E+02  0.26128370342E+02  0.43400728577E+02  0.00000000000E+00 0. -1.
         11    1    3    3    0    0  0.43277919563E+01 -0.23310286763E+01 -0.33894429331E+01  0.59709129591E+01  0.51100000000E-03 0. -1.
        -11    1    3    3    0    0  0.80507018921E+01  0.74153749757E+01 -0.38640995873E+00  0.10952209818E+02  0.51100000000E-03 0.  1.
        -12    1    3    3    0    0  0.20068758278E+02  0.70855893506E+01 -0.22352517451E+02  0.30864148646E+02  0.00000000000E+00 0.  1.
</event>
<event>
 7    1  0.2580704E-010  0.4778727E+02  0.7816164E-02  0.1312668E+00
        -11   -1    0    0    0    0  0.00000000000E+00  0.00000000000E+00  0.45593999997E+02  0.45594000000E+02  0.51100000000E-03 0. -1.
         11   -1    0    0    0    0 -0.00000000000E+00 -0.00000000000E+00 -0.45593999997E+02  0.45594000000E+02  0.51100000000E-03 0.  1.
    9900012    2    1    2    0    0  0.16858832455E+02 -0.28042110086E+02 -0.28513911545E+02  0.47787270497E+02  0.19999997503E+02 0.  0.
         12    1    1    2    0    0 -0.16858832455E+02  0.28042110086E+02  0.28513911545E+02  0.43400729503E+02  0.00000000000E+00 0. -1.
         11    1    3    3    0    0 -0.18324964053E+01 -0.10199494086E+02 -0.55934089077E+01  0.11775990241E+02  0.51100000000E-03 0. -1.
        -11    1    3    3    0    0  0.66088708587E+01 -0.13297965581E+02 -0.12882207514E+02  0.19658696125E+02  0.51100000000E-03 0.  1.
        -12    1    3    3    0    0  0.12082458002E+02 -0.45446504190E+01 -0.10038295123E+02  0.16352584131E+02  0.00000000000E+00 0.  1.
</event>
<event>
 7    1  0.2580704E-010  0.4778726E+02  0.7816164E-02  0.1312668E+00
        -11   -1    0    0    0    0  0.00000000000E+00  0.00000000000E+00  0.45593999997E+02  0.45594000000E+02  0.51100000000E-03 0.  1.
         11   -1    0    0    0    0 -0.00000000000E+00 -0.00000000000E+00 -0.45593999997E+02  0.45594000000E+02  0.51100000000E-03 0. -1.
    9900012    2    1    2    0    0  0.35283146933E+02 -0.18239167935E+02  0.17494467619E+02  0.47787261507E+02  0.19999956516E+02 0.  0.
         12    1    1    2    0    0 -0.35283146933E+02  0.18239167935E+02 -0.17494467619E+02  0.43400738493E+02  0.00000000000E+00 0. -1.
         11    1    3    3    0    0  0.75964797323E+01 -0.55772921571E+01 -0.28432319793E+01  0.98436101344E+01  0.51100000000E-03 0. -1.
        -11    1    3    3    0    0  0.54837902826E+01  0.15043536214E+01  0.39617467544E+01  0.69304021016E+01  0.51100000000E-03 0.  1.
        -12    1    3    3    0    0  0.22202876918E+02 -0.14166229399E+02  0.16375952844E+02  0.31013249271E+02  0.00000000000E+00 0.  1.
</event>
<event>
 7    1  0.2580704E-010  0.4778727E+02  0.7816164E-02  0.1312668E+00
        -11   -1    0    0    0    0  0.00000000000E+00  0.00000000000E+00  0.45593999997E+02  0.45594000000E+02  0.51100000000E-03 0.  1.
         11   -1    0    0    0    0 -0.00000000000E+00 -0.00000000000E+00 -0.45593999997E+02  0.45594000000E+02  0.51100000000E-03 0. -1.
    9900012    2    1    2    0    0  0.24943191681E+02 -0.46948972751E+00  0.35513946458E+02  0.47787267001E+02  0.19999981565E+02 0.  0.
         12    1    1    2    0    0 -0.24943191681E+02  0.46948972751E+00 -0.35513946458E+02  0.43400732999E+02  0.00000000000E+00 0. -1.
         11    1    3    3    0    0  0.15040074958E+02 -0.11519325349E+01  0.77211981364E+01  0.16945433138E+02  0.51100000000E-03 0. -1.
        -11    1    3    3    0    0  0.50238969303E+00 -0.20574076014E+01  0.10521265443E+01  0.23648027335E+01  0.51100000000E-03 0.  1.
        -12    1    3    3    0    0  0.94007270300E+01  0.27398504088E+01  0.26740621777E+02  0.28477031130E+02  0.00000000000E+00 0.  1.
</event>
<event>
 7    1  0.2580704E-010  0.4778727E+02  0.7816164E-02  0.1312668E+00
        -11   -1    0    0    0    0  0.00000000000E+00  0.00000000000E+00  0.45593999997E+02  0.45594000000E+02  0.51100000000E-03 0.  1.
         11   -1    0    0    0    0 -0.00000000000E+00 -0.00000000000E+00 -0.45593999997E+02  0.45594000000E+02  0.51100000000E-03 0. -1.
    9900012    2    1    2    0    0 -0.41724681119E+02 -0.11786122400E+02  0.19394873195E+01  0.47787270666E+02  0.19999998274E+02 0.  0.
         12    1    1    2    0    0  0.41724681119E+02  0.11786122400E+02 -0.19394873195E+01  0.43400729334E+02  0.00000000000E+00 0. -1.
         11    1    3    3    0    0 -0.15859171612E+02 -0.30096580910E+00 -0.76846736923E+00  0.15880631190E+02  0.51100000000E-03 0. -1.
        -11    1    3    3    0    0 -0.18395165102E+02 -0.55685488448E+01  0.82135230676E+01  0.20901023822E+02  0.51100000000E-03 0.  1.
         12    1    3    3    0    0 -0.74703444048E+01 -0.59166077462E+01 -0.55055683789E+01  0.11005615654E+02  0.00000000000E+00 0. -1.
</event>
<event>
 7    1  0.2580704E-010  0.4778727E+02  0.7816164E-02  0.1312668E+00
        -11   -1    0    0    0    0  0.00000000000E+00  0.00000000000E+00  0.45593999997E+02  0.45594000000E+02  0.51100000000E-03 0.  1.
         11   -1    0    0    0    0 -0.00000000000E+00 -0.00000000000E+00 -0.45593999997E+02  0.45594000000E+02  0.51100000000E-03 0. -1.
    9900012    2    1    2    0    0  0.69110268281E+01  0.18673256984E+02  0.38563846842E+02  0.47787273031E+02  0.20000009056E+02 0.  0.
         12    1    1    2    0    0 -0.69110268281E+01 -0.18673256984E+02 -0.38563846842E+02  0.43400726969E+02  0.00000000000E+00 0. -1.
         11    1    3    3    0    0 -0.13196870293E+01 -0.23377726164E+01  0.42488909412E-02  0.26845433458E+01  0.51100000000E-03 0. -1.
        -11    1    3    3    0    0  0.41256048877E+01  0.36158569052E+01  0.10178674691E+02  0.11562891315E+02  0.51100000000E-03 0.  1.
        -12    1    3    3    0    0  0.41051089697E+01  0.17395172695E+02  0.28380923260E+02  0.33539838369E+02  0.00000000000E+00 0.  1.
</event>
<event>
 7    1  0.2580704E-010  0.4778727E+02  0.7816164E-02  0.1312668E+00
        -11   -1    0    0    0    0  0.00000000000E+00  0.00000000000E+00  0.45593999997E+02  0.45594000000E+02  0.51100000000E-03 0.  1.
         11   -1    0    0    0    0 -0.00000000000E+00 -0.00000000000E+00 -0.45593999997E+02  0.45594000000E+02  0.51100000000E-03 0. -1.
    9900012    2    1    2    0    0  0.77652141228E+01 -0.10036156144E+02  0.41504219187E+02  0.47787272001E+02  0.20000004360E+02 0.  0.
         12    1    1    2    0    0 -0.77652141228E+01  0.10036156144E+02 -0.41504219187E+02  0.43400727999E+02  0.00000000000E+00 0. -1.
         11    1    3    3    0    0  0.38520669089E+01 -0.79100607615E+01  0.24782094070E+02  0.26297522079E+02  0.51100000000E-03 0. -1.
        -11    1    3    3    0    0  0.80524328387E+01 -0.34112373350E+01  0.85011490408E+01  0.12196218678E+02  0.51100000000E-03 0.  1.
         12    1    3    3    0    0 -0.41392856247E+01  0.12851419526E+01  0.82209760765E+01  0.92935312434E+01  0.00000000000E+00 0. -1.
</event>
<event>
 7    1  0.2580704E-010  0.4778727E+02  0.7816164E-02  0.1312668E+00
        -11   -1    0    0    0    0  0.00000000000E+00  0.00000000000E+00  0.45593999997E+02  0.45594000000E+02  0.51100000000E-03 0.  1.
         11   -1    0    0    0    0 -0.00000000000E+00 -0.00000000000E+00 -0.45593999997E+02  0.45594000000E+02  0.51100000000E-03 0. -1.
    9900012    2    1    2    0    0  0.21983616936E+02  0.28624096666E+02  0.24104041520E+02  0.47787272573E+02  0.20000006971E+02 0.  0.
         12    1    1    2    0    0 -0.21983616936E+02 -0.28624096666E+02 -0.24104041520E+02  0.43400727427E+02  0.00000000000E+00 0. -1.
         11    1    3    3    0    0  0.17569501149E+02  0.10591118944E+02  0.17686656366E+02  0.27086472357E+02  0.51100000000E-03 0. -1.
        -11    1    3    3    0    0  0.58030728449E-01  0.51317027641E+00  0.20673506726E+01  0.21308801849E+01  0.51100000000E-03 0.  1.
        -12    1    3    3    0    0  0.43560850588E+01  0.17519807446E+02  0.43500344819E+01  0.18569920031E+02  0.00000000000E+00 0.  1.
</event>
<event>
 7    1  0.2580704E-010  0.4778728E+02  0.7816164E-02  0.1312668E+00
        -11   -1    0    0    0    0  0.00000000000E+00  0.00000000000E+00  0.45593999997E+02  0.45594000000E+02  0.51100000000E-03 0.  1.
         11   -1    0    0    0    0 -0.00000000000E+00 -0.00000000000E+00 -0.45593999997E+02  0.45594000000E+02  0.51100000000E-03 0. -1.
    9900012    2    1    2    0    0  0.19802008445E+02  0.18124038426E+02  0.34103105489E+02  0.47787284438E+02  0.20000061067E+02 0.  0.
         12    1    1    2    0    0 -0.19802008445E+02 -0.18124038426E+02 -0.34103105489E+02  0.43400715562E+02  0.00000000000E+00 0. -1.
         11    1    3    3    0    0  0.38710453250E+01  0.11236562958E+01 -0.17188866792E+00  0.40344939404E+01  0.51100000000E-03 0. -1.
        -11    1    3    3    0    0  0.15559067324E+02  0.69672462112E+01  0.23405384234E+02  0.28955813012E+02  0.51100000000E-03 0.  1.
         12    1    3    3    0    0  0.37189579540E+00  0.10033135919E+02  0.10869609923E+02  0.14796977486E+02  0.00000000000E+00 0. -1.
</event>
<event>
 7    1  0.2580704E-010  0.4778727E+02  0.7816164E-02  0.1312668E+00
        -11   -1    0    0    0    0  0.00000000000E+00  0.00000000000E+00  0.45593999997E+02  0.45594000000E+02  0.51100000000E-03 0.  1.
         11   -1    0    0    0    0 -0.00000000000E+00 -0.00000000000E+00 -0.45593999997E+02  0.45594000000E+02  0.51100000000E-03 0. -1.
    9900012    2    1    2    0    0 -0.64866880112E+00 -0.29311453429E+02  0.32000641929E+02  0.47787272389E+02  0.20000006129E+02 0.  0.
         12    1    1    2    0    0  0.64866880112E+00  0.29311453429E+02 -0.32000641929E+02  0.43400727611E+02  0.00000000000E+00 0. -1.
         11    1    3    3    0    0 -0.16990941178E+01 -0.18754521039E+02  0.11972685002E+02  0.22315110725E+02  0.51100000000E-03 0. -1.
        -11    1    3    3    0    0  0.81998215787E+00 -0.10248174753E+02  0.69982464890E+01  0.12436756437E+02  0.51100000000E-03 0.  1.
         12    1    3    3    0    0  0.23044315878E+00 -0.30875763678E+00  0.13029710438E+02  0.13035405227E+02  0.00000000000E+00 0. -1.
</event>
<event>
 7    1  0.2580704E-010  0.4778727E+02  0.7816164E-02  0.1312668E+00
        -11   -1    0    0    0    0  0.00000000000E+00  0.00000000000E+00  0.45593999997E+02  0.45594000000E+02  0.51100000000E-03 0.  1.
         11   -1    0    0    0    0 -0.00000000000E+00 -0.00000000000E+00 -0.45593999997E+02  0.45594000000E+02  0.51100000000E-03 0. -1.
    9900012    2    1    2    0    0 -0.15909462386E+02 -0.37139437750E+02  0.15848485552E+02  0.47787270466E+02  0.19999997364E+02 0.  0.
         12    1    1    2    0    0  0.15909462386E+02  0.37139437750E+02 -0.15848485552E+02  0.43400729534E+02  0.00000000000E+00 0. -1.
         11    1    3    3    0    0 -0.55763026450E+01 -0.19915659496E+02  0.63356905531E+01  0.21630294020E+02  0.51100000000E-03 0. -1.
        -11    1    3    3    0    0  0.30120467428E+01 -0.33569955058E+01 -0.36465693063E+00  0.45249109765E+01  0.51100000000E-03 0.  1.
        -12    1    3    3    0    0 -0.13345206484E+02 -0.13866782748E+02  0.98774519299E+01  0.21632065470E+02  0.00000000000E+00 0.  1.
</event>
<event>
 7    1  0.2580704E-010  0.4778728E+02  0.7816164E-02  0.1312668E+00
        -11   -1    0    0    0    0  0.00000000000E+00  0.00000000000E+00  0.45593999997E+02  0.45594000000E+02  0.51100000000E-03 0.  1.
         11   -1    0    0    0    0 -0.00000000000E+00 -0.00000000000E+00 -0.45593999997E+02  0.45594000000E+02  0.51100000000E-03 0. -1.
    9900012    2    1    2    0    0  0.22921151211E+02 -0.18892772677E+02  0.31643430601E+02  0.47787277282E+02  0.20000028438E+02 0.  0.
         12    1    1    2    0    0 -0.22921151211E+02  0.18892772677E+02 -0.31643430601E+02  0.43400722718E+02  0.00000000000E+00 0. -1.
         11    1    3    3    0    0  0.26245458368E+01 -0.26081234034E+00  0.43697841450E+01  0.51040452252E+01  0.51100000000E-03 0. -1.
        -11    1    3    3    0    0  0.19790422213E+02 -0.10331317848E+02  0.26001197589E+02  0.34270383951E+02  0.51100000000E-03 0.  1.
         12    1    3    3    0    0  0.50618316133E+00 -0.83006424891E+01  0.12724488672E+01  0.84128481054E+01  0.00000000000E+00 0. -1.
</event>
<event>
 7    1  0.2580704E-010  0.4778727E+02  0.7816164E-02  0.1312668E+00
        -11   -1    0    0    0    0  0.00000000000E+00  0.00000000000E+00  0.45593999997E+02  0.45594000000E+02  0.51100000000E-03 0. -1.
         11   -1    0    0    0    0 -0.00000000000E+00 -0.00000000000E+00 -0.45593999997E+02  0.45594000000E+02  0.51100000000E-03 0.  1.
    9900012    2    1    2    0    0  0.19488812801E+02 -0.38420837214E+02 -0.52581987972E+01  0.47787271767E+02  0.20000003293E+02 0.  0.
         12    1    1    2    0    0 -0.19488812801E+02  0.38420837214E+02  0.52581987972E+01  0.43400728233E+02  0.00000000000E+00 0. -1.
         11    1    3    3    0    0 -0.34322799018E+01 -0.87774542749E+01  0.17807967246E+01  0.95914277408E+01  0.51100000000E-03 0. -1.
        -11    1    3    3    0    0  0.32076485909E+01 -0.29708184962E+01 -0.96619282520E+00  0.44775328985E+01  0.51100000000E-03 0.  1.
         12    1    3    3    0    0  0.19713444112E+02 -0.26672564443E+02 -0.60728026966E+01  0.33718311127E+02  0.00000000000E+00 0. -1.
</event>
<event>
 7    1  0.2580704E-010  0.4778727E+02  0.7816164E-02  0.1312668E+00
        -11   -1    0    0    0    0  0.00000000000E+00  0.00000000000E+00  0.45593999997E+02  0.45594000000E+02  0.51100000000E-03 0.  1.
         11   -1    0    0    0    0 -0.00000000000E+00 -0.00000000000E+00 -0.45593999997E+02  0.45594000000E+02  0.51100000000E-03 0. -1.
    9900012    2    1    2    0    0 -0.27067594356E+02 -0.64464287682E+00  0.33919800168E+02  0.47787273369E+02  0.20000010598E+02 0.  0.
         12    1    1    2    0    0  0.27067594356E+02  0.64464287682E+00 -0.33919800168E+02  0.43400726631E+02  0.00000000000E+00 0. -1.
         11    1    3    3    0    0 -0.19716987635E+01 -0.15817096642E+01  0.75604978216E+01  0.79718585692E+01  0.51100000000E-03 0. -1.
        -11    1    3    3    0    0 -0.25084579762E+02  0.10923556291E+01  0.28320458393E+02  0.37848087752E+02  0.51100000000E-03 0.  1.
         12    1    3    3    0    0 -0.11315831310E-01 -0.15528884172E+00 -0.19611560468E+01  0.19673270477E+01  0.00000000000E+00 0. -1.
</event>
<event>
 7    1  0.2580704E-010  0.4778727E+02  0.7816164E-02  0.1312668E+00
        -11   -1    0    0    0    0  0.00000000000E+00  0.00000000000E+00  0.45593999997E+02  0.45594000000E+02  0.51100000000E-03 0.  1.
         11   -1    0    0    0    0 -0.00000000000E+00 -0.00000000000E+00 -0.45593999997E+02  0.45594000000E+02  0.51100000000E-03 0. -1.
    9900012    2    1    2    0    0  0.34568786055E+02 -0.62265722962E+01  0.25492192389E+02  0.47787273685E+02  0.20000012039E+02 0.  0.
         12    1    1    2    0    0 -0.34568786055E+02  0.62265722962E+01 -0.25492192389E+02  0.43400726315E+02  0.00000000000E+00 0. -1.
         11    1    3    3    0    0  0.19024543485E+01 -0.16328440625E+01  0.83969289627E+01  0.87632145099E+01  0.51100000000E-03 0. -1.
        -11    1    3    3    0    0  0.33895471981E+01 -0.48206359804E+00 -0.18687084973E+01  0.39004470551E+01  0.51100000000E-03 0.  1.
        -12    1    3    3    0    0  0.29276784508E+02 -0.41116646357E+01  0.18963971924E+02  0.35123612120E+02  0.00000000000E+00 0.  1.
</event>
<event>
 7    1  0.2580704E-010  0.4778727E+02  0.7816164E-02  0.1312668E+00
        -11   -1    0    0    0    0  0.00000000000E+00  0.00000000000E+00  0.45593999997E+02  0.45594000000E+02  0.51100000000E-03 0. -1.
         11   -1    0    0    0    0 -0.00000000000E+00 -0.00000000000E+00 -0.45593999997E+02  0.45594000000E+02  0.51100000000E-03 0.  1.
    9900012    2    1    2    0    0 -0.11856430125E+02 -0.40033869795E+02  0.11846417902E+02  0.47787270937E+02  0.19999999510E+02 0.  0.
         12    1    1    2    0    0  0.11856430125E+02  0.40033869795E+02 -0.11846417902E+02  0.43400729063E+02  0.00000000000E+00 0. -1.
         11    1    3    3    0    0 -0.54774712985E+01 -0.15196558785E+02  0.11434593105E+02  0.19791109380E+02  0.51100000000E-03 0. -1.
        -11    1    3    3    0    0 -0.18761154781E+01 -0.18358295659E+02  0.46626827469E+01  0.19033849833E+02  0.51100000000E-03 0.  1.
         12    1    3    3    0    0 -0.45028433486E+01 -0.64790153508E+01 -0.42508579499E+01  0.89623117246E+01  0.00000000000E+00 0. -1.
</event>
<event>
 7    1  0.2580704E-010  0.4778727E+02  0.7816164E-02  0.1312668E+00
        -11   -1    0    0    0    0  0.00000000000E+00  0.00000000000E+00  0.45593999997E+02  0.45594000000E+02  0.51100000000E-03 0.  1.
         11   -1    0    0    0    0 -0.00000000000E+00 -0.00000000000E+00 -0.45593999997E+02  0.45594000000E+02  0.51100000000E-03 0. -1.
    9900012    2    1    2    0    0  0.63506233048E+01 -0.21070285117E+01  0.42881853227E+02  0.47787270494E+02  0.19999997490E+02 0.  0.
         12    1    1    2    0    0 -0.63506233048E+01  0.21070285117E+01 -0.42881853227E+02  0.43400729506E+02  0.00000000000E+00 0. -1.
         11    1    3    3    0    0 -0.12510108129E+00 -0.42538679297E+01  0.83837562090E+01  0.94020429204E+01  0.51100000000E-03 0.  1.
        -11    1    3    3    0    0 -0.13812792654E+01 -0.53357691436E+01  0.16202885324E+02  0.17114667915E+02  0.51100000000E-03 0. -1.
        -12    1    3    3    0    0  0.78570036515E+01  0.74826085616E+01  0.18295211693E+02  0.21270559658E+02  0.00000000000E+00 0.  1.
</event>
<event>
 7    1  0.2580704E-010  0.4778727E+02  0.7816164E-02  0.1312668E+00
        -11   -1    0    0    0    0  0.00000000000E+00  0.00000000000E+00  0.45593999997E+02  0.45594000000E+02  0.51100000000E-03 0.  1.
         11   -1    0    0    0    0 -0.00000000000E+00 -0.00000000000E+00 -0.45593999997E+02  0.45594000000E+02  0.51100000000E-03 0. -1.
    9900012    2    1    2    0    0  0.35564126538E+02 -0.38804643553E+01  0.24571489802E+02  0.47787271768E+02  0.20000003299E+02 0.  0.
         12    1    1    2    0    0 -0.35564126538E+02  0.38804643553E+01 -0.24571489802E+02  0.43400728232E+02  0.00000000000E+00 0. -1.
         11    1    3    3    0    0  0.51499960445E+01  0.68224778282E+01  0.35042910487E+01  0.92384370426E+01  0.51100000000E-03 0. -1.
        -11    1    3    3    0    0  0.31463316002E+01 -0.81673464522E+00  0.26183160397E+01  0.41739713899E+01  0.51100000000E-03 0.  1.
         12    1    3    3    0    0  0.27267798893E+02 -0.98862075383E+01  0.18448882713E+02  0.34374863335E+02  0.00000000000E+00 0. -1.
</event>
<event>
 7    1  0.2580704E-010  0.4778728E+02  0.7816164E-02  0.1312668E+00
        -11   -1    0    0    0    0  0.00000000000E+00  0.00000000000E+00  0.45593999997E+02  0.45594000000E+02  0.51100000000E-03 0.  1.
         11   -1    0    0    0    0 -0.00000000000E+00 -0.00000000000E+00 -0.45593999997E+02  0.45594000000E+02  0.51100000000E-03 0. -1.
    9900012    2    1    2    0    0 -0.77810032858E+01  0.42224076554E+02  0.63407904590E+01  0.47787282534E+02  0.20000052383E+02 0.  0.
         12    1    1    2    0    0  0.77810032858E+01 -0.42224076554E+02 -0.63407904590E+01  0.43400717466E+02  0.00000000000E+00 0. -1.
         11    1    3    3    0    0  0.36282891057E+01  0.36637308249E+01 -0.15468822559E+01  0.53833307874E+01  0.51100000000E-03 0. -1.
        -11    1    3    3    0    0 -0.43672673353E+01  0.41597985762E+01 -0.11628461143E+01  0.61424066553E+01  0.51100000000E-03 0.  1.
         12    1    3    3    0    0 -0.70420250562E+01  0.34400547153E+02  0.90505188292E+01  0.36261545091E+02  0.00000000000E+00 0. -1.
</event>
<event>
 7    1  0.2580704E-010  0.4778727E+02  0.7816164E-02  0.1312668E+00
        -11   -1    0    0    0    0  0.00000000000E+00  0.00000000000E+00  0.45593999997E+02  0.45594000000E+02  0.51100000000E-03 0.  1.
         11   -1    0    0    0    0 -0.00000000000E+00 -0.00000000000E+00 -0.45593999997E+02  0.45594000000E+02  0.51100000000E-03 0. -1.
    9900012    2    1    2    0    0 -0.18792672570E+02 -0.37151225697E+02  0.12257457774E+02  0.47787269774E+02  0.19999994206E+02 0.  0.
         12    1    1    2    0    0  0.18792672570E+02  0.37151225697E+02 -0.12257457774E+02  0.43400730226E+02  0.00000000000E+00 0. -1.
         11    1    3    3    0    0 -0.13966538562E+02 -0.25076868830E+02  0.10711344327E+02  0.30637337471E+02  0.51100000000E-03 0.  1.
        -11    1    3    3    0    0 -0.41952011160E+01 -0.13472818533E+02 -0.10333996963E+01  0.14148656008E+02  0.51100000000E-03 0. -1.
         12    1    3    3    0    0 -0.63093289199E+00  0.13984616664E+01  0.25795131430E+01  0.30012762954E+01  0.00000000000E+00 0. -1.
</event>
<event>
 7    1  0.3289144E-010  0.4778727E+02  0.7816164E-02  0.1312668E+00
        -11   -1    0    0    0    0  0.00000000000E+00  0.00000000000E+00  0.45593999997E+02  0.45594000000E+02  0.51100000000E-03 0. -1.
         11   -1    0    0    0    0 -0.00000000000E+00 -0.00000000000E+00 -0.45593999997E+02  0.45594000000E+02  0.51100000000E-03 0.  1.
    9900012    2    1    2    0    0 -0.40783507906E+02 -0.14339522839E+02  0.38349650612E+01  0.47787269713E+02  0.19999993931E+02 0.  0.
         12    1    1    2    0    0  0.40783507906E+02  0.14339522839E+02 -0.38349650612E+01  0.43400730287E+02  0.00000000000E+00 0. -1.
         11    1    3    3    0    0 -0.48216198863E+00  0.10029435239E+01  0.55549352391E+00  0.12437641302E+01  0.51100000000E-03 0. -1.
        -11    1    3    3    0    0 -0.40114319433E+02 -0.11486580312E+02  0.40159602406E+00  0.41728424731E+02  0.51100000000E-03 0.  1.
        -12    1    3    3    0    0 -0.18702648391E+00 -0.38558860514E+01  0.28778755132E+01  0.48150808526E+01  0.00000000000E+00 0.  1.
</event>
<event>
 7    1  0.2580704E-010  0.4778727E+02  0.7816164E-02  0.1312668E+00
        -11   -1    0    0    0    0  0.00000000000E+00  0.00000000000E+00  0.45593999997E+02  0.45594000000E+02  0.51100000000E-03 0.  1.
         11   -1    0    0    0    0 -0.00000000000E+00 -0.00000000000E+00 -0.45593999997E+02  0.45594000000E+02  0.51100000000E-03 0. -1.
    9900012    2    1    2    0    0  0.25088284052E+02  0.23247103071E+02 -0.26716535587E+02  0.47787273374E+02  0.20000010621E+02 0.  0.
         12    1    1    2    0    0 -0.25088284052E+02 -0.23247103071E+02  0.26716535587E+02  0.43400726626E+02  0.00000000000E+00 0. -1.
         11    1    3    3    0    0 -0.16894567415E+01  0.82544085123E+01 -0.67552306767E+01  0.10799197457E+02  0.51100000000E-03 0. -1.
        -11    1    3    3    0    0  0.50873461230E+01  0.89652309850E+00 -0.22325830109E+01  0.56275457708E+01  0.51100000000E-03 0.  1.
         12    1    3    3    0    0  0.21690394671E+02  0.14096171461E+02 -0.17728721900E+02  0.31360530146E+02  0.00000000000E+00 0. -1.
</event>
<event>
 7    1  0.2580704E-010  0.4778727E+02  0.7816164E-02  0.1312668E+00
        -11   -1    0    0    0    0  0.00000000000E+00  0.00000000000E+00  0.45593999997E+02  0.45594000000E+02  0.51100000000E-03 0.  1.
         11   -1    0    0    0    0 -0.00000000000E+00 -0.00000000000E+00 -0.45593999997E+02  0.45594000000E+02  0.51100000000E-03 0. -1.
    9900012    2    1    2    0    0 -0.29167518347E+02 -0.14622436810E+02  0.28619284366E+02  0.47787271638E+02  0.20000002706E+02 0.  0.
         12    1    1    2    0    0  0.29167518347E+02  0.14622436810E+02 -0.28619284366E+02  0.43400728362E+02  0.00000000000E+00 0. -1.
         11    1    3    3    0    0 -0.16417982830E+02 -0.43737420843E+00  0.16768850717E+02  0.23472021878E+02  0.51100000000E-03 0. -1.
        -11    1    3    3    0    0 -0.30030796555E+01  0.10184892108E+01  0.16661263488E+01  0.35821480931E+01  0.51100000000E-03 0.  1.
        -12    1    3    3    0    0 -0.97464558616E+01 -0.15203551812E+02  0.10184307300E+02  0.20733101667E+02  0.00000000000E+00 0.  1.
</event>
<event>
 7    1  0.2580704E-010  0.4778727E+02  0.7816164E-02  0.1312668E+00
        -11   -1    0    0    0    0  0.00000000000E+00  0.00000000000E+00  0.45593999997E+02  0.45594000000E+02  0.51100000000E-03 0. -1.
         11   -1    0    0    0    0 -0.00000000000E+00 -0.00000000000E+00 -0.45593999997E+02  0.45594000000E+02  0.51100000000E-03 0.  1.
    9900012    2    1    2    0    0  0.19946848417E+01 -0.38401449820E+02 -0.20123951092E+02  0.47787268169E+02  0.19999986890E+02 0.  0.
         12    1    1    2    0    0 -0.19946848417E+01  0.38401449820E+02  0.20123951092E+02  0.43400731831E+02  0.00000000000E+00 0. -1.
         11    1    3    3    0    0 -0.22313103457E+01 -0.61818842440E+01 -0.71359172828E+01  0.97013274552E+01  0.51100000000E-03 0. -1.
        -11    1    3    3    0    0  0.17360736402E+01 -0.32284388874E+02 -0.14204743613E+02  0.35313884777E+02  0.51100000000E-03 0.  1.
        -12    1    3    3    0    0  0.24899215472E+01  0.64823297625E-01  0.12167098044E+01  0.27720559372E+01  0.00000000000E+00 0.  1.
</event>
<event>
 7    1  0.2580704E-010  0.4778727E+02  0.7816164E-02  0.1312668E+00
        -11   -1    0    0    0    0  0.00000000000E+00  0.00000000000E+00  0.45593999997E+02  0.45594000000E+02  0.51100000000E-03 0.  1.
         11   -1    0    0    0    0 -0.00000000000E+00 -0.00000000000E+00 -0.45593999997E+02  0.45594000000E+02  0.51100000000E-03 0. -1.
    9900012    2    1    2    0    0  0.38706491737E+02  0.14429295398E+02  0.13312631930E+02  0.47787271467E+02  0.20000001927E+02 0.  0.
         12    1    1    2    0    0 -0.38706491737E+02 -0.14429295398E+02 -0.13312631930E+02  0.43400728533E+02  0.00000000000E+00 0. -1.
         11    1    3    3    0    0  0.22124562772E+02  0.14882500055E+02  0.36219647612E+01  0.26909175289E+02  0.51100000000E-03 0. -1.
        -11    1    3    3    0    0  0.41419558555E+01  0.31951659963E+01  0.45467453061E+01  0.69309290281E+01  0.51100000000E-03 0.  1.
        -12    1    3    3    0    0  0.12439973109E+02 -0.36483706526E+01  0.51439218628E+01  0.13947167150E+02  0.00000000000E+00 0.  1.
</event>
<event>
 7    1  0.2580704E-010  0.4778727E+02  0.7816164E-02  0.1312668E+00
        -11   -1    0    0    0    0  0.00000000000E+00  0.00000000000E+00  0.45593999997E+02  0.45594000000E+02  0.51100000000E-03 0.  1.
         11   -1    0    0    0    0 -0.00000000000E+00 -0.00000000000E+00 -0.45593999997E+02  0.45594000000E+02  0.51100000000E-03 0. -1.
    9900012    2    1    2    0    0 -0.16741967678E+02  0.23832978007E+02  0.32176372130E+02  0.47787271367E+02  0.20000001472E+02 0.  0.
         12    1    1    2    0    0  0.16741967678E+02 -0.23832978007E+02 -0.32176372130E+02  0.43400728633E+02  0.00000000000E+00 0. -1.
         11    1    3    3    0    0  0.16595039627E+01 -0.49220561170E+00  0.55524636450E+01  0.58160186172E+01  0.51100000000E-03 0. -1.
        -11    1    3    3    0    0  0.12617381247E+01  0.15470493536E+01  0.34688883413E+01  0.40023157526E+01  0.51100000000E-03 0.  1.
        -12    1    3    3    0    0 -0.19663209765E+02  0.22778134265E+02  0.23155020144E+02  0.37968936998E+02  0.00000000000E+00 0.  1.
</event>
<event>
 7    1  0.2580704E-010  0.4778727E+02  0.7816164E-02  0.1312668E+00
        -11   -1    0    0    0    0  0.00000000000E+00  0.00000000000E+00  0.45593999997E+02  0.45594000000E+02  0.51100000000E-03 0.  1.
         11   -1    0    0    0    0 -0.00000000000E+00 -0.00000000000E+00 -0.45593999997E+02  0.45594000000E+02  0.51100000000E-03 0. -1.
    9900012    2    1    2    0    0  0.88615914183E+01  0.11640519204E+02  0.40860663134E+02  0.47787270956E+02  0.19999999595E+02 0.  0.
         12    1    1    2    0    0 -0.88615914183E+01 -0.11640519204E+02 -0.40860663134E+02  0.43400729044E+02  0.00000000000E+00 0. -1.
         11    1    3    3    0    0  0.12680975706E+01  0.79485999070E+01  0.79318075853E+01  0.11300525818E+02  0.51100000000E-03 0. -1.
        -11    1    3    3    0    0  0.80492187700E+01  0.58620778341E+01  0.12707547038E+02  0.16144213555E+02  0.51100000000E-03 0.  1.
         12    1    3    3    0    0 -0.45572492228E+00 -0.21701585367E+01  0.20221308511E+02  0.20342531582E+02  0.00000000000E+00 0. -1.
</event>
<event>
 7    1  0.2580704E-010  0.4778727E+02  0.7816164E-02  0.1312668E+00
        -11   -1    0    0    0    0  0.00000000000E+00  0.00000000000E+00  0.45593999997E+02  0.45594000000E+02  0.51100000000E-03 0.  1.
         11   -1    0    0    0    0 -0.00000000000E+00 -0.00000000000E+00 -0.45593999997E+02  0.45594000000E+02  0.51100000000E-03 0. -1.
    9900012    2    1    2    0    0 -0.32632809969E+01  0.28409100648E+02  0.32648078336E+02  0.47787273952E+02  0.20000013258E+02 0.  0.
         12    1    1    2    0    0  0.32632809969E+01 -0.28409100648E+02 -0.32648078336E+02  0.43400726048E+02  0.00000000000E+00 0. -1.
         11    1    3    3    0    0  0.43876434099E+01  0.70538996870E+01  0.47532838890E+00  0.83207483333E+01  0.51100000000E-03 0. -1.
        -11    1    3    3    0    0 -0.28848069858E+01  0.74243154170E+01  0.13660275947E+02  0.15812833710E+02  0.51100000000E-03 0.  1.
         12    1    3    3    0    0 -0.47661174209E+01  0.13930885544E+02  0.18512474000E+02  0.23653691909E+02  0.00000000000E+00 0. -1.
</event>
<event>
 7    1  0.2580704E-010  0.4778727E+02  0.7816164E-02  0.1312668E+00
        -11   -1    0    0    0    0  0.00000000000E+00  0.00000000000E+00  0.45593999997E+02  0.45594000000E+02  0.51100000000E-03 0.  1.
         11   -1    0    0    0    0 -0.00000000000E+00 -0.00000000000E+00 -0.45593999997E+02  0.45594000000E+02  0.51100000000E-03 0. -1.
    9900012    2    1    2    0    0 -0.20003566429E+02 -0.24074627508E+02  0.30064813957E+02  0.47787269616E+02  0.19999993489E+02 0.  0.
         12    1    1    2    0    0  0.20003566429E+02  0.24074627508E+02 -0.30064813957E+02  0.43400730384E+02  0.00000000000E+00 0. -1.
         11    1    3    3    0    0 -0.99032953991E+01 -0.10374701062E+02  0.20874114216E+02  0.25326632750E+02  0.51100000000E-03 0. -1.
        -11    1    3    3    0    0 -0.47884605417E+00 -0.40207066998E+01  0.77411735707E+01  0.87361973663E+01  0.51100000000E-03 0.  1.
         12    1    3    3    0    0 -0.96214249758E+01 -0.96792197467E+01  0.14495261701E+01  0.13724439500E+02  0.00000000000E+00 0. -1.
</event>
<event>
 7    1  0.2580704E-010  0.4778726E+02  0.7816164E-02  0.1312668E+00
        -11   -1    0    0    0    0  0.00000000000E+00  0.00000000000E+00  0.45593999997E+02  0.45594000000E+02  0.51100000000E-03 0.  1.
         11   -1    0    0    0    0 -0.00000000000E+00 -0.00000000000E+00 -0.45593999997E+02  0.45594000000E+02  0.51100000000E-03 0. -1.
    9900012    2    1    2    0    0 -0.14338671704E+02  0.56127419228E+01  0.40577377865E+02  0.47787262995E+02  0.19999963300E+02 0.  0.
         12    1    1    2    0    0  0.14338671704E+02 -0.56127419228E+01 -0.40577377865E+02  0.43400737005E+02  0.00000000000E+00 0. -1.
         11    1    3    3    0    0 -0.11522686279E+02 -0.22893601900E+01  0.26019207082E+02  0.28548425642E+02  0.51100000000E-03 0. -1.
        -11    1    3    3    0    0 -0.62453599076E+01  0.48939903098E+01  0.10270219273E+02  0.12978176517E+02  0.51100000000E-03 0.  1.
         12    1    3    3    0    0  0.34293744821E+01  0.30081118031E+01  0.42879515096E+01  0.62606608363E+01  0.00000000000E+00 0. -1.
</event>
<event>
 7    1  0.2580704E-010  0.4778727E+02  0.7816164E-02  0.1312668E+00
        -11   -1    0    0    0    0  0.00000000000E+00  0.00000000000E+00  0.45593999997E+02  0.45594000000E+02  0.51100000000E-03 0. -1.
         11   -1    0    0    0    0 -0.00000000000E+00 -0.00000000000E+00 -0.45593999997E+02  0.45594000000E+02  0.51100000000E-03 0.  1.
    9900012    2    1    2    0    0 -0.43085122613E+02  0.51521506078E+00 -0.51990348403E+01  0.47787271891E+02  0.20000003859E+02 0.  0.
         12    1    1    2    0    0  0.43085122613E+02 -0.51521506078E+00  0.51990348403E+01  0.43400728109E+02  0.00000000000E+00 0. -1.
         11    1    3    3    0    0 -0.14602524129E+02 -0.32393042356E+01  0.26453754737E+01  0.15189628518E+02  0.51100000000E-03 0. -1.
        -11    1    3    3    0    0 -0.15998717703E+02  0.61310290261E+00  0.23432915457E+01  0.16181034542E+02  0.51100000000E-03 0.  1.
        -12    1    3    3    0    0 -0.12483880781E+02  0.31414163937E+01 -0.10187701860E+02  0.16416608831E+02  0.00000000000E+00 0.  1.
</event>
<event>
 7    1  0.2580704E-010  0.4778727E+02  0.7816164E-02  0.1312668E+00
        -11   -1    0    0    0    0  0.00000000000E+00  0.00000000000E+00  0.45593999997E+02  0.45594000000E+02  0.51100000000E-03 0.  1.
         11   -1    0    0    0    0 -0.00000000000E+00 -0.00000000000E+00 -0.45593999997E+02  0.45594000000E+02  0.51100000000E-03 0. -1.
    9900012    2    1    2    0    0 -0.77885148911E+01  0.82205662499E+01  0.41897308600E+02  0.47787272569E+02  0.20000006949E+02 0.  0.
         12    1    1    2    0    0  0.77885148911E+01 -0.82205662499E+01 -0.41897308600E+02  0.43400727431E+02  0.00000000000E+00 0. -1.
         11    1    3    3    0    0  0.40711957668E+01  0.36738762057E+00  0.27259641005E+01  0.49132971795E+01  0.51100000000E-03 0. -1.
        -11    1    3    3    0    0 -0.18281465491E+00  0.52021862760E+01  0.15422229478E+02  0.16277018326E+02  0.51100000000E-03 0.  1.
         12    1    3    3    0    0 -0.11676896003E+02  0.26509923534E+01  0.23749115021E+02  0.26596957063E+02  0.00000000000E+00 0. -1.
</event>
<event>
 7    1  0.2580704E-010  0.4778727E+02  0.7816164E-02  0.1312668E+00
        -11   -1    0    0    0    0  0.00000000000E+00  0.00000000000E+00  0.45593999997E+02  0.45594000000E+02  0.51100000000E-03 0.  1.
         11   -1    0    0    0    0 -0.00000000000E+00 -0.00000000000E+00 -0.45593999997E+02  0.45594000000E+02  0.51100000000E-03 0. -1.
    9900012    2    1    2    0    0  0.19832494289E+01  0.13005153111E+02  0.41358865786E+02  0.47787273453E+02  0.20000010981E+02 0.  0.
         12    1    1    2    0    0 -0.19832494289E+01 -0.13005153111E+02 -0.41358865786E+02  0.43400726547E+02  0.00000000000E+00 0. -1.
         11    1    3    3    0    0  0.39812751528E+01 -0.70926708510E+00  0.17416661106E+02  0.17879980312E+02  0.51100000000E-03 0. -1.
        -11    1    3    3    0    0 -0.21707962725E+01  0.21259120280E+01  0.14902275795E+02  0.15208868549E+02  0.51100000000E-03 0.  1.
         12    1    3    3    0    0  0.17277054865E+00  0.11588508168E+02  0.90399288851E+01  0.14698424591E+02  0.00000000000E+00 0. -1.
</event>
<event>
 7    1  0.2580704E-010  0.4778727E+02  0.7816164E-02  0.1312668E+00
        -11   -1    0    0    0    0  0.00000000000E+00  0.00000000000E+00  0.45593999997E+02  0.45594000000E+02  0.51100000000E-03 0.  1.
         11   -1    0    0    0    0 -0.00000000000E+00 -0.00000000000E+00 -0.45593999997E+02  0.45594000000E+02  0.51100000000E-03 0. -1.
    9900012    2    1    2    0    0  0.32377218729E+02  0.21797306277E+01  0.28819919045E+02  0.47787271297E+02  0.20000001149E+02 0.  0.
         12    1    1    2    0    0 -0.32377218729E+02 -0.21797306277E+01 -0.28819919045E+02  0.43400728703E+02  0.00000000000E+00 0. -1.
         11    1    3    3    0    0  0.21581970433E+01 -0.41750773075E+01  0.49725478185E+01  0.68421719556E+01  0.51100000000E-03 0. -1.
        -11    1    3    3    0    0  0.57441744315E+01  0.42731604984E+01  0.11263141984E+02  0.13345928524E+02  0.51100000000E-03 0.  1.
         12    1    3    3    0    0  0.24474847254E+02  0.20816474368E+01  0.12584229242E+02  0.27599170817E+02  0.00000000000E+00 0. -1.
</event>
<event>
 7    1  0.2580704E-010  0.4778727E+02  0.7816164E-02  0.1312668E+00
        -11   -1    0    0    0    0  0.00000000000E+00  0.00000000000E+00  0.45593999997E+02  0.45594000000E+02  0.51100000000E-03 0.  1.
         11   -1    0    0    0    0 -0.00000000000E+00 -0.00000000000E+00 -0.45593999997E+02  0.45594000000E+02  0.51100000000E-03 0. -1.
    9900012    2    1    2    0    0  0.18103273350E+02 -0.16210490274E+02  0.35959905800E+02  0.47787270443E+02  0.19999997258E+02 0.  0.
         12    1    1    2    0    0 -0.18103273350E+02  0.16210490274E+02 -0.35959905800E+02  0.43400729557E+02  0.00000000000E+00 0. -1.
         11    1    3    3    0    0  0.57562093861E+01 -0.11654474641E+01  0.16302595900E+02  0.17328209591E+02  0.51100000000E-03 0.  1.
        -11    1    3    3    0    0 -0.17639368492E+01 -0.50092121026E+01  0.79362189766E+01  0.95492015898E+01  0.51100000000E-03 0. -1.
         12    1    3    3    0    0  0.14111000813E+02 -0.10035830708E+02  0.11721090924E+02  0.20909859262E+02  0.00000000000E+00 0. -1.
</event>
<event>
 7    1  0.2580704E-010  0.4778727E+02  0.7816164E-02  0.1312668E+00
        -11   -1    0    0    0    0  0.00000000000E+00  0.00000000000E+00  0.45593999997E+02  0.45594000000E+02  0.51100000000E-03 0.  1.
         11   -1    0    0    0    0 -0.00000000000E+00 -0.00000000000E+00 -0.45593999997E+02  0.45594000000E+02  0.51100000000E-03 0. -1.
    9900012    2    1    2    0    0 -0.49416878932E+01  0.25745146539E+02  0.34588883037E+02  0.47787266373E+02  0.19999978703E+02 0.  0.
         12    1    1    2    0    0  0.49416878932E+01 -0.25745146539E+02 -0.34588883037E+02  0.43400733627E+02  0.00000000000E+00 0. -1.
         11    1    3    3    0    0 -0.28297137522E+01 -0.15999567640E+01  0.51944108246E+01  0.61277276083E+01  0.51100000000E-03 0. -1.
        -11    1    3    3    0    0 -0.44648316604E+00  0.30009960436E+01 -0.49559362248E+00  0.30742377544E+01  0.51100000000E-03 0.  1.
        -12    1    3    3    0    0 -0.16654909750E+01  0.24344107260E+02  0.29890065835E+02  0.38585301011E+02  0.00000000000E+00 0.  1.
</event>
<event>
 7    1  0.2580704E-010  0.4778727E+02  0.7816164E-02  0.1312668E+00
        -11   -1    0    0    0    0  0.00000000000E+00  0.00000000000E+00  0.45593999997E+02  0.45594000000E+02  0.51100000000E-03 0. -1.
         11   -1    0    0    0    0 -0.00000000000E+00 -0.00000000000E+00 -0.45593999997E+02  0.45594000000E+02  0.51100000000E-03 0.  1.
    9900012    2    1    2    0    0  0.33101539920E+02 -0.15289600897E+02  0.23540169245E+02  0.47787269491E+02  0.19999992916E+02 0.  0.
         12    1    1    2    0    0 -0.33101539920E+02  0.15289600897E+02 -0.23540169245E+02  0.43400730509E+02  0.00000000000E+00 0. -1.
         11    1    3    3    0    0  0.13367281946E+02 -0.63297291511E+01  0.25311474581E+01  0.15005212609E+02  0.51100000000E-03 0. -1.
        -11    1    3    3    0    0  0.13294022457E+02  0.88626077096E-03  0.72430879132E+01  0.15139133286E+02  0.51100000000E-03 0.  1.
         12    1    3    3    0    0  0.64402355177E+01 -0.89607580067E+01  0.13765933874E+02  0.17642923596E+02  0.00000000000E+00 0. -1.
</event>
<event>
 7    1  0.2580704E-010  0.4778730E+02  0.7816164E-02  0.1312668E+00
        -11   -1    0    0    0    0  0.00000000000E+00  0.00000000000E+00  0.45593999997E+02  0.45594000000E+02  0.51100000000E-03 0.  1.
         11   -1    0    0    0    0 -0.00000000000E+00 -0.00000000000E+00 -0.45593999997E+02  0.45594000000E+02  0.51100000000E-03 0. -1.
    9900012    2    1    2    0    0  0.18370714556E+02  0.10965392473E+02  0.37761066997E+02  0.47787295327E+02  0.20000110712E+02 0.  0.
         12    1    1    2    0    0 -0.18370714556E+02 -0.10965392473E+02 -0.37761066997E+02  0.43400704673E+02  0.00000000000E+00 0. -1.
         11    1    3    3    0    0  0.21883492077E+02  0.77925987346E+01  0.32517966229E+02  0.39962857110E+02  0.51100000000E-03 0.  1.
        -11    1    3    3    0    0 -0.46541348291E-01  0.22088002792E+01  0.19309233024E+01  0.29341829921E+01  0.51100000000E-03 0. -1.
        -12    1    3    3    0    0 -0.34662361723E+01  0.96399345964E+00  0.33121774659E+01  0.48902552242E+01  0.00000000000E+00 0.  1.
</event>
<event>
 7    1  0.2580704E-010  0.4778727E+02  0.7816164E-02  0.1312668E+00
        -11   -1    0    0    0    0  0.00000000000E+00  0.00000000000E+00  0.45593999997E+02  0.45594000000E+02  0.51100000000E-03 0. -1.
         11   -1    0    0    0    0 -0.00000000000E+00 -0.00000000000E+00 -0.45593999997E+02  0.45594000000E+02  0.51100000000E-03 0.  1.
    9900012    2    1    2    0    0 -0.23877657530E+02 -0.20496468646E+02 -0.29889387976E+02  0.47787271093E+02  0.20000000222E+02 0.  0.
         12    1    1    2    0    0  0.23877657530E+02  0.20496468646E+02  0.29889387976E+02  0.43400728907E+02  0.00000000000E+00 0. -1.
         11    1    3    3    0    0 -0.23308100461E+01 -0.36249241477E+01 -0.74056422680E+01  0.85683305381E+01  0.51100000000E-03 0. -1.
        -11    1    3    3    0    0 -0.96033721217E+01 -0.17076129051E+02 -0.17523345124E+02  0.26284721115E+02  0.51100000000E-03 0.  1.
         12    1    3    3    0    0 -0.11943475363E+02  0.20458455312E+00 -0.49604005831E+01  0.12934219440E+02  0.00000000000E+00 0. -1.
</event>
<event>
 7    1  0.3602483E-010  0.4778726E+02  0.7816164E-02  0.1312668E+00
        -11   -1    0    0    0    0  0.00000000000E+00  0.00000000000E+00  0.45593999997E+02  0.45594000000E+02  0.51100000000E-03 0.  1.
         11   -1    0    0    0    0 -0.00000000000E+00 -0.00000000000E+00 -0.45593999997E+02  0.45594000000E+02  0.51100000000E-03 0. -1.
    9900012    2    1    2    0    0  0.22996492210E+02  0.27925539830E+02  0.23978105951E+02  0.47787262751E+02  0.19999962186E+02 0.  0.
         12    1    1    2    0    0 -0.22996492210E+02 -0.27925539830E+02 -0.23978105951E+02  0.43400737249E+02  0.00000000000E+00 0. -1.
         11    1    3    3    0    0  0.30509097210E+01  0.33355679912E+00 -0.15403537999E+01  0.34339482166E+01  0.51100000000E-03 0. -1.
        -11    1    3    3    0    0  0.16563271008E+02  0.17300322299E+02  0.11312441222E+02  0.26488005300E+02  0.51100000000E-03 0.  1.
        -12    1    3    3    0    0  0.33823114815E+01  0.10291660732E+02  0.14206018529E+02  0.17865309234E+02  0.00000000000E+00 0.  1.
</event>
<event>
 7    1  0.2580704E-010  0.4778726E+02  0.7816164E-02  0.1312668E+00
        -11   -1    0    0    0    0  0.00000000000E+00  0.00000000000E+00  0.45593999997E+02  0.45594000000E+02  0.51100000000E-03 0.  1.
         11   -1    0    0    0    0 -0.00000000000E+00 -0.00000000000E+00 -0.45593999997E+02  0.45594000000E+02  0.51100000000E-03 0. -1.
    9900012    2    1    2    0    0  0.40164475810E+02 -0.73603781253E+01  0.14705904869E+02  0.47787263586E+02  0.19999965994E+02 0.  0.
         12    1    1    2    0    0 -0.40164475810E+02  0.73603781253E+01 -0.14705904869E+02  0.43400736414E+02  0.00000000000E+00 0. -1.
         11    1    3    3    0    0  0.99571263961E+01 -0.71525212748E+01  0.42801837371E+01  0.12985488044E+02  0.51100000000E-03 0. -1.
        -11    1    3    3    0    0  0.46924764342E+01 -0.14125192985E+01 -0.31987525682E+01  0.58520564000E+01  0.51100000000E-03 0.  1.
        -12    1    3    3    0    0  0.25514872980E+02  0.12046624480E+01  0.13624473700E+02  0.28949719142E+02  0.00000000000E+00 0.  1.
</event>
<event>
 7    1  0.2580704E-010  0.4778727E+02  0.7816164E-02  0.1312668E+00
        -11   -1    0    0    0    0  0.00000000000E+00  0.00000000000E+00  0.45593999997E+02  0.45594000000E+02  0.51100000000E-03 0.  1.
         11   -1    0    0    0    0 -0.00000000000E+00 -0.00000000000E+00 -0.45593999997E+02  0.45594000000E+02  0.51100000000E-03 0. -1.
    9900012    2    1    2    0    0  0.41668066089E+02  0.85805988998E+01  0.85888872060E+01  0.47787269678E+02  0.19999993770E+02 0.  0.
         12    1    1    2    0    0 -0.41668066089E+02 -0.85805988998E+01 -0.85888872060E+01  0.43400730322E+02  0.00000000000E+00 0. -1.
         11    1    3    3    0    0  0.29097805837E+01 -0.28349716492E+00 -0.14077192096E+01  0.32448216164E+01  0.51100000000E-03 0. -1.
        -11    1    3    3    0    0  0.35220934164E+02  0.64859872228E+01  0.24769004377E+01  0.35898708468E+02  0.51100000000E-03 0.  1.
        -12    1    3    3    0    0  0.35373513413E+01  0.23781088419E+01  0.75197059779E+01  0.86437395940E+01  0.00000000000E+00 0.  1.
</event>
<event>
 7    1  0.2580704E-010  0.4778727E+02  0.7816164E-02  0.1312668E+00
        -11   -1    0    0    0    0  0.00000000000E+00  0.00000000000E+00  0.45593999997E+02  0.45594000000E+02  0.51100000000E-03 0.  1.
         11   -1    0    0    0    0 -0.00000000000E+00 -0.00000000000E+00 -0.45593999997E+02  0.45594000000E+02  0.51100000000E-03 0. -1.
    9900012    2    1    2    0    0 -0.11444228041E+02  0.40812084081E+02  0.93288073382E+01  0.47787271794E+02  0.20000003417E+02 0.  0.
         12    1    1    2    0    0  0.11444228041E+02 -0.40812084081E+02 -0.93288073382E+01  0.43400728206E+02  0.00000000000E+00 0. -1.
         11    1    3    3    0    0  0.13458424705E+00  0.22305467209E+01 -0.13273489052E+01  0.25990973377E+01  0.51100000000E-03 0. -1.
        -11    1    3    3    0    0 -0.30226888537E+01  0.26078087893E+02 -0.68708021439E+00  0.26261671606E+02  0.51100000000E-03 0.  1.
         12    1    3    3    0    0 -0.85561234346E+01  0.12503449466E+02  0.11343236458E+02  0.18926502850E+02  0.00000000000E+00 0. -1.
</event>
<event>
 7    1  0.2580704E-010  0.4778727E+02  0.7816164E-02  0.1312668E+00
        -11   -1    0    0    0    0  0.00000000000E+00  0.00000000000E+00  0.45593999997E+02  0.45594000000E+02  0.51100000000E-03 0. -1.
         11   -1    0    0    0    0 -0.00000000000E+00 -0.00000000000E+00 -0.45593999997E+02  0.45594000000E+02  0.51100000000E-03 0.  1.
    9900012    2    1    2    0    0  0.28870140404E+02  0.26394368459E+02 -0.18800948461E+02  0.47787270094E+02  0.19999995668E+02 0.  0.
         12    1    1    2    0    0 -0.28870140404E+02 -0.26394368459E+02  0.18800948461E+02  0.43400729906E+02  0.00000000000E+00 0. -1.
         11    1    3    3    0    0 -0.94182961185E+00  0.40609366041E+01 -0.32905606341E+01  0.53109357620E+01  0.51100000000E-03 0. -1.
        -11    1    3    3    0    0  0.79548576741E+01  0.12851202105E+02 -0.96795330201E+01  0.17947883326E+02  0.51100000000E-03 0.  1.
        -12    1    3    3    0    0  0.21857112342E+02  0.94822297507E+01 -0.58308548065E+01  0.24528451006E+02  0.00000000000E+00 0.  1.
</event>
<event>
 7    1  0.2580704E-010  0.4778728E+02  0.7816164E-02  0.1312668E+00
        -11   -1    0    0    0    0  0.00000000000E+00  0.00000000000E+00  0.45593999997E+02  0.45594000000E+02  0.51100000000E-03 0. -1.
         11   -1    0    0    0    0 -0.00000000000E+00 -0.00000000000E+00 -0.45593999997E+02  0.45594000000E+02  0.51100000000E-03 0.  1.
    9900012    2    1    2    0    0  0.40100287327E+02 -0.39444474355E+01 -0.16125459099E+02  0.47787284102E+02  0.20000059535E+02 0.  0.
         12    1    1    2    0    0 -0.40100287327E+02  0.39444474355E+01  0.16125459099E+02  0.43400715898E+02  0.00000000000E+00 0. -1.
         11    1    3    3    0    0  0.25650497787E+02 -0.40437335422E+01 -0.77759457803E+01  0.27106551804E+02  0.51100000000E-03 0. -1.
        -11    1    3    3    0    0  0.16099701461E+02  0.19605883275E+01 -0.82380793833E+01  0.18190938566E+02  0.51100000000E-03 0.  1.
         12    1    3    3    0    0 -0.16499119209E+01 -0.18613022209E+01 -0.11143393580E+00  0.24897937317E+01  0.00000000000E+00 0. -1.
</event>
<event>
 7    1  0.2580704E-010  0.4778727E+02  0.7816164E-02  0.1312668E+00
        -11   -1    0    0    0    0  0.00000000000E+00  0.00000000000E+00  0.45593999997E+02  0.45594000000E+02  0.51100000000E-03 0. -1.
         11   -1    0    0    0    0 -0.00000000000E+00 -0.00000000000E+00 -0.45593999997E+02  0.45594000000E+02  0.51100000000E-03 0.  1.
    9900012    2    1    2    0    0 -0.43092342838E+02  0.36804690393E+00  0.51514919242E+01  0.47787270296E+02  0.19999996587E+02 0.  0.
         12    1    1    2    0    0  0.43092342838E+02 -0.36804690393E+00 -0.51514919242E+01  0.43400729704E+02  0.00000000000E+00 0. -1.
         11    1    3    3    0    0 -0.64545763024E+01 -0.64941841915E+01  0.15489236710E-01  0.91562123028E+01  0.51100000000E-03 0. -1.
        -11    1    3    3    0    0 -0.10235904252E+02  0.23770965072E+01 -0.24641864499E+01  0.10793356234E+02  0.51100000000E-03 0.  1.
        -12    1    3    3    0    0 -0.26401862283E+02  0.44851345882E+01  0.76001891374E+01  0.27837701759E+02  0.00000000000E+00 0.  1.
</event>
<event>
 7    1  0.2580704E-010  0.4778726E+02  0.7816164E-02  0.1312668E+00
        -11   -1    0    0    0    0  0.00000000000E+00  0.00000000000E+00  0.45593999997E+02  0.45594000000E+02  0.51100000000E-03 0.  1.
         11   -1    0    0    0    0 -0.00000000000E+00 -0.00000000000E+00 -0.45593999997E+02  0.45594000000E+02  0.51100000000E-03 0. -1.
    9900012    2    1    2    0    0 -0.89878817424E+01  0.29586353676E+02  0.30454714031E+02  0.47787263269E+02  0.19999964550E+02 0.  0.
         12    1    1    2    0    0  0.89878817424E+01 -0.29586353676E+02 -0.30454714031E+02  0.43400736731E+02  0.00000000000E+00 0. -1.
         11    1    3    3    0    0 -0.13516874851E+00  0.25419838517E+01  0.66615855741E+01  0.71313866194E+01  0.51100000000E-03 0. -1.
        -11    1    3    3    0    0  0.42985124130E+01  0.21588152484E+01  0.31339952192E+01  0.57410468154E+01  0.51100000000E-03 0.  1.
         12    1    3    3    0    0 -0.13151225407E+02  0.24885554575E+02  0.20659133238E+02  0.34914829835E+02  0.00000000000E+00 0. -1.
</event>
<event>
 7    1  0.2580704E-010  0.4778727E+02  0.7816164E-02  0.1312668E+00
        -11   -1    0    0    0    0  0.00000000000E+00  0.00000000000E+00  0.45593999997E+02  0.45594000000E+02  0.51100000000E-03 0. -1.
         11   -1    0    0    0    0 -0.00000000000E+00 -0.00000000000E+00 -0.45593999997E+02  0.45594000000E+02  0.51100000000E-03 0.  1.
    9900012    2    1    2    0    0 -0.57027221964E+00  0.39838295733E+02 -0.17210700492E+02  0.47787271564E+02  0.20000002370E+02 0.  0.
         12    1    1    2    0    0  0.57027221964E+00 -0.39838295733E+02  0.17210700492E+02  0.43400728436E+02  0.00000000000E+00 0. -1.
         11    1    3    3    0    0 -0.22321859307E+01  0.11108137505E+02 -0.73070597366E+01  0.13482080519E+02  0.51100000000E-03 0. -1.
        -11    1    3    3    0    0 -0.61939832654E+01  0.14834536214E+02 -0.11913011743E+01  0.16119804345E+02  0.51100000000E-03 0.  1.
         12    1    3    3    0    0  0.78558969765E+01  0.13895622015E+02 -0.87123395811E+01  0.18185386701E+02  0.00000000000E+00 0. -1.
</event>
<event>
 7    1  0.2580704E-010  0.4778727E+02  0.7816164E-02  0.1312668E+00
        -11   -1    0    0    0    0  0.00000000000E+00  0.00000000000E+00  0.45593999997E+02  0.45594000000E+02  0.51100000000E-03 0. -1.
         11   -1    0    0    0    0 -0.00000000000E+00 -0.00000000000E+00 -0.45593999997E+02  0.45594000000E+02  0.51100000000E-03 0.  1.
    9900012    2    1    2    0    0 -0.92218690621E+01  0.40808059780E+02 -0.11544826995E+02  0.47787266799E+02  0.19999980644E+02 0.  0.
         12    1    1    2    0    0  0.92218690621E+01 -0.40808059780E+02  0.11544826995E+02  0.43400733201E+02  0.00000000000E+00 0. -1.
         11    1    3    3    0    0 -0.96556136498E+01  0.86180460980E+01 -0.55415234806E-02  0.12942241864E+02  0.51100000000E-03 0. -1.
        -11    1    3    3    0    0 -0.29526030397E+01  0.10367520185E+02 -0.42882949400E+01  0.11601414278E+02  0.51100000000E-03 0.  1.
        -12    1    3    3    0    0  0.33863476274E+01  0.21822493498E+02 -0.72509905315E+01  0.23243610657E+02  0.00000000000E+00 0.  1.
</event>
<event>
 7    1  0.2580704E-010  0.4778727E+02  0.7816164E-02  0.1312668E+00
        -11   -1    0    0    0    0  0.00000000000E+00  0.00000000000E+00  0.45593999997E+02  0.45594000000E+02  0.51100000000E-03 0.  1.
         11   -1    0    0    0    0 -0.00000000000E+00 -0.00000000000E+00 -0.45593999997E+02  0.45594000000E+02  0.51100000000E-03 0. -1.
    9900012    2    1    2    0    0 -0.26742144561E+02 -0.46524125533E+01  0.33864966370E+02  0.47787272062E+02  0.20000004641E+02 0.  0.
         12    1    1    2    0    0  0.26742144561E+02  0.46524125533E+01 -0.33864966370E+02  0.43400727938E+02  0.00000000000E+00 0. -1.
         11    1    3    3    0    0 -0.55379959339E+01 -0.59600899413E+01  0.13460429066E+02  0.15728166516E+02  0.51100000000E-03 0. -1.
        -11    1    3    3    0    0  0.35988332958E+00 -0.15125502832E+01 -0.74429183298E+00  0.17237444601E+01  0.51100000000E-03 0.  1.
        -12    1    3    3    0    0 -0.21564031957E+02  0.28202276712E+01  0.21148829137E+02  0.30335361086E+02  0.00000000000E+00 0.  1.
</event>
<event>
 7    1  0.2580704E-010  0.4778727E+02  0.7816164E-02  0.1312668E+00
        -11   -1    0    0    0    0  0.00000000000E+00  0.00000000000E+00  0.45593999997E+02  0.45594000000E+02  0.51100000000E-03 0.  1.
         11   -1    0    0    0    0 -0.00000000000E+00 -0.00000000000E+00 -0.45593999997E+02  0.45594000000E+02  0.51100000000E-03 0. -1.
    9900012    2    1    2    0    0  0.32859637354E+02 -0.10895724230E+02  0.26175387734E+02  0.47787268479E+02  0.19999988304E+02 0.  0.
         12    1    1    2    0    0 -0.32859637354E+02  0.10895724230E+02 -0.26175387734E+02  0.43400731521E+02  0.00000000000E+00 0. -1.
         11    1    3    3    0    0  0.29956370449E+01 -0.31371493286E+01  0.34198754398E+01  0.55236849566E+01  0.51100000000E-03 0. -1.
        -11    1    3    3    0    0  0.89158275586E+01 -0.69605979807E+00  0.17329150285E+02  0.19500664865E+02  0.51100000000E-03 0.  1.
        -12    1    3    3    0    0  0.20948172751E+02 -0.70625151029E+01  0.54263620088E+01  0.22762918658E+02  0.00000000000E+00 0.  1.
</event>
<event>
 7    1  0.2580704E-010  0.4778727E+02  0.7816164E-02  0.1312668E+00
        -11   -1    0    0    0    0  0.00000000000E+00  0.00000000000E+00  0.45593999997E+02  0.45594000000E+02  0.51100000000E-03 0.  1.
         11   -1    0    0    0    0 -0.00000000000E+00 -0.00000000000E+00 -0.45593999997E+02  0.45594000000E+02  0.51100000000E-03 0. -1.
    9900012    2    1    2    0    0 -0.36422870727E+02  0.17149460797E+02  0.16213996309E+02  0.47787271966E+02  0.20000004201E+02 0.  0.
         12    1    1    2    0    0  0.36422870727E+02 -0.17149460797E+02 -0.16213996309E+02  0.43400728034E+02  0.00000000000E+00 0. -1.
         11    1    3    3    0    0 -0.52401848285E+01 -0.18352883593E+01 -0.10071752151E+01  0.56428913310E+01  0.51100000000E-03 0. -1.
        -11    1    3    3    0    0 -0.15183808583E+01 -0.16110246896E+01  0.18934018894E+01  0.29130485676E+01  0.51100000000E-03 0.  1.
        -12    1    3    3    0    0 -0.29664305040E+02  0.20595773845E+02  0.15327769635E+02  0.39231332067E+02  0.00000000000E+00 0.  1.
</event>
<event>
 7    1  0.2580704E-010  0.4778725E+02  0.7816164E-02  0.1312668E+00
        -11   -1    0    0    0    0  0.00000000000E+00  0.00000000000E+00  0.45593999997E+02  0.45594000000E+02  0.51100000000E-03 0.  1.
         11   -1    0    0    0    0 -0.00000000000E+00 -0.00000000000E+00 -0.45593999997E+02  0.45594000000E+02  0.51100000000E-03 0. -1.
    9900012    2    1    2    0    0  0.17927648759E+01  0.21626668371E+02  0.37585878744E+02  0.47787250333E+02  0.19999905566E+02 0.  0.
         12    1    1    2    0    0 -0.17927648759E+01 -0.21626668371E+02 -0.37585878744E+02  0.43400749667E+02  0.00000000000E+00 0. -1.
         11    1    3    3    0    0  0.10033899059E+01  0.18618250159E+01  0.14731706130E+01  0.25774824168E+01  0.51100000000E-03 0. -1.
        -11    1    3    3    0    0  0.87081945191E+01  0.65115132843E+01  0.20768423863E+02  0.23442693681E+02  0.51100000000E-03 0.  1.
        -12    1    3    3    0    0 -0.79188195491E+01  0.13253330071E+02  0.15344284269E+02  0.21767074234E+02  0.00000000000E+00 0.  1.
</event>
<event>
 7    1  0.2580704E-010  0.4778726E+02  0.7816164E-02  0.1312668E+00
        -11   -1    0    0    0    0  0.00000000000E+00  0.00000000000E+00  0.45593999997E+02  0.45594000000E+02  0.51100000000E-03 0.  1.
         11   -1    0    0    0    0 -0.00000000000E+00 -0.00000000000E+00 -0.45593999997E+02  0.45594000000E+02  0.51100000000E-03 0. -1.
    9900012    2    1    2    0    0  0.47912002724E+01 -0.42501371681E+01  0.42925572860E+02  0.47787261857E+02  0.19999958110E+02 0.  0.
         12    1    1    2    0    0 -0.47912002724E+01  0.42501371681E+01 -0.42925572860E+02  0.43400738143E+02  0.00000000000E+00 0. -1.
         11    1    3    3    0    0  0.29301081750E+01  0.32703956534E+01  0.19414736368E+01  0.48010771490E+01  0.51100000000E-03 0. -1.
        -11    1    3    3    0    0  0.30903900964E+01  0.17243827727E+01  0.13809211067E+02  0.14255466231E+02  0.51100000000E-03 0.  1.
         12    1    3    3    0    0 -0.12292979991E+01 -0.92449155941E+01  0.27174888156E+02  0.28730718477E+02  0.00000000000E+00 0. -1.
</event>
<event>
 7    1  0.2580704E-010  0.4778727E+02  0.7816164E-02  0.1312668E+00
        -11   -1    0    0    0    0  0.00000000000E+00  0.00000000000E+00  0.45593999997E+02  0.45594000000E+02  0.51100000000E-03 0.  1.
         11   -1    0    0    0    0 -0.00000000000E+00 -0.00000000000E+00 -0.45593999997E+02  0.45594000000E+02  0.51100000000E-03 0. -1.
    9900012    2    1    2    0    0 -0.35097132040E+02  0.25404614566E+02 -0.25338242437E+01  0.47787269776E+02  0.19999994218E+02 0.  0.
         12    1    1    2    0    0  0.35097132040E+02 -0.25404614566E+02  0.25338242437E+01  0.43400730224E+02  0.00000000000E+00 0. -1.
         11    1    3    3    0    0 -0.89080609247E+01  0.43415403068E+01  0.54706159623E+01  0.11319459393E+02  0.51100000000E-03 0. -1.
        -11    1    3    3    0    0 -0.12171078776E+02  0.58436341657E+01  0.17106078449E+01  0.13609165966E+02  0.51100000000E-03 0.  1.
        -12    1    3    3    0    0 -0.14017992339E+02  0.15219440093E+02 -0.97150480509E+01  0.22858644417E+02  0.00000000000E+00 0.  1.
</event>
<event>
 7    1  0.2580704E-010  0.4778727E+02  0.7816164E-02  0.1312668E+00
        -11   -1    0    0    0    0  0.00000000000E+00  0.00000000000E+00  0.45593999997E+02  0.45594000000E+02  0.51100000000E-03 0.  1.
         11   -1    0    0    0    0 -0.00000000000E+00 -0.00000000000E+00 -0.45593999997E+02  0.45594000000E+02  0.51100000000E-03 0. -1.
    9900012    2    1    2    0    0 -0.15445906483E+02  0.98640534484E+01  0.39341425046E+02  0.47787270718E+02  0.19999998513E+02 0.  0.
         12    1    1    2    0    0  0.15445906483E+02 -0.98640534484E+01 -0.39341425046E+02  0.43400729282E+02  0.00000000000E+00 0. -1.
         11    1    3    3    0    0  0.20877323821E+01  0.35553421976E+01  0.24535232221E+00  0.41302884481E+01  0.51100000000E-03 0. -1.
        -11    1    3    3    0    0 -0.35391361395E+01  0.37841432833E+01  0.94674282005E+01  0.10792470616E+02  0.51100000000E-03 0.  1.
        -12    1    3    3    0    0 -0.13994502726E+02  0.25245679675E+01  0.29628644523E+02  0.32864511654E+02  0.00000000000E+00 0.  1.
</event>
<event>
 7    1  0.2580704E-010  0.4778727E+02  0.7816164E-02  0.1312668E+00
        -11   -1    0    0    0    0  0.00000000000E+00  0.00000000000E+00  0.45593999997E+02  0.45594000000E+02  0.51100000000E-03 0.  1.
         11   -1    0    0    0    0 -0.00000000000E+00 -0.00000000000E+00 -0.45593999997E+02  0.45594000000E+02  0.51100000000E-03 0. -1.
    9900012    2    1    2    0    0  0.81686438606E+01 -0.16468966717E+02  0.39315007374E+02  0.47787269453E+02  0.19999992743E+02 0.  0.
         12    1    1    2    0    0 -0.81686438606E+01  0.16468966717E+02 -0.39315007374E+02  0.43400730547E+02  0.00000000000E+00 0. -1.
         11    1    3    3    0    0  0.61242397492E+01 -0.10181609496E+02  0.55939893985E+01  0.13132562663E+02  0.51100000000E-03 0. -1.
        -11    1    3    3    0    0 -0.89362558757E+00 -0.27980266396E+01  0.77863881092E+01  0.83219805224E+01  0.51100000000E-03 0.  1.
        -12    1    3    3    0    0  0.29380296989E+01 -0.34893305816E+01  0.25934629866E+02  0.26332726268E+02  0.00000000000E+00 0.  1.
</event>
<event>
 7    1  0.2580704E-010  0.4778727E+02  0.7816164E-02  0.1312668E+00
        -11   -1    0    0    0    0  0.00000000000E+00  0.00000000000E+00  0.45593999997E+02  0.45594000000E+02  0.51100000000E-03 0.  1.
         11   -1    0    0    0    0 -0.00000000000E+00 -0.00000000000E+00 -0.45593999997E+02  0.45594000000E+02  0.51100000000E-03 0. -1.
    9900012    2    1    2    0    0 -0.28189592126E+01 -0.12739201597E-01  0.43309082439E+02  0.47787270570E+02  0.19999997839E+02 0.  0.
         12    1    1    2    0    0  0.28189592126E+01  0.12739201597E-01 -0.43309082439E+02  0.43400729430E+02  0.00000000000E+00 0. -1.
         11    1    3    3    0    0 -0.80064881897E+00 -0.30114508556E+01 -0.47438200333E+00  0.31519697545E+01  0.51100000000E-03 0. -1.
        -11    1    3    3    0    0  0.29174144341E+01  0.41454183740E+00  0.11320296516E+02  0.11697532449E+02  0.51100000000E-03 0.  1.
         12    1    3    3    0    0 -0.49357248277E+01  0.25841698166E+01  0.32463167926E+02  0.32937768367E+02  0.00000000000E+00 0. -1.
</event>
<event>
 7    1  0.2580704E-010  0.4778727E+02  0.7816164E-02  0.1312668E+00
        -11   -1    0    0    0    0  0.00000000000E+00  0.00000000000E+00  0.45593999997E+02  0.45594000000E+02  0.51100000000E-03 0.  1.
         11   -1    0    0    0    0 -0.00000000000E+00 -0.00000000000E+00 -0.45593999997E+02  0.45594000000E+02  0.51100000000E-03 0. -1.
    9900012    2    1    2    0    0  0.44629199394E+01 -0.11280120089E+02  0.41670904746E+02  0.47787273439E+02  0.20000010920E+02 0.  0.
         12    1    1    2    0    0 -0.44629199394E+01  0.11280120089E+02 -0.41670904746E+02  0.43400726561E+02  0.00000000000E+00 0. -1.
         11    1    3    3    0    0  0.51930660128E+01  0.22190605603E+01  0.19874953218E+02  0.20661702013E+02  0.51100000000E-03 0. -1.
        -11    1    3    3    0    0  0.22269394385E+01 -0.13759731770E+01  0.86468593513E+00  0.27568539087E+01  0.51100000000E-03 0.  1.
        -12    1    3    3    0    0 -0.29570855118E+01 -0.12123207473E+02  0.20931265593E+02  0.24368717518E+02  0.00000000000E+00 0.  1.
</event>
<event>
 7    1  0.2580704E-010  0.4778727E+02  0.7816164E-02  0.1312668E+00
        -11   -1    0    0    0    0  0.00000000000E+00  0.00000000000E+00  0.45593999997E+02  0.45594000000E+02  0.51100000000E-03 0.  1.
         11   -1    0    0    0    0 -0.00000000000E+00 -0.00000000000E+00 -0.45593999997E+02  0.45594000000E+02  0.51100000000E-03 0. -1.
    9900012    2    1    2    0    0  0.16489048955E+02 -0.36345165315E+02  0.17051790412E+02  0.47787270358E+02  0.19999996868E+02 0.  0.
         12    1    1    2    0    0 -0.16489048955E+02  0.36345165315E+02 -0.17051790412E+02  0.43400729642E+02  0.00000000000E+00 0. -1.
         11    1    3    3    0    0  0.49388385277E+01 -0.40407901007E+01  0.40879945465E+01  0.75783778155E+01  0.51100000000E-03 0.  1.
        -11    1    3    3    0    0  0.81980158140E+00 -0.76389839874E+01 -0.37412142452E+01  0.85453399747E+01  0.51100000000E-03 0. -1.
        -12    1    3    3    0    0  0.10730408846E+02 -0.24665391227E+02  0.16705010111E+02  0.31663552567E+02  0.00000000000E+00 0.  1.
</event>
<event>
 7    1  0.2895710E-010  0.4778727E+02  0.7816164E-02  0.1312668E+00
        -11   -1    0    0    0    0  0.00000000000E+00  0.00000000000E+00  0.45593999997E+02  0.45594000000E+02  0.51100000000E-03 0.  1.
         11   -1    0    0    0    0 -0.00000000000E+00 -0.00000000000E+00 -0.45593999997E+02  0.45594000000E+02  0.51100000000E-03 0. -1.
    9900012    2    1    2    0    0 -0.36179603039E+02  0.17318887690E+02 -0.16574555315E+02  0.47787269237E+02  0.19999991759E+02 0.  0.
         12    1    1    2    0    0  0.36179603039E+02 -0.17318887690E+02  0.16574555315E+02  0.43400730763E+02  0.00000000000E+00 0. -1.
         11    1    3    3    0    0 -0.25966241935E+01  0.25857722642E+01 -0.78240092545E+01  0.86396641417E+01  0.51100000000E-03 0. -1.
        -11    1    3    3    0    0 -0.11187315428E+02 -0.22534159722E+00 -0.33431114532E+01  0.11678321788E+02  0.51100000000E-03 0.  1.
        -12    1    3    3    0    0 -0.22395663417E+02  0.14958457023E+02 -0.54074346077E+01  0.27469283308E+02  0.00000000000E+00 0.  1.
</event>
<event>
 7    1  0.2580704E-010  0.4778728E+02  0.7816164E-02  0.1312668E+00
        -11   -1    0    0    0    0  0.00000000000E+00  0.00000000000E+00  0.45593999997E+02  0.45594000000E+02  0.51100000000E-03 0. -1.
         11   -1    0    0    0    0 -0.00000000000E+00 -0.00000000000E+00 -0.45593999997E+02  0.45594000000E+02  0.51100000000E-03 0.  1.
    9900012    2    1    2    0    0 -0.30784633307E+01 -0.40851562501E+02  0.14328129881E+02  0.47787281099E+02  0.20000045842E+02 0.  0.
         12    1    1    2    0    0  0.30784633307E+01  0.40851562501E+02 -0.14328129881E+02  0.43400718901E+02  0.00000000000E+00 0. -1.
         11    1    3    3    0    0  0.16916037649E+01 -0.94439353905E+01  0.45054525162E+01  0.10599459495E+02  0.51100000000E-03 0. -1.
        -11    1    3    3    0    0 -0.95776000737E+01 -0.25574711641E+02  0.39027374630E+01  0.27586729757E+02  0.51100000000E-03 0.  1.
        -12    1    3    3    0    0  0.48075329781E+01 -0.58329154692E+01  0.59199399017E+01  0.96010918465E+01  0.00000000000E+00 0.  1.
</event>
<event>
 7    1  0.2580704E-010  0.4778726E+02  0.7816164E-02  0.1312668E+00
        -11   -1    0    0    0    0  0.00000000000E+00  0.00000000000E+00  0.45593999997E+02  0.45594000000E+02  0.51100000000E-03 0.  1.
         11   -1    0    0    0    0 -0.00000000000E+00 -0.00000000000E+00 -0.45593999997E+02  0.45594000000E+02  0.51100000000E-03 0. -1.
    9900012    2    1    2    0    0 -0.78081537133E+01 -0.40019539537E+02 -0.14869212314E+02  0.47787259407E+02  0.19999946941E+02 0.  0.
         12    1    1    2    0    0  0.78081537133E+01  0.40019539537E+02  0.14869212314E+02  0.43400740593E+02  0.00000000000E+00 0. -1.
         11    1    3    3    0    0 -0.58581008779E+01 -0.12018800998E+02 -0.46335232187E+01  0.14150563982E+02  0.51100000000E-03 0. -1.
        -11    1    3    3    0    0 -0.75477548128E+01 -0.23273498952E+02 -0.95987698114E+01  0.26282327491E+02  0.51100000000E-03 0.  1.
         12    1    3    3    0    0  0.55977019774E+01 -0.47272395870E+01 -0.63691928351E+00  0.73543679344E+01  0.00000000000E+00 0. -1.
</event>
<event>
 7    1  0.2580704E-010  0.4778727E+02  0.7816164E-02  0.1312668E+00
        -11   -1    0    0    0    0  0.00000000000E+00  0.00000000000E+00  0.45593999997E+02  0.45594000000E+02  0.51100000000E-03 0. -1.
         11   -1    0    0    0    0 -0.00000000000E+00 -0.00000000000E+00 -0.45593999997E+02  0.45594000000E+02  0.51100000000E-03 0.  1.
    9900012    2    1    2    0    0  0.27474757115E+01 -0.10592833195E+02 -0.41998407791E+02  0.47787274259E+02  0.20000014656E+02 0.  0.
         12    1    1    2    0    0 -0.27474757115E+01  0.10592833195E+02  0.41998407791E+02  0.43400725741E+02  0.00000000000E+00 0. -1.
         11    1    3    3    0    0  0.16229855794E+01 -0.22561451020E+01  0.17275636476E+00  0.27846216862E+01  0.51100000000E-03 0. -1.
        -11    1    3    3    0    0  0.73614610640E+00  0.17398080898E+01 -0.27383058023E+00  0.19088810144E+01  0.51100000000E-03 0.  1.
        -12    1    3    3    0    0  0.38834402571E+00 -0.10076496182E+02 -0.41897333575E+02  0.43093771558E+02  0.00000000000E+00 0.  1.
</event>
<event>
 7    1  0.2580704E-010  0.4778727E+02  0.7816164E-02  0.1312668E+00
        -11   -1    0    0    0    0  0.00000000000E+00  0.00000000000E+00  0.45593999997E+02  0.45594000000E+02  0.51100000000E-03 0. -1.
         11   -1    0    0    0    0 -0.00000000000E+00 -0.00000000000E+00 -0.45593999997E+02  0.45594000000E+02  0.51100000000E-03 0.  1.
    9900012    2    1    2    0    0  0.24364498476E+02 -0.17249351793E+02 -0.31503242980E+02  0.47787271417E+02  0.20000001700E+02 0.  0.
         12    1    1    2    0    0 -0.24364498476E+02  0.17249351793E+02  0.31503242980E+02  0.43400728583E+02  0.00000000000E+00 0. -1.
         11    1    3    3    0    0 -0.94298983628E+00  0.15769589212E+00  0.32556408503E+00  0.10099950794E+01  0.51100000000E-03 0. -1.
        -11    1    3    3    0    0  0.13609289465E+02 -0.17893777488E+01 -0.18943120712E+02  0.23393513098E+02  0.51100000000E-03 0.  1.
         12    1    3    3    0    0  0.11698198847E+02 -0.15617669936E+02 -0.12885686352E+02  0.23383763240E+02  0.00000000000E+00 0. -1.
</event>
<event>
 7    1  0.2580704E-010  0.4778727E+02  0.7816164E-02  0.1312668E+00
        -11   -1    0    0    0    0  0.00000000000E+00  0.00000000000E+00  0.45593999997E+02  0.45594000000E+02  0.51100000000E-03 0. -1.
         11   -1    0    0    0    0 -0.00000000000E+00 -0.00000000000E+00 -0.45593999997E+02  0.45594000000E+02  0.51100000000E-03 0.  1.
    9900012    2    1    2    0    0 -0.40464474658E+01 -0.35354367232E+02  0.24845889839E+02  0.47787271188E+02  0.20000000657E+02 0.  0.
         12    1    1    2    0    0  0.40464474658E+01  0.35354367232E+02 -0.24845889839E+02  0.43400728812E+02  0.00000000000E+00 0. -1.
         11    1    3    3    0    0  0.49734909586E+01 -0.12768459426E+02  0.98241441759E+01  0.16860693268E+02  0.51100000000E-03 0. -1.
        -11    1    3    3    0    0 -0.23862114081E+01 -0.19072562150E+02  0.86399852986E+01  0.21073822104E+02  0.51100000000E-03 0.  1.
         12    1    3    3    0    0 -0.66337270164E+01 -0.35133456560E+01  0.63817603650E+01  0.98527558166E+01  0.00000000000E+00 0. -1.
</event>
<event>
 7    1  0.2580704E-010  0.4778727E+02  0.7816164E-02  0.1312668E+00
        -11   -1    0    0    0    0  0.00000000000E+00  0.00000000000E+00  0.45593999997E+02  0.45594000000E+02  0.51100000000E-03 0. -1.
         11   -1    0    0    0    0 -0.00000000000E+00 -0.00000000000E+00 -0.45593999997E+02  0.45594000000E+02  0.51100000000E-03 0.  1.
    9900012    2    1    2    0    0 -0.20746775893E+01  0.43172858697E+02 -0.39272375488E+01  0.47787271781E+02  0.20000003360E+02 0.  0.
         12    1    1    2    0    0  0.20746775893E+01 -0.43172858697E+02  0.39272375488E+01  0.43400728219E+02  0.00000000000E+00 0. -1.
         11    1    3    3    0    0  0.37405722439E+00  0.26708440084E+02  0.43598500887E+01  0.27064533685E+02  0.51100000000E-03 0. -1.
        -11    1    3    3    0    0 -0.17272287703E+01  0.79204959550E+01  0.89952650663E+00  0.81563915794E+01  0.51100000000E-03 0.  1.
        -12    1    3    3    0    0 -0.72150604343E+00  0.85439226577E+01 -0.91866141441E+01  0.12566346517E+02  0.00000000000E+00 0.  1.
</event>
<event>
 7    1  0.2580704E-010  0.4778727E+02  0.7816164E-02  0.1312668E+00
        -11   -1    0    0    0    0  0.00000000000E+00  0.00000000000E+00  0.45593999997E+02  0.45594000000E+02  0.51100000000E-03 0.  1.
         11   -1    0    0    0    0 -0.00000000000E+00 -0.00000000000E+00 -0.45593999997E+02  0.45594000000E+02  0.51100000000E-03 0. -1.
    9900012    2    1    2    0    0  0.36975494981E+02  0.36031519305E+01  0.22437773003E+02  0.47787267400E+02  0.19999983384E+02 0.  0.
         12    1    1    2    0    0 -0.36975494981E+02 -0.36031519305E+01 -0.22437773003E+02  0.43400732600E+02  0.00000000000E+00 0. -1.
         11    1    3    3    0    0  0.65216487503E+01 -0.40998271458E+01  0.86775110255E+01  0.11603434100E+02  0.51100000000E-03 0. -1.
        -11    1    3    3    0    0  0.99830029074E+01 -0.29207361752E+01  0.43612961421E+01  0.11278827561E+02  0.51100000000E-03 0.  1.
        -12    1    3    3    0    0  0.20470843323E+02  0.10623715252E+02  0.93989658350E+01  0.24905005739E+02  0.00000000000E+00 0.  1.
</event>
<event>
 7    1  0.2580704E-010  0.4778731E+02  0.7816164E-02  0.1312668E+00
        -11   -1    0    0    0    0  0.00000000000E+00  0.00000000000E+00  0.45593999997E+02  0.45594000000E+02  0.51100000000E-03 0.  1.
         11   -1    0    0    0    0 -0.00000000000E+00 -0.00000000000E+00 -0.45593999997E+02  0.45594000000E+02  0.51100000000E-03 0. -1.
    9900012    2    1    2    0    0  0.37093123766E+02 -0.18144548577E+01  0.22459464788E+02  0.47787312958E+02  0.20000191100E+02 0.  0.
         12    1    1    2    0    0 -0.37093123766E+02  0.18144548577E+01 -0.22459464788E+02  0.43400687042E+02  0.00000000000E+00 0. -1.
         11    1    3    3    0    0  0.23618500838E+01 -0.15708472256E+01  0.74361226702E+01  0.79587572806E+01  0.51100000000E-03 0. -1.
        -11    1    3    3    0    0  0.18455025718E+02 -0.52861883868E+01  0.11658507855E+02  0.22460021540E+02  0.51100000000E-03 0.  1.
         12    1    3    3    0    0  0.16276247965E+02  0.50425807547E+01  0.33648342624E+01  0.17368534138E+02  0.00000000000E+00 0. -1.
</event>
<event>
 7    1  0.2580704E-010  0.4778727E+02  0.7816164E-02  0.1312668E+00
        -11   -1    0    0    0    0  0.00000000000E+00  0.00000000000E+00  0.45593999997E+02  0.45594000000E+02  0.51100000000E-03 0.  1.
         11   -1    0    0    0    0 -0.00000000000E+00 -0.00000000000E+00 -0.45593999997E+02  0.45594000000E+02  0.51100000000E-03 0. -1.
    9900012    2    1    2    0    0 -0.17140417251E+02  0.14595541738E+02  0.37105253640E+02  0.47787267404E+02  0.19999983401E+02 0.  0.
         12    1    1    2    0    0  0.17140417251E+02 -0.14595541738E+02 -0.37105253640E+02  0.43400732596E+02  0.00000000000E+00 0. -1.
         11    1    3    3    0    0 -0.13440216734E+01  0.70500114916E+00 -0.31333231008E+00  0.15497090942E+01  0.51100000000E-03 0. -1.
        -11    1    3    3    0    0 -0.15944292250E+02  0.14249411196E+02  0.39071105257E+02  0.44540065571E+02  0.51100000000E-03 0.  1.
        -12    1    3    3    0    0  0.14789667289E+00 -0.35887060684E+00 -0.16525193067E+01  0.16974927385E+01  0.00000000000E+00 0.  1.
</event>
<event>
 7    1  0.2580704E-010  0.4778727E+02  0.7816164E-02  0.1312668E+00
        -11   -1    0    0    0    0  0.00000000000E+00  0.00000000000E+00  0.45593999997E+02  0.45594000000E+02  0.51100000000E-03 0.  1.
         11   -1    0    0    0    0 -0.00000000000E+00 -0.00000000000E+00 -0.45593999997E+02  0.45594000000E+02  0.51100000000E-03 0. -1.
    9900012    2    1    2    0    0  0.45154228648E+01 -0.18179404955E+02  0.39150271707E+02  0.47787267484E+02  0.19999983767E+02 0.  0.
         12    1    1    2    0    0 -0.45154228648E+01  0.18179404955E+02 -0.39150271707E+02  0.43400732516E+02  0.00000000000E+00 0. -1.
         11    1    3    3    0    0 -0.10679225370E+00 -0.15013811141E+01  0.12338903609E+02  0.12430369760E+02  0.51100000000E-03 0. -1.
        -11    1    3    3    0    0  0.36832195919E+01 -0.78831054338E+01  0.24805632997E+02  0.26287428298E+02  0.51100000000E-03 0.  1.
         12    1    3    3    0    0  0.93899552660E+00 -0.87949184072E+01  0.20057351012E+01  0.90694694268E+01  0.00000000000E+00 0. -1.
</event>
<event>
 7    1  0.2580704E-010  0.4778727E+02  0.7816164E-02  0.1312668E+00
        -11   -1    0    0    0    0  0.00000000000E+00  0.00000000000E+00  0.45593999997E+02  0.45594000000E+02  0.51100000000E-03 0.  1.
         11   -1    0    0    0    0 -0.00000000000E+00 -0.00000000000E+00 -0.45593999997E+02  0.45594000000E+02  0.51100000000E-03 0. -1.
    9900012    2    1    2    0    0 -0.50676555354E+01  0.16491743826E+02  0.39824170290E+02  0.47787270901E+02  0.19999999344E+02 0.  0.
         12    1    1    2    0    0  0.50676555354E+01 -0.16491743826E+02 -0.39824170290E+02  0.43400729099E+02  0.00000000000E+00 0. -1.
         11    1    3    3    0    0  0.49986830471E-01 -0.91445465540E+00 -0.10827525518E+01  0.14181252941E+01  0.51100000000E-03 0. -1.
        -11    1    3    3    0    0 -0.19998676452E+01 -0.10157274033E+01  0.10043443968E+02  0.10290866813E+02  0.51100000000E-03 0.  1.
        -12    1    3    3    0    0 -0.31177747207E+01  0.18421925885E+02  0.30863478874E+02  0.36078278794E+02  0.00000000000E+00 0.  1.
</event>
<event>
 7    1  0.2580704E-010  0.4778727E+02  0.7816164E-02  0.1312668E+00
        -11   -1    0    0    0    0  0.00000000000E+00  0.00000000000E+00  0.45593999997E+02  0.45594000000E+02  0.51100000000E-03 0.  1.
         11   -1    0    0    0    0 -0.00000000000E+00 -0.00000000000E+00 -0.45593999997E+02  0.45594000000E+02  0.51100000000E-03 0. -1.
    9900012    2    1    2    0    0  0.17643725313E+02  0.90948990160E+00  0.39642089904E+02  0.47787268361E+02  0.19999987766E+02 0.  0.
         12    1    1    2    0    0 -0.17643725313E+02 -0.90948990160E+00 -0.39642089904E+02  0.43400731639E+02  0.00000000000E+00 0. -1.
         11    1    3    3    0    0  0.10888565785E+01  0.53302510948E+01  0.13143492412E+01  0.55968472885E+01  0.51100000000E-03 0. -1.
        -11    1    3    3    0    0  0.45130661167E+01  0.60065031817E+00  0.11132665422E+02  0.12027667531E+02  0.51100000000E-03 0.  1.
         12    1    3    3    0    0  0.12041802618E+02 -0.50214115113E+01  0.27195075241E+02  0.30162753541E+02  0.00000000000E+00 0. -1.
</event>
<event>
 7    1  0.2580704E-010  0.4778727E+02  0.7816164E-02  0.1312668E+00
        -11   -1    0    0    0    0  0.00000000000E+00  0.00000000000E+00  0.45593999997E+02  0.45594000000E+02  0.51100000000E-03 0.  1.
         11   -1    0    0    0    0 -0.00000000000E+00 -0.00000000000E+00 -0.45593999997E+02  0.45594000000E+02  0.51100000000E-03 0. -1.
    9900012    2    1    2    0    0  0.94858019384E+01  0.41592518107E+02  0.79815745036E+01  0.47787268066E+02  0.19999986420E+02 0.  0.
         12    1    1    2    0    0 -0.94858019384E+01 -0.41592518107E+02 -0.79815745036E+01  0.43400731934E+02  0.00000000000E+00 0. -1.
         11    1    3    3    0    0  0.45800012059E+01  0.16675281092E+01  0.11825757140E+01  0.50155305424E+01  0.51100000000E-03 0. -1.
        -11    1    3    3    0    0 -0.16879588331E+00 -0.14773756795E+00 -0.15155925959E+01  0.15321030048E+01  0.51100000000E-03 0.  1.
        -12    1    3    3    0    0  0.50745966158E+01  0.40072727565E+02  0.83145913855E+01  0.41239634519E+02  0.00000000000E+00 0.  1.
</event>
<event>
 7    1  0.2580704E-010  0.4778728E+02  0.7816164E-02  0.1312668E+00
        -11   -1    0    0    0    0  0.00000000000E+00  0.00000000000E+00  0.45593999997E+02  0.45594000000E+02  0.51100000000E-03 0.  1.
         11   -1    0    0    0    0 -0.00000000000E+00 -0.00000000000E+00 -0.45593999997E+02  0.45594000000E+02  0.51100000000E-03 0. -1.
    9900012    2    1    2    0    0  0.37977210123E+02  0.20701068969E+02 -0.35805019765E+01  0.47787277199E+02  0.20000028062E+02 0.  0.
         12    1    1    2    0    0 -0.37977210123E+02 -0.20701068969E+02  0.35805019765E+01  0.43400722801E+02  0.00000000000E+00 0. -1.
         11    1    3    3    0    0  0.20745147675E+01 -0.11917255647E+01 -0.38608120671E+01  0.45419920102E+01  0.51100000000E-03 0. -1.
        -11    1    3    3    0    0  0.12693682477E+01  0.21179727074E+01  0.22150680525E+01  0.33171721203E+01  0.51100000000E-03 0.  1.
        -12    1    3    3    0    0  0.34633327108E+02  0.19774821826E+02 -0.19347579619E+01  0.39928113069E+02  0.00000000000E+00 0.  1.
</event>
<event>
 7    1  0.2580704E-010  0.4778727E+02  0.7816164E-02  0.1312668E+00
        -11   -1    0    0    0    0  0.00000000000E+00  0.00000000000E+00  0.45593999997E+02  0.45594000000E+02  0.51100000000E-03 0.  1.
         11   -1    0    0    0    0 -0.00000000000E+00 -0.00000000000E+00 -0.45593999997E+02  0.45594000000E+02  0.51100000000E-03 0. -1.
    9900012    2    1    2    0    0  0.23410647733E+02  0.36358314549E+02  0.36929343393E+01  0.47787271571E+02  0.20000002400E+02 0.  0.
         12    1    1    2    0    0 -0.23410647733E+02 -0.36358314549E+02 -0.36929343393E+01  0.43400728429E+02  0.00000000000E+00 0. -1.
         11    1    3    3    0    0  0.97904354029E+01  0.19216318440E+02 -0.86434022420E+00  0.21583943200E+02  0.51100000000E-03 0. -1.
        -11    1    3    3    0    0  0.92955013660E+01  0.12313261711E+02 -0.35420597516E+01  0.15829369765E+02  0.51100000000E-03 0.  1.
         12    1    3    3    0    0  0.43247109644E+01  0.48287343984E+01  0.80993343152E+01  0.10373958606E+02  0.00000000000E+00 0. -1.
</event>
<event>
 7    1  0.2580704E-010  0.4778727E+02  0.7816164E-02  0.1312668E+00
        -11   -1    0    0    0    0  0.00000000000E+00  0.00000000000E+00  0.45593999997E+02  0.45594000000E+02  0.51100000000E-03 0.  1.
         11   -1    0    0    0    0 -0.00000000000E+00 -0.00000000000E+00 -0.45593999997E+02  0.45594000000E+02  0.51100000000E-03 0. -1.
    9900012    2    1    2    0    0 -0.25295237244E+02 -0.26763321177E+02  0.22967343818E+02  0.47787271093E+02  0.20000000220E+02 0.  0.
         12    1    1    2    0    0  0.25295237244E+02  0.26763321177E+02 -0.22967343818E+02  0.43400728907E+02  0.00000000000E+00 0. -1.
         11    1    3    3    0    0 -0.18332350127E+02 -0.14662716477E+02  0.94161521044E+01  0.25292968121E+02  0.51100000000E-03 0. -1.
        -11    1    3    3    0    0 -0.93013520154E+01 -0.53356826461E+01  0.91124693476E+01  0.14072020341E+02  0.51100000000E-03 0.  1.
         12    1    3    3    0    0  0.23384648979E+01 -0.67649220530E+01  0.44387223658E+01  0.84222826301E+01  0.00000000000E+00 0. -1.
</event>
<event>
 7    1  0.2580704E-010  0.4778727E+02  0.7816164E-02  0.1312668E+00
        -11   -1    0    0    0    0  0.00000000000E+00  0.00000000000E+00  0.45593999997E+02  0.45594000000E+02  0.51100000000E-03 0.  1.
         11   -1    0    0    0    0 -0.00000000000E+00 -0.00000000000E+00 -0.45593999997E+02  0.45594000000E+02  0.51100000000E-03 0. -1.
    9900012    2    1    2    0    0  0.14566542822E+02 -0.40825523478E+02  0.21716332400E+01  0.47787268117E+02  0.19999986653E+02 0.  0.
         12    1    1    2    0    0 -0.14566542822E+02  0.40825523478E+02 -0.21716332400E+01  0.43400731883E+02  0.00000000000E+00 0. -1.
         11    1    3    3    0    0  0.48532384405E+01 -0.17520041464E+02 -0.76580353034E+01  0.19726917682E+02  0.51100000000E-03 0. -1.
        -11    1    3    3    0    0  0.66689312255E+01 -0.14407176204E+02  0.23601598041E+01  0.16050287362E+02  0.51100000000E-03 0.  1.
         12    1    3    3    0    0  0.30443731559E+01 -0.88983058105E+01  0.74695087393E+01  0.12010063073E+02  0.00000000000E+00 0. -1.
</event>
<event>
 7    1  0.2580704E-010  0.4778727E+02  0.7816164E-02  0.1312668E+00
        -11   -1    0    0    0    0  0.00000000000E+00  0.00000000000E+00  0.45593999997E+02  0.45594000000E+02  0.51100000000E-03 0. -1.
         11   -1    0    0    0    0 -0.00000000000E+00 -0.00000000000E+00 -0.45593999997E+02  0.45594000000E+02  0.51100000000E-03 0.  1.
    9900012    2    1    2    0    0  0.20710083743E+02  0.35177732605E+02  0.14739156575E+02  0.47787272168E+02  0.20000005121E+02 0.  0.
         12    1    1    2    0    0 -0.20710083743E+02 -0.35177732605E+02 -0.14739156575E+02  0.43400727832E+02  0.00000000000E+00 0. -1.
         11    1    3    3    0    0  0.56000059419E+01  0.77748982649E+01 -0.88156140486E+00  0.96221754479E+01  0.51100000000E-03 0. -1.
        -11    1    3    3    0    0 -0.19175281913E+00 -0.18064101342E+01  0.11860018778E+01  0.21694440375E+01  0.51100000000E-03 0.  1.
         12    1    3    3    0    0  0.15301830620E+02  0.29209244474E+02  0.14434716102E+02  0.35995652682E+02  0.00000000000E+00 0. -1.
</event>
<event>
 7    1  0.2580704E-010  0.4778727E+02  0.7816164E-02  0.1312668E+00
        -11   -1    0    0    0    0  0.00000000000E+00  0.00000000000E+00  0.45593999997E+02  0.45594000000E+02  0.51100000000E-03 0.  1.
         11   -1    0    0    0    0 -0.00000000000E+00 -0.00000000000E+00 -0.45593999997E+02  0.45594000000E+02  0.51100000000E-03 0. -1.
    9900012    2    1    2    0    0  0.23435747141E+02  0.21559707721E+02  0.29488444374E+02  0.47787267372E+02  0.19999983255E+02 0.  0.
         12    1    1    2    0    0 -0.23435747141E+02 -0.21559707721E+02 -0.29488444374E+02  0.43400732628E+02  0.00000000000E+00 0. -1.
         11    1    3    3    0    0 -0.21667841234E+00  0.39027545194E+01  0.11884054049E+01  0.40854314387E+01  0.51100000000E-03 0. -1.
        -11    1    3    3    0    0 -0.74323746903E+00  0.72658929185E+00  0.71981150560E+01  0.72727707619E+01  0.51100000000E-03 0.  1.
         12    1    3    3    0    0  0.24395663022E+02  0.16930363910E+02  0.21101923913E+02  0.36429065171E+02  0.00000000000E+00 0. -1.
</event>
<event>
 7    1  0.2580704E-010  0.4778727E+02  0.7816164E-02  0.1312668E+00
        -11   -1    0    0    0    0  0.00000000000E+00  0.00000000000E+00  0.45593999997E+02  0.45594000000E+02  0.51100000000E-03 0. -1.
         11   -1    0    0    0    0 -0.00000000000E+00 -0.00000000000E+00 -0.45593999997E+02  0.45594000000E+02  0.51100000000E-03 0.  1.
    9900012    2    1    2    0    0 -0.10620276401E+02  0.34062449805E+02 -0.24709971648E+02  0.47787268942E+02  0.19999990413E+02 0.  0.
         12    1    1    2    0    0  0.10620276401E+02 -0.34062449805E+02  0.24709971648E+02  0.43400731058E+02  0.00000000000E+00 0. -1.
         11    1    3    3    0    0  0.23863122440E+01  0.12386622430E+01 -0.11129785017E+01  0.29098954765E+01  0.51100000000E-03 0. -1.
        -11    1    3    3    0    0 -0.13420092915E+01  0.35361738295E+01 -0.97262303153E+01  0.10435759230E+02  0.51100000000E-03 0.  1.
         12    1    3    3    0    0 -0.11664579353E+02  0.29287613733E+02 -0.13870762831E+02  0.34441614236E+02  0.00000000000E+00 0. -1.
</event>
<event>
 7    1  0.2580704E-010  0.4778727E+02  0.7816164E-02  0.1312668E+00
        -11   -1    0    0    0    0  0.00000000000E+00  0.00000000000E+00  0.45593999997E+02  0.45594000000E+02  0.51100000000E-03 0.  1.
         11   -1    0    0    0    0 -0.00000000000E+00 -0.00000000000E+00 -0.45593999997E+02  0.45594000000E+02  0.51100000000E-03 0. -1.
    9900012    2    1    2    0    0 -0.23910469510E+02 -0.36208677644E+02 -0.91880626372E+00  0.47787273118E+02  0.20000009455E+02 0.  0.
         12    1    1    2    0    0  0.23910469510E+02  0.36208677644E+02  0.91880626372E+00  0.43400726882E+02  0.00000000000E+00 0. -1.
         11    1    3    3    0    0 -0.34072012096E+01 -0.34411371202E+01  0.91054501021E+00  0.49274270405E+01  0.51100000000E-03 0. -1.
        -11    1    3    3    0    0 -0.19758407150E+02 -0.27675197042E+02 -0.78909411845E+01  0.34908138556E+02  0.51100000000E-03 0.  1.
         12    1    3    3    0    0 -0.74486115123E+00 -0.50923434816E+01  0.60615899106E+01  0.79517075219E+01  0.00000000000E+00 0. -1.
</event>
<event>
 7    1  0.2580704E-010  0.4778727E+02  0.7816164E-02  0.1312668E+00
        -11   -1    0    0    0    0  0.00000000000E+00  0.00000000000E+00  0.45593999997E+02  0.45594000000E+02  0.51100000000E-03 0.  1.
         11   -1    0    0    0    0 -0.00000000000E+00 -0.00000000000E+00 -0.45593999997E+02  0.45594000000E+02  0.51100000000E-03 0. -1.
    9900012    2    1    2    0    0  0.68199849780E+00 -0.21243628635E+02  0.37840009398E+02  0.47787272002E+02  0.20000004365E+02 0.  0.
         12    1    1    2    0    0 -0.68199849780E+00  0.21243628635E+02 -0.37840009398E+02  0.43400727998E+02  0.00000000000E+00 0. -1.
         11    1    3    3    0    0 -0.12186186854E+01 -0.17062060972E+01  0.65381691174E+01  0.68661362072E+01  0.51100000000E-03 0. -1.
        -11    1    3    3    0    0 -0.19077369601E+01 -0.56677318928E+01  0.24109382949E+02  0.24839987753E+02  0.51100000000E-03 0.  1.
         12    1    3    3    0    0  0.38083541433E+01 -0.13869690645E+02  0.71924573316E+01  0.16081148042E+02  0.00000000000E+00 0. -1.
</event>
<event>
 7    1  0.2580704E-010  0.4778727E+02  0.7816164E-02  0.1312668E+00
        -11   -1    0    0    0    0  0.00000000000E+00  0.00000000000E+00  0.45593999997E+02  0.45594000000E+02  0.51100000000E-03 0. -1.
         11   -1    0    0    0    0 -0.00000000000E+00 -0.00000000000E+00 -0.45593999997E+02  0.45594000000E+02  0.51100000000E-03 0.  1.
    9900012    2    1    2    0    0 -0.10317332487E+02 -0.35450370230E+01 -0.42007243921E+02  0.47787272137E+02  0.20000004983E+02 0.  0.
         12    1    1    2    0    0  0.10317332487E+02  0.35450370230E+01  0.42007243921E+02  0.43400727863E+02  0.00000000000E+00 0. -1.
         11    1    3    3    0    0 -0.97492604650E+01  0.19842002180E+00 -0.10804794823E+02  0.14554416565E+02  0.51100000000E-03 0. -1.
        -11    1    3    3    0    0 -0.78853233519E+00  0.37745265731E+01 -0.90070184907E+01  0.97977148584E+01  0.51100000000E-03 0.  1.
         12    1    3    3    0    0  0.22046031275E+00 -0.75179836178E+01 -0.22195430607E+02  0.23435140714E+02  0.00000000000E+00 0. -1.
</event>
<event>
 7    1  0.2580704E-010  0.4778727E+02  0.7816164E-02  0.1312668E+00
        -11   -1    0    0    0    0  0.00000000000E+00  0.00000000000E+00  0.45593999997E+02  0.45594000000E+02  0.51100000000E-03 0.  1.
         11   -1    0    0    0    0 -0.00000000000E+00 -0.00000000000E+00 -0.45593999997E+02  0.45594000000E+02  0.51100000000E-03 0. -1.
    9900012    2    1    2    0    0  0.34902326857E+01 -0.19970310409E+02  0.38374838309E+02  0.47787271466E+02  0.20000001924E+02 0.  0.
         12    1    1    2    0    0 -0.34902326857E+01  0.19970310409E+02 -0.38374838309E+02  0.43400728534E+02  0.00000000000E+00 0. -1.
         11    1    3    3    0    0 -0.14180142705E+01 -0.11385156685E+02  0.17190452079E+02  0.20667467193E+02  0.51100000000E-03 0. -1.
        -11    1    3    3    0    0 -0.56573259589E-01 -0.11040667664E+02  0.11358438009E+02  0.15840254331E+02  0.51100000000E-03 0.  1.
         12    1    3    3    0    0  0.49648202159E+01  0.24555139398E+01  0.98259482203E+01  0.11279549943E+02  0.00000000000E+00 0. -1.
</event>
<event>
 7    1  0.2580704E-010  0.4778727E+02  0.7816164E-02  0.1312668E+00
        -11   -1    0    0    0    0  0.00000000000E+00  0.00000000000E+00  0.45593999997E+02  0.45594000000E+02  0.51100000000E-03 0. -1.
         11   -1    0    0    0    0 -0.00000000000E+00 -0.00000000000E+00 -0.45593999997E+02  0.45594000000E+02  0.51100000000E-03 0.  1.
    9900012    2    1    2    0    0  0.72329251159E+01  0.24524651589E+02 -0.35069210117E+02  0.47787271441E+02  0.20000001806E+02 0.  0.
         12    1    1    2    0    0 -0.72329251159E+01 -0.24524651589E+02  0.35069210117E+02  0.43400728559E+02  0.00000000000E+00 0. -1.
         11    1    3    3    0    0  0.62172915128E+01  0.56550419146E+01 -0.32392470115E+01  0.90070491435E+01  0.51100000000E-03 0. -1.
        -11    1    3    3    0    0  0.16678428911E+01  0.66249455080E+00 -0.10834540980E+02  0.10982161784E+02  0.51100000000E-03 0.  1.
         12    1    3    3    0    0 -0.65220928806E+00  0.18207115123E+02 -0.20995422125E+02  0.27798060513E+02  0.00000000000E+00 0. -1.
</event>
<event>
 7    1  0.2580704E-010  0.4778727E+02  0.7816164E-02  0.1312668E+00
        -11   -1    0    0    0    0  0.00000000000E+00  0.00000000000E+00  0.45593999997E+02  0.45594000000E+02  0.51100000000E-03 0.  1.
         11   -1    0    0    0    0 -0.00000000000E+00 -0.00000000000E+00 -0.45593999997E+02  0.45594000000E+02  0.51100000000E-03 0. -1.
    9900012    2    1    2    0    0 -0.36558341581E+01 -0.43016346416E+02  0.44555692473E+01  0.47787270977E+02  0.19999999695E+02 0.  0.
         12    1    1    2    0    0  0.36558341581E+01  0.43016346416E+02 -0.44555692473E+01  0.43400729023E+02  0.00000000000E+00 0. -1.
         11    1    3    3    0    0  0.24980834248E+01 -0.11755514783E+02  0.58601738200E+01  0.13370646435E+02  0.51100000000E-03 0. -1.
        -11    1    3    3    0    0 -0.15867106832E+00 -0.20892903042E+02  0.40069402962E+01  0.21274260148E+02  0.51100000000E-03 0.  1.
         12    1    3    3    0    0 -0.59952465145E+01 -0.10367928591E+02 -0.54115448688E+01  0.13142364395E+02  0.00000000000E+00 0. -1.
</event>
<event>
 7    1  0.2580704E-010  0.4778727E+02  0.7816164E-02  0.1312668E+00
        -11   -1    0    0    0    0  0.00000000000E+00  0.00000000000E+00  0.45593999997E+02  0.45594000000E+02  0.51100000000E-03 0.  1.
         11   -1    0    0    0    0 -0.00000000000E+00 -0.00000000000E+00 -0.45593999997E+02  0.45594000000E+02  0.51100000000E-03 0. -1.
    9900012    2    1    2    0    0  0.31381756382E+02  0.26414136523E+02  0.14181045438E+02  0.47787270840E+02  0.19999999070E+02 0.  0.
         12    1    1    2    0    0 -0.31381756382E+02 -0.26414136523E+02 -0.14181045438E+02  0.43400729160E+02  0.00000000000E+00 0. -1.
         11    1    3    3    0    0  0.53743030095E+00  0.12816256371E+01 -0.27966522479E-01  0.13900280535E+01  0.51100000000E-03 0. -1.
        -11    1    3    3    0    0  0.21852230099E+02  0.95736206355E+01  0.61674586027E+00  0.23865341986E+02  0.51100000000E-03 0.  1.
         12    1    3    3    0    0  0.89920959818E+01  0.15558890250E+02  0.13592266101E+02  0.22531900801E+02  0.00000000000E+00 0. -1.
</event>
<event>
 7    1  0.2580704E-010  0.4778727E+02  0.7816164E-02  0.1312668E+00
        -11   -1    0    0    0    0  0.00000000000E+00  0.00000000000E+00  0.45593999997E+02  0.45594000000E+02  0.51100000000E-03 0. -1.
         11   -1    0    0    0    0 -0.00000000000E+00 -0.00000000000E+00 -0.45593999997E+02  0.45594000000E+02  0.51100000000E-03 0.  1.
    9900012    2    1    2    0    0 -0.76474283125E+01 -0.13331902551E+02 -0.40588181121E+02  0.47787271526E+02  0.20000002194E+02 0.  0.
         12    1    1    2    0    0  0.76474283125E+01  0.13331902551E+02  0.40588181121E+02  0.43400728474E+02  0.00000000000E+00 0. -1.
         11    1    3    3    0    0 -0.47713585893E+01 -0.81337322333E+00 -0.39399632170E+01  0.62410535329E+01  0.51100000000E-03 0. -1.
        -11    1    3    3    0    0 -0.18043929749E+01  0.28591386301E+01 -0.29395354322E+01  0.44801089867E+01  0.51100000000E-03 0.  1.
        -12    1    3    3    0    0 -0.10716767482E+01 -0.15377667958E+02 -0.33708682471E+02  0.37066109006E+02  0.00000000000E+00 0.  1.
</event>
<event>
 7    1  0.2620421E-010  0.4778727E+02  0.7816164E-02  0.1312668E+00
        -11   -1    0    0    0    0  0.00000000000E+00  0.00000000000E+00  0.45593999997E+02  0.45594000000E+02  0.51100000000E-03 0.  1.
         11   -1    0    0    0    0 -0.00000000000E+00 -0.00000000000E+00 -0.45593999997E+02  0.45594000000E+02  0.51100000000E-03 0. -1.
    9900012    2    1    2    0    0  0.10786489288E+02 -0.32862509143E+02  0.26216996421E+02  0.47787265448E+02  0.19999974482E+02 0.  0.
         12    1    1    2    0    0 -0.10786489288E+02  0.32862509143E+02 -0.26216996421E+02  0.43400734552E+02  0.00000000000E+00 0. -1.
         11    1    3    3    0    0 -0.94903995292E+00 -0.30658269409E+01 -0.58411941475E+00  0.32620802282E+01  0.51100000000E-03 0. -1.
        -11    1    3    3    0    0  0.13207648981E+02 -0.19707993451E+02  0.12092487474E+02  0.26628466930E+02  0.51100000000E-03 0.  1.
        -12    1    3    3    0    0 -0.14721197405E+01 -0.10088688751E+02  0.14708628361E+02  0.17896718289E+02  0.00000000000E+00 0.  1.
</event>
<event>
 7    1  0.2580704E-010  0.4778726E+02  0.7816164E-02  0.1312668E+00
        -11   -1    0    0    0    0  0.00000000000E+00  0.00000000000E+00  0.45593999997E+02  0.45594000000E+02  0.51100000000E-03 0.  1.
         11   -1    0    0    0    0 -0.00000000000E+00 -0.00000000000E+00 -0.45593999997E+02  0.45594000000E+02  0.51100000000E-03 0. -1.
    9900012    2    1    2    0    0  0.39931085742E+02  0.66561259710E+01 -0.15646996388E+02  0.47787261326E+02  0.19999955689E+02 0.  0.
         12    1    1    2    0    0 -0.39931085742E+02 -0.66561259710E+01  0.15646996388E+02  0.43400738674E+02  0.00000000000E+00 0. -1.
         11    1    3    3    0    0  0.22047826638E+02  0.12521507796E+01 -0.11053979621E+02  0.24695445061E+02  0.51100000000E-03 0.  1.
        -11    1    3    3    0    0  0.14020184604E+02  0.81943966048E+01 -0.70810287603E+01  0.17715944249E+02  0.51100000000E-03 0. -1.
        -12    1    3    3    0    0  0.38630744999E+01 -0.27904214134E+01  0.24880119933E+01  0.53758720162E+01  0.00000000000E+00 0.  1.
</event>
<event>
 7    1  0.2580704E-010  0.4778727E+02  0.7816164E-02  0.1312668E+00
        -11   -1    0    0    0    0  0.00000000000E+00  0.00000000000E+00  0.45593999997E+02  0.45594000000E+02  0.51100000000E-03 0.  1.
         11   -1    0    0    0    0 -0.00000000000E+00 -0.00000000000E+00 -0.45593999997E+02  0.45594000000E+02  0.51100000000E-03 0. -1.
    9900012    2    1    2    0    0  0.40663050047E+02 -0.10901025035E+02  0.10550223500E+02  0.47787271875E+02  0.20000003785E+02 0.  0.
         12    1    1    2    0    0 -0.40663050047E+02  0.10901025035E+02 -0.10550223500E+02  0.43400728125E+02  0.00000000000E+00 0. -1.
         11    1    3    3    0    0  0.19801776810E+01  0.10572063378E+01 -0.20173362645E+01  0.30180183489E+01  0.51100000000E-03 0. -1.
        -11    1    3    3    0    0  0.10544840823E+02 -0.64935564652E+00  0.96413709537E+01  0.14302844643E+02  0.51100000000E-03 0.  1.
        -12    1    3    3    0    0  0.28138031542E+02 -0.11308875727E+02  0.29261888108E+01  0.30466408883E+02  0.00000000000E+00 0.  1.
</event>
<event>
 7    1  0.2580704E-010  0.4778728E+02  0.7816164E-02  0.1312668E+00
        -11   -1    0    0    0    0  0.00000000000E+00  0.00000000000E+00  0.45593999997E+02  0.45594000000E+02  0.51100000000E-03 0.  1.
         11   -1    0    0    0    0 -0.00000000000E+00 -0.00000000000E+00 -0.45593999997E+02  0.45594000000E+02  0.51100000000E-03 0. -1.
    9900012    2    1    2    0    0  0.23268029389E+02 -0.91854022998E+01  0.35466181098E+02  0.47787276403E+02  0.20000024431E+02 0.  0.
         12    1    1    2    0    0 -0.23268029389E+02  0.91854022998E+01 -0.35466181098E+02  0.43400723597E+02  0.00000000000E+00 0. -1.
         11    1    3    3    0    0  0.13875600129E+02 -0.13241425169E+02  0.24869597920E+02  0.31406440747E+02  0.51100000000E-03 0. -1.
        -11    1    3    3    0    0 -0.11695872694E+00  0.59458284780E+00  0.45542970052E+01  0.45944346311E+01  0.51100000000E-03 0.  1.
         12    1    3    3    0    0  0.95093879876E+01  0.34614400210E+01  0.60422861724E+01  0.11786401024E+02  0.00000000000E+00 0. -1.
</event>
<event>
 7    1  0.2580704E-010  0.4778732E+02  0.7816164E-02  0.1312668E+00
        -11   -1    0    0    0    0  0.00000000000E+00  0.00000000000E+00  0.45593999997E+02  0.45594000000E+02  0.51100000000E-03 0.  1.
         11   -1    0    0    0    0 -0.00000000000E+00 -0.00000000000E+00 -0.45593999997E+02  0.45594000000E+02  0.51100000000E-03 0. -1.
    9900012    2    1    2    0    0  0.83067202660E+01 -0.33552169404E+02  0.26246316832E+02  0.47787322349E+02  0.20000233917E+02 0.  0.
         12    1    1    2    0    0 -0.83067202660E+01  0.33552169404E+02 -0.26246316832E+02  0.43400677651E+02  0.00000000000E+00 0. -1.
         11    1    3    3    0    0 -0.56454773283E+00 -0.12217119119E+02  0.28939381660E+01  0.12567879379E+02  0.51100000000E-03 0. -1.
        -11    1    3    3    0    0  0.74540589375E-01 -0.15266913504E+02  0.16721634161E+02  0.22642819027E+02  0.51100000000E-03 0.  1.
         12    1    3    3    0    0  0.87967274094E+01 -0.60681367810E+01  0.66307445057E+01  0.12576623943E+02  0.00000000000E+00 0. -1.
</event>
<event>
 7    1  0.2580704E-010  0.4778727E+02  0.7816164E-02  0.1312668E+00
        -11   -1    0    0    0    0  0.00000000000E+00  0.00000000000E+00  0.45593999997E+02  0.45594000000E+02  0.51100000000E-03 0. -1.
         11   -1    0    0    0    0 -0.00000000000E+00 -0.00000000000E+00 -0.45593999997E+02  0.45594000000E+02  0.51100000000E-03 0.  1.
    9900012    2    1    2    0    0  0.36178907852E+02  0.18625844055E+02 -0.15092647392E+02  0.47787269068E+02  0.19999990988E+02 0.  0.
         12    1    1    2    0    0 -0.36178907852E+02 -0.18625844055E+02  0.15092647392E+02  0.43400730932E+02  0.00000000000E+00 0. -1.
         11    1    3    3    0    0  0.84534093157E+01 -0.25739354644E+01 -0.92699537205E+00  0.88850770123E+01  0.51100000000E-03 0. -1.
        -11    1    3    3    0    0  0.55238655928E+01  0.10111969578E+00 -0.12618619315E+01  0.56670637967E+01  0.51100000000E-03 0.  1.
        -12    1    3    3    0    0  0.22201632944E+02  0.21098659824E+02 -0.12903790088E+02  0.33235128259E+02  0.00000000000E+00 0.  1.
</event>
<event>
 7    1  0.2580704E-010  0.4778727E+02  0.7816164E-02  0.1312668E+00
        -11   -1    0    0    0    0  0.00000000000E+00  0.00000000000E+00  0.45593999997E+02  0.45594000000E+02  0.51100000000E-03 0.  1.
         11   -1    0    0    0    0 -0.00000000000E+00 -0.00000000000E+00 -0.45593999997E+02  0.45594000000E+02  0.51100000000E-03 0. -1.
    9900012    2    1    2    0    0 -0.91106252516E+01 -0.97280798290E+01  0.41303563753E+02  0.47787269496E+02  0.19999992938E+02 0.  0.
         12    1    1    2    0    0  0.91106252516E+01  0.97280798290E+01 -0.41303563753E+02  0.43400730504E+02  0.00000000000E+00 0. -1.
         11    1    3    3    0    0 -0.21542216009E+01  0.31849247177E+01  0.15789370781E+02  0.16250804475E+02  0.51100000000E-03 0. -1.
        -11    1    3    3    0    0 -0.77628861539E+01 -0.37038775641E+01  0.16591105987E+02  0.18688122126E+02  0.51100000000E-03 0.  1.
        -12    1    3    3    0    0  0.80648250327E+00 -0.92091269827E+01  0.89230869853E+01  0.12848342895E+02  0.00000000000E+00 0.  1.
</event>
<event>
 7    1  0.2580704E-010  0.4778728E+02  0.7816164E-02  0.1312668E+00
        -11   -1    0    0    0    0  0.00000000000E+00  0.00000000000E+00  0.45593999997E+02  0.45594000000E+02  0.51100000000E-03 0. -1.
         11   -1    0    0    0    0 -0.00000000000E+00 -0.00000000000E+00 -0.45593999997E+02  0.45594000000E+02  0.51100000000E-03 0.  1.
    9900012    2    1    2    0    0  0.35699816793E+02 -0.24679984517E+02 -0.21011271638E+00  0.47787277631E+02  0.20000030031E+02 0.  0.
         12    1    1    2    0    0 -0.35699816793E+02  0.24679984517E+02  0.21011271638E+00  0.43400722369E+02  0.00000000000E+00 0. -1.
         11    1    3    3    0    0  0.10624613523E+02 -0.12223436605E+02  0.58364886726E+01  0.17215092658E+02  0.51100000000E-03 0. -1.
        -11    1    3    3    0    0  0.18512778711E+02 -0.12099546846E+02 -0.74564940732E+00  0.22128669250E+02  0.51100000000E-03 0.  1.
        -12    1    3    3    0    0  0.65624245585E+01 -0.35700106590E+00 -0.53009519817E+01  0.84435157227E+01  0.00000000000E+00 0.  1.
</event>
<event>
 7    1  0.2580704E-010  0.4778730E+02  0.7816164E-02  0.1312668E+00
        -11   -1    0    0    0    0  0.00000000000E+00  0.00000000000E+00  0.45593999997E+02  0.45594000000E+02  0.51100000000E-03 0.  1.
         11   -1    0    0    0    0 -0.00000000000E+00 -0.00000000000E+00 -0.45593999997E+02  0.45594000000E+02  0.51100000000E-03 0. -1.
    9900012    2    1    2    0    0  0.30959301949E+02 -0.28333373508E+02 -0.11061748172E+02  0.47787300649E+02  0.20000134977E+02 0.  0.
         12    1    1    2    0    0 -0.30959301949E+02  0.28333373508E+02  0.11061748172E+02  0.43400699351E+02  0.00000000000E+00 0. -1.
         11    1    3    3    0    0 -0.17014120694E+01 -0.30265014729E+00 -0.16022758982E+01  0.23566264992E+01  0.51100000000E-03 0. -1.
        -11    1    3    3    0    0  0.57573046252E+01 -0.67938957025E+01 -0.65053786089E+01  0.11028305694E+02  0.51100000000E-03 0.  1.
         12    1    3    3    0    0  0.26903409394E+02 -0.21236827659E+02 -0.29540936653E+01  0.34402368456E+02  0.00000000000E+00 0. -1.
</event>
<event>
 7    1  0.2580704E-010  0.4778727E+02  0.7816164E-02  0.1312668E+00
        -11   -1    0    0    0    0  0.00000000000E+00  0.00000000000E+00  0.45593999997E+02  0.45594000000E+02  0.51100000000E-03 0.  1.
         11   -1    0    0    0    0 -0.00000000000E+00 -0.00000000000E+00 -0.45593999997E+02  0.45594000000E+02  0.51100000000E-03 0. -1.
    9900012    2    1    2    0    0 -0.32983761912E+02 -0.28024449762E+02  0.32132856381E+01  0.47787267991E+02  0.19999986078E+02 0.  0.
         12    1    1    2    0    0  0.32983761912E+02  0.28024449762E+02 -0.32132856381E+01  0.43400732009E+02  0.00000000000E+00 0. -1.
         11    1    3    3    0    0  0.98408915123E+00 -0.54822120137E+01  0.96903867441E+00  0.56535047744E+01  0.51100000000E-03 0. -1.
        -11    1    3    3    0    0 -0.12982628097E+02 -0.14598354344E+02 -0.39852536680E+00  0.19540199707E+02  0.51100000000E-03 0.  1.
         12    1    3    3    0    0 -0.20985222966E+02 -0.79438834047E+01  0.26427723305E+01  0.22593563510E+02  0.00000000000E+00 0. -1.
</event>
<event>
 7    1  0.2580704E-010  0.4778727E+02  0.7816164E-02  0.1312668E+00
        -11   -1    0    0    0    0  0.00000000000E+00  0.00000000000E+00  0.45593999997E+02  0.45594000000E+02  0.51100000000E-03 0. -1.
         11   -1    0    0    0    0 -0.00000000000E+00 -0.00000000000E+00 -0.45593999997E+02  0.45594000000E+02  0.51100000000E-03 0.  1.
    9900012    2    1    2    0    0  0.29543285735E+02 -0.73485014975E+01 -0.30932459141E+02  0.47787271495E+02  0.20000002054E+02 0.  0.
         12    1    1    2    0    0 -0.29543285735E+02  0.73485014975E+01  0.30932459141E+02  0.43400728505E+02  0.00000000000E+00 0. -1.
         11    1    3    3    0    0  0.90212013559E+01 -0.23487817475E+01 -0.24828557392E+01  0.96469385031E+01  0.51100000000E-03 0. -1.
        -11    1    3    3    0    0  0.12987177324E+02  0.30979493713E+01 -0.20708520761E+02  0.24639539313E+02  0.51100000000E-03 0.  1.
         12    1    3    3    0    0  0.75349070543E+01 -0.80976691214E+01 -0.77410826408E+01  0.13500793679E+02  0.00000000000E+00 0. -1.
</event>
<event>
 7    1  0.2580704E-010  0.4778727E+02  0.7816164E-02  0.1312668E+00
        -11   -1    0    0    0    0  0.00000000000E+00  0.00000000000E+00  0.45593999997E+02  0.45594000000E+02  0.51100000000E-03 0.  1.
         11   -1    0    0    0    0 -0.00000000000E+00 -0.00000000000E+00 -0.45593999997E+02  0.45594000000E+02  0.51100000000E-03 0. -1.
    9900012    2    1    2    0    0  0.63386975881E+01  0.53005897557E+01  0.42606902706E+02  0.47787268473E+02  0.19999988275E+02 0.  0.
         12    1    1    2    0    0 -0.63386975881E+01 -0.53005897557E+01 -0.42606902706E+02  0.43400731527E+02  0.00000000000E+00 0. -1.
         11    1    3    3    0    0 -0.15454560169E+01  0.37945412135E+01  0.22176140506E+02  0.22551456390E+02  0.51100000000E-03 0. -1.
        -11    1    3    3    0    0  0.67736162944E+01 -0.24491784966E+01  0.19812763483E+02  0.21081412432E+02  0.51100000000E-03 0.  1.
         12    1    3    3    0    0  0.11105373106E+01  0.39552270387E+01  0.61799871716E+00  0.41543996510E+01  0.00000000000E+00 0. -1.
</event>
<event>
 7    1  0.2580704E-010  0.4778727E+02  0.7816164E-02  0.1312668E+00
        -11   -1    0    0    0    0  0.00000000000E+00  0.00000000000E+00  0.45593999997E+02  0.45594000000E+02  0.51100000000E-03 0.  1.
         11   -1    0    0    0    0 -0.00000000000E+00 -0.00000000000E+00 -0.45593999997E+02  0.45594000000E+02  0.51100000000E-03 0. -1.
    9900012    2    1    2    0    0  0.13588968924E+02 -0.90800040125E+01  0.40205930622E+02  0.47787269516E+02  0.19999993033E+02 0.  0.
         12    1    1    2    0    0 -0.13588968924E+02  0.90800040125E+01 -0.40205930622E+02  0.43400730484E+02  0.00000000000E+00 0. -1.
         11    1    3    3    0    0 -0.25820806107E+01 -0.55339482150E+00  0.16791812325E+00  0.26460504277E+01  0.51100000000E-03 0. -1.
        -11    1    3    3    0    0  0.52854890174E+01  0.18853598244E+01  0.84248406699E+01  0.10122693139E+02  0.51100000000E-03 0.  1.
        -12    1    3    3    0    0  0.10885560518E+02 -0.10411969015E+02  0.31613171829E+02  0.35018525949E+02  0.00000000000E+00 0.  1.
</event>
<event>
 7    1  0.2580704E-010  0.4778727E+02  0.7816164E-02  0.1312668E+00
        -11   -1    0    0    0    0  0.00000000000E+00  0.00000000000E+00  0.45593999997E+02  0.45594000000E+02  0.51100000000E-03 0.  1.
         11   -1    0    0    0    0 -0.00000000000E+00 -0.00000000000E+00 -0.45593999997E+02  0.45594000000E+02  0.51100000000E-03 0. -1.
    9900012    2    1    2    0    0  0.22111214957E+02 -0.19267102568E+02  0.31992128333E+02  0.47787270242E+02  0.19999996341E+02 0.  0.
         12    1    1    2    0    0 -0.22111214957E+02  0.19267102568E+02 -0.31992128333E+02  0.43400729758E+02  0.00000000000E+00 0. -1.
         11    1    3    3    0    0  0.97219127012E+01 -0.85985262022E+01  0.13894971206E+02  0.19013691501E+02  0.51100000000E-03 0. -1.
        -11    1    3    3    0    0  0.13156312461E+02 -0.97430631175E+01  0.73260900747E+01  0.17935646978E+02  0.51100000000E-03 0.  1.
         12    1    3    3    0    0 -0.76701020589E+00 -0.92551324879E+00  0.10771067053E+02  0.10837931762E+02  0.00000000000E+00 0. -1.
</event>
<event>
 7    1  0.2580704E-010  0.4778727E+02  0.7816164E-02  0.1312668E+00
        -11   -1    0    0    0    0  0.00000000000E+00  0.00000000000E+00  0.45593999997E+02  0.45594000000E+02  0.51100000000E-03 0.  1.
         11   -1    0    0    0    0 -0.00000000000E+00 -0.00000000000E+00 -0.45593999997E+02  0.45594000000E+02  0.51100000000E-03 0. -1.
    9900012    2    1    2    0    0  0.31220708930E+02 -0.11748762211E+01  0.30124914261E+02  0.47787268907E+02  0.19999990254E+02 0.  0.
         12    1    1    2    0    0 -0.31220708930E+02  0.11748762211E+01 -0.30124914261E+02  0.43400731093E+02  0.00000000000E+00 0. -1.
         11    1    3    3    0    0  0.12852614897E+02 -0.32115206685E+01  0.90918839976E+01  0.16067542736E+02  0.51100000000E-03 0. -1.
        -11    1    3    3    0    0  0.19146047816E+02  0.19572390152E+00  0.22269947422E+02  0.29369372027E+02  0.51100000000E-03 0.  1.
        -12    1    3    3    0    0 -0.77795378322E+00  0.18409205458E+01 -0.12369171585E+01  0.23503541439E+01  0.00000000000E+00 0.  1.
</event>
<event>
 7    1  0.2580704E-010  0.4778727E+02  0.7816164E-02  0.1312668E+00
        -11   -1    0    0    0    0  0.00000000000E+00  0.00000000000E+00  0.45593999997E+02  0.45594000000E+02  0.51100000000E-03 0. -1.
         11   -1    0    0    0    0 -0.00000000000E+00 -0.00000000000E+00 -0.45593999997E+02  0.45594000000E+02  0.51100000000E-03 0.  1.
    9900012    2    1    2    0    0  0.33791123428E+00 -0.40514886552E+02 -0.15558055272E+02  0.47787270742E+02  0.19999998620E+02 0.  0.
         12    1    1    2    0    0 -0.33791123428E+00  0.40514886552E+02  0.15558055272E+02  0.43400729258E+02  0.00000000000E+00 0. -1.
         11    1    3    3    0    0 -0.36082230668E+01 -0.24146925368E+02 -0.12027205709E+02  0.27216666876E+02  0.51100000000E-03 0.  1.
        -11    1    3    3    0    0 -0.35770901705E+01 -0.66882864269E+01  0.66282706317E+00  0.76136777836E+01  0.51100000000E-03 0. -1.
        -12    1    3    3    0    0  0.75232244716E+01 -0.96796747573E+01 -0.41936766265E+01  0.12956926082E+02  0.00000000000E+00 0.  1.
</event>
<event>
 7    1  0.2580704E-010  0.4778727E+02  0.7816164E-02  0.1312668E+00
        -11   -1    0    0    0    0  0.00000000000E+00  0.00000000000E+00  0.45593999997E+02  0.45594000000E+02  0.51100000000E-03 0. -1.
         11   -1    0    0    0    0 -0.00000000000E+00 -0.00000000000E+00 -0.45593999997E+02  0.45594000000E+02  0.51100000000E-03 0.  1.
    9900012    2    1    2    0    0  0.29169156345E+02  0.23595912930E+02 -0.21817803862E+02  0.47787270119E+02  0.19999995778E+02 0.  0.
         12    1    1    2    0    0 -0.29169156345E+02 -0.23595912930E+02  0.21817803862E+02  0.43400729881E+02  0.00000000000E+00 0. -1.
         11    1    3    3    0    0  0.11663694255E+02  0.24117867091E+01 -0.81947310840E+01  0.14457250659E+02  0.51100000000E-03 0. -1.
        -11    1    3    3    0    0  0.16465521390E+02  0.12042482207E+02 -0.56809117225E+01  0.21175635306E+02  0.51100000000E-03 0.  1.
         12    1    3    3    0    0  0.10399407002E+01  0.91416440136E+01 -0.79421610554E+01  0.12154384154E+02  0.00000000000E+00 0. -1.
</event>
<event>
 7    1  0.2580704E-010  0.4778727E+02  0.7816164E-02  0.1312668E+00
        -11   -1    0    0    0    0  0.00000000000E+00  0.00000000000E+00  0.45593999997E+02  0.45594000000E+02  0.51100000000E-03 0. -1.
         11   -1    0    0    0    0 -0.00000000000E+00 -0.00000000000E+00 -0.45593999997E+02  0.45594000000E+02  0.51100000000E-03 0.  1.
    9900012    2    1    2    0    0  0.22784542252E+02  0.32057630721E+02 -0.18352018937E+02  0.47787266686E+02  0.19999980130E+02 0.  0.
         12    1    1    2    0    0 -0.22784542252E+02 -0.32057630721E+02  0.18352018937E+02  0.43400733314E+02  0.00000000000E+00 0. -1.
         11    1    3    3    0    0  0.48359824321E+01  0.14931688230E+02 -0.18553193024E+01  0.15804564197E+02  0.51100000000E-03 0. -1.
        -11    1    3    3    0    0  0.34205814512E+01  0.11171212905E+02 -0.75750316159E+01  0.13923989352E+02  0.51100000000E-03 0.  1.
        -12    1    3    3    0    0  0.14527978369E+02  0.59547295854E+01 -0.89216680186E+01  0.18058713137E+02  0.00000000000E+00 0.  1.
</event>
<event>
 7    1  0.2580704E-010  0.4778727E+02  0.7816164E-02  0.1312668E+00
        -11   -1    0    0    0    0  0.00000000000E+00  0.00000000000E+00  0.45593999997E+02  0.45594000000E+02  0.51100000000E-03 0.  1.
         11   -1    0    0    0    0 -0.00000000000E+00 -0.00000000000E+00 -0.45593999997E+02  0.45594000000E+02  0.51100000000E-03 0. -1.
    9900012    2    1    2    0    0 -0.27960252190E+02 -0.17352975896E+02  0.28297026108E+02  0.47787272338E+02  0.20000005900E+02 0.  0.
         12    1    1    2    0    0  0.27960252190E+02  0.17352975896E+02 -0.28297026108E+02  0.43400727662E+02  0.00000000000E+00 0. -1.
         11    1    3    3    0    0  0.17019494226E+00  0.86749811282E+00 -0.21821511183E+01  0.23544220222E+01  0.51100000000E-03 0. -1.
        -11    1    3    3    0    0 -0.42121013822E+01 -0.15744396146E+01  0.49939359356E+01  0.67201231049E+01  0.51100000000E-03 0.  1.
         12    1    3    3    0    0 -0.23918345750E+02 -0.16646034395E+02  0.25485241291E+02  0.38712727211E+02  0.00000000000E+00 0. -1.
</event>
<event>
 7    1  0.2580704E-010  0.4778728E+02  0.7816164E-02  0.1312668E+00
        -11   -1    0    0    0    0  0.00000000000E+00  0.00000000000E+00  0.45593999997E+02  0.45594000000E+02  0.51100000000E-03 0.  1.
         11   -1    0    0    0    0 -0.00000000000E+00 -0.00000000000E+00 -0.45593999997E+02  0.45594000000E+02  0.51100000000E-03 0. -1.
    9900012    2    1    2    0    0 -0.25356399519E+02 -0.23878176696E+02  0.25894178764E+02  0.47787276357E+02  0.20000024220E+02 0.  0.
         12    1    1    2    0    0  0.25356399519E+02  0.23878176696E+02 -0.25894178764E+02  0.43400723643E+02  0.00000000000E+00 0. -1.
         11    1    3    3    0    0 -0.15021583632E+02 -0.71000569816E+01  0.13293541268E+02  0.21278557838E+02  0.51100000000E-03 0. -1.
        -11    1    3    3    0    0 -0.78906848604E+01 -0.71893541328E+01  0.12728952506E+02  0.16612523967E+02  0.51100000000E-03 0.  1.
         12    1    3    3    0    0 -0.24441310267E+01 -0.95887655814E+01 -0.12831500964E+00  0.98961945511E+01  0.00000000000E+00 0. -1.
</event>
<event>
 7    1  0.2580704E-010  0.4778727E+02  0.7816164E-02  0.1312668E+00
        -11   -1    0    0    0    0  0.00000000000E+00  0.00000000000E+00  0.45593999997E+02  0.45594000000E+02  0.51100000000E-03 0.  1.
         11   -1    0    0    0    0 -0.00000000000E+00 -0.00000000000E+00 -0.45593999997E+02  0.45594000000E+02  0.51100000000E-03 0. -1.
    9900012    2    1    2    0    0 -0.38635065187E+02 -0.11482752923E+02  0.16096624464E+02  0.47787271944E+02  0.20000004101E+02 0.  0.
         12    1    1    2    0    0  0.38635065187E+02  0.11482752923E+02 -0.16096624464E+02  0.43400728056E+02  0.00000000000E+00 0. -1.
         11    1    3    3    0    0 -0.16212647449E+02 -0.13925306739E+02  0.10738536865E+02  0.23918199751E+02  0.51100000000E-03 0. -1.
        -11    1    3    3    0    0 -0.88711334910E+01 -0.17585022248E+01  0.15100121499E+01  0.91689408572E+01  0.51100000000E-03 0.  1.
         12    1    3    3    0    0 -0.13551284247E+02  0.42010560415E+01  0.38480754483E+01  0.14700131335E+02  0.00000000000E+00 0. -1.
</event>
<event>
 7    1  0.2580704E-010  0.4778729E+02  0.7816164E-02  0.1312668E+00
        -11   -1    0    0    0    0  0.00000000000E+00  0.00000000000E+00  0.45593999997E+02  0.45594000000E+02  0.51100000000E-03 0.  1.
         11   -1    0    0    0    0 -0.00000000000E+00 -0.00000000000E+00 -0.45593999997E+02  0.45594000000E+02  0.51100000000E-03 0. -1.
    9900012    2    1    2    0    0  0.23870213545E+02 -0.56246785869E+01  0.35807789056E+02  0.47787287322E+02  0.20000074214E+02 0.  0.
         12    1    1    2    0    0 -0.23870213545E+02  0.56246785869E+01 -0.35807789056E+02  0.43400712678E+02  0.00000000000E+00 0. -1.
         11    1    3    3    0    0  0.59611048303E+01 -0.67434526373E+01  0.15613827827E+02  0.18022223612E+02  0.51100000000E-03 0. -1.
        -11    1    3    3    0    0  0.12057298650E+02 -0.49732315129E+01  0.94921529815E+01  0.16131101974E+02  0.51100000000E-03 0.  1.
        -12    1    3    3    0    0  0.58518100643E+01  0.60920055632E+01  0.10701808248E+02  0.13633961735E+02  0.00000000000E+00 0.  1.
</event>
<event>
 7    1  0.2580704E-010  0.4778727E+02  0.7816164E-02  0.1312668E+00
        -11   -1    0    0    0    0  0.00000000000E+00  0.00000000000E+00  0.45593999997E+02  0.45594000000E+02  0.51100000000E-03 0.  1.
         11   -1    0    0    0    0 -0.00000000000E+00 -0.00000000000E+00 -0.45593999997E+02  0.45594000000E+02  0.51100000000E-03 0. -1.
    9900012    2    1    2    0    0 -0.32813546155E+01 -0.40716107731E+02  0.14664737527E+02  0.47787271393E+02  0.20000001589E+02 0.  0.
         12    1    1    2    0    0  0.32813546155E+01  0.40716107731E+02 -0.14664737527E+02  0.43400728607E+02  0.00000000000E+00 0. -1.
         11    1    3    3    0    0  0.20097249138E+01 -0.49862385081E+01 -0.20332927525E+01  0.57476819995E+01  0.51100000000E-03 0. -1.
        -11    1    3    3    0    0 -0.74126292050E+01 -0.85593727307E+01  0.52084523816E+01  0.12463462992E+02  0.51100000000E-03 0.  1.
         12    1    3    3    0    0  0.21215496756E+01 -0.27170496492E+02  0.11489577898E+02  0.29576126402E+02  0.00000000000E+00 0. -1.
</event>
<event>
 7    1  0.2580704E-010  0.4778727E+02  0.7816164E-02  0.1312668E+00
        -11   -1    0    0    0    0  0.00000000000E+00  0.00000000000E+00  0.45593999997E+02  0.45594000000E+02  0.51100000000E-03 0.  1.
         11   -1    0    0    0    0 -0.00000000000E+00 -0.00000000000E+00 -0.45593999997E+02  0.45594000000E+02  0.51100000000E-03 0. -1.
    9900012    2    1    2    0    0 -0.58747342678E+01 -0.39723680336E+02 -0.16466337011E+02  0.47787268016E+02  0.19999986194E+02 0.  0.
         12    1    1    2    0    0  0.58747342678E+01  0.39723680336E+02  0.16466337011E+02  0.43400731984E+02  0.00000000000E+00 0. -1.
         11    1    3    3    0    0 -0.65627055293E+00 -0.38427741377E+02 -0.10901337488E+02  0.39949482571E+02  0.51100000000E-03 0. -1.
        -11    1    3    3    0    0 -0.27271725647E+01 -0.13099419936E+01 -0.29362614811E+01  0.42160467231E+01  0.51100000000E-03 0.  1.
         12    1    3    3    0    0 -0.24912911501E+01  0.14003034839E-01 -0.26287380421E+01  0.36217387224E+01  0.00000000000E+00 0. -1.
</event>
<event>
 7    1  0.2580704E-010  0.4778727E+02  0.7816164E-02  0.1312668E+00
        -11   -1    0    0    0    0  0.00000000000E+00  0.00000000000E+00  0.45593999997E+02  0.45594000000E+02  0.51100000000E-03 0.  1.
         11   -1    0    0    0    0 -0.00000000000E+00 -0.00000000000E+00 -0.45593999997E+02  0.45594000000E+02  0.51100000000E-03 0. -1.
    9900012    2    1    2    0    0 -0.23780996922E+02 -0.25245878068E+02  0.26090864320E+02  0.47787269880E+02  0.19999994690E+02 0.  0.
         12    1    1    2    0    0  0.23780996922E+02  0.25245878068E+02 -0.26090864320E+02  0.43400730120E+02  0.00000000000E+00 0. -1.
         11    1    3    3    0    0 -0.14733226748E+02 -0.22695327429E+02  0.23084684618E+02  0.35567520601E+02  0.51100000000E-03 0. -1.
        -11    1    3    3    0    0 -0.44009693195E+00 -0.15955706539E+01  0.31496606102E+01  0.35580743727E+01  0.51100000000E-03 0.  1.
        -12    1    3    3    0    0 -0.86076732419E+01 -0.95497998446E+00 -0.14348090835E+00  0.86616749062E+01  0.00000000000E+00 0.  1.
</event>
<event>
 7    1  0.2580704E-010  0.4778727E+02  0.7816164E-02  0.1312668E+00
        -11   -1    0    0    0    0  0.00000000000E+00  0.00000000000E+00  0.45593999997E+02  0.45594000000E+02  0.51100000000E-03 0. -1.
         11   -1    0    0    0    0 -0.00000000000E+00 -0.00000000000E+00 -0.45593999997E+02  0.45594000000E+02  0.51100000000E-03 0.  1.
    9900012    2    1    2    0    0  0.25088860486E+02  0.34262479019E+02 -0.89585231775E+01  0.47787268133E+02  0.19999986726E+02 0.  0.
         12    1    1    2    0    0 -0.25088860486E+02 -0.34262479019E+02  0.89585231775E+01  0.43400731867E+02  0.00000000000E+00 0. -1.
         11    1    3    3    0    0  0.86061423391E+01  0.62419869166E+01  0.11614389119E+01  0.10694719596E+02  0.51100000000E-03 0. -1.
        -11    1    3    3    0    0  0.16739967215E+02  0.17331258696E+02 -0.10743132076E+02  0.26382075684E+02  0.51100000000E-03 0.  1.
         12    1    3    3    0    0 -0.25724906742E+00  0.10689233407E+02  0.62316998629E+00  0.10710472854E+02  0.00000000000E+00 0. -1.
</event>
<event>
 7    1  0.2580704E-010  0.4778727E+02  0.7816164E-02  0.1312668E+00
        -11   -1    0    0    0    0  0.00000000000E+00  0.00000000000E+00  0.45593999997E+02  0.45594000000E+02  0.51100000000E-03 0.  1.
         11   -1    0    0    0    0 -0.00000000000E+00 -0.00000000000E+00 -0.45593999997E+02  0.45594000000E+02  0.51100000000E-03 0. -1.
    9900012    2    1    2    0    0 -0.26526164370E+02 -0.10163020135E+02  0.32813092277E+02  0.47787269600E+02  0.19999993415E+02 0.  0.
         12    1    1    2    0    0  0.26526164370E+02  0.10163020135E+02 -0.32813092277E+02  0.43400730400E+02  0.00000000000E+00 0. -1.
         11    1    3    3    0    0 -0.71211679432E+01 -0.30776791415E+01  0.62996959593E+01  0.99934634244E+01  0.51100000000E-03 0. -1.
        -11    1    3    3    0    0 -0.16638497356E+02 -0.22847334322E+01  0.82560178594E+01  0.18714204025E+02  0.51100000000E-03 0.  1.
         12    1    3    3    0    0 -0.27664990707E+01 -0.48006075617E+01  0.18257378458E+02  0.19079602151E+02  0.00000000000E+00 0. -1.
</event>
<event>
 7    1  0.2580704E-010  0.4778727E+02  0.7816164E-02  0.1312668E+00
        -11   -1    0    0    0    0  0.00000000000E+00  0.00000000000E+00  0.45593999997E+02  0.45594000000E+02  0.51100000000E-03 0. -1.
         11   -1    0    0    0    0 -0.00000000000E+00 -0.00000000000E+00 -0.45593999997E+02  0.45594000000E+02  0.51100000000E-03 0.  1.
    9900012    2    1    2    0    0 -0.14377096643E+02  0.86024403551E+01 -0.40036484878E+02  0.47787274092E+02  0.20000013897E+02 0.  0.
         12    1    1    2    0    0  0.14377096643E+02 -0.86024403551E+01  0.40036484878E+02  0.43400725908E+02  0.00000000000E+00 0. -1.
         11    1    3    3    0    0  0.48924436799E+00  0.24742978831E+01 -0.22478937675E+01  0.33785406194E+01  0.51100000000E-03 0. -1.
        -11    1    3    3    0    0 -0.48356621229E+01 -0.25265017752E+01 -0.13271484381E+01  0.56149944457E+01  0.51100000000E-03 0.  1.
         12    1    3    3    0    0 -0.10030678888E+02  0.86546442471E+01 -0.36461442672E+02  0.38793739027E+02  0.00000000000E+00 0. -1.
</event>
<event>
 7    1  0.2580704E-010  0.4778727E+02  0.7816164E-02  0.1312668E+00
        -11   -1    0    0    0    0  0.00000000000E+00  0.00000000000E+00  0.45593999997E+02  0.45594000000E+02  0.51100000000E-03 0.  1.
         11   -1    0    0    0    0 -0.00000000000E+00 -0.00000000000E+00 -0.45593999997E+02  0.45594000000E+02  0.51100000000E-03 0. -1.
    9900012    2    1    2    0    0  0.28956146154E+02  0.25281470529E+02  0.20149741806E+02  0.47787271354E+02  0.20000001410E+02 0.  0.
         12    1    1    2    0    0 -0.28956146154E+02 -0.25281470529E+02 -0.20149741806E+02  0.43400728646E+02  0.00000000000E+00 0. -1.
         11    1    3    3    0    0 -0.56814312338E+00 -0.29381497453E+00 -0.13843919110E+01  0.15250098597E+01  0.51100000000E-03 0. -1.
        -11    1    3    3    0    0  0.11979679899E+02  0.13776124358E+02  0.16315715581E+02  0.24484625952E+02  0.51100000000E-03 0.  1.
        -12    1    3    3    0    0  0.17544609378E+02  0.11799161145E+02  0.52184181354E+01  0.21777635542E+02  0.00000000000E+00 0.  1.
</event>
<event>
 7    1  0.2580704E-010  0.4778727E+02  0.7816164E-02  0.1312668E+00
        -11   -1    0    0    0    0  0.00000000000E+00  0.00000000000E+00  0.45593999997E+02  0.45594000000E+02  0.51100000000E-03 0. -1.
         11   -1    0    0    0    0 -0.00000000000E+00 -0.00000000000E+00 -0.45593999997E+02  0.45594000000E+02  0.51100000000E-03 0.  1.
    9900012    2    1    2    0    0  0.42461302117E+00  0.34054039633E+02 -0.26902882724E+02  0.47787274080E+02  0.20000013841E+02 0.  0.
         12    1    1    2    0    0 -0.42461302117E+00 -0.34054039633E+02  0.26902882724E+02  0.43400725920E+02  0.00000000000E+00 0. -1.
         11    1    3    3    0    0 -0.49142648989E+01  0.52867452806E+01 -0.55478976841E+01  0.91037818589E+01  0.51100000000E-03 0. -1.
        -11    1    3    3    0    0  0.63459901690E+01  0.29904732217E+02 -0.21094263836E+02  0.37142059276E+02  0.51100000000E-03 0.  1.
         12    1    3    3    0    0 -0.10071122489E+01 -0.11374378653E+01 -0.26072120427E+00  0.15414329455E+01  0.00000000000E+00 0. -1.
</event>
<event>
 7    1  0.2580704E-010  0.4778727E+02  0.7816164E-02  0.1312668E+00
        -11   -1    0    0    0    0  0.00000000000E+00  0.00000000000E+00  0.45593999997E+02  0.45594000000E+02  0.51100000000E-03 0.  1.
         11   -1    0    0    0    0 -0.00000000000E+00 -0.00000000000E+00 -0.45593999997E+02  0.45594000000E+02  0.51100000000E-03 0. -1.
    9900012    2    1    2    0    0  0.34986490919E+02 -0.25649270045E+02 -0.12976844295E+01  0.47787267454E+02  0.19999983631E+02 0.  0.
         12    1    1    2    0    0 -0.34986490919E+02  0.25649270045E+02  0.12976844295E+01  0.43400732546E+02  0.00000000000E+00 0. -1.
         11    1    3    3    0    0  0.64316783460E+00  0.92288495212E+00  0.28419340758E+01  0.30564638147E+01  0.51100000000E-03 0. -1.
        -11    1    3    3    0    0  0.25736804446E+02 -0.15421589810E+02  0.15858871917E+00  0.30003894514E+02  0.51100000000E-03 0.  1.
        -12    1    3    3    0    0  0.86065186378E+01 -0.11150565187E+02 -0.42982072244E+01  0.14726909125E+02  0.00000000000E+00 0.  1.
</event>
<event>
 7    1  0.2580704E-010  0.4778727E+02  0.7816164E-02  0.1312668E+00
        -11   -1    0    0    0    0  0.00000000000E+00  0.00000000000E+00  0.45593999997E+02  0.45594000000E+02  0.51100000000E-03 0.  1.
         11   -1    0    0    0    0 -0.00000000000E+00 -0.00000000000E+00 -0.45593999997E+02  0.45594000000E+02  0.51100000000E-03 0. -1.
    9900012    2    1    2    0    0 -0.27986264762E+02 -0.32309759160E+02 -0.75147693677E+01  0.47787270618E+02  0.19999998054E+02 0.  0.
         12    1    1    2    0    0  0.27986264762E+02  0.32309759160E+02  0.75147693677E+01  0.43400729382E+02  0.00000000000E+00 0. -1.
         11    1    3    3    0    0 -0.13143504270E+02 -0.17223851064E+02 -0.12416439841E+02  0.24971598438E+02  0.51100000000E-03 0. -1.
        -11    1    3    3    0    0 -0.66880104697E+01 -0.99860438511E+01 -0.39148936420E-02  0.12018759147E+02  0.51100000000E-03 0.  1.
         12    1    3    3    0    0 -0.81547500218E+01 -0.50998642448E+01  0.49055853674E+01  0.10796913032E+02  0.00000000000E+00 0. -1.
</event>
<event>
 7    1  0.2580704E-010  0.4778728E+02  0.7816164E-02  0.1312668E+00
        -11   -1    0    0    0    0  0.00000000000E+00  0.00000000000E+00  0.45593999997E+02  0.45594000000E+02  0.51100000000E-03 0.  1.
         11   -1    0    0    0    0 -0.00000000000E+00 -0.00000000000E+00 -0.45593999997E+02  0.45594000000E+02  0.51100000000E-03 0. -1.
    9900012    2    1    2    0    0 -0.12735741276E+02 -0.10399593215E+02  0.40165560411E+02  0.47787275490E+02  0.20000020269E+02 0.  0.
         12    1    1    2    0    0  0.12735741276E+02  0.10399593215E+02 -0.40165560411E+02  0.43400724510E+02  0.00000000000E+00 0. -1.
         11    1    3    3    0    0 -0.49501418839E+01  0.70113676273E+00  0.26807848145E+01  0.56729273672E+01  0.51100000000E-03 0. -1.
        -11    1    3    3    0    0 -0.87065834008E+01 -0.94666234602E+00  0.14026089547E+02  0.16535777948E+02  0.51100000000E-03 0.  1.
        -12    1    3    3    0    0  0.92098400900E+00 -0.10154067632E+02  0.23458686049E+02  0.25578570175E+02  0.00000000000E+00 0.  1.
</event>
<event>
 7    1  0.2580704E-010  0.4778729E+02  0.7816164E-02  0.1312668E+00
        -11   -1    0    0    0    0  0.00000000000E+00  0.00000000000E+00  0.45593999997E+02  0.45594000000E+02  0.51100000000E-03 0.  1.
         11   -1    0    0    0    0 -0.00000000000E+00 -0.00000000000E+00 -0.45593999997E+02  0.45594000000E+02  0.51100000000E-03 0. -1.
    9900012    2    1    2    0    0  0.14446665403E+02 -0.40293398576E+02  0.71663973853E+01  0.47787293075E+02  0.20000100448E+02 0.  0.
         12    1    1    2    0    0 -0.14446665403E+02  0.40293398576E+02 -0.71663973853E+01  0.43400706925E+02  0.00000000000E+00 0. -1.
         11    1    3    3    0    0  0.30984977355E+00 -0.36319479778E+01 -0.37035463479E+01  0.51964708031E+01  0.51100000000E-03 0. -1.
        -11    1    3    3    0    0  0.82504659198E+01 -0.66529182514E+01  0.26496465259E+01  0.10924840325E+02  0.51100000000E-03 0.  1.
        -12    1    3    3    0    0  0.58863497101E+01 -0.30008532347E+02  0.82202972074E+01  0.31665981947E+02  0.00000000000E+00 0.  1.
</event>
<event>
 7    1  0.2580704E-010  0.4778727E+02  0.7816164E-02  0.1312668E+00
        -11   -1    0    0    0    0  0.00000000000E+00  0.00000000000E+00  0.45593999997E+02  0.45594000000E+02  0.51100000000E-03 0.  1.
         11   -1    0    0    0    0 -0.00000000000E+00 -0.00000000000E+00 -0.45593999997E+02  0.45594000000E+02  0.51100000000E-03 0. -1.
    9900012    2    1    2    0    0 -0.24871000849E+02  0.16820941379E+02  0.31338679443E+02  0.47787267502E+02  0.19999983850E+02 0.  0.
         12    1    1    2    0    0  0.24871000849E+02 -0.16820941379E+02 -0.31338679443E+02  0.43400732498E+02  0.00000000000E+00 0. -1.
         11    1    3    3    0    0 -0.18680067312E+02  0.47230571128E+01  0.20035383552E+02  0.27796920290E+02  0.51100000000E-03 0.  1.
        -11    1    3    3    0    0 -0.22394115286E+01  0.40828445056E+01  0.99055306742E+01  0.10945506907E+02  0.51100000000E-03 0. -1.
         12    1    3    3    0    0 -0.39515220082E+01  0.80150397611E+01  0.13977652172E+01  0.90448403057E+01  0.00000000000E+00 0. -1.
</event>
<event>
 7    1  0.2580704E-010  0.4778727E+02  0.7816164E-02  0.1312668E+00
        -11   -1    0    0    0    0  0.00000000000E+00  0.00000000000E+00  0.45593999997E+02  0.45594000000E+02  0.51100000000E-03 0.  1.
         11   -1    0    0    0    0 -0.00000000000E+00 -0.00000000000E+00 -0.45593999997E+02  0.45594000000E+02  0.51100000000E-03 0. -1.
    9900012    2    1    2    0    0 -0.20428568885E+02  0.10411868656E+02  0.36849562038E+02  0.47787266619E+02  0.19999979823E+02 0.  0.
         12    1    1    2    0    0  0.20428568885E+02 -0.10411868656E+02 -0.36849562038E+02  0.43400733381E+02  0.00000000000E+00 0. -1.
         11    1    3    3    0    0  0.18357590685E+01 -0.24320380682E+00  0.21192225558E+01  0.28142963510E+01  0.51100000000E-03 0. -1.
        -11    1    3    3    0    0 -0.41958608740E+01  0.65931500562E+01  0.32806836115E+01  0.84757159790E+01  0.51100000000E-03 0.  1.
        -12    1    3    3    0    0 -0.18068467079E+02  0.40619224069E+01  0.31449655871E+02  0.36497254289E+02  0.00000000000E+00 0.  1.
</event>
<event>
 7    1  0.2580704E-010  0.4778728E+02  0.7816164E-02  0.1312668E+00
        -11   -1    0    0    0    0  0.00000000000E+00  0.00000000000E+00  0.45593999997E+02  0.45594000000E+02  0.51100000000E-03 0.  1.
         11   -1    0    0    0    0 -0.00000000000E+00 -0.00000000000E+00 -0.45593999997E+02  0.45594000000E+02  0.51100000000E-03 0. -1.
    9900012    2    1    2    0    0  0.17230142957E+02  0.34754126045E+02  0.19465239255E+02  0.47787278316E+02  0.20000033152E+02 0.  0.
         12    1    1    2    0    0 -0.17230142957E+02 -0.34754126045E+02 -0.19465239255E+02  0.43400721684E+02  0.00000000000E+00 0. -1.
         11    1    3    3    0    0  0.61235474467E+01  0.73070427238E+00  0.14750514062E+01  0.63409414898E+01  0.51100000000E-03 0. -1.
        -11    1    3    3    0    0 -0.99102117237E+00  0.12726974254E+02  0.48873911644E+01  0.13669110771E+02  0.51100000000E-03 0.  1.
        -12    1    3    3    0    0  0.12097616683E+02  0.21296447519E+02  0.13102796684E+02  0.27777226054E+02  0.00000000000E+00 0.  1.
</event>
<event>
 7    1  0.2580704E-010  0.4778726E+02  0.7816164E-02  0.1312668E+00
        -11   -1    0    0    0    0  0.00000000000E+00  0.00000000000E+00  0.45593999997E+02  0.45594000000E+02  0.51100000000E-03 0. -1.
         11   -1    0    0    0    0 -0.00000000000E+00 -0.00000000000E+00 -0.45593999997E+02  0.45594000000E+02  0.51100000000E-03 0.  1.
    9900012    2    1    2    0    0 -0.14889454513E+02  0.16752489999E+02 -0.37165604830E+02  0.47787263148E+02  0.19999963998E+02 0.  0.
         12    1    1    2    0    0  0.14889454513E+02 -0.16752489999E+02  0.37165604830E+02  0.43400736852E+02  0.00000000000E+00 0. -1.
         11    1    3    3    0    0 -0.27359433389E+01  0.65108240478E+01 -0.53664735607E+01  0.88699072415E+01  0.51100000000E-03 0. -1.
        -11    1    3    3    0    0 -0.15614997649E+02  0.88624603306E+01 -0.29514040909E+02  0.34546345186E+02  0.51100000000E-03 0.  1.
        -12    1    3    3    0    0  0.34614864752E+01  0.13792056208E+01 -0.22850903609E+01  0.43710107206E+01  0.00000000000E+00 0.  1.
</event>
<event>
 7    1  0.2580704E-010  0.4778727E+02  0.7816164E-02  0.1312668E+00
        -11   -1    0    0    0    0  0.00000000000E+00  0.00000000000E+00  0.45593999997E+02  0.45594000000E+02  0.51100000000E-03 0.  1.
         11   -1    0    0    0    0 -0.00000000000E+00 -0.00000000000E+00 -0.45593999997E+02  0.45594000000E+02  0.51100000000E-03 0. -1.
    9900012    2    1    2    0    0 -0.19248763002E+02 -0.18549591428E+02  0.34190957038E+02  0.47787265416E+02  0.19999974337E+02 0.  0.
         12    1    1    2    0    0  0.19248763002E+02  0.18549591428E+02 -0.34190957038E+02  0.43400734584E+02  0.00000000000E+00 0. -1.
         11    1    3    3    0    0 -0.73475779700E+01 -0.79295489885E+01  0.10887614218E+02  0.15342906921E+02  0.51100000000E-03 0.  1.
        -11    1    3    3    0    0 -0.64615835673E+01 -0.63754036140E+01  0.23853936916E+02  0.25522698527E+02  0.51100000000E-03 0. -1.
         12    1    3    3    0    0 -0.54396014642E+01 -0.42446388259E+01 -0.55059409513E+00  0.69216599678E+01  0.00000000000E+00 0. -1.
</event>
<event>
 7    1  0.2580704E-010  0.4778727E+02  0.7816164E-02  0.1312668E+00
        -11   -1    0    0    0    0  0.00000000000E+00  0.00000000000E+00  0.45593999997E+02  0.45594000000E+02  0.51100000000E-03 0. -1.
         11   -1    0    0    0    0 -0.00000000000E+00 -0.00000000000E+00 -0.45593999997E+02  0.45594000000E+02  0.51100000000E-03 0.  1.
    9900012    2    1    2    0    0 -0.19863110597E+02 -0.37476784516E+02 -0.91962548162E+01  0.47787266793E+02  0.19999980616E+02 0.  0.
         12    1    1    2    0    0  0.19863110597E+02  0.37476784516E+02  0.91962548162E+01  0.43400733207E+02  0.00000000000E+00 0. -1.
         11    1    3    3    0    0 -0.11712365018E+02 -0.18573141103E+02 -0.16564355496E+01  0.22020100902E+02  0.51100000000E-03 0. -1.
        -11    1    3    3    0    0 -0.11406994914E+02 -0.17794945034E+02 -0.71082503456E+01  0.22300377238E+02  0.51100000000E-03 0.  1.
         12    1    3    3    0    0  0.32562493351E+01 -0.11086983793E+01 -0.43156892106E+00  0.34667886527E+01  0.00000000000E+00 0. -1.
</event>
<event>
 7    1  0.2580704E-010  0.4778727E+02  0.7816164E-02  0.1312668E+00
        -11   -1    0    0    0    0  0.00000000000E+00  0.00000000000E+00  0.45593999997E+02  0.45594000000E+02  0.51100000000E-03 0.  1.
         11   -1    0    0    0    0 -0.00000000000E+00 -0.00000000000E+00 -0.45593999997E+02  0.45594000000E+02  0.51100000000E-03 0. -1.
    9900012    2    1    2    0    0 -0.10489682457E+01 -0.22404872721E+02  0.37155683308E+02  0.47787268922E+02  0.19999990324E+02 0.  0.
         12    1    1    2    0    0  0.10489682457E+01  0.22404872721E+02 -0.37155683308E+02  0.43400731078E+02  0.00000000000E+00 0. -1.
         11    1    3    3    0    0 -0.99167541329E-01 -0.10757968522E+01  0.38459822425E+00  0.11467733532E+01  0.51100000000E-03 0. -1.
        -11    1    3    3    0    0  0.48828522645E+01 -0.15530783061E+02  0.11151807535E+02  0.19733481200E+02  0.51100000000E-03 0.  1.
        -12    1    3    3    0    0 -0.58326529689E+01 -0.57982928077E+01  0.25619277549E+02  0.26907014369E+02  0.00000000000E+00 0.  1.
</event>
<event>
 7    1  0.2580704E-010  0.4778726E+02  0.7816164E-02  0.1312668E+00
        -11   -1    0    0    0    0  0.00000000000E+00  0.00000000000E+00  0.45593999997E+02  0.45594000000E+02  0.51100000000E-03 0.  1.
         11   -1    0    0    0    0 -0.00000000000E+00 -0.00000000000E+00 -0.45593999997E+02  0.45594000000E+02  0.51100000000E-03 0. -1.
    9900012    2    1    2    0    0  0.41974815987E+02  0.90221673947E+01  0.63513703498E+01  0.47787255917E+02  0.19999931029E+02 0.  0.
         12    1    1    2    0    0 -0.41974815987E+02 -0.90221673947E+01 -0.63513703498E+01  0.43400744083E+02  0.00000000000E+00 0. -1.
         11    1    3    3    0    0  0.54548484287E+01  0.41737973462E+01  0.77011255133E+01  0.10319074091E+02  0.51100000000E-03 0.  1.
        -11    1    3    3    0    0  0.31001884816E+01  0.11632566083E+01 -0.19456577351E+01  0.38405623079E+01  0.51100000000E-03 0. -1.
        -12    1    3    3    0    0  0.33419779076E+02  0.36851134402E+01  0.59590257162E+00  0.33627619518E+02  0.00000000000E+00 0.  1.
</event>
<event>
 7    1  0.2580704E-010  0.4778727E+02  0.7816164E-02  0.1312668E+00
        -11   -1    0    0    0    0  0.00000000000E+00  0.00000000000E+00  0.45593999997E+02  0.45594000000E+02  0.51100000000E-03 0. -1.
         11   -1    0    0    0    0 -0.00000000000E+00 -0.00000000000E+00 -0.45593999997E+02  0.45594000000E+02  0.51100000000E-03 0.  1.
    9900012    2    1    2    0    0 -0.35173014235E+02 -0.23293709635E+02  0.10192427668E+02  0.47787269353E+02  0.19999992288E+02 0.  0.
         12    1    1    2    0    0  0.35173014235E+02  0.23293709635E+02 -0.10192427668E+02  0.43400730647E+02  0.00000000000E+00 0. -1.
         11    1    3    3    0    0 -0.19405820930E+02 -0.15150003273E+02  0.93359739989E+01  0.26329999922E+02  0.51100000000E-03 0. -1.
        -11    1    3    3    0    0 -0.92004912952E+01 -0.62334638950E+01  0.62475210314E+01  0.12748985509E+02  0.51100000000E-03 0.  1.
        -12    1    3    3    0    0 -0.65667020096E+01 -0.19102424664E+01 -0.53910673619E+01  0.87082839218E+01  0.00000000000E+00 0.  1.
</event>
<event>
 7    1  0.2580704E-010  0.4778727E+02  0.7816164E-02  0.1312668E+00
        -11   -1    0    0    0    0  0.00000000000E+00  0.00000000000E+00  0.45593999997E+02  0.45594000000E+02  0.51100000000E-03 0.  1.
         11   -1    0    0    0    0 -0.00000000000E+00 -0.00000000000E+00 -0.45593999997E+02  0.45594000000E+02  0.51100000000E-03 0. -1.
    9900012    2    1    2    0    0  0.23901890699E+02  0.56684499874E+01  0.35779764245E+02  0.47787271508E+02  0.20000002113E+02 0.  0.
         12    1    1    2    0    0 -0.23901890699E+02 -0.56684499874E+01 -0.35779764245E+02  0.43400728492E+02  0.00000000000E+00 0. -1.
         11    1    3    3    0    0  0.13980381836E+02  0.98990920812E+01  0.13524442950E+02  0.21825527661E+02  0.51100000000E-03 0. -1.
        -11    1    3    3    0    0 -0.96232431845E+00  0.91412625964E+00  0.23642781559E+01  0.27113661450E+01  0.51100000000E-03 0.  1.
        -12    1    3    3    0    0  0.10883833182E+02 -0.51447683534E+01  0.19891043139E+02  0.23250377702E+02  0.00000000000E+00 0.  1.
</event>
<event>
 7    1  0.2580704E-010  0.4778727E+02  0.7816164E-02  0.1312668E+00
        -11   -1    0    0    0    0  0.00000000000E+00  0.00000000000E+00  0.45593999997E+02  0.45594000000E+02  0.51100000000E-03 0.  1.
         11   -1    0    0    0    0 -0.00000000000E+00 -0.00000000000E+00 -0.45593999997E+02  0.45594000000E+02  0.51100000000E-03 0. -1.
    9900012    2    1    2    0    0 -0.25372314798E+02  0.62613244186E+00  0.35206204648E+02  0.47787271368E+02  0.20000001475E+02 0.  0.
         12    1    1    2    0    0  0.25372314798E+02 -0.62613244186E+00 -0.35206204648E+02  0.43400728632E+02  0.00000000000E+00 0. -1.
         11    1    3    3    0    0 -0.59125422206E+01  0.16321249092E+01  0.17142047425E+02  0.18206366398E+02  0.51100000000E-03 0. -1.
        -11    1    3    3    0    0 -0.15721257200E+02  0.47265243858E+01  0.14293895047E+02  0.21767255146E+02  0.51100000000E-03 0.  1.
        -12    1    3    3    0    0 -0.37385153776E+01 -0.57325168531E+01  0.37702621765E+01  0.78136498245E+01  0.00000000000E+00 0.  1.
</event>
<event>
 7    1  0.2580704E-010  0.4778727E+02  0.7816164E-02  0.1312668E+00
        -11   -1    0    0    0    0  0.00000000000E+00  0.00000000000E+00  0.45593999997E+02  0.45594000000E+02  0.51100000000E-03 0.  1.
         11   -1    0    0    0    0 -0.00000000000E+00 -0.00000000000E+00 -0.45593999997E+02  0.45594000000E+02  0.51100000000E-03 0. -1.
    9900012    2    1    2    0    0 -0.16953238776E+02 -0.56209243169E+01  0.39555231072E+02  0.47787269587E+02  0.19999993356E+02 0.  0.
         12    1    1    2    0    0  0.16953238776E+02  0.56209243169E+01 -0.39555231072E+02  0.43400730413E+02  0.00000000000E+00 0. -1.
         11    1    3    3    0    0 -0.15787013091E+00 -0.35250295635E+01  0.11131819901E+02  0.11677678321E+02  0.51100000000E-03 0. -1.
        -11    1    3    3    0    0 -0.15441543926E+02 -0.14884003858E+01  0.30104997876E+02  0.33866908804E+02  0.51100000000E-03 0.  1.
         12    1    3    3    0    0 -0.13538247198E+01 -0.60749436764E+00 -0.16815867054E+01  0.22426824622E+01  0.00000000000E+00 0. -1.
</event>
<event>
 7    1  0.2580704E-010  0.4778727E+02  0.7816164E-02  0.1312668E+00
        -11   -1    0    0    0    0  0.00000000000E+00  0.00000000000E+00  0.45593999997E+02  0.45594000000E+02  0.51100000000E-03 0. -1.
         11   -1    0    0    0    0 -0.00000000000E+00 -0.00000000000E+00 -0.45593999997E+02  0.45594000000E+02  0.51100000000E-03 0.  1.
    9900012    2    1    2    0    0  0.31996423638E+02 -0.29299651226E+02  0.11758974951E+01  0.47787269332E+02  0.19999992194E+02 0.  0.
         12    1    1    2    0    0 -0.31996423638E+02  0.29299651226E+02 -0.11758974951E+01  0.43400730668E+02  0.00000000000E+00 0. -1.
         11    1    3    3    0    0  0.34562294859E+01 -0.33803203802E+01 -0.21766548969E+01  0.53018784344E+01  0.51100000000E-03 0. -1.
        -11    1    3    3    0    0  0.11441652268E+02 -0.14561279866E+02 -0.66168782239E+01  0.19665333856E+02  0.51100000000E-03 0.  1.
         12    1    3    3    0    0  0.17098541884E+02 -0.11358050979E+02  0.99694306159E+01  0.22820057042E+02  0.00000000000E+00 0. -1.
</event>
<event>
 7    1  0.2580704E-010  0.4778726E+02  0.7816164E-02  0.1312668E+00
        -11   -1    0    0    0    0  0.00000000000E+00  0.00000000000E+00  0.45593999997E+02  0.45594000000E+02  0.51100000000E-03 0.  1.
         11   -1    0    0    0    0 -0.00000000000E+00 -0.00000000000E+00 -0.45593999997E+02  0.45594000000E+02  0.51100000000E-03 0. -1.
    9900012    2    1    2    0    0  0.23101250879E+02 -0.25697745811E+02  0.26259893471E+02  0.47787263405E+02  0.19999965168E+02 0.  0.
         12    1    1    2    0    0 -0.23101250879E+02  0.25697745811E+02 -0.26259893471E+02  0.43400736595E+02  0.00000000000E+00 0. -1.
         11    1    3    3    0    0  0.22421803436E+02 -0.14089413801E+02  0.17273311248E+02  0.31616706538E+02  0.51100000000E-03 0.  1.
        -11    1    3    3    0    0  0.35236067957E+01 -0.53228678884E+01  0.55698458477E+01  0.84718304065E+01  0.51100000000E-03 0. -1.
         12    1    3    3    0    0 -0.28441593533E+01 -0.62854641218E+01  0.34167363752E+01  0.76987264603E+01  0.00000000000E+00 0. -1.
</event>
<event>
 7    1  0.2580704E-010  0.4778727E+02  0.7816164E-02  0.1312668E+00
        -11   -1    0    0    0    0  0.00000000000E+00  0.00000000000E+00  0.45593999997E+02  0.45594000000E+02  0.51100000000E-03 0.  1.
         11   -1    0    0    0    0 -0.00000000000E+00 -0.00000000000E+00 -0.45593999997E+02  0.45594000000E+02  0.51100000000E-03 0. -1.
    9900012    2    1    2    0    0  0.10270300824E+01  0.41565067653E+02  0.12446438472E+02  0.47787268781E+02  0.19999989678E+02 0.  0.
         12    1    1    2    0    0 -0.10270300824E+01 -0.41565067653E+02 -0.12446438472E+02  0.43400731219E+02  0.00000000000E+00 0. -1.
         11    1    3    3    0    0  0.29131671612E-02  0.14068629160E+02 -0.26114313019E+01  0.14308945057E+02  0.51100000000E-03 0. -1.
        -11    1    3    3    0    0  0.69088242521E-01  0.15768691861E+02  0.19904551752E+01  0.15893971444E+02  0.51100000000E-03 0.  1.
         12    1    3    3    0    0  0.95502867275E+00  0.11727746631E+02  0.13067414598E+02  0.17584352280E+02  0.00000000000E+00 0. -1.
</event>
<event>
 7    1  0.2580704E-010  0.4778727E+02  0.7816164E-02  0.1312668E+00
        -11   -1    0    0    0    0  0.00000000000E+00  0.00000000000E+00  0.45593999997E+02  0.45594000000E+02  0.51100000000E-03 0. -1.
         11   -1    0    0    0    0 -0.00000000000E+00 -0.00000000000E+00 -0.45593999997E+02  0.45594000000E+02  0.51100000000E-03 0.  1.
    9900012    2    1    2    0    0 -0.20751822922E+02  0.46903984076E+00 -0.38115154329E+02  0.47787272558E+02  0.20000006901E+02 0.  0.
         12    1    1    2    0    0  0.20751822922E+02 -0.46903984076E+00  0.38115154329E+02  0.43400727442E+02  0.00000000000E+00 0. -1.
         11    1    3    3    0    0 -0.69324159627E+01 -0.12052402043E+01 -0.13450969725E+01  0.71638174988E+01  0.51100000000E-03 0. -1.
        -11    1    3    3    0    0 -0.84092354794E+01  0.43900244787E+01 -0.12990155531E+02  0.16085139018E+02  0.51100000000E-03 0.  1.
         12    1    3    3    0    0 -0.54101714802E+01 -0.27157444336E+01 -0.23779901826E+02  0.24538316041E+02  0.00000000000E+00 0. -1.
</event>
<event>
 7    1  0.2580704E-010  0.4778727E+02  0.7816164E-02  0.1312668E+00
        -11   -1    0    0    0    0  0.00000000000E+00  0.00000000000E+00  0.45593999997E+02  0.45594000000E+02  0.51100000000E-03 0.  1.
         11   -1    0    0    0    0 -0.00000000000E+00 -0.00000000000E+00 -0.45593999997E+02  0.45594000000E+02  0.51100000000E-03 0. -1.
    9900012    2    1    2    0    0  0.40255149316E+02  0.14214415517E+02 -0.78164524215E+01  0.47787267479E+02  0.19999983744E+02 0.  0.
         12    1    1    2    0    0 -0.40255149316E+02 -0.14214415517E+02  0.78164524215E+01  0.43400732521E+02  0.00000000000E+00 0. -1.
         11    1    3    3    0    0  0.60883456628E+01  0.28840371728E+01  0.43548928470E+01  0.80218897583E+01  0.51100000000E-03 0. -1.
        -11    1    3    3    0    0  0.71880695846E+00  0.23943880190E+01  0.10420942485E+01  0.27084567770E+01  0.51100000000E-03 0.  1.
        -12    1    3    3    0    0  0.33447996694E+02  0.89359903247E+01 -0.13213439517E+02  0.37056920944E+02  0.00000000000E+00 0.  1.
</event>
<event>
 7    1  0.2580704E-010  0.4778727E+02  0.7816164E-02  0.1312668E+00
        -11   -1    0    0    0    0  0.00000000000E+00  0.00000000000E+00  0.45593999997E+02  0.45594000000E+02  0.51100000000E-03 0. -1.
         11   -1    0    0    0    0 -0.00000000000E+00 -0.00000000000E+00 -0.45593999997E+02  0.45594000000E+02  0.51100000000E-03 0.  1.
    9900012    2    1    2    0    0  0.15015899810E+02 -0.28877087983E+02 -0.28709922409E+02  0.47787273022E+02  0.20000009016E+02 0.  0.
         12    1    1    2    0    0 -0.15015899810E+02  0.28877087983E+02  0.28709922409E+02  0.43400726978E+02  0.00000000000E+00 0. -1.
         11    1    3    3    0    0  0.42363472343E+01 -0.65959064186E+00 -0.40111471607E+01  0.58712008576E+01  0.51100000000E-03 0. -1.
        -11    1    3    3    0    0  0.92754679199E+01 -0.22000168505E+02 -0.26094414677E+02  0.35368915688E+02  0.51100000000E-03 0.  1.
         12    1    3    3    0    0  0.15040846559E+01 -0.62173288361E+01  0.13956394281E+01  0.65471564761E+01  0.00000000000E+00 0. -1.
</event>
<event>
 7    1  0.2580704E-010  0.4778728E+02  0.7816164E-02  0.1312668E+00
        -11   -1    0    0    0    0  0.00000000000E+00  0.00000000000E+00  0.45593999997E+02  0.45594000000E+02  0.51100000000E-03 0.  1.
         11   -1    0    0    0    0 -0.00000000000E+00 -0.00000000000E+00 -0.45593999997E+02  0.45594000000E+02  0.51100000000E-03 0. -1.
    9900012    2    1    2    0    0 -0.66762653559E+01  0.39629572590E+02  0.16387407867E+02  0.47787277894E+02  0.20000031229E+02 0.  0.
         12    1    1    2    0    0  0.66762653559E+01 -0.39629572590E+02 -0.16387407867E+02  0.43400722106E+02  0.00000000000E+00 0. -1.
         11    1    3    3    0    0  0.30226140748E+00 -0.14369919178E+01  0.17347924680E+01  0.22728424711E+01  0.51100000000E-03 0. -1.
        -11    1    3    3    0    0 -0.34523506244E+01  0.81232870132E+01  0.75843591959E+01  0.11637397536E+02  0.51100000000E-03 0.  1.
        -12    1    3    3    0    0 -0.35261761389E+01  0.32943277494E+02  0.70682562028E+01  0.33877037887E+02  0.00000000000E+00 0.  1.
</event>
<event>
 7    1  0.2580704E-010  0.4778727E+02  0.7816164E-02  0.1312668E+00
        -11   -1    0    0    0    0  0.00000000000E+00  0.00000000000E+00  0.45593999997E+02  0.45594000000E+02  0.51100000000E-03 0.  1.
         11   -1    0    0    0    0 -0.00000000000E+00 -0.00000000000E+00 -0.45593999997E+02  0.45594000000E+02  0.51100000000E-03 0. -1.
    9900012    2    1    2    0    0 -0.37433321351E+02 -0.20284343316E+02 -0.84211089624E+01  0.47787271811E+02  0.20000003496E+02 0.  0.
         12    1    1    2    0    0  0.37433321351E+02  0.20284343316E+02  0.84211089624E+01  0.43400728189E+02  0.00000000000E+00 0. -1.
         11    1    3    3    0    0 -0.28904411878E+01 -0.42378344400E+01 -0.76601832559E+01  0.92191267903E+01  0.51100000000E-03 0. -1.
        -11    1    3    3    0    0 -0.11874913642E+02 -0.26925741553E+01  0.87923349408E+00  0.12208053956E+02  0.51100000000E-03 0.  1.
        -12    1    3    3    0    0 -0.22667966521E+02 -0.13353934721E+02 -0.16401592006E+01  0.26360091065E+02  0.00000000000E+00 0.  1.
</event>
<event>
 7    1  0.2580704E-010  0.4778727E+02  0.7816164E-02  0.1312668E+00
        -11   -1    0    0    0    0  0.00000000000E+00  0.00000000000E+00  0.45593999997E+02  0.45594000000E+02  0.51100000000E-03 0.  1.
         11   -1    0    0    0    0 -0.00000000000E+00 -0.00000000000E+00 -0.45593999997E+02  0.45594000000E+02  0.51100000000E-03 0. -1.
    9900012    2    1    2    0    0 -0.16640037431E+02 -0.15146030899E+02  0.37112404575E+02  0.47787266469E+02  0.19999979139E+02 0.  0.
         12    1    1    2    0    0  0.16640037431E+02  0.15146030899E+02 -0.37112404575E+02  0.43400733531E+02  0.00000000000E+00 0. -1.
         11    1    3    3    0    0 -0.89511979618E+01 -0.61689049601E+01  0.58662447181E+01  0.12352819950E+02  0.51100000000E-03 0. -1.
        -11    1    3    3    0    0 -0.85302542065E+01 -0.88560588840E+00  0.15921589855E+02  0.18084428617E+02  0.51100000000E-03 0.  1.
         12    1    3    3    0    0  0.84141473722E+00 -0.80915200507E+01  0.15324570001E+02  0.17350017902E+02  0.00000000000E+00 0. -1.
</event>
<event>
 7    1  0.2580704E-010  0.4778727E+02  0.7816164E-02  0.1312668E+00
        -11   -1    0    0    0    0  0.00000000000E+00  0.00000000000E+00  0.45593999997E+02  0.45594000000E+02  0.51100000000E-03 0.  1.
         11   -1    0    0    0    0 -0.00000000000E+00 -0.00000000000E+00 -0.45593999997E+02  0.45594000000E+02  0.51100000000E-03 0. -1.
    9900012    2    1    2    0    0 -0.24802143638E+02 -0.14534961315E+02  0.32514791173E+02  0.47787273341E+02  0.20000010473E+02 0.  0.
         12    1    1    2    0    0  0.24802143638E+02  0.14534961315E+02 -0.32514791173E+02  0.43400726659E+02  0.00000000000E+00 0. -1.
         11    1    3    3    0    0 -0.99135709746E+01 -0.48999982241E+01  0.92503421891E+01  0.14417270995E+02  0.51100000000E-03 0.  1.
        -11    1    3    3    0    0 -0.37244828096E+01 -0.73801262179E+01  0.19813929303E+02  0.21469276417E+02  0.51100000000E-03 0. -1.
        -12    1    3    3    0    0 -0.11164089854E+02 -0.22548368734E+01  0.34505196812E+01  0.11900725930E+02  0.00000000000E+00 0.  1.
</event>
<event>
 7    1  0.2580704E-010  0.4778727E+02  0.7816164E-02  0.1312668E+00
        -11   -1    0    0    0    0  0.00000000000E+00  0.00000000000E+00  0.45593999997E+02  0.45594000000E+02  0.51100000000E-03 0.  1.
         11   -1    0    0    0    0 -0.00000000000E+00 -0.00000000000E+00 -0.45593999997E+02  0.45594000000E+02  0.51100000000E-03 0. -1.
    9900012    2    1    2    0    0 -0.14356456282E+02  0.20836097248E+02  0.35261484716E+02  0.47787273164E+02  0.20000009665E+02 0.  0.
         12    1    1    2    0    0  0.14356456282E+02 -0.20836097248E+02 -0.35261484716E+02  0.43400726836E+02  0.00000000000E+00 0. -1.
         11    1    3    3    0    0 -0.59854263144E+01  0.23547375322E+01  0.14827405900E+02  0.16162366256E+02  0.51100000000E-03 0. -1.
        -11    1    3    3    0    0 -0.11557149360E+02  0.11507215196E+02  0.15549380033E+02  0.22533684176E+02  0.51100000000E-03 0.  1.
         12    1    3    3    0    0  0.31861193920E+01  0.69741445197E+01  0.48846987832E+01  0.90912227321E+01  0.00000000000E+00 0. -1.
</event>
<event>
 7    1  0.2580704E-010  0.4778727E+02  0.7816164E-02  0.1312668E+00
        -11   -1    0    0    0    0  0.00000000000E+00  0.00000000000E+00  0.45593999997E+02  0.45594000000E+02  0.51100000000E-03 0. -1.
         11   -1    0    0    0    0 -0.00000000000E+00 -0.00000000000E+00 -0.45593999997E+02  0.45594000000E+02  0.51100000000E-03 0.  1.
    9900012    2    1    2    0    0  0.15285573067E+02 -0.36748411058E+02 -0.17306904163E+02  0.47787269695E+02  0.19999993849E+02 0.  0.
         12    1    1    2    0    0 -0.15285573067E+02  0.36748411058E+02  0.17306904163E+02  0.43400730305E+02  0.00000000000E+00 0. -1.
         11    1    3    3    0    0  0.47951661885E+01 -0.15436253555E+02 -0.67515444879E+01  0.17517274212E+02  0.51100000000E-03 0. -1.
        -11    1    3    3    0    0 -0.40668191598E+00 -0.16333413932E+02 -0.69827377319E+01  0.17768073259E+02  0.51100000000E-03 0.  1.
         12    1    3    3    0    0  0.10897088795E+02 -0.49787435712E+01 -0.35726219435E+01  0.12501922224E+02  0.00000000000E+00 0. -1.
</event>
<event>
 7    1  0.2580704E-010  0.4778727E+02  0.7816164E-02  0.1312668E+00
        -11   -1    0    0    0    0  0.00000000000E+00  0.00000000000E+00  0.45593999997E+02  0.45594000000E+02  0.51100000000E-03 0.  1.
         11   -1    0    0    0    0 -0.00000000000E+00 -0.00000000000E+00 -0.45593999997E+02  0.45594000000E+02  0.51100000000E-03 0. -1.
    9900012    2    1    2    0    0  0.15709303261E+02  0.40429252857E+02  0.15220240029E+01  0.47787271290E+02  0.20000001120E+02 0.  0.
         12    1    1    2    0    0 -0.15709303261E+02 -0.40429252857E+02 -0.15220240029E+01  0.43400728710E+02  0.00000000000E+00 0. -1.
         11    1    3    3    0    0  0.42468582126E+00 -0.90355402405E+00  0.67086764706E+00  0.12028431245E+01  0.51100000000E-03 0. -1.
        -11    1    3    3    0    0  0.11858937012E+02  0.21462417796E+02  0.70067341735E+01  0.25502236936E+02  0.51100000000E-03 0.  1.
        -12    1    3    3    0    0  0.34256804272E+01  0.19870389085E+02 -0.61555778176E+01  0.21082191229E+02  0.00000000000E+00 0.  1.
</event>
<event>
 7    1  0.2580704E-010  0.4778727E+02  0.7816164E-02  0.1312668E+00
        -11   -1    0    0    0    0  0.00000000000E+00  0.00000000000E+00  0.45593999997E+02  0.45594000000E+02  0.51100000000E-03 0.  1.
         11   -1    0    0    0    0 -0.00000000000E+00 -0.00000000000E+00 -0.45593999997E+02  0.45594000000E+02  0.51100000000E-03 0. -1.
    9900012    2    1    2    0    0 -0.31316318554E+02  0.12555159135E+02  0.27299810652E+02  0.47787268551E+02  0.19999988631E+02 0.  0.
         12    1    1    2    0    0  0.31316318554E+02 -0.12555159135E+02 -0.27299810652E+02  0.43400731449E+02  0.00000000000E+00 0. -1.
         11    1    3    3    0    0 -0.27327147755E+00  0.15918710457E+01 -0.58191471006E-01  0.16162045770E+01  0.51100000000E-03 0. -1.
        -11    1    3    3    0    0 -0.20948260611E+02 -0.14306025665E+01  0.17945133614E+02  0.27620718075E+02  0.51100000000E-03 0.  1.
         12    1    3    3    0    0 -0.10094786466E+02  0.12393890656E+02  0.94128685092E+01  0.18550345898E+02  0.00000000000E+00 0. -1.
</event>
<event>
 7    1  0.2580704E-010  0.4778727E+02  0.7816164E-02  0.1312668E+00
        -11   -1    0    0    0    0  0.00000000000E+00  0.00000000000E+00  0.45593999997E+02  0.45594000000E+02  0.51100000000E-03 0.  1.
         11   -1    0    0    0    0 -0.00000000000E+00 -0.00000000000E+00 -0.45593999997E+02  0.45594000000E+02  0.51100000000E-03 0. -1.
    9900012    2    1    2    0    0  0.80148630437E+01 -0.69085645032E+01  0.42091055355E+02  0.47787271504E+02  0.20000002096E+02 0.  0.
         12    1    1    2    0    0 -0.80148630437E+01  0.69085645032E+01 -0.42091055355E+02  0.43400728496E+02  0.00000000000E+00 0. -1.
         11    1    3    3    0    0  0.37926877039E+01  0.12250041713E+01  0.38997629148E+01  0.55761336328E+01  0.51100000000E-03 0. -1.
        -11    1    3    3    0    0  0.67709445822E+01 -0.62286151127E+01  0.37917188498E+02  0.39017361784E+02  0.51100000000E-03 0.  1.
         12    1    3    3    0    0 -0.25487692424E+01 -0.19049535618E+01  0.27410394228E+00  0.31937760872E+01  0.00000000000E+00 0. -1.
</event>
<event>
 7    1  0.2580704E-010  0.4778727E+02  0.7816164E-02  0.1312668E+00
        -11   -1    0    0    0    0  0.00000000000E+00  0.00000000000E+00  0.45593999997E+02  0.45594000000E+02  0.51100000000E-03 0.  1.
         11   -1    0    0    0    0 -0.00000000000E+00 -0.00000000000E+00 -0.45593999997E+02  0.45594000000E+02  0.51100000000E-03 0. -1.
    9900012    2    1    2    0    0 -0.19547988857E+02  0.13038472621E+02  0.36489694169E+02  0.47787269393E+02  0.19999992471E+02 0.  0.
         12    1    1    2    0    0  0.19547988857E+02 -0.13038472621E+02 -0.36489694169E+02  0.43400730607E+02  0.00000000000E+00 0. -1.
         11    1    3    3    0    0 -0.11539320061E+01  0.25861116731E+00 -0.76927932911E+00  0.14107550311E+01  0.51100000000E-03 0. -1.
        -11    1    3    3    0    0 -0.10599785820E+02 -0.20933582963E+01  0.13775155967E+02  0.17506928073E+02  0.51100000000E-03 0.  1.
         12    1    3    3    0    0 -0.77942710308E+01  0.14873219750E+02  0.23483817532E+02  0.28869586289E+02  0.00000000000E+00 0. -1.
</event>
<event>
 7    1  0.2580704E-010  0.4778727E+02  0.7816164E-02  0.1312668E+00
        -11   -1    0    0    0    0  0.00000000000E+00  0.00000000000E+00  0.45593999997E+02  0.45594000000E+02  0.51100000000E-03 0.  1.
         11   -1    0    0    0    0 -0.00000000000E+00 -0.00000000000E+00 -0.45593999997E+02  0.45594000000E+02  0.51100000000E-03 0. -1.
    9900012    2    1    2    0    0 -0.24073287836E+02  0.20717092917E+02  0.29578746685E+02  0.47787269803E+02  0.19999994339E+02 0.  0.
         12    1    1    2    0    0  0.24073287836E+02 -0.20717092917E+02 -0.29578746685E+02  0.43400730197E+02  0.00000000000E+00 0. -1.
         11    1    3    3    0    0 -0.14627036566E+02  0.11038146902E+02  0.19016743158E+02  0.26408850909E+02  0.51100000000E-03 0. -1.
        -11    1    3    3    0    0 -0.83092733182E+01  0.12176162441E+02  0.57181437480E+01  0.15811392192E+02  0.51100000000E-03 0.  1.
        -12    1    3    3    0    0 -0.11369779519E+01 -0.24972164253E+01  0.48438597793E+01  0.55670267019E+01  0.00000000000E+00 0.  1.
</event>
<event>
 7    1  0.2580704E-010  0.4778727E+02  0.7816164E-02  0.1312668E+00
        -11   -1    0    0    0    0  0.00000000000E+00  0.00000000000E+00  0.45593999997E+02  0.45594000000E+02  0.51100000000E-03 0. -1.
         11   -1    0    0    0    0 -0.00000000000E+00 -0.00000000000E+00 -0.45593999997E+02  0.45594000000E+02  0.51100000000E-03 0.  1.
    9900012    2    1    2    0    0  0.21722979976E+02  0.10404392392E+02 -0.36103796941E+02  0.47787269665E+02  0.19999993709E+02 0.  0.
         12    1    1    2    0    0 -0.21722979976E+02 -0.10404392392E+02  0.36103796941E+02  0.43400730335E+02  0.00000000000E+00 0. -1.
         11    1    3    3    0    0  0.12790900203E+02  0.42234821492E+01 -0.22682736535E+02  0.26380892071E+02  0.51100000000E-03 0. -1.
        -11    1    3    3    0    0  0.76134794181E+01 -0.23954356799E+01 -0.69279881206E+01  0.10568831563E+02  0.51100000000E-03 0.  1.
         12    1    3    3    0    0  0.13186003555E+01  0.85763459223E+01 -0.64930722853E+01  0.10837546031E+02  0.00000000000E+00 0. -1.
</event>
<event>
 7    1  0.2580704E-010  0.4778727E+02  0.7816164E-02  0.1312668E+00
        -11   -1    0    0    0    0  0.00000000000E+00  0.00000000000E+00  0.45593999997E+02  0.45594000000E+02  0.51100000000E-03 0.  1.
         11   -1    0    0    0    0 -0.00000000000E+00 -0.00000000000E+00 -0.45593999997E+02  0.45594000000E+02  0.51100000000E-03 0. -1.
    9900012    2    1    2    0    0 -0.39680667504E+02 -0.13099333096E+02 -0.11724983375E+02  0.47787272630E+02  0.20000007227E+02 0.  0.
         12    1    1    2    0    0  0.39680667504E+02  0.13099333096E+02  0.11724983375E+02  0.43400727370E+02  0.00000000000E+00 0. -1.
         11    1    3    3    0    0 -0.26115238905E+01 -0.23359193554E+00 -0.12547427554E+01  0.29067166815E+01  0.51100000000E-03 0. -1.
        -11    1    3    3    0    0 -0.27995325233E+02 -0.13787122899E+01 -0.11293518843E+02  0.30218912135E+02  0.51100000000E-03 0.  1.
         12    1    3    3    0    0 -0.90738183802E+01 -0.11487028871E+02  0.82327822266E+00  0.14661643813E+02  0.00000000000E+00 0. -1.
</event>
<event>
 7    1  0.2580704E-010  0.4778727E+02  0.7816164E-02  0.1312668E+00
        -11   -1    0    0    0    0  0.00000000000E+00  0.00000000000E+00  0.45593999997E+02  0.45594000000E+02  0.51100000000E-03 0.  1.
         11   -1    0    0    0    0 -0.00000000000E+00 -0.00000000000E+00 -0.45593999997E+02  0.45594000000E+02  0.51100000000E-03 0. -1.
    9900012    2    1    2    0    0 -0.27951217649E+02  0.33013276227E+02 -0.35321959996E+01  0.47787269777E+02  0.19999994222E+02 0.  0.
         12    1    1    2    0    0  0.27951217649E+02 -0.33013276227E+02  0.35321959996E+01  0.43400730223E+02  0.00000000000E+00 0. -1.
         11    1    3    3    0    0 -0.56347355031E+01  0.24425239071E+00 -0.38915006641E+00  0.56534362521E+01  0.51100000000E-03 0. -1.
        -11    1    3    3    0    0 -0.65104812648E+01  0.15023043680E+01  0.13361708003E+01  0.68138562784E+01  0.51100000000E-03 0.  1.
        -12    1    3    3    0    0 -0.15806000881E+02  0.31266719468E+02 -0.44792167335E+01  0.35319977247E+02  0.00000000000E+00 0.  1.
</event>
<event>
 7    1  0.2580704E-010  0.4778727E+02  0.7816164E-02  0.1312668E+00
        -11   -1    0    0    0    0  0.00000000000E+00  0.00000000000E+00  0.45593999997E+02  0.45594000000E+02  0.51100000000E-03 0. -1.
         11   -1    0    0    0    0 -0.00000000000E+00 -0.00000000000E+00 -0.45593999997E+02  0.45594000000E+02  0.51100000000E-03 0.  1.
    9900012    2    1    2    0    0  0.10279815124E+01  0.39130870947E+02 -0.18744113516E+02  0.47787267304E+02  0.19999982945E+02 0.  0.
         12    1    1    2    0    0 -0.10279815124E+01 -0.39130870947E+02  0.18744113516E+02  0.43400732696E+02  0.00000000000E+00 0. -1.
         11    1    3    3    0    0  0.40005188314E+01  0.93605374303E+01 -0.77182471340E+00  0.10208796479E+02  0.51100000000E-03 0. -1.
        -11    1    3    3    0    0  0.34667158680E+01  0.22461292028E+01 -0.94043675165E-01  0.41318349167E+01  0.51100000000E-03 0.  1.
         12    1    3    3    0    0 -0.64392531869E+01  0.27524204314E+02 -0.17878245127E+02  0.33446635908E+02  0.00000000000E+00 0. -1.
</event>
<event>
 7    1  0.2580704E-010  0.4778728E+02  0.7816164E-02  0.1312668E+00
        -11   -1    0    0    0    0  0.00000000000E+00  0.00000000000E+00  0.45593999997E+02  0.45594000000E+02  0.51100000000E-03 0.  1.
         11   -1    0    0    0    0 -0.00000000000E+00 -0.00000000000E+00 -0.45593999997E+02  0.45594000000E+02  0.51100000000E-03 0. -1.
    9900012    2    1    2    0    0  0.15469913251E+01  0.31352809776E+02  0.29970495802E+02  0.47787280172E+02  0.20000041617E+02 0.  0.
         12    1    1    2    0    0 -0.15469913251E+01 -0.31352809776E+02 -0.29970495802E+02  0.43400719828E+02  0.00000000000E+00 0. -1.
         11    1    3    3    0    0  0.19745336768E+01  0.22045615844E+01  0.13000743148E+01  0.32325018957E+01  0.51100000000E-03 0. -1.
        -11    1    3    3    0    0 -0.55458188140E+01  0.52874098456E+01  0.14328954844E+02  0.16249054015E+02  0.51100000000E-03 0.  1.
         12    1    3    3    0    0  0.51182764623E+01  0.23860838346E+02  0.14341466642E+02  0.28305724261E+02  0.00000000000E+00 0. -1.
</event>
<event>
 7    1  0.2580704E-010  0.4778727E+02  0.7816164E-02  0.1312668E+00
        -11   -1    0    0    0    0  0.00000000000E+00  0.00000000000E+00  0.45593999997E+02  0.45594000000E+02  0.51100000000E-03 0.  1.
         11   -1    0    0    0    0 -0.00000000000E+00 -0.00000000000E+00 -0.45593999997E+02  0.45594000000E+02  0.51100000000E-03 0. -1.
    9900012    2    1    2    0    0  0.16821573081E+02  0.38457216344E+02 -0.11031793820E+02  0.47787270919E+02  0.19999999430E+02 0.  0.
         12    1    1    2    0    0 -0.16821573081E+02 -0.38457216344E+02  0.11031793820E+02  0.43400729081E+02  0.00000000000E+00 0. -1.
         11    1    3    3    0    0 -0.16695195658E+00 -0.67359020674E+00  0.47559822473E+00  0.84130295073E+00  0.51100000000E-03 0. -1.
        -11    1    3    3    0    0  0.80153356348E+01  0.38933373576E+01 -0.42254588739E+01  0.98619564020E+01  0.51100000000E-03 0.  1.
         12    1    3    3    0    0  0.89731894029E+01  0.35237469193E+02 -0.72819331713E+01  0.37084011567E+02  0.00000000000E+00 0. -1.
</event>
<event>
 7    1  0.2580704E-010  0.4778727E+02  0.7816164E-02  0.1312668E+00
        -11   -1    0    0    0    0  0.00000000000E+00  0.00000000000E+00  0.45593999997E+02  0.45594000000E+02  0.51100000000E-03 0. -1.
         11   -1    0    0    0    0 -0.00000000000E+00 -0.00000000000E+00 -0.45593999997E+02  0.45594000000E+02  0.51100000000E-03 0.  1.
    9900012    2    1    2    0    0 -0.48713071442E+01 -0.25378092861E+02 -0.34868990798E+02  0.47787265561E+02  0.19999975001E+02 0.  0.
         12    1    1    2    0    0  0.48713071442E+01  0.25378092861E+02  0.34868990798E+02  0.43400734439E+02  0.00000000000E+00 0. -1.
         11    1    3    3    0    0 -0.40816171010E+01  0.21423012738E+01 -0.30662237399E+01  0.55363147663E+01  0.51100000000E-03 0. -1.
        -11    1    3    3    0    0  0.10010746628E+01 -0.53303855669E+01 -0.79455917048E+01  0.96201657248E+01  0.51100000000E-03 0.  1.
         12    1    3    3    0    0 -0.17907647060E+01 -0.22190008568E+02 -0.23857175353E+02  0.32630785070E+02  0.00000000000E+00 0. -1.
</event>
<event>
 7    1  0.2580704E-010  0.4778727E+02  0.7816164E-02  0.1312668E+00
        -11   -1    0    0    0    0  0.00000000000E+00  0.00000000000E+00  0.45593999997E+02  0.45594000000E+02  0.51100000000E-03 0.  1.
         11   -1    0    0    0    0 -0.00000000000E+00 -0.00000000000E+00 -0.45593999997E+02  0.45594000000E+02  0.51100000000E-03 0. -1.
    9900012    2    1    2    0    0 -0.18447627895E+02 -0.12502649889E+02  0.37242345175E+02  0.47787268401E+02  0.19999987949E+02 0.  0.
         12    1    1    2    0    0  0.18447627895E+02  0.12502649889E+02 -0.37242345175E+02  0.43400731599E+02  0.00000000000E+00 0. -1.
         11    1    3    3    0    0 -0.77883145090E+01 -0.12693353637E+01  0.19320607937E+02  0.20869953197E+02  0.51100000000E-03 0. -1.
        -11    1    3    3    0    0 -0.11035480442E+02 -0.24679336503E+01  0.98970804129E+01  0.15027465722E+02  0.51100000000E-03 0.  1.
         12    1    3    3    0    0  0.37616705515E+00 -0.87653808748E+01  0.80246568252E+01  0.11889849482E+02  0.00000000000E+00 0. -1.
</event>
<event>
 7    1  0.2580704E-010  0.4778727E+02  0.7816164E-02  0.1312668E+00
        -11   -1    0    0    0    0  0.00000000000E+00  0.00000000000E+00  0.45593999997E+02  0.45594000000E+02  0.51100000000E-03 0.  1.
         11   -1    0    0    0    0 -0.00000000000E+00 -0.00000000000E+00 -0.45593999997E+02  0.45594000000E+02  0.51100000000E-03 0. -1.
    9900012    2    1    2    0    0  0.41245889821E+02 -0.13448112532E+02  0.12441904204E+01  0.47787272269E+02  0.20000005584E+02 0.  0.
         12    1    1    2    0    0 -0.41245889821E+02  0.13448112532E+02 -0.12441904204E+01  0.43400727731E+02  0.00000000000E+00 0. -1.
         11    1    3    3    0    0  0.22306433823E+02 -0.59944194585E+01 -0.79125255626E+01  0.24415530213E+02  0.51100000000E-03 0. -1.
        -11    1    3    3    0    0  0.63726957381E+01  0.15728404351E+00  0.68237372107E+00  0.64110547803E+01  0.51100000000E-03 0.  1.
        -12    1    3    3    0    0  0.12566760260E+02 -0.76109771168E+01  0.84743422619E+01  0.16960687276E+02  0.00000000000E+00 0.  1.
</event>
<event>
 7    1  0.2580704E-010  0.4778727E+02  0.7816164E-02  0.1312668E+00
        -11   -1    0    0    0    0  0.00000000000E+00  0.00000000000E+00  0.45593999997E+02  0.45594000000E+02  0.51100000000E-03 0.  1.
         11   -1    0    0    0    0 -0.00000000000E+00 -0.00000000000E+00 -0.45593999997E+02  0.45594000000E+02  0.51100000000E-03 0. -1.
    9900012    2    1    2    0    0 -0.37512480510E+02 -0.16743554491E+02  0.14003242741E+02  0.47787267077E+02  0.19999981909E+02 0.  0.
         12    1    1    2    0    0  0.37512480510E+02  0.16743554491E+02 -0.14003242741E+02  0.43400732923E+02  0.00000000000E+00 0. -1.
         11    1    3    3    0    0 -0.20459121307E+02 -0.79695427323E+01 -0.24516804629E+01  0.22092985162E+02  0.51100000000E-03 0. -1.
        -11    1    3    3    0    0 -0.30983677903E+00 -0.11813407690E+01  0.39694591989E+00  0.12841850204E+01  0.51100000000E-03 0.  1.
        -12    1    3    3    0    0 -0.16743522425E+02 -0.75926709896E+01  0.16057977284E+02  0.24410096894E+02  0.00000000000E+00 0.  1.
</event>
<event>
 7    1  0.2580704E-010  0.4778727E+02  0.7816164E-02  0.1312668E+00
        -11   -1    0    0    0    0  0.00000000000E+00  0.00000000000E+00  0.45593999997E+02  0.45594000000E+02  0.51100000000E-03 0. -1.
         11   -1    0    0    0    0 -0.00000000000E+00 -0.00000000000E+00 -0.45593999997E+02  0.45594000000E+02  0.51100000000E-03 0.  1.
    9900012    2    1    2    0    0 -0.24030019947E+02  0.29946510204E+02 -0.20233334614E+02  0.47787272337E+02  0.20000005895E+02 0.  0.
         12    1    1    2    0    0  0.24030019947E+02 -0.29946510204E+02  0.20233334614E+02  0.43400727663E+02  0.00000000000E+00 0. -1.
         11    1    3    3    0    0 -0.15729314032E+02  0.12062726159E+02 -0.14006355130E+02  0.24271354857E+02  0.51100000000E-03 0. -1.
        -11    1    3    3    0    0 -0.10739202603E+02  0.13559842794E+02 -0.28969446222E+01  0.17538303725E+02  0.51100000000E-03 0.  1.
        -12    1    3    3    0    0  0.24384966872E+01  0.43239412510E+01 -0.33300348615E+01  0.59776137559E+01  0.00000000000E+00 0.  1.
</event>
<event>
 7    1  0.2580704E-010  0.4778727E+02  0.7816164E-02  0.1312668E+00
        -11   -1    0    0    0    0  0.00000000000E+00  0.00000000000E+00  0.45593999997E+02  0.45594000000E+02  0.51100000000E-03 0.  1.
         11   -1    0    0    0    0 -0.00000000000E+00 -0.00000000000E+00 -0.45593999997E+02  0.45594000000E+02  0.51100000000E-03 0. -1.
    9900012    2    1    2    0    0 -0.35236658872E+02  0.12023855160E+02  0.22303095985E+02  0.47787270607E+02  0.19999998004E+02 0.  0.
         12    1    1    2    0    0  0.35236658872E+02 -0.12023855160E+02 -0.22303095985E+02  0.43400729393E+02  0.00000000000E+00 0. -1.
         11    1    3    3    0    0 -0.18400266036E+01  0.33444128939E+01 -0.11339991955E+01  0.39820534832E+01  0.51100000000E-03 0. -1.
        -11    1    3    3    0    0 -0.44177591058E+01  0.65292633019E+01  0.39517186226E+01  0.88183873308E+01  0.51100000000E-03 0.  1.
         12    1    3    3    0    0 -0.28978873163E+02  0.21501789645E+01  0.19485376558E+02  0.34986829793E+02  0.00000000000E+00 0. -1.
</event>
<event>
 7    1  0.2580704E-010  0.4778722E+02  0.7816164E-02  0.1312668E+00
        -11   -1    0    0    0    0  0.00000000000E+00  0.00000000000E+00  0.45593999997E+02  0.45594000000E+02  0.51100000000E-03 0. -1.
         11   -1    0    0    0    0 -0.00000000000E+00 -0.00000000000E+00 -0.45593999997E+02  0.45594000000E+02  0.51100000000E-03 0.  1.
    9900012    2    1    2    0    0  0.40326313390E+02 -0.14781679868E+02  0.62384487773E+01  0.47787218273E+02  0.19999759393E+02 0.  0.
         12    1    1    2    0    0 -0.40326313390E+02  0.14781679868E+02 -0.62384487773E+01  0.43400781727E+02  0.00000000000E+00 0. -1.
         11    1    3    3    0    0  0.95335673186E+01 -0.36508912327E+01  0.79769123733E+01  0.12955656829E+02  0.51100000000E-03 0. -1.
        -11    1    3    3    0    0 -0.73505511200E-01  0.13264240060E+01  0.61358838902E+00  0.14633163281E+01  0.51100000000E-03 0.  1.
        -12    1    3    3    0    0  0.30866251583E+02 -0.12457212641E+02 -0.23520519850E+01  0.33368245116E+02  0.00000000000E+00 0.  1.
</event>
<event>
 7    1  0.2580704E-010  0.4778727E+02  0.7816164E-02  0.1312668E+00
        -11   -1    0    0    0    0  0.00000000000E+00  0.00000000000E+00  0.45593999997E+02  0.45594000000E+02  0.51100000000E-03 0.  1.
         11   -1    0    0    0    0 -0.00000000000E+00 -0.00000000000E+00 -0.45593999997E+02  0.45594000000E+02  0.51100000000E-03 0. -1.
    9900012    2    1    2    0    0  0.26269635762E+02 -0.16049064713E+02  0.30593415147E+02  0.47787270840E+02  0.19999999068E+02 0.  0.
         12    1    1    2    0    0 -0.26269635762E+02  0.16049064713E+02 -0.30593415147E+02  0.43400729160E+02  0.00000000000E+00 0. -1.
         11    1    3    3    0    0  0.89269920524E+00 -0.22247388862E+01  0.76243108082E+01  0.79922769312E+01  0.51100000000E-03 0. -1.
        -11    1    3    3    0    0  0.31086637170E+01 -0.92508779454E+01  0.72140383946E+01  0.12136098347E+02  0.51100000000E-03 0.  1.
        -12    1    3    3    0    0  0.22268272840E+02 -0.45734478817E+01  0.15755065944E+02  0.27658895562E+02  0.00000000000E+00 0.  1.
</event>
<event>
 7    1  0.2580704E-010  0.4778727E+02  0.7816164E-02  0.1312668E+00
        -11   -1    0    0    0    0  0.00000000000E+00  0.00000000000E+00  0.45593999997E+02  0.45594000000E+02  0.51100000000E-03 0. -1.
         11   -1    0    0    0    0 -0.00000000000E+00 -0.00000000000E+00 -0.45593999997E+02  0.45594000000E+02  0.51100000000E-03 0.  1.
    9900012    2    1    2    0    0 -0.19040466870E+02  0.25958252736E+02 -0.29107607018E+02  0.47787273623E+02  0.20000011756E+02 0.  0.
         12    1    1    2    0    0  0.19040466870E+02 -0.25958252736E+02  0.29107607018E+02  0.43400726377E+02  0.00000000000E+00 0. -1.
         11    1    3    3    0    0 -0.12503322978E+01  0.41087961036E+01 -0.74225215629E+01  0.85755094828E+01  0.51100000000E-03 0. -1.
        -11    1    3    3    0    0 -0.20519234678E+02  0.19915784032E+02 -0.21650763955E+02  0.35866879227E+02  0.51100000000E-03 0.  1.
         12    1    3    3    0    0  0.27291001061E+01  0.19336726006E+01 -0.34321499862E-01  0.33448849130E+01  0.00000000000E+00 0. -1.
</event>
<event>
 7    1  0.2580704E-010  0.4778727E+02  0.7816164E-02  0.1312668E+00
        -11   -1    0    0    0    0  0.00000000000E+00  0.00000000000E+00  0.45593999997E+02  0.45594000000E+02  0.51100000000E-03 0.  1.
         11   -1    0    0    0    0 -0.00000000000E+00 -0.00000000000E+00 -0.45593999997E+02  0.45594000000E+02  0.51100000000E-03 0. -1.
    9900012    2    1    2    0    0 -0.22156301577E+02  0.24560332187E+02  0.28098259381E+02  0.47787265019E+02  0.19999972526E+02 0.  0.
         12    1    1    2    0    0  0.22156301577E+02 -0.24560332187E+02 -0.28098259381E+02  0.43400734981E+02  0.00000000000E+00 0. -1.
         11    1    3    3    0    0 -0.20079381718E+01  0.17149227757E+01  0.10641932608E+02  0.10964647998E+02  0.51100000000E-03 0. -1.
        -11    1    3    3    0    0 -0.10958388876E+02  0.12028066023E+02  0.15539565050E+02  0.22499749803E+02  0.51100000000E-03 0.  1.
         12    1    3    3    0    0 -0.91899745295E+01  0.10817343388E+02  0.19167617233E+01  0.14322867218E+02  0.00000000000E+00 0. -1.
</event>
<event>
 7    1  0.2580704E-010  0.4778727E+02  0.7816164E-02  0.1312668E+00
        -11   -1    0    0    0    0  0.00000000000E+00  0.00000000000E+00  0.45593999997E+02  0.45594000000E+02  0.51100000000E-03 0.  1.
         11   -1    0    0    0    0 -0.00000000000E+00 -0.00000000000E+00 -0.45593999997E+02  0.45594000000E+02  0.51100000000E-03 0. -1.
    9900012    2    1    2    0    0 -0.83815681974E+01 -0.29653773562E+02  0.30561846495E+02  0.47787269210E+02  0.19999991637E+02 0.  0.
         12    1    1    2    0    0  0.83815681974E+01  0.29653773562E+02 -0.30561846495E+02  0.43400730790E+02  0.00000000000E+00 0. -1.
         11    1    3    3    0    0  0.82290979422E+00 -0.43701298253E+01  0.92368497368E+01  0.10251566151E+02  0.51100000000E-03 0. -1.
        -11    1    3    3    0    0  0.10656945695E+01 -0.13888286723E+02  0.16192831306E+02  0.21359494352E+02  0.51100000000E-03 0.  1.
        -12    1    3    3    0    0 -0.10270172561E+02 -0.11395357014E+02  0.51321654516E+01  0.16176208707E+02  0.00000000000E+00 0.  1.
</event>
<event>
 7    1  0.2580704E-010  0.4778726E+02  0.7816164E-02  0.1312668E+00
        -11   -1    0    0    0    0  0.00000000000E+00  0.00000000000E+00  0.45593999997E+02  0.45594000000E+02  0.51100000000E-03 0.  1.
         11   -1    0    0    0    0 -0.00000000000E+00 -0.00000000000E+00 -0.45593999997E+02  0.45594000000E+02  0.51100000000E-03 0. -1.
    9900012    2    1    2    0    0 -0.42459934911E+02 -0.67901072767E+01  0.58883255453E+01  0.47787262596E+02  0.19999961479E+02 0.  0.
         12    1    1    2    0    0  0.42459934911E+02  0.67901072767E+01 -0.58883255453E+01  0.43400737404E+02  0.00000000000E+00 0. -1.
         11    1    3    3    0    0 -0.11072362262E+02  0.37206080368E+00 -0.32789259905E+01  0.11553657050E+02  0.51100000000E-03 0. -1.
        -11    1    3    3    0    0 -0.24680444532E+02 -0.52593919282E+01  0.67164883694E+00  0.25243546862E+02  0.51100000000E-03 0.  1.
         12    1    3    3    0    0 -0.67071281165E+01 -0.19027761522E+01  0.84956026988E+01  0.10990058684E+02  0.00000000000E+00 0. -1.
</event>
<event>
 7    1  0.2580704E-010  0.4778729E+02  0.7816164E-02  0.1312668E+00
        -11   -1    0    0    0    0  0.00000000000E+00  0.00000000000E+00  0.45593999997E+02  0.45594000000E+02  0.51100000000E-03 0. -1.
         11   -1    0    0    0    0 -0.00000000000E+00 -0.00000000000E+00 -0.45593999997E+02  0.45594000000E+02  0.51100000000E-03 0.  1.
    9900012    2    1    2    0    0 -0.17548124473E+02 -0.15707215844E+02 -0.36455016685E+02  0.47787290979E+02  0.20000090888E+02 0.  0.
         12    1    1    2    0    0  0.17548124473E+02  0.15707215844E+02  0.36455016685E+02  0.43400709021E+02  0.00000000000E+00 0. -1.
         11    1    3    3    0    0 -0.20144369531E+02 -0.11021582574E+02 -0.20103437811E+02  0.30519159855E+02  0.51100000000E-03 0. -1.
        -11    1    3    3    0    0  0.51020997905E+00 -0.52723292520E+00 -0.40562504729E+01  0.41220694973E+01  0.51100000000E-03 0.  1.
         12    1    3    3    0    0  0.20860350788E+01 -0.41584003451E+01 -0.12295328401E+02  0.13146061626E+02  0.00000000000E+00 0. -1.
</event>
<event>
 7    1  0.2580704E-010  0.4778727E+02  0.7816164E-02  0.1312668E+00
        -11   -1    0    0    0    0  0.00000000000E+00  0.00000000000E+00  0.45593999997E+02  0.45594000000E+02  0.51100000000E-03 0.  1.
         11   -1    0    0    0    0 -0.00000000000E+00 -0.00000000000E+00 -0.45593999997E+02  0.45594000000E+02  0.51100000000E-03 0. -1.
    9900012    2    1    2    0    0  0.20461646644E+02  0.31597279086E+02  0.21599914788E+02  0.47787270192E+02  0.19999996115E+02 0.  0.
         12    1    1    2    0    0 -0.20461646644E+02 -0.31597279086E+02 -0.21599914788E+02  0.43400729808E+02  0.00000000000E+00 0. -1.
         11    1    3    3    0    0  0.16049349791E+01  0.11525932860E+01 -0.63116126521E+00  0.20742835809E+01  0.51100000000E-03 0. -1.
        -11    1    3    3    0    0  0.19817572515E+02  0.32259300031E+02  0.21462545409E+02  0.43520563812E+02  0.51100000000E-03 0.  1.
         12    1    3    3    0    0 -0.96086084981E+00 -0.18146142310E+01  0.76853064441E+00  0.21924227994E+01  0.00000000000E+00 0. -1.
</event>
<event>
 7    1  0.2580704E-010  0.4778728E+02  0.7816164E-02  0.1312668E+00
        -11   -1    0    0    0    0  0.00000000000E+00  0.00000000000E+00  0.45593999997E+02  0.45594000000E+02  0.51100000000E-03 0.  1.
         11   -1    0    0    0    0 -0.00000000000E+00 -0.00000000000E+00 -0.45593999997E+02  0.45594000000E+02  0.51100000000E-03 0. -1.
    9900012    2    1    2    0    0 -0.18446652880E+02 -0.10848785557E+02  0.37757742950E+02  0.47787282227E+02  0.20000050985E+02 0.  0.
         12    1    1    2    0    0  0.18446652880E+02  0.10848785557E+02 -0.37757742950E+02  0.43400717773E+02  0.00000000000E+00 0. -1.
         11    1    3    3    0    0 -0.38318515528E+01 -0.34313299328E+01  0.97991199170E+00  0.52361569116E+01  0.51100000000E-03 0. -1.
        -11    1    3    3    0    0 -0.17579049320E+01 -0.74176036929E+01  0.80991849680E+01  0.11122404043E+02  0.51100000000E-03 0.  1.
        -12    1    3    3    0    0 -0.12856896396E+02  0.14806898725E-03  0.28678645990E+02  0.31428721272E+02  0.00000000000E+00 0.  1.
</event>
<event>
 7    1  0.2580704E-010  0.4778727E+02  0.7816164E-02  0.1312668E+00
        -11   -1    0    0    0    0  0.00000000000E+00  0.00000000000E+00  0.45593999997E+02  0.45594000000E+02  0.51100000000E-03 0.  1.
         11   -1    0    0    0    0 -0.00000000000E+00 -0.00000000000E+00 -0.45593999997E+02  0.45594000000E+02  0.51100000000E-03 0. -1.
    9900012    2    1    2    0    0  0.34046585541E+02  0.15297060969E+02  0.22146177704E+02  0.47787271340E+02  0.20000001348E+02 0.  0.
         12    1    1    2    0    0 -0.34046585541E+02 -0.15297060969E+02 -0.22146177704E+02  0.43400728660E+02  0.00000000000E+00 0. -1.
         11    1    3    3    0    0  0.97132679038E+01  0.45897259164E+01 -0.86334271464E+00  0.10777686127E+02  0.51100000000E-03 0. -1.
        -11    1    3    3    0    0 -0.84095995809E+00  0.16273516852E+01  0.32961123831E+01  0.37709208772E+01  0.51100000000E-03 0.  1.
        -12    1    3    3    0    0  0.25174277596E+02  0.90799833670E+01  0.19713408036E+02  0.33238664335E+02  0.00000000000E+00 0.  1.
</event>
<event>
 7    1  0.2580704E-010  0.4778727E+02  0.7816164E-02  0.1312668E+00
        -11   -1    0    0    0    0  0.00000000000E+00  0.00000000000E+00  0.45593999997E+02  0.45594000000E+02  0.51100000000E-03 0. -1.
         11   -1    0    0    0    0 -0.00000000000E+00 -0.00000000000E+00 -0.45593999997E+02  0.45594000000E+02  0.51100000000E-03 0.  1.
    9900012    2    1    2    0    0  0.38975951100E+02 -0.13193730545E+02  0.13799423778E+02  0.47787269748E+02  0.19999994087E+02 0.  0.
         12    1    1    2    0    0 -0.38975951100E+02  0.13193730545E+02 -0.13799423778E+02  0.43400730252E+02  0.00000000000E+00 0. -1.
         11    1    3    3    0    0  0.19213743824E+01  0.56728466641E+00 -0.18487709541E+01  0.27260678113E+01  0.51100000000E-03 0. -1.
        -11    1    3    3    0    0  0.39645201012E+01 -0.70550667308E+01  0.55775543718E+01  0.98285552977E+01  0.51100000000E-03 0.  1.
        -12    1    3    3    0    0  0.33090056616E+02 -0.67059484806E+01  0.10070640360E+02  0.35232646639E+02  0.00000000000E+00 0.  1.
</event>
<event>
 7    1  0.2580704E-010  0.4778727E+02  0.7816164E-02  0.1312668E+00
        -11   -1    0    0    0    0  0.00000000000E+00  0.00000000000E+00  0.45593999997E+02  0.45594000000E+02  0.51100000000E-03 0.  1.
         11   -1    0    0    0    0 -0.00000000000E+00 -0.00000000000E+00 -0.45593999997E+02  0.45594000000E+02  0.51100000000E-03 0. -1.
    9900012    2    1    2    0    0  0.15967945998E+02 -0.23091974483E+02  0.33096965465E+02  0.47787266044E+02  0.19999977202E+02 0.  0.
         12    1    1    2    0    0 -0.15967945998E+02  0.23091974483E+02 -0.33096965465E+02  0.43400733956E+02  0.00000000000E+00 0. -1.
         11    1    3    3    0    0 -0.32982254677E+01 -0.37124849252E+01  0.23635540630E+00  0.49715892524E+01  0.51100000000E-03 0. -1.
        -11    1    3    3    0    0 -0.52881116671E-01 -0.19108489986E+00  0.40363294894E+00  0.44969953307E+00  0.51100000000E-03 0.  1.
        -12    1    3    3    0    0  0.19319052582E+02 -0.19188404657E+02  0.32456977110E+02  0.42365977259E+02  0.00000000000E+00 0.  1.
</event>
<event>
 7    1  0.2580704E-010  0.4778727E+02  0.7816164E-02  0.1312668E+00
        -11   -1    0    0    0    0  0.00000000000E+00  0.00000000000E+00  0.45593999997E+02  0.45594000000E+02  0.51100000000E-03 0.  1.
         11   -1    0    0    0    0 -0.00000000000E+00 -0.00000000000E+00 -0.45593999997E+02  0.45594000000E+02  0.51100000000E-03 0. -1.
    9900012    2    1    2    0    0 -0.21355951421E+02 -0.36533896146E+02  0.96343705297E+01  0.47787270465E+02  0.19999997357E+02 0.  0.
         12    1    1    2    0    0  0.21355951421E+02  0.36533896146E+02 -0.96343705297E+01  0.43400729535E+02  0.00000000000E+00 0. -1.
         11    1    3    3    0    0 -0.54917414556E+01 -0.36910753560E+01  0.54960581600E+01  0.86017391879E+01  0.51100000000E-03 0. -1.
        -11    1    3    3    0    0 -0.40675354005E+01 -0.57872916242E+01  0.64590205436E+01  0.95789631601E+01  0.51100000000E-03 0.  1.
         12    1    3    3    0    0 -0.11796674565E+02 -0.27055529166E+02 -0.23207081738E+01  0.29606568117E+02  0.00000000000E+00 0. -1.
</event>
<event>
 7    1  0.2580704E-010  0.4778727E+02  0.7816164E-02  0.1312668E+00
        -11   -1    0    0    0    0  0.00000000000E+00  0.00000000000E+00  0.45593999997E+02  0.45594000000E+02  0.51100000000E-03 0.  1.
         11   -1    0    0    0    0 -0.00000000000E+00 -0.00000000000E+00 -0.45593999997E+02  0.45594000000E+02  0.51100000000E-03 0. -1.
    9900012    2    1    2    0    0  0.21148823683E+02  0.27664758169E+02  0.25903892365E+02  0.47787271580E+02  0.20000002441E+02 0.  0.
         12    1    1    2    0    0 -0.21148823683E+02 -0.27664758169E+02 -0.25903892365E+02  0.43400728420E+02  0.00000000000E+00 0. -1.
         11    1    3    3    0    0  0.55243671992E+01  0.89447349628E+01  0.16293740575E+02  0.19391052027E+02  0.51100000000E-03 0. -1.
        -11    1    3    3    0    0  0.51662855205E+01  0.88432332215E-01  0.32476984388E+01  0.61029396005E+01  0.51100000000E-03 0.  1.
        -12    1    3    3    0    0  0.10458170963E+02  0.18631590874E+02  0.63624533512E+01  0.22293279953E+02  0.00000000000E+00 0.  1.
</event>
<event>
 7    1  0.2580704E-010  0.4778727E+02  0.7816164E-02  0.1312668E+00
        -11   -1    0    0    0    0  0.00000000000E+00  0.00000000000E+00  0.45593999997E+02  0.45594000000E+02  0.51100000000E-03 0. -1.
         11   -1    0    0    0    0 -0.00000000000E+00 -0.00000000000E+00 -0.45593999997E+02  0.45594000000E+02  0.51100000000E-03 0.  1.
    9900012    2    1    2    0    0  0.41117083183E+02 -0.62947926490E+01 -0.12384830258E+02  0.47787274609E+02  0.20000016251E+02 0.  0.
         12    1    1    2    0    0 -0.41117083183E+02  0.62947926490E+01  0.12384830258E+02  0.43400725391E+02  0.00000000000E+00 0. -1.
         11    1    3    3    0    0  0.45443932982E+01  0.43117812734E+01  0.67630514576E+00  0.63008219392E+01  0.51100000000E-03 0. -1.
        -11    1    3    3    0    0  0.13633750443E+02  0.98793967689E+00 -0.48378266313E+01  0.14500335952E+02  0.51100000000E-03 0.  1.
        -12    1    3    3    0    0  0.22938939442E+02 -0.11594513599E+02 -0.82233087724E+01  0.26986116718E+02  0.00000000000E+00 0.  1.
</event>
<event>
 7    1  0.2580704E-010  0.4778727E+02  0.7816164E-02  0.1312668E+00
        -11   -1    0    0    0    0  0.00000000000E+00  0.00000000000E+00  0.45593999997E+02  0.45594000000E+02  0.51100000000E-03 0.  1.
         11   -1    0    0    0    0 -0.00000000000E+00 -0.00000000000E+00 -0.45593999997E+02  0.45594000000E+02  0.51100000000E-03 0. -1.
    9900012    2    1    2    0    0  0.24438243342E+01 -0.18708666699E+02  0.39084994336E+02  0.47787271098E+02  0.20000000242E+02 0.  0.
         12    1    1    2    0    0 -0.24438243342E+01  0.18708666699E+02 -0.39084994336E+02  0.43400728902E+02  0.00000000000E+00 0. -1.
         11    1    3    3    0    0  0.13875174814E+01 -0.10077009376E+02  0.14288082178E+02  0.17539116720E+02  0.51100000000E-03 0. -1.
        -11    1    3    3    0    0  0.67795202609E+01 -0.14748934860E+01  0.16447959789E+02  0.17851402949E+02  0.51100000000E-03 0.  1.
         12    1    3    3    0    0 -0.57232134080E+01 -0.71567638362E+01  0.83489523690E+01  0.12396751429E+02  0.00000000000E+00 0. -1.
</event>
<event>
 7    1  0.2580704E-010  0.4778727E+02  0.7816164E-02  0.1312668E+00
        -11   -1    0    0    0    0  0.00000000000E+00  0.00000000000E+00  0.45593999997E+02  0.45594000000E+02  0.51100000000E-03 0.  1.
         11   -1    0    0    0    0 -0.00000000000E+00 -0.00000000000E+00 -0.45593999997E+02  0.45594000000E+02  0.51100000000E-03 0. -1.
    9900012    2    1    2    0    0 -0.68011447088E+01  0.42714077272E+02 -0.35882009840E+01  0.47787272439E+02  0.20000006358E+02 0.  0.
         12    1    1    2    0    0  0.68011447088E+01 -0.42714077272E+02  0.35882009840E+01  0.43400727561E+02  0.00000000000E+00 0. -1.
         11    1    3    3    0    0  0.11855930049E+01  0.14385175010E+02  0.26966608668E+01  0.14683694049E+02  0.51100000000E-03 0. -1.
        -11    1    3    3    0    0 -0.99215929300E+01  0.27938073230E+02 -0.37393333239E+01  0.29882378688E+02  0.51100000000E-03 0.  1.
         12    1    3    3    0    0  0.19348552162E+01  0.39082903218E+00 -0.25455285269E+01  0.32211997021E+01  0.00000000000E+00 0. -1.
</event>
<event>
 7    1  0.2580704E-010  0.4778726E+02  0.7816164E-02  0.1312668E+00
        -11   -1    0    0    0    0  0.00000000000E+00  0.00000000000E+00  0.45593999997E+02  0.45594000000E+02  0.51100000000E-03 0. -1.
         11   -1    0    0    0    0 -0.00000000000E+00 -0.00000000000E+00 -0.45593999997E+02  0.45594000000E+02  0.51100000000E-03 0.  1.
    9900012    2    1    2    0    0  0.43348769431E+02 -0.21231733025E+01 -0.13140552478E-01  0.47787264422E+02  0.19999969806E+02 0.  0.
         12    1    1    2    0    0 -0.43348769431E+02  0.21231733025E+01  0.13140552478E-01  0.43400735578E+02  0.00000000000E+00 0. -1.
         11    1    3    3    0    0  0.81418259610E+01 -0.19480518588E+01  0.40887166620E+01  0.93167505187E+01  0.51100000000E-03 0. -1.
        -11    1    3    3    0    0  0.32887846380E+02  0.20185692447E+01  0.39945120356E+00  0.32952156573E+02  0.51100000000E-03 0.  1.
        -12    1    3    3    0    0  0.23190970899E+01 -0.21936906883E+01 -0.45013084180E+01  0.55183573301E+01  0.00000000000E+00 0.  1.
</event>
<event>
 7    1  0.2580704E-010  0.4778727E+02  0.7816164E-02  0.1312668E+00
        -11   -1    0    0    0    0  0.00000000000E+00  0.00000000000E+00  0.45593999997E+02  0.45594000000E+02  0.51100000000E-03 0.  1.
         11   -1    0    0    0    0 -0.00000000000E+00 -0.00000000000E+00 -0.45593999997E+02  0.45594000000E+02  0.51100000000E-03 0. -1.
    9900012    2    1    2    0    0  0.42600143471E+00  0.14746748381E+02  0.40816360756E+02  0.47787269932E+02  0.19999994928E+02 0.  0.
         12    1    1    2    0    0 -0.42600143471E+00 -0.14746748381E+02 -0.40816360756E+02  0.43400730068E+02  0.00000000000E+00 0. -1.
         11    1    3    3    0    0  0.23662249265E+01 -0.18395948703E+01  0.65221447756E+01  0.71778480357E+01  0.51100000000E-03 0. -1.
        -11    1    3    3    0    0 -0.18382273363E+01 -0.15309187539E+01  0.78816872303E+00  0.25187302690E+01  0.51100000000E-03 0.  1.
        -12    1    3    3    0    0 -0.10199615545E+00  0.18117262006E+02  0.33506047258E+02  0.38090691627E+02  0.00000000000E+00 0.  1.
</event>
<event>
 7    1  0.2580704E-010  0.4778727E+02  0.7816164E-02  0.1312668E+00
        -11   -1    0    0    0    0  0.00000000000E+00  0.00000000000E+00  0.45593999997E+02  0.45594000000E+02  0.51100000000E-03 0. -1.
         11   -1    0    0    0    0 -0.00000000000E+00 -0.00000000000E+00 -0.45593999997E+02  0.45594000000E+02  0.51100000000E-03 0.  1.
    9900012    2    1    2    0    0 -0.34433646340E+02 -0.53135666254E+01 -0.25878823135E+02  0.47787268699E+02  0.19999989308E+02 0.  0.
         12    1    1    2    0    0  0.34433646340E+02  0.53135666254E+01  0.25878823135E+02  0.43400731301E+02  0.00000000000E+00 0. -1.
         11    1    3    3    0    0 -0.11913736488E+02 -0.49166919302E+00 -0.53999670039E+01  0.13089633287E+02  0.51100000000E-03 0.  1.
        -11    1    3    3    0    0 -0.18394241878E+01 -0.17380174743E+01  0.25500329865E+01  0.35926111085E+01  0.51100000000E-03 0. -1.
         12    1    3    3    0    0 -0.20680485665E+02 -0.30838799581E+01 -0.23028889117E+02  0.31105024303E+02  0.00000000000E+00 0. -1.
</event>
<event>
 7    1  0.2580704E-010  0.4778726E+02  0.7816164E-02  0.1312668E+00
        -11   -1    0    0    0    0  0.00000000000E+00  0.00000000000E+00  0.45593999997E+02  0.45594000000E+02  0.51100000000E-03 0.  1.
         11   -1    0    0    0    0 -0.00000000000E+00 -0.00000000000E+00 -0.45593999997E+02  0.45594000000E+02  0.51100000000E-03 0. -1.
    9900012    2    1    2    0    0 -0.27740942365E+02  0.27105145456E+02  0.19477555819E+02  0.47787262977E+02  0.19999963218E+02 0.  0.
         12    1    1    2    0    0  0.27740942365E+02 -0.27105145456E+02 -0.19477555819E+02  0.43400737023E+02  0.00000000000E+00 0. -1.
         11    1    3    3    0    0 -0.74228492410E+01  0.71287905177E+01  0.10546039655E+02  0.14735579315E+02  0.51100000000E-03 0. -1.
        -11    1    3    3    0    0 -0.15081934683E+02  0.11092245913E+02  0.12066451663E+02  0.22273345711E+02  0.51100000000E-03 0.  1.
         12    1    3    3    0    0 -0.52361584412E+01  0.88841090256E+01 -0.31349354992E+01  0.10778337951E+02  0.00000000000E+00 0. -1.
</event>
<event>
 7    1  0.2580704E-010  0.4778726E+02  0.7816164E-02  0.1312668E+00
        -11   -1    0    0    0    0  0.00000000000E+00  0.00000000000E+00  0.45593999997E+02  0.45594000000E+02  0.51100000000E-03 0.  1.
         11   -1    0    0    0    0 -0.00000000000E+00 -0.00000000000E+00 -0.45593999997E+02  0.45594000000E+02  0.51100000000E-03 0. -1.
    9900012    2    1    2    0    0  0.80724744030E+01 -0.38362708382E+02  0.18621542989E+02  0.47787261519E+02  0.19999956571E+02 0.  0.
         12    1    1    2    0    0 -0.80724744030E+01  0.38362708382E+02 -0.18621542989E+02  0.43400738481E+02  0.00000000000E+00 0. -1.
         11    1    3    3    0    0  0.54733161638E+01 -0.22848791250E+02  0.15856277841E+02  0.28345123013E+02  0.51100000000E-03 0.  1.
        -11    1    3    3    0    0  0.17153825303E+01 -0.21260123647E+01  0.51359592834E+01  0.58172625712E+01  0.51100000000E-03 0. -1.
         12    1    3    3    0    0  0.88377570891E+00 -0.13387904767E+02 -0.23706941351E+01  0.13624875935E+02  0.00000000000E+00 0. -1.
</event>
<event>
 7    1  0.2580704E-010  0.4778727E+02  0.7816164E-02  0.1312668E+00
        -11   -1    0    0    0    0  0.00000000000E+00  0.00000000000E+00  0.45593999997E+02  0.45594000000E+02  0.51100000000E-03 0. -1.
         11   -1    0    0    0    0 -0.00000000000E+00 -0.00000000000E+00 -0.45593999997E+02  0.45594000000E+02  0.51100000000E-03 0.  1.
    9900012    2    1    2    0    0  0.44756266027E+01  0.50803836284E+01 -0.42869357377E+02  0.47787270361E+02  0.19999996882E+02 0.  0.
         12    1    1    2    0    0 -0.44756266027E+01 -0.50803836284E+01  0.42869357377E+02  0.43400729639E+02  0.00000000000E+00 0. -1.
         11    1    3    3    0    0  0.83846085953E+00  0.12082678155E+01 -0.28972376684E+02  0.29009680087E+02  0.51100000000E-03 0. -1.
        -11    1    3    3    0    0  0.32896526595E+01  0.44487046689E+01 -0.15809671530E+02  0.16749880657E+02  0.51100000000E-03 0.  1.
         12    1    3    3    0    0  0.34751308365E+00 -0.57658885593E+00  0.19126908375E+01  0.20277096173E+01  0.00000000000E+00 0. -1.
</event>
<event>
 7    1  0.2580704E-010  0.4778727E+02  0.7816164E-02  0.1312668E+00
        -11   -1    0    0    0    0  0.00000000000E+00  0.00000000000E+00  0.45593999997E+02  0.45594000000E+02  0.51100000000E-03 0. -1.
         11   -1    0    0    0    0 -0.00000000000E+00 -0.00000000000E+00 -0.45593999997E+02  0.45594000000E+02  0.51100000000E-03 0.  1.
    9900012    2    1    2    0    0 -0.23044722636E+02 -0.31375587766E+02 -0.19186883143E+02  0.47787271507E+02  0.20000002107E+02 0.  0.
         12    1    1    2    0    0  0.23044722636E+02  0.31375587766E+02  0.19186883143E+02  0.43400728493E+02  0.00000000000E+00 0. -1.
         11    1    3    3    0    0 -0.83750933307E+01 -0.69747569647E+01 -0.14397593490E+01  0.10993740504E+02  0.51100000000E-03 0. -1.
        -11    1    3    3    0    0  0.11160814667E+01 -0.15786319308E+01  0.19638879929E+01  0.27558252708E+01  0.51100000000E-03 0.  1.
        -12    1    3    3    0    0 -0.15785710772E+02 -0.22822198870E+02 -0.19711011787E+02  0.34037705732E+02  0.00000000000E+00 0.  1.
</event>
<event>
 7    1  0.2580704E-010  0.4778727E+02  0.7816164E-02  0.1312668E+00
        -11   -1    0    0    0    0  0.00000000000E+00  0.00000000000E+00  0.45593999997E+02  0.45594000000E+02  0.51100000000E-03 0.  1.
         11   -1    0    0    0    0 -0.00000000000E+00 -0.00000000000E+00 -0.45593999997E+02  0.45594000000E+02  0.51100000000E-03 0. -1.
    9900012    2    1    2    0    0 -0.43072347790E+02 -0.51764926203E+01 -0.12649696259E+01  0.47787269958E+02  0.19999995049E+02 0.  0.
         12    1    1    2    0    0  0.43072347790E+02  0.51764926203E+01  0.12649696259E+01  0.43400730042E+02  0.00000000000E+00 0. -1.
         11    1    3    3    0    0 -0.45398765378E+01 -0.51491043288E+01  0.27468116640E+01  0.73938304650E+01  0.51100000000E-03 0. -1.
        -11    1    3    3    0    0 -0.19226626760E+02 -0.51587872637E+01 -0.45095413930E+01  0.20411080972E+02  0.51100000000E-03 0.  1.
        -12    1    3    3    0    0 -0.19305844492E+02  0.51313989723E+01  0.49776010315E+00  0.19982358522E+02  0.00000000000E+00 0.  1.
</event>
<event>
 7    1  0.2580704E-010  0.4778729E+02  0.7816164E-02  0.1312668E+00
        -11   -1    0    0    0    0  0.00000000000E+00  0.00000000000E+00  0.45593999997E+02  0.45594000000E+02  0.51100000000E-03 0. -1.
         11   -1    0    0    0    0 -0.00000000000E+00 -0.00000000000E+00 -0.45593999997E+02  0.45594000000E+02  0.51100000000E-03 0.  1.
    9900012    2    1    2    0    0 -0.31410556924E+02  0.17054100136E+02 -0.24620234229E+02  0.47787293195E+02  0.20000100991E+02 0.  0.
         12    1    1    2    0    0  0.31410556924E+02 -0.17054100136E+02  0.24620234229E+02  0.43400706805E+02  0.00000000000E+00 0. -1.
         11    1    3    3    0    0 -0.18706733487E+02  0.64375681991E+01 -0.24722012196E+01  0.19937300249E+02  0.51100000000E-03 0. -1.
        -11    1    3    3    0    0 -0.50618680598E+01  0.22093758285E+01 -0.71888035783E+01  0.90654700349E+01  0.51100000000E-03 0.  1.
         12    1    3    3    0    0 -0.76419553769E+01  0.84071561082E+01 -0.14959229431E+02  0.18784522911E+02  0.00000000000E+00 0. -1.
</event>
<event>
 7    1  0.2580704E-010  0.4778727E+02  0.7816164E-02  0.1312668E+00
        -11   -1    0    0    0    0  0.00000000000E+00  0.00000000000E+00  0.45593999997E+02  0.45594000000E+02  0.51100000000E-03 0.  1.
         11   -1    0    0    0    0 -0.00000000000E+00 -0.00000000000E+00 -0.45593999997E+02  0.45594000000E+02  0.51100000000E-03 0. -1.
    9900012    2    1    2    0    0  0.29417153777E+02 -0.16501604081E+02  0.27312106409E+02  0.47787273853E+02  0.20000012804E+02 0.  0.
         12    1    1    2    0    0 -0.29417153777E+02  0.16501604081E+02 -0.27312106409E+02  0.43400726147E+02  0.00000000000E+00 0. -1.
         11    1    3    3    0    0  0.72447292799E+01 -0.64098261486E+01  0.25582435033E+01  0.10005827486E+02  0.51100000000E-03 0. -1.
        -11    1    3    3    0    0  0.24289208058E+02 -0.10266190059E+02  0.23456512571E+02  0.35292609265E+02  0.51100000000E-03 0.  1.
         12    1    3    3    0    0 -0.21167835606E+01  0.17441212695E+00  0.12973503342E+01  0.24888371023E+01  0.00000000000E+00 0. -1.
</event>
<event>
 7    1  0.3761485E-010  0.4778727E+02  0.7816164E-02  0.1312668E+00
        -11   -1    0    0    0    0  0.00000000000E+00  0.00000000000E+00  0.45593999997E+02  0.45594000000E+02  0.51100000000E-03 0. -1.
         11   -1    0    0    0    0 -0.00000000000E+00 -0.00000000000E+00 -0.45593999997E+02  0.45594000000E+02  0.51100000000E-03 0.  1.
    9900012    2    1    2    0    0 -0.41798946760E+01 -0.10152856174E+01 -0.43187046385E+02  0.47787270745E+02  0.19999998635E+02 0.  0.
         12    1    1    2    0    0  0.41798946760E+01  0.10152856174E+01  0.43187046385E+02  0.43400729255E+02  0.00000000000E+00 0. -1.
         11    1    3    3    0    0  0.21827932557E+00 -0.37081584511E+01 -0.21973577670E+01  0.43158390122E+01  0.51100000000E-03 0. -1.
        -11    1    3    3    0    0 -0.21346582825E+01  0.31441884851E+01 -0.17846836577E+01  0.41985453710E+01  0.51100000000E-03 0.  1.
        -12    1    3    3    0    0 -0.22635157190E+01 -0.45131565150E+00 -0.39205004961E+02  0.39272886362E+02  0.00000000000E+00 0.  1.
</event>
<event>
 7    1  0.2580704E-010  0.4778727E+02  0.7816164E-02  0.1312668E+00
        -11   -1    0    0    0    0  0.00000000000E+00  0.00000000000E+00  0.45593999997E+02  0.45594000000E+02  0.51100000000E-03 0. -1.
         11   -1    0    0    0    0 -0.00000000000E+00 -0.00000000000E+00 -0.45593999997E+02  0.45594000000E+02  0.51100000000E-03 0.  1.
    9900012    2    1    2    0    0  0.22542068466E+02 -0.90412439715E+01  0.35968514377E+02  0.47787274548E+02  0.20000015975E+02 0.  0.
         12    1    1    2    0    0 -0.22542068466E+02  0.90412439715E+01 -0.35968514377E+02  0.43400725452E+02  0.00000000000E+00 0. -1.
         11    1    3    3    0    0  0.11370497447E+02 -0.81631913942E+01  0.87034078342E+01  0.16482573043E+02  0.51100000000E-03 0.  1.
        -11    1    3    3    0    0  0.51805363132E+01 -0.56530652975E+01  0.12342579282E+02  0.14530463425E+02  0.51100000000E-03 0. -1.
        -12    1    3    3    0    0  0.59910347053E+01  0.47750127202E+01  0.14922527261E+02  0.16774238080E+02  0.00000000000E+00 0.  1.
</event>
<event>
 7    1  0.2580704E-010  0.4778727E+02  0.7816164E-02  0.1312668E+00
        -11   -1    0    0    0    0  0.00000000000E+00  0.00000000000E+00  0.45593999997E+02  0.45594000000E+02  0.51100000000E-03 0.  1.
         11   -1    0    0    0    0 -0.00000000000E+00 -0.00000000000E+00 -0.45593999997E+02  0.45594000000E+02  0.51100000000E-03 0. -1.
    9900012    2    1    2    0    0 -0.39615522084E+02  0.22775092206E+01 -0.17579721312E+02  0.47787271439E+02  0.20000001798E+02 0.  0.
         12    1    1    2    0    0  0.39615522084E+02 -0.22775092206E+01  0.17579721312E+02  0.43400728561E+02  0.00000000000E+00 0. -1.
         11    1    3    3    0    0  0.45880182156E+00  0.10395665428E+01 -0.27575540268E+01  0.29824993178E+01  0.51100000000E-03 0. -1.
        -11    1    3    3    0    0 -0.19708600225E+02  0.71553031921E+01 -0.89601175558E+01  0.22801556821E+02  0.51100000000E-03 0.  1.
         12    1    3    3    0    0 -0.20365723681E+02 -0.59173605143E+01 -0.58620497293E+01  0.22003215300E+02  0.00000000000E+00 0. -1.
</event>
<event>
 7    1  0.2580704E-010  0.4778727E+02  0.7816164E-02  0.1312668E+00
        -11   -1    0    0    0    0  0.00000000000E+00  0.00000000000E+00  0.45593999997E+02  0.45594000000E+02  0.51100000000E-03 0.  1.
         11   -1    0    0    0    0 -0.00000000000E+00 -0.00000000000E+00 -0.45593999997E+02  0.45594000000E+02  0.51100000000E-03 0. -1.
    9900012    2    1    2    0    0  0.29077760643E+02 -0.29351340276E+02 -0.13289317566E+02  0.47787270728E+02  0.19999998557E+02 0.  0.
         12    1    1    2    0    0 -0.29077760643E+02  0.29351340276E+02  0.13289317566E+02  0.43400729272E+02  0.00000000000E+00 0. -1.
         11    1    3    3    0    0  0.12308950620E+00  0.61191229525E+00  0.12212287210E+00  0.63600467029E+00  0.51100000000E-03 0. -1.
        -11    1    3    3    0    0  0.25177410160E+02 -0.31124090218E+02 -0.86371709140E+01  0.40953775112E+02  0.51100000000E-03 0.  1.
        -12    1    3    3    0    0  0.37772609769E+01  0.11608376474E+01 -0.47742695243E+01  0.61974909457E+01  0.00000000000E+00 0.  1.
</event>
<event>
 7    1  0.2580704E-010  0.4778727E+02  0.7816164E-02  0.1312668E+00
        -11   -1    0    0    0    0  0.00000000000E+00  0.00000000000E+00  0.45593999997E+02  0.45594000000E+02  0.51100000000E-03 0.  1.
         11   -1    0    0    0    0 -0.00000000000E+00 -0.00000000000E+00 -0.45593999997E+02  0.45594000000E+02  0.51100000000E-03 0. -1.
    9900012    2    1    2    0    0 -0.58673470063E+01 -0.36029301678E+02  0.23475238746E+02  0.47787272190E+02  0.20000005222E+02 0.  0.
         12    1    1    2    0    0  0.58673470063E+01  0.36029301678E+02 -0.23475238746E+02  0.43400727810E+02  0.00000000000E+00 0. -1.
         11    1    3    3    0    0  0.35478909940E+00 -0.13932786781E+01 -0.10904720203E+01  0.18045027759E+01  0.51100000000E-03 0. -1.
        -11    1    3    3    0    0 -0.19472440818E+01 -0.20449308851E+02  0.44822413408E+01  0.21025139232E+02  0.51100000000E-03 0.  1.
        -12    1    3    3    0    0 -0.42748920239E+01 -0.14186714148E+02  0.20083469425E+02  0.24957630182E+02  0.00000000000E+00 0.  1.
</event>
<event>
 7    1  0.2580704E-010  0.4778727E+02  0.7816164E-02  0.1312668E+00
        -11   -1    0    0    0    0  0.00000000000E+00  0.00000000000E+00  0.45593999997E+02  0.45594000000E+02  0.51100000000E-03 0.  1.
         11   -1    0    0    0    0 -0.00000000000E+00 -0.00000000000E+00 -0.45593999997E+02  0.45594000000E+02  0.51100000000E-03 0. -1.
    9900012    2    1    2    0    0 -0.19046926092E+02 -0.64234773840E+00  0.38992633739E+02  0.47787268554E+02  0.19999988643E+02 0.  0.
         12    1    1    2    0    0  0.19046926092E+02  0.64234773840E+00 -0.38992633739E+02  0.43400731446E+02  0.00000000000E+00 0. -1.
         11    1    3    3    0    0 -0.11639567310E+02  0.43069108136E+01  0.23934659834E+02  0.26961026493E+02  0.51100000000E-03 0. -1.
        -11    1    3    3    0    0 -0.90116381075E+01 -0.13404227790E+01  0.59035806640E+01  0.10856270977E+02  0.51100000000E-03 0.  1.
         12    1    3    3    0    0  0.16042793260E+01 -0.36088357730E+01  0.91543932412E+01  0.99699710835E+01  0.00000000000E+00 0. -1.
</event>
<event>
 7    1  0.2580704E-010  0.4778727E+02  0.7816164E-02  0.1312668E+00
        -11   -1    0    0    0    0  0.00000000000E+00  0.00000000000E+00  0.45593999997E+02  0.45594000000E+02  0.51100000000E-03 0.  1.
         11   -1    0    0    0    0 -0.00000000000E+00 -0.00000000000E+00 -0.45593999997E+02  0.45594000000E+02  0.51100000000E-03 0. -1.
    9900012    2    1    2    0    0  0.60165656807E+01  0.29614493763E+02  0.31151342258E+02  0.47787269270E+02  0.19999991910E+02 0.  0.
         12    1    1    2    0    0 -0.60165656807E+01 -0.29614493763E+02 -0.31151342258E+02  0.43400730730E+02  0.00000000000E+00 0. -1.
         11    1    3    3    0    0 -0.22351663417E+01  0.25911113729E+01  0.47366908535E+01  0.58434636326E+01  0.51100000000E-03 0. -1.
        -11    1    3    3    0    0  0.59552059597E+01  0.97048384113E+00  0.25932218199E+01  0.65674284600E+01  0.51100000000E-03 0.  1.
         12    1    3    3    0    0  0.22965260627E+01  0.26052898549E+02  0.23821429584E+02  0.35376377177E+02  0.00000000000E+00 0. -1.
</event>
<event>
 7    1  0.2580704E-010  0.4778728E+02  0.7816164E-02  0.1312668E+00
        -11   -1    0    0    0    0  0.00000000000E+00  0.00000000000E+00  0.45593999997E+02  0.45594000000E+02  0.51100000000E-03 0.  1.
         11   -1    0    0    0    0 -0.00000000000E+00 -0.00000000000E+00 -0.45593999997E+02  0.45594000000E+02  0.51100000000E-03 0. -1.
    9900012    2    1    2    0    0 -0.29466563676E+02 -0.92995759192E+01  0.30477231693E+02  0.47787284120E+02  0.20000059619E+02 0.  0.
         12    1    1    2    0    0  0.29466563676E+02  0.92995759192E+01 -0.30477231693E+02  0.43400715880E+02  0.00000000000E+00 0. -1.
         11    1    3    3    0    0 -0.11630302701E+02 -0.93763116137E+00  0.21782118819E+02  0.24710398492E+02  0.51100000000E-03 0. -1.
        -11    1    3    3    0    0  0.17610199006E+00  0.10286462405E+01  0.22012805857E+00  0.10665747148E+01  0.51100000000E-03 0.  1.
        -12    1    3    3    0    0 -0.18012362965E+02 -0.93905909984E+01  0.84749848153E+01  0.22010310914E+02  0.00000000000E+00 0.  1.
</event>
<event>
 7    1  0.2580704E-010  0.4778726E+02  0.7816164E-02  0.1312668E+00
        -11   -1    0    0    0    0  0.00000000000E+00  0.00000000000E+00  0.45593999997E+02  0.45594000000E+02  0.51100000000E-03 0. -1.
         11   -1    0    0    0    0 -0.00000000000E+00 -0.00000000000E+00 -0.45593999997E+02  0.45594000000E+02  0.51100000000E-03 0.  1.
    9900012    2    1    2    0    0 -0.39710428006E+02  0.13757468064E+01 -0.17458895415E+02  0.47787264974E+02  0.19999972320E+02 0.  0.
         12    1    1    2    0    0  0.39710428006E+02 -0.13757468064E+01  0.17458895415E+02  0.43400735026E+02  0.00000000000E+00 0. -1.
         11    1    3    3    0    0 -0.12824502763E+02 -0.31997414552E+01 -0.13279626654E+02  0.18736453795E+02  0.51100000000E-03 0. -1.
        -11    1    3    3    0    0 -0.31010993299E+01  0.23276438751E-01 -0.37023625789E+01  0.48295804966E+01  0.51100000000E-03 0.  1.
        -12    1    3    3    0    0 -0.23784825914E+02  0.45522118229E+01 -0.47690618189E+00  0.24221230682E+02  0.00000000000E+00 0.  1.
</event>
<event>
 7    1  0.2580704E-010  0.4778727E+02  0.7816164E-02  0.1312668E+00
        -11   -1    0    0    0    0  0.00000000000E+00  0.00000000000E+00  0.45593999997E+02  0.45594000000E+02  0.51100000000E-03 0. -1.
         11   -1    0    0    0    0 -0.00000000000E+00 -0.00000000000E+00 -0.45593999997E+02  0.45594000000E+02  0.51100000000E-03 0.  1.
    9900012    2    1    2    0    0  0.20254846324E+02  0.37499566869E+02 -0.81943487613E+01  0.47787266520E+02  0.19999979372E+02 0.  0.
         12    1    1    2    0    0 -0.20254846324E+02 -0.37499566869E+02  0.81943487613E+01  0.43400733480E+02  0.00000000000E+00 0. -1.
         11    1    3    3    0    0  0.48482049655E+01  0.17654118889E+01 -0.24955036464E+01  0.57314316916E+01  0.51100000000E-03 0. -1.
        -11    1    3    3    0    0  0.18089859076E+02  0.28317489873E+02 -0.30710299926E+01  0.33742472636E+02  0.51100000000E-03 0.  1.
         12    1    3    3    0    0 -0.26832177177E+01  0.74166651069E+01 -0.26278151223E+01  0.83133621926E+01  0.00000000000E+00 0. -1.
</event>
<event>
 7    1  0.2580704E-010  0.4778726E+02  0.7816164E-02  0.1312668E+00
        -11   -1    0    0    0    0  0.00000000000E+00  0.00000000000E+00  0.45593999997E+02  0.45594000000E+02  0.51100000000E-03 0.  1.
         11   -1    0    0    0    0 -0.00000000000E+00 -0.00000000000E+00 -0.45593999997E+02  0.45594000000E+02  0.51100000000E-03 0. -1.
    9900012    2    1    2    0    0  0.26168605999E+02 -0.30430065342E+02  0.16517859931E+02  0.47787256765E+02  0.19999934894E+02 0.  0.
         12    1    1    2    0    0 -0.26168605999E+02  0.30430065342E+02 -0.16517859931E+02  0.43400743235E+02  0.00000000000E+00 0. -1.
         11    1    3    3    0    0  0.44442459663E+01  0.10122438833E+01  0.17045123314E+01  0.48663459019E+01  0.51100000000E-03 0. -1.
        -11    1    3    3    0    0  0.49786560263E+01 -0.15873106585E+01 -0.81955367828E+00  0.52894460436E+01  0.51100000000E-03 0.  1.
        -12    1    3    3    0    0  0.16745704006E+02 -0.29854998567E+02  0.15632901278E+02  0.37631464820E+02  0.00000000000E+00 0.  1.
</event>
<event>
 7    1  0.2580704E-010  0.4778727E+02  0.7816164E-02  0.1312668E+00
        -11   -1    0    0    0    0  0.00000000000E+00  0.00000000000E+00  0.45593999997E+02  0.45594000000E+02  0.51100000000E-03 0.  1.
         11   -1    0    0    0    0 -0.00000000000E+00 -0.00000000000E+00 -0.45593999997E+02  0.45594000000E+02  0.51100000000E-03 0. -1.
    9900012    2    1    2    0    0  0.27895940521E+02  0.11800384892E+02  0.31083605339E+02  0.47787273024E+02  0.20000009028E+02 0.  0.
         12    1    1    2    0    0 -0.27895940521E+02 -0.11800384892E+02 -0.31083605339E+02  0.43400726976E+02  0.00000000000E+00 0. -1.
         11    1    3    3    0    0 -0.27370646952E+00  0.36056284082E+01  0.33880185715E+01  0.49552135728E+01  0.51100000000E-03 0. -1.
        -11    1    3    3    0    0  0.28029888216E+01  0.66460669593E+01  0.70918804106E+01  0.10115419931E+02  0.51100000000E-03 0.  1.
        -12    1    3    3    0    0  0.25366658169E+02  0.15486895247E+01  0.20603706357E+02  0.32716639521E+02  0.00000000000E+00 0.  1.
</event>
<event>
 7    1  0.2580704E-010  0.4778725E+02  0.7816164E-02  0.1312668E+00
        -11   -1    0    0    0    0  0.00000000000E+00  0.00000000000E+00  0.45593999997E+02  0.45594000000E+02  0.51100000000E-03 0.  1.
         11   -1    0    0    0    0 -0.00000000000E+00 -0.00000000000E+00 -0.45593999997E+02  0.45594000000E+02  0.51100000000E-03 0. -1.
    9900012    2    1    2    0    0 -0.11908505553E+02 -0.26832406599E+02  0.31966147407E+02  0.47787249679E+02  0.19999902584E+02 0.  0.
         12    1    1    2    0    0  0.11908505553E+02  0.26832406599E+02 -0.31966147407E+02  0.43400750321E+02  0.00000000000E+00 0. -1.
         11    1    3    3    0    0 -0.57412424427E+01 -0.66702527991E+01  0.13405734488E+01  0.89023184970E+01  0.51100000000E-03 0. -1.
        -11    1    3    3    0    0 -0.59588459617E+01 -0.32133443043E+01  0.63847324200E+01  0.93058172746E+01  0.51100000000E-03 0.  1.
        -12    1    3    3    0    0 -0.20841714865E+00 -0.16948809496E+02  0.24240841538E+02  0.29579113907E+02  0.00000000000E+00 0.  1.
</event>
<event>
 7    1  0.2580704E-010  0.4778727E+02  0.7816164E-02  0.1312668E+00
        -11   -1    0    0    0    0  0.00000000000E+00  0.00000000000E+00  0.45593999997E+02  0.45594000000E+02  0.51100000000E-03 0.  1.
         11   -1    0    0    0    0 -0.00000000000E+00 -0.00000000000E+00 -0.45593999997E+02  0.45594000000E+02  0.51100000000E-03 0. -1.
    9900012    2    1    2    0    0  0.10963495994E+02  0.24760814620E+02  0.33916469171E+02  0.47787273439E+02  0.20000010916E+02 0.  0.
         12    1    1    2    0    0 -0.10963495994E+02 -0.24760814620E+02 -0.33916469171E+02  0.43400726561E+02  0.00000000000E+00 0. -1.
         11    1    3    3    0    0  0.68944893601E+00  0.18998135598E+01  0.10588917836E+02  0.10780065519E+02  0.51100000000E-03 0. -1.
        -11    1    3    3    0    0  0.10363221527E+02  0.17246141402E+02  0.24037562809E+02  0.31346932541E+02  0.51100000000E-03 0.  1.
        -12    1    3    3    0    0 -0.89174469385E-01  0.56148596585E+01 -0.71001147385E+00  0.56602753788E+01  0.00000000000E+00 0.  1.
</event>
<event>
 7    1  0.2580704E-010  0.4778727E+02  0.7816164E-02  0.1312668E+00
        -11   -1    0    0    0    0  0.00000000000E+00  0.00000000000E+00  0.45593999997E+02  0.45594000000E+02  0.51100000000E-03 0. -1.
         11   -1    0    0    0    0 -0.00000000000E+00 -0.00000000000E+00 -0.45593999997E+02  0.45594000000E+02  0.51100000000E-03 0.  1.
    9900012    2    1    2    0    0 -0.27620187462E+02 -0.22735369942E+02 -0.24573396667E+02  0.47787266992E+02  0.19999981526E+02 0.  0.
         12    1    1    2    0    0  0.27620187462E+02  0.22735369942E+02  0.24573396667E+02  0.43400733008E+02  0.00000000000E+00 0. -1.
         11    1    3    3    0    0 -0.28892725813E+01  0.18498609317E+01  0.18991098617E+00  0.34359784573E+01  0.51100000000E-03 0. -1.
        -11    1    3    3    0    0 -0.16881580605E+01 -0.13330207117E+01 -0.65407500090E+01  0.68853636648E+01  0.51100000000E-03 0.  1.
        -12    1    3    3    0    0 -0.23042756820E+02 -0.23252210162E+02 -0.18222557644E+02  0.37465924870E+02  0.00000000000E+00 0.  1.
</event>
<event>
 7    1  0.2580704E-010  0.4778727E+02  0.7816164E-02  0.1312668E+00
        -11   -1    0    0    0    0  0.00000000000E+00  0.00000000000E+00  0.45593999997E+02  0.45594000000E+02  0.51100000000E-03 0.  1.
         11   -1    0    0    0    0 -0.00000000000E+00 -0.00000000000E+00 -0.45593999997E+02  0.45594000000E+02  0.51100000000E-03 0. -1.
    9900012    2    1    2    0    0 -0.23402947664E+02  0.13862531739E+02  0.33819455492E+02  0.47787270567E+02  0.19999997822E+02 0.  0.
         12    1    1    2    0    0  0.23402947664E+02 -0.13862531739E+02 -0.33819455492E+02  0.43400729433E+02  0.00000000000E+00 0. -1.
         11    1    3    3    0    0 -0.31155067703E+01 -0.11590884348E+01  0.55094532512E+01  0.64345896392E+01  0.51100000000E-03 0. -1.
        -11    1    3    3    0    0 -0.19460183561E+02  0.63840739786E+01  0.14692649864E+02  0.25205735559E+02  0.51100000000E-03 0.  1.
         12    1    3    3    0    0 -0.82725733212E+00  0.86375461957E+01  0.13617352377E+02  0.16146945368E+02  0.00000000000E+00 0. -1.
</event>
<event>
 7    1  0.2580704E-010  0.4778727E+02  0.7816164E-02  0.1312668E+00
        -11   -1    0    0    0    0  0.00000000000E+00  0.00000000000E+00  0.45593999997E+02  0.45594000000E+02  0.51100000000E-03 0.  1.
         11   -1    0    0    0    0 -0.00000000000E+00 -0.00000000000E+00 -0.45593999997E+02  0.45594000000E+02  0.51100000000E-03 0. -1.
    9900012    2    1    2    0    0  0.12143584244E+02  0.28938898617E+01  0.41566596082E+02  0.47787272510E+02  0.20000006683E+02 0.  0.
         12    1    1    2    0    0 -0.12143584244E+02 -0.28938898617E+01 -0.41566596082E+02  0.43400727490E+02  0.00000000000E+00 0. -1.
         11    1    3    3    0    0  0.67674877170E+01  0.10331855491E+01  0.65512861365E+01  0.94755323165E+01  0.51100000000E-03 0. -1.
        -11    1    3    3    0    0  0.78120820790E+01  0.63770664036E+01  0.19237135780E+02  0.21720105792E+02  0.51100000000E-03 0.  1.
         12    1    3    3    0    0 -0.24359855520E+01 -0.45163620909E+01  0.15778174165E+02  0.16591634402E+02  0.00000000000E+00 0. -1.
</event>
<event>
 7    1  0.2580704E-010  0.4778727E+02  0.7816164E-02  0.1312668E+00
        -11   -1    0    0    0    0  0.00000000000E+00  0.00000000000E+00  0.45593999997E+02  0.45594000000E+02  0.51100000000E-03 0. -1.
         11   -1    0    0    0    0 -0.00000000000E+00 -0.00000000000E+00 -0.45593999997E+02  0.45594000000E+02  0.51100000000E-03 0.  1.
    9900012    2    1    2    0    0  0.43008200408E+02 -0.42159751450E+01 -0.40179358081E+01  0.47787267784E+02  0.19999985133E+02 0.  0.
         12    1    1    2    0    0 -0.43008200408E+02  0.42159751450E+01  0.40179358081E+01  0.43400732216E+02  0.00000000000E+00 0. -1.
         11    1    3    3    0    0  0.12543626694E+02  0.22529312244E+01  0.53466004926E+01  0.13820434394E+02  0.51100000000E-03 0. -1.
        -11    1    3    3    0    0  0.98583111761E+01 -0.19781487057E+01  0.16252453402E+01  0.10185322490E+02  0.51100000000E-03 0.  1.
        -12    1    3    3    0    0  0.20606262538E+02 -0.44907576637E+01 -0.10989781641E+02  0.23781510900E+02  0.00000000000E+00 0.  1.
</event>
<event>
 7    1  0.2580704E-010  0.4778727E+02  0.7816164E-02  0.1312668E+00
        -11   -1    0    0    0    0  0.00000000000E+00  0.00000000000E+00  0.45593999997E+02  0.45594000000E+02  0.51100000000E-03 0. -1.
         11   -1    0    0    0    0 -0.00000000000E+00 -0.00000000000E+00 -0.45593999997E+02  0.45594000000E+02  0.51100000000E-03 0.  1.
    9900012    2    1    2    0    0  0.34896402233E+02  0.34828142393E+01 -0.25568226320E+02  0.47787273267E+02  0.20000010132E+02 0.  0.
         12    1    1    2    0    0 -0.34896402233E+02 -0.34828142393E+01  0.25568226320E+02  0.43400726733E+02  0.00000000000E+00 0. -1.
         11    1    3    3    0    0  0.11703659007E+01  0.43575455879E+01 -0.80024236771E+00  0.45823954435E+01  0.51100000000E-03 0. -1.
        -11    1    3    3    0    0  0.15838086287E+02 -0.42037081307E+01 -0.71517215866E+01  0.17879129207E+02  0.51100000000E-03 0.  1.
        -12    1    3    3    0    0  0.17887950046E+02  0.33289767821E+01 -0.17616262366E+02  0.25325748617E+02  0.00000000000E+00 0.  1.
</event>
<event>
 7    1  0.2580704E-010  0.4778727E+02  0.7816164E-02  0.1312668E+00
        -11   -1    0    0    0    0  0.00000000000E+00  0.00000000000E+00  0.45593999997E+02  0.45594000000E+02  0.51100000000E-03 0.  1.
         11   -1    0    0    0    0 -0.00000000000E+00 -0.00000000000E+00 -0.45593999997E+02  0.45594000000E+02  0.51100000000E-03 0. -1.
    9900012    2    1    2    0    0 -0.45897284580E+01 -0.34864203744E+02  0.25437075723E+02  0.47787272686E+02  0.20000007487E+02 0.  0.
         12    1    1    2    0    0  0.45897284580E+01  0.34864203744E+02 -0.25437075723E+02  0.43400727314E+02  0.00000000000E+00 0. -1.
         11    1    3    3    0    0 -0.21417672086E+01  0.46048678335E-01  0.36870928131E+01  0.42642632341E+01  0.51100000000E-03 0. -1.
        -11    1    3    3    0    0 -0.82219990057E+01 -0.17283923374E+02  0.10524174076E+02  0.21842470444E+02  0.51100000000E-03 0.  1.
         12    1    3    3    0    0  0.57740377563E+01 -0.17626329048E+02  0.11225808834E+02  0.21680539008E+02  0.00000000000E+00 0. -1.
</event>
<event>
 7    1  0.2580704E-010  0.4778727E+02  0.7816164E-02  0.1312668E+00
        -11   -1    0    0    0    0  0.00000000000E+00  0.00000000000E+00  0.45593999997E+02  0.45594000000E+02  0.51100000000E-03 0. -1.
         11   -1    0    0    0    0 -0.00000000000E+00 -0.00000000000E+00 -0.45593999997E+02  0.45594000000E+02  0.51100000000E-03 0.  1.
    9900012    2    1    2    0    0  0.41597010724E+02  0.12208088678E+02 -0.20674791768E+01  0.47787271890E+02  0.20000003854E+02 0.  0.
         12    1    1    2    0    0 -0.41597010724E+02 -0.12208088678E+02  0.20674791768E+01  0.43400728110E+02  0.00000000000E+00 0. -1.
         11    1    3    3    0    0 -0.91213802675E+00 -0.59395500301E-01  0.21027659676E+01  0.22928472651E+01  0.51100000000E-03 0.  1.
        -11    1    3    3    0    0 -0.29034616297E+00  0.98858219354E+00 -0.25141130123E+00  0.10605675609E+01  0.51100000000E-03 0. -1.
        -12    1    3    3    0    0  0.42799494914E+02  0.11278901985E+02 -0.39188338432E+01  0.44433857064E+02  0.00000000000E+00 0.  1.
</event>
<event>
 7    1  0.2580704E-010  0.4778727E+02  0.7816164E-02  0.1312668E+00
        -11   -1    0    0    0    0  0.00000000000E+00  0.00000000000E+00  0.45593999997E+02  0.45594000000E+02  0.51100000000E-03 0. -1.
         11   -1    0    0    0    0 -0.00000000000E+00 -0.00000000000E+00 -0.45593999997E+02  0.45594000000E+02  0.51100000000E-03 0.  1.
    9900012    2    1    2    0    0 -0.10519058959E+02 -0.37184389334E+02 -0.19755847945E+02  0.47787274896E+02  0.20000017559E+02 0.  0.
         12    1    1    2    0    0  0.10519058959E+02  0.37184389334E+02  0.19755847945E+02  0.43400725104E+02  0.00000000000E+00 0. -1.
         11    1    3    3    0    0  0.96713132636E+00  0.75814775248E+00  0.73113340260E+00  0.14299256381E+01  0.51100000000E-03 0. -1.
        -11    1    3    3    0    0 -0.91636253994E+01 -0.26263202126E+02 -0.76523301271E+01  0.28849366943E+02  0.51100000000E-03 0.  1.
         12    1    3    3    0    0 -0.23225648860E+01 -0.11679334961E+02 -0.12834651221E+02  0.17507982315E+02  0.00000000000E+00 0. -1.
</event>
<event>
 7    1  0.2580704E-010  0.4778726E+02  0.7816164E-02  0.1312668E+00
        -11   -1    0    0    0    0  0.00000000000E+00  0.00000000000E+00  0.45593999997E+02  0.45594000000E+02  0.51100000000E-03 0. -1.
         11   -1    0    0    0    0 -0.00000000000E+00 -0.00000000000E+00 -0.45593999997E+02  0.45594000000E+02  0.51100000000E-03 0.  1.
    9900012    2    1    2    0    0 -0.22169233152E+02 -0.25797738483E+02 -0.26955993594E+02  0.47787264983E+02  0.19999972363E+02 0.  0.
         12    1    1    2    0    0  0.22169233152E+02  0.25797738483E+02  0.26955993594E+02  0.43400735017E+02  0.00000000000E+00 0. -1.
         11    1    3    3    0    0 -0.45528878978E+01 -0.13233290687E+02 -0.52155317374E+01  0.14934876704E+02  0.51100000000E-03 0.  1.
        -11    1    3    3    0    0  0.48150873495E+00 -0.49857088501E+01 -0.43514010510E+01  0.66350459506E+01  0.51100000000E-03 0. -1.
         12    1    3    3    0    0 -0.18097853989E+02 -0.75787389460E+01 -0.17389060806E+02  0.26217342328E+02  0.00000000000E+00 0. -1.
</event>
<event>
 7    1  0.2580704E-010  0.4778727E+02  0.7816164E-02  0.1312668E+00
        -11   -1    0    0    0    0  0.00000000000E+00  0.00000000000E+00  0.45593999997E+02  0.45594000000E+02  0.51100000000E-03 0. -1.
         11   -1    0    0    0    0 -0.00000000000E+00 -0.00000000000E+00 -0.45593999997E+02  0.45594000000E+02  0.51100000000E-03 0.  1.
    9900012    2    1    2    0    0  0.28975918823E+02 -0.18670513482E+02 -0.26371033755E+02  0.47787269976E+02  0.19999995130E+02 0.  0.
         12    1    1    2    0    0 -0.28975918823E+02  0.18670513482E+02  0.26371033755E+02  0.43400730024E+02  0.00000000000E+00 0. -1.
         11    1    3    3    0    0  0.17287393716E+02 -0.13744877460E+02 -0.18181986711E+02  0.28606997027E+02  0.51100000000E-03 0. -1.
        -11    1    3    3    0    0  0.13541889924E+02 -0.17538602309E+01 -0.67820499744E+01  0.15246475348E+02  0.51100000000E-03 0.  1.
         12    1    3    3    0    0 -0.18533648174E+01 -0.31717757911E+01 -0.14069970696E+01  0.39337976015E+01  0.00000000000E+00 0. -1.
</event>
<event>
 7    1  0.2580704E-010  0.4778727E+02  0.7816164E-02  0.1312668E+00
        -11   -1    0    0    0    0  0.00000000000E+00  0.00000000000E+00  0.45593999997E+02  0.45594000000E+02  0.51100000000E-03 0. -1.
         11   -1    0    0    0    0 -0.00000000000E+00 -0.00000000000E+00 -0.45593999997E+02  0.45594000000E+02  0.51100000000E-03 0.  1.
    9900012    2    1    2    0    0 -0.40988904053E+02  0.36664175995E+01 -0.13787330621E+02  0.47787270062E+02  0.19999995521E+02 0.  0.
         12    1    1    2    0    0  0.40988904053E+02 -0.36664175995E+01  0.13787330621E+02  0.43400729938E+02  0.00000000000E+00 0. -1.
         11    1    3    3    0    0  0.36402460203E+00 -0.55677308627E+00  0.11586269109E+01  0.13360115120E+01  0.51100000000E-03 0. -1.
        -11    1    3    3    0    0 -0.43383686315E+01  0.47614915676E+01  0.22316046274E+00  0.64453894517E+01  0.51100000000E-03 0.  1.
        -12    1    3    3    0    0 -0.37014560023E+02 -0.53830088184E+00 -0.15169117995E+02  0.40005869098E+02  0.00000000000E+00 0.  1.
</event>
<event>
 7    1  0.2580704E-010  0.4778727E+02  0.7816164E-02  0.1312668E+00
        -11   -1    0    0    0    0  0.00000000000E+00  0.00000000000E+00  0.45593999997E+02  0.45594000000E+02  0.51100000000E-03 0.  1.
         11   -1    0    0    0    0 -0.00000000000E+00 -0.00000000000E+00 -0.45593999997E+02  0.45594000000E+02  0.51100000000E-03 0. -1.
    9900012    2    1    2    0    0 -0.18385558320E+01 -0.23644973843E+02  0.36347742462E+02  0.47787268927E+02  0.19999990346E+02 0.  0.
         12    1    1    2    0    0  0.18385558320E+01  0.23644973843E+02 -0.36347742462E+02  0.43400731073E+02  0.00000000000E+00 0. -1.
         11    1    3    3    0    0 -0.75887641043E+00 -0.25516821036E+01  0.10769937895E+02  0.11094076685E+02  0.51100000000E-03 0. -1.
        -11    1    3    3    0    0 -0.48722120344E+01 -0.14922455400E+02  0.24877759005E+02  0.29416339314E+02  0.51100000000E-03 0.  1.
        -12    1    3    3    0    0  0.37925326128E+01 -0.61708363399E+01  0.70004556183E+00  0.72768529284E+01  0.00000000000E+00 0.  1.
</event>
<event>
 7    1  0.2580704E-010  0.4778727E+02  0.7816164E-02  0.1312668E+00
        -11   -1    0    0    0    0  0.00000000000E+00  0.00000000000E+00  0.45593999997E+02  0.45594000000E+02  0.51100000000E-03 0.  1.
         11   -1    0    0    0    0 -0.00000000000E+00 -0.00000000000E+00 -0.45593999997E+02  0.45594000000E+02  0.51100000000E-03 0. -1.
    9900012    2    1    2    0    0  0.23471462541E+02 -0.74871106439E+01  0.35730332584E+02  0.47787273668E+02  0.20000011960E+02 0.  0.
         12    1    1    2    0    0 -0.23471462541E+02  0.74871106439E+01 -0.35730332584E+02  0.43400726332E+02  0.00000000000E+00 0. -1.
         11    1    3    3    0    0  0.54470877454E+01 -0.23197553166E+01  0.22768653405E+01  0.63431968025E+01  0.51100000000E-03 0. -1.
        -11    1    3    3    0    0  0.66150750755E+01 -0.64464779172E+01  0.44535658018E+01  0.10254293950E+02  0.51100000000E-03 0.  1.
        -12    1    3    3    0    0  0.11409299721E+02  0.12791225899E+01  0.28999901441E+02  0.31189782916E+02  0.00000000000E+00 0.  1.
</event>
<event>
 7    1  0.2580704E-010  0.4778729E+02  0.7816164E-02  0.1312668E+00
        -11   -1    0    0    0    0  0.00000000000E+00  0.00000000000E+00  0.45593999997E+02  0.45594000000E+02  0.51100000000E-03 0.  1.
         11   -1    0    0    0    0 -0.00000000000E+00 -0.00000000000E+00 -0.45593999997E+02  0.45594000000E+02  0.51100000000E-03 0. -1.
    9900012    2    1    2    0    0  0.34622410882E+02 -0.90636080945E+01  0.24551204579E+02  0.47787286028E+02  0.20000068318E+02 0.  0.
         12    1    1    2    0    0 -0.34622410882E+02  0.90636080945E+01 -0.24551204579E+02  0.43400713972E+02  0.00000000000E+00 0. -1.
         11    1    3    3    0    0  0.17550340186E+02 -0.24925543284E+01  0.11472629867E+02  0.21115125007E+02  0.51100000000E-03 0. -1.
        -11    1    3    3    0    0  0.98582412932E+01 -0.77099433535E+01  0.14581613016E+02  0.19215920127E+02  0.51100000000E-03 0.  1.
         12    1    3    3    0    0  0.72138294022E+01  0.11388895873E+01 -0.15030383039E+01  0.74562408947E+01  0.00000000000E+00 0. -1.
</event>
<event>
 7    1  0.2580704E-010  0.4778728E+02  0.7816164E-02  0.1312668E+00
        -11   -1    0    0    0    0  0.00000000000E+00  0.00000000000E+00  0.45593999997E+02  0.45594000000E+02  0.51100000000E-03 0. -1.
         11   -1    0    0    0    0 -0.00000000000E+00 -0.00000000000E+00 -0.45593999997E+02  0.45594000000E+02  0.51100000000E-03 0.  1.
    9900012    2    1    2    0    0  0.32592492590E+02 -0.61381720363E+01 -0.27994195665E+02  0.47787277424E+02  0.20000029089E+02 0.  0.
         12    1    1    2    0    0 -0.32592492590E+02  0.61381720363E+01  0.27994195665E+02  0.43400722576E+02  0.00000000000E+00 0. -1.
         11    1    3    3    0    0  0.26770182795E+01  0.12750653752E+01 -0.79250174799E+01  0.84615672838E+01  0.51100000000E-03 0. -1.
        -11    1    3    3    0    0  0.22743693640E+02 -0.11179848430E+00 -0.17702045138E+02  0.28821007990E+02  0.51100000000E-03 0.  1.
        -12    1    3    3    0    0  0.71717806710E+01 -0.73014389272E+01 -0.23671330472E+01  0.10504702150E+02  0.00000000000E+00 0.  1.
</event>
<event>
 7    1  0.2580704E-010  0.4778727E+02  0.7816164E-02  0.1312668E+00
        -11   -1    0    0    0    0  0.00000000000E+00  0.00000000000E+00  0.45593999997E+02  0.45594000000E+02  0.51100000000E-03 0. -1.
         11   -1    0    0    0    0 -0.00000000000E+00 -0.00000000000E+00 -0.45593999997E+02  0.45594000000E+02  0.51100000000E-03 0.  1.
    9900012    2    1    2    0    0  0.26173788443E+02 -0.74871978739E+01 -0.33800858241E+02  0.47787270153E+02  0.19999995935E+02 0.  0.
         12    1    1    2    0    0 -0.26173788443E+02  0.74871978739E+01  0.33800858241E+02  0.43400729847E+02  0.00000000000E+00 0. -1.
         11    1    3    3    0    0  0.10028709115E+02 -0.10345211479E+01 -0.22125444799E+01  0.10321850312E+02  0.51100000000E-03 0. -1.
        -11    1    3    3    0    0  0.93145553533E+00  0.17163967560E+01 -0.69368711421E+00  0.20723969967E+01  0.51100000000E-03 0.  1.
        -12    1    3    3    0    0  0.15213623792E+02 -0.81690734819E+01 -0.30894626647E+02  0.35393022845E+02  0.00000000000E+00 0.  1.
</event>
<event>
 7    1  0.2580704E-010  0.4778727E+02  0.7816164E-02  0.1312668E+00
        -11   -1    0    0    0    0  0.00000000000E+00  0.00000000000E+00  0.45593999997E+02  0.45594000000E+02  0.51100000000E-03 0. -1.
         11   -1    0    0    0    0 -0.00000000000E+00 -0.00000000000E+00 -0.45593999997E+02  0.45594000000E+02  0.51100000000E-03 0.  1.
    9900012    2    1    2    0    0  0.16431474641E+02  0.16309247473E+02 -0.36710195066E+02  0.47787270354E+02  0.19999996853E+02 0.  0.
         12    1    1    2    0    0 -0.16431474641E+02 -0.16309247473E+02  0.36710195066E+02  0.43400729646E+02  0.00000000000E+00 0. -1.
         11    1    3    3    0    0  0.58715110161E+01  0.16998274329E+02 -0.18413286182E+02  0.25738396999E+02  0.51100000000E-03 0. -1.
        -11    1    3    3    0    0  0.58208029094E+01  0.26315649276E+01 -0.80020228370E+01  0.10239103976E+02  0.51100000000E-03 0.  1.
         12    1    3    3    0    0  0.47391607155E+01 -0.33205917842E+01 -0.10294886047E+02  0.11809769380E+02  0.00000000000E+00 0. -1.
</event>
<event>
 7    1  0.2580704E-010  0.4778728E+02  0.7816164E-02  0.1312668E+00
        -11   -1    0    0    0    0  0.00000000000E+00  0.00000000000E+00  0.45593999997E+02  0.45594000000E+02  0.51100000000E-03 0.  1.
         11   -1    0    0    0    0 -0.00000000000E+00 -0.00000000000E+00 -0.45593999997E+02  0.45594000000E+02  0.51100000000E-03 0. -1.
    9900012    2    1    2    0    0  0.34775837413E+02  0.14698685714E+02  0.21405894068E+02  0.47787279610E+02  0.20000039056E+02 0.  0.
         12    1    1    2    0    0 -0.34775837413E+02 -0.14698685714E+02 -0.21405894068E+02  0.43400720390E+02  0.00000000000E+00 0. -1.
         11    1    3    3    0    0  0.28076650288E+01  0.17666892170E+01 -0.19875933980E+01  0.38671309107E+01  0.51100000000E-03 0. -1.
        -11    1    3    3    0    0  0.28441391068E+02  0.15869672521E+02  0.20126940076E+02  0.38286459080E+02  0.51100000000E-03 0.  1.
         12    1    3    3    0    0  0.35267813163E+01 -0.29376760245E+01  0.32665473906E+01  0.56336896199E+01  0.00000000000E+00 0. -1.
</event>
<event>
 7    1  0.2580704E-010  0.4778727E+02  0.7816164E-02  0.1312668E+00
        -11   -1    0    0    0    0  0.00000000000E+00  0.00000000000E+00  0.45593999997E+02  0.45594000000E+02  0.51100000000E-03 0. -1.
         11   -1    0    0    0    0 -0.00000000000E+00 -0.00000000000E+00 -0.45593999997E+02  0.45594000000E+02  0.51100000000E-03 0.  1.
    9900012    2    1    2    0    0 -0.37262447429E+01 -0.31344351350E+01 -0.43126714906E+02  0.47787272793E+02  0.20000007973E+02 0.  0.
         12    1    1    2    0    0  0.37262447429E+01  0.31344351350E+01  0.43126714906E+02  0.43400727207E+02  0.00000000000E+00 0. -1.
         11    1    3    3    0    0 -0.89342347821E+01 -0.15977606390E+01 -0.10318564954E+02  0.13742131319E+02  0.51100000000E-03 0. -1.
        -11    1    3    3    0    0  0.23632110030E+01 -0.21073010332E+00 -0.20744334823E+01  0.31515786448E+01  0.51100000000E-03 0.  1.
        -12    1    3    3    0    0  0.28447790362E+01 -0.13259443927E+01 -0.30733716469E+02  0.30893562830E+02  0.00000000000E+00 0.  1.
</event>
<event>
 7    1  0.2580704E-010  0.4778727E+02  0.7816164E-02  0.1312668E+00
        -11   -1    0    0    0    0  0.00000000000E+00  0.00000000000E+00  0.45593999997E+02  0.45594000000E+02  0.51100000000E-03 0. -1.
         11   -1    0    0    0    0 -0.00000000000E+00 -0.00000000000E+00 -0.45593999997E+02  0.45594000000E+02  0.51100000000E-03 0.  1.
    9900012    2    1    2    0    0 -0.16709223356E+02  0.44407754216E+01 -0.39808347911E+02  0.47787271954E+02  0.20000004147E+02 0.  0.
         12    1    1    2    0    0  0.16709223356E+02 -0.44407754216E+01  0.39808347911E+02  0.43400728046E+02  0.00000000000E+00 0. -1.
         11    1    3    3    0    0  0.68762288756E+00 -0.11575673358E+01  0.14062760393E+01  0.19468949464E+01  0.51100000000E-03 0. -1.
        -11    1    3    3    0    0 -0.59960470405E+01 -0.17887616085E+01 -0.99788304332E+01  0.11778340515E+02  0.51100000000E-03 0.  1.
        -12    1    3    3    0    0 -0.11400799203E+02  0.73871043659E+01 -0.31235793517E+02  0.34062036493E+02  0.00000000000E+00 0.  1.
</event>
<event>
 7    1  0.2580704E-010  0.4778727E+02  0.7816164E-02  0.1312668E+00
        -11   -1    0    0    0    0  0.00000000000E+00  0.00000000000E+00  0.45593999997E+02  0.45594000000E+02  0.51100000000E-03 0.  1.
         11   -1    0    0    0    0 -0.00000000000E+00 -0.00000000000E+00 -0.45593999997E+02  0.45594000000E+02  0.51100000000E-03 0. -1.
    9900012    2    1    2    0    0 -0.21178495580E+02 -0.36655150004E+01  0.37704886410E+02  0.47787272650E+02  0.20000007323E+02 0.  0.
         12    1    1    2    0    0  0.21178495580E+02  0.36655150004E+01 -0.37704886410E+02  0.43400727350E+02  0.00000000000E+00 0. -1.
         11    1    3    3    0    0  0.73005832026E+00 -0.68264600394E-01  0.56946706507E+01  0.57416826182E+01  0.51100000000E-03 0. -1.
        -11    1    3    3    0    0 -0.15554873061E+02 -0.58639482279E+01  0.31065874897E+02  0.35233911905E+02  0.51100000000E-03 0.  1.
         12    1    3    3    0    0 -0.63536808391E+01  0.22666978279E+01  0.94434086317E+00  0.68116781276E+01  0.00000000000E+00 0. -1.
</event>
<event>
 7    1  0.2580704E-010  0.4778727E+02  0.7816164E-02  0.1312668E+00
        -11   -1    0    0    0    0  0.00000000000E+00  0.00000000000E+00  0.45593999997E+02  0.45594000000E+02  0.51100000000E-03 0.  1.
         11   -1    0    0    0    0 -0.00000000000E+00 -0.00000000000E+00 -0.45593999997E+02  0.45594000000E+02  0.51100000000E-03 0. -1.
    9900012    2    1    2    0    0 -0.64899737396E+01 -0.99836557830E+01  0.41735235862E+02  0.47787273573E+02  0.20000011528E+02 0.  0.
         12    1    1    2    0    0  0.64899737396E+01  0.99836557830E+01 -0.41735235862E+02  0.43400726427E+02  0.00000000000E+00 0. -1.
         11    1    3    3    0    0  0.44330264475E+01  0.98056026380E+00  0.80150325336E+01  0.92116213931E+01  0.51100000000E-03 0. -1.
        -11    1    3    3    0    0 -0.10053462851E+01 -0.32590409756E+00  0.14167087118E+02  0.14206452488E+02  0.51100000000E-03 0.  1.
        -12    1    3    3    0    0 -0.99176539020E+01 -0.10638311949E+02  0.19553116211E+02  0.24369199692E+02  0.00000000000E+00 0.  1.
</event>
<event>
 7    1  0.2580704E-010  0.4778727E+02  0.7816164E-02  0.1312668E+00
        -11   -1    0    0    0    0  0.00000000000E+00  0.00000000000E+00  0.45593999997E+02  0.45594000000E+02  0.51100000000E-03 0.  1.
         11   -1    0    0    0    0 -0.00000000000E+00 -0.00000000000E+00 -0.45593999997E+02  0.45594000000E+02  0.51100000000E-03 0. -1.
    9900012    2    1    2    0    0 -0.52470515214E+00  0.26816911115E+02  0.34120392380E+02  0.47787271741E+02  0.20000003177E+02 0.  0.
         12    1    1    2    0    0  0.52470515214E+00 -0.26816911115E+02 -0.34120392380E+02  0.43400728259E+02  0.00000000000E+00 0. -1.
         11    1    3    3    0    0  0.61964225918E+01  0.83795672237E+01  0.15449255210E+02  0.18635779742E+02  0.51100000000E-03 0. -1.
        -11    1    3    3    0    0  0.34746158671E+00  0.10921913759E+02  0.14172561417E+02  0.17896100890E+02  0.51100000000E-03 0.  1.
         12    1    3    3    0    0 -0.70685893307E+01  0.75154301332E+01  0.44985757534E+01  0.11255391109E+02  0.00000000000E+00 0. -1.
</event>
<event>
 7    1  0.2580704E-010  0.4778729E+02  0.7816164E-02  0.1312668E+00
        -11   -1    0    0    0    0  0.00000000000E+00  0.00000000000E+00  0.45593999997E+02  0.45594000000E+02  0.51100000000E-03 0. -1.
         11   -1    0    0    0    0 -0.00000000000E+00 -0.00000000000E+00 -0.45593999997E+02  0.45594000000E+02  0.51100000000E-03 0.  1.
    9900012    2    1    2    0    0 -0.29698147801E+02 -0.26204804588E+02 -0.17746838375E+02  0.47787285276E+02  0.20000064886E+02 0.  0.
         12    1    1    2    0    0  0.29698147801E+02  0.26204804588E+02  0.17746838375E+02  0.43400714724E+02  0.00000000000E+00 0. -1.
         11    1    3    3    0    0 -0.79588879358E+01 -0.18972153517E+02 -0.99661942908E+01  0.22860698483E+02  0.51100000000E-03 0. -1.
        -11    1    3    3    0    0 -0.19421217031E+01 -0.32336625888E+00 -0.27174881474E+01  0.33557628849E+01  0.51100000000E-03 0.  1.
        -12    1    3    3    0    0 -0.19797138162E+02 -0.69092848123E+01 -0.50631559367E+01  0.21570823908E+02  0.00000000000E+00 0.  1.
</event>
<event>
 7    1  0.2580704E-010  0.4778727E+02  0.7816164E-02  0.1312668E+00
        -11   -1    0    0    0    0  0.00000000000E+00  0.00000000000E+00  0.45593999997E+02  0.45594000000E+02  0.51100000000E-03 0. -1.
         11   -1    0    0    0    0 -0.00000000000E+00 -0.00000000000E+00 -0.45593999997E+02  0.45594000000E+02  0.51100000000E-03 0.  1.
    9900012    2    1    2    0    0  0.40732225141E+02  0.14815632740E+02 -0.22374627673E+01  0.47787269844E+02  0.19999994526E+02 0.  0.
         12    1    1    2    0    0 -0.40732225141E+02 -0.14815632740E+02  0.22374627673E+01  0.43400730156E+02  0.00000000000E+00 0. -1.
         11    1    3    3    0    0  0.20498363454E+02  0.11070185942E+02 -0.62640659701E+00  0.23305027495E+02  0.51100000000E-03 0.  1.
        -11    1    3    3    0    0  0.18048921276E+00  0.42322333510E+01 -0.12614612940E+01  0.44199163285E+01  0.51100000000E-03 0. -1.
         12    1    3    3    0    0  0.20053372475E+02 -0.48678655253E+00 -0.34959487628E+00  0.20062326020E+02  0.00000000000E+00 0. -1.
</event>
<event>
 7    1  0.2580704E-010  0.4778728E+02  0.7816164E-02  0.1312668E+00
        -11   -1    0    0    0    0  0.00000000000E+00  0.00000000000E+00  0.45593999997E+02  0.45594000000E+02  0.51100000000E-03 0. -1.
         11   -1    0    0    0    0 -0.00000000000E+00 -0.00000000000E+00 -0.45593999997E+02  0.45594000000E+02  0.51100000000E-03 0.  1.
    9900012    2    1    2    0    0  0.67042981447E+01 -0.32969004258E+02  0.27417508448E+02  0.47787278521E+02  0.20000034088E+02 0.  0.
         12    1    1    2    0    0 -0.67042981447E+01  0.32969004258E+02 -0.27417508448E+02  0.43400721479E+02  0.00000000000E+00 0. -1.
         11    1    3    3    0    0 -0.77868191495E+00 -0.24239742844E+01  0.41308340496E+01  0.48524001342E+01  0.51100000000E-03 0. -1.
        -11    1    3    3    0    0  0.38817522702E+01 -0.13934903813E+02  0.21405637543E+02  0.25835070425E+02  0.51100000000E-03 0.  1.
        -12    1    3    3    0    0  0.36012277895E+01 -0.16610126161E+02  0.18810368552E+01  0.17099807962E+02  0.00000000000E+00 0.  1.
</event>
<event>
 7    1  0.2580704E-010  0.4778727E+02  0.7816164E-02  0.1312668E+00
        -11   -1    0    0    0    0  0.00000000000E+00  0.00000000000E+00  0.45593999997E+02  0.45594000000E+02  0.51100000000E-03 0.  1.
         11   -1    0    0    0    0 -0.00000000000E+00 -0.00000000000E+00 -0.45593999997E+02  0.45594000000E+02  0.51100000000E-03 0. -1.
    9900012    2    1    2    0    0 -0.16757166218E+02 -0.27391714743E+02  0.29197854908E+02  0.47787269736E+02  0.19999994035E+02 0.  0.
         12    1    1    2    0    0  0.16757166218E+02  0.27391714743E+02 -0.29197854908E+02  0.43400730264E+02  0.00000000000E+00 0. -1.
         11    1    3    3    0    0 -0.15475762035E+01 -0.36697783446E+01 -0.89048828241E+00  0.40810825582E+01  0.51100000000E-03 0. -1.
        -11    1    3    3    0    0 -0.13771195632E+02 -0.93716728142E+01  0.11791387586E+02  0.20408598725E+02  0.51100000000E-03 0.  1.
        -12    1    3    3    0    0 -0.14383943828E+01 -0.14350263584E+02  0.18296955604E+02  0.23297588453E+02  0.00000000000E+00 0.  1.
</event>
<event>
 7    1  0.2580704E-010  0.4778727E+02  0.7816164E-02  0.1312668E+00
        -11   -1    0    0    0    0  0.00000000000E+00  0.00000000000E+00  0.45593999997E+02  0.45594000000E+02  0.51100000000E-03 0.  1.
         11   -1    0    0    0    0 -0.00000000000E+00 -0.00000000000E+00 -0.45593999997E+02  0.45594000000E+02  0.51100000000E-03 0. -1.
    9900012    2    1    2    0    0 -0.13147764307E+02  0.38068837897E+02  0.16171682703E+02  0.47787269055E+02  0.19999990929E+02 0.  0.
         12    1    1    2    0    0  0.13147764307E+02 -0.38068837897E+02 -0.16171682703E+02  0.43400730945E+02  0.00000000000E+00 0. -1.
         11    1    3    3    0    0  0.66523911061E-01  0.67053133967E-01 -0.53439279946E+00  0.54267621908E+00  0.51100000000E-03 0. -1.
        -11    1    3    3    0    0 -0.10334564209E+02  0.18945785470E+02  0.17751491253E+02  0.27943898197E+02  0.51100000000E-03 0.  1.
        -12    1    3    3    0    0 -0.28797240088E+01  0.19055999293E+02 -0.10454157514E+01  0.19300694639E+02  0.00000000000E+00 0.  1.
</event>
<event>
 7    1  0.2580704E-010  0.4778728E+02  0.7816164E-02  0.1312668E+00
        -11   -1    0    0    0    0  0.00000000000E+00  0.00000000000E+00  0.45593999997E+02  0.45594000000E+02  0.51100000000E-03 0.  1.
         11   -1    0    0    0    0 -0.00000000000E+00 -0.00000000000E+00 -0.45593999997E+02  0.45594000000E+02  0.51100000000E-03 0. -1.
    9900012    2    1    2    0    0  0.11905481560E+02  0.13006476353E+02  0.39657457581E+02  0.47787275811E+02  0.20000021733E+02 0.  0.
         12    1    1    2    0    0 -0.11905481560E+02 -0.13006476353E+02 -0.39657457581E+02  0.43400724189E+02  0.00000000000E+00 0. -1.
         11    1    3    3    0    0 -0.16981327469E+01  0.21152279306E+01  0.14824052552E+02  0.15070181762E+02  0.51100000000E-03 0. -1.
        -11    1    3    3    0    0  0.55668599982E-01  0.14093153092E+01  0.11191009079E+02  0.11279536918E+02  0.51100000000E-03 0.  1.
        -12    1    3    3    0    0  0.13547945707E+02  0.94819331131E+01  0.13642395951E+02  0.21437557130E+02  0.00000000000E+00 0.  1.
</event>
<event>
 7    1  0.2580704E-010  0.4778727E+02  0.7816164E-02  0.1312668E+00
        -11   -1    0    0    0    0  0.00000000000E+00  0.00000000000E+00  0.45593999997E+02  0.45594000000E+02  0.51100000000E-03 0.  1.
         11   -1    0    0    0    0 -0.00000000000E+00 -0.00000000000E+00 -0.45593999997E+02  0.45594000000E+02  0.51100000000E-03 0. -1.
    9900012    2    1    2    0    0  0.37554778763E+02  0.39760945467E+01  0.21388137344E+02  0.47787272417E+02  0.20000006256E+02 0.  0.
         12    1    1    2    0    0 -0.37554778763E+02 -0.39760945467E+01 -0.21388137344E+02  0.43400727583E+02  0.00000000000E+00 0. -1.
         11    1    3    3    0    0  0.18613675413E+02  0.76805920869E+00  0.15169693601E+02  0.24024538113E+02  0.51100000000E-03 0.  1.
        -11    1    3    3    0    0  0.82051756763E+00  0.35127605358E+01  0.41861527561E+01  0.55259941024E+01  0.51100000000E-03 0. -1.
         12    1    3    3    0    0  0.18120585782E+02 -0.30472519776E+00  0.20322909868E+01  0.18236740201E+02  0.00000000000E+00 0. -1.
</event>
<event>
 7    1  0.2580704E-010  0.4778727E+02  0.7816164E-02  0.1312668E+00
        -11   -1    0    0    0    0  0.00000000000E+00  0.00000000000E+00  0.45593999997E+02  0.45594000000E+02  0.51100000000E-03 0.  1.
         11   -1    0    0    0    0 -0.00000000000E+00 -0.00000000000E+00 -0.45593999997E+02  0.45594000000E+02  0.51100000000E-03 0. -1.
    9900012    2    1    2    0    0  0.38269219864E+02  0.17391757998E+02 -0.10798939229E+02  0.47787268166E+02  0.19999986877E+02 0.  0.
         12    1    1    2    0    0 -0.38269219864E+02 -0.17391757998E+02  0.10798939229E+02  0.43400731834E+02  0.00000000000E+00 0. -1.
         11    1    3    3    0    0  0.84750055571E+01  0.21703468800E+01  0.11127125058E+01  0.88189712639E+01  0.51100000000E-03 0. -1.
        -11    1    3    3    0    0  0.18644733608E+02  0.94310758205E+01  0.10454584779E+01  0.20920427007E+02  0.51100000000E-03 0.  1.
         12    1    3    3    0    0  0.11149480699E+02  0.57903352974E+01 -0.12957110213E+02  0.18047869896E+02  0.00000000000E+00 0. -1.
</event>
<event>
 7    1  0.2580704E-010  0.4778727E+02  0.7816164E-02  0.1312668E+00
        -11   -1    0    0    0    0  0.00000000000E+00  0.00000000000E+00  0.45593999997E+02  0.45594000000E+02  0.51100000000E-03 0.  1.
         11   -1    0    0    0    0 -0.00000000000E+00 -0.00000000000E+00 -0.45593999997E+02  0.45594000000E+02  0.51100000000E-03 0. -1.
    9900012    2    1    2    0    0 -0.40940722194E+01  0.31418187862E+02  0.29660731646E+02  0.47787274687E+02  0.20000016609E+02 0.  0.
         12    1    1    2    0    0  0.40940722194E+01 -0.31418187862E+02 -0.29660731646E+02  0.43400725313E+02  0.00000000000E+00 0. -1.
         11    1    3    3    0    0  0.33470564481E+01  0.71977606528E+01  0.20925491985E+01  0.82090990791E+01  0.51100000000E-03 0. -1.
        -11    1    3    3    0    0 -0.84021269358E+00  0.14910073854E+02  0.80425270658E+01  0.16961677440E+02  0.51100000000E-03 0.  1.
         12    1    3    3    0    0 -0.66009159739E+01  0.93103533553E+01  0.19525655382E+02  0.22616498168E+02  0.00000000000E+00 0. -1.
</event>
<event>
 7    1  0.2580704E-010  0.4778727E+02  0.7816164E-02  0.1312668E+00
        -11   -1    0    0    0    0  0.00000000000E+00  0.00000000000E+00  0.45593999997E+02  0.45594000000E+02  0.51100000000E-03 0.  1.
         11   -1    0    0    0    0 -0.00000000000E+00 -0.00000000000E+00 -0.45593999997E+02  0.45594000000E+02  0.51100000000E-03 0. -1.
    9900012    2    1    2    0    0  0.20739243529E+02  0.35989237360E+02  0.12581008712E+02  0.47787271802E+02  0.20000003453E+02 0.  0.
         12    1    1    2    0    0 -0.20739243529E+02 -0.35989237360E+02 -0.12581008712E+02  0.43400728198E+02  0.00000000000E+00 0. -1.
         11    1    3    3    0    0  0.16971709423E+01  0.49135415739E+01  0.25103846682E+01  0.57728079345E+01  0.51100000000E-03 0. -1.
        -11    1    3    3    0    0 -0.35645626091E+01  0.47829963184E+01  0.22830257927E+00  0.59695295212E+01  0.51100000000E-03 0.  1.
         12    1    3    3    0    0  0.22606635196E+02  0.26292699468E+02  0.98423214645E+01  0.36044934346E+02  0.00000000000E+00 0. -1.
</event>
<event>
 7    1  0.2580704E-010  0.4778727E+02  0.7816164E-02  0.1312668E+00
        -11   -1    0    0    0    0  0.00000000000E+00  0.00000000000E+00  0.45593999997E+02  0.45594000000E+02  0.51100000000E-03 0. -1.
         11   -1    0    0    0    0 -0.00000000000E+00 -0.00000000000E+00 -0.45593999997E+02  0.45594000000E+02  0.51100000000E-03 0.  1.
    9900012    2    1    2    0    0 -0.16046202494E+02 -0.20721929112E+02  0.34593991064E+02  0.47787272145E+02  0.20000005018E+02 0.  0.
         12    1    1    2    0    0  0.16046202494E+02  0.20721929112E+02 -0.34593991064E+02  0.43400727855E+02  0.00000000000E+00 0. -1.
         11    1    3    3    0    0 -0.79562309990E+00  0.13323897982E+01  0.50623030478E+01  0.52948268244E+01  0.51100000000E-03 0. -1.
        -11    1    3    3    0    0  0.27406488172E+01 -0.40142734862E+01  0.67260947855E+01  0.82985479987E+01  0.51100000000E-03 0.  1.
        -12    1    3    3    0    0 -0.17991228212E+02 -0.18040045424E+02  0.22805593230E+02  0.34193897322E+02  0.00000000000E+00 0.  1.
</event>
<event>
 7    1  0.2580704E-010  0.4778727E+02  0.7816164E-02  0.1312668E+00
        -11   -1    0    0    0    0  0.00000000000E+00  0.00000000000E+00  0.45593999997E+02  0.45594000000E+02  0.51100000000E-03 0. -1.
         11   -1    0    0    0    0 -0.00000000000E+00 -0.00000000000E+00 -0.45593999997E+02  0.45594000000E+02  0.51100000000E-03 0.  1.
    9900012    2    1    2    0    0  0.31436211824E+02  0.28037087654E+02 -0.10455106277E+02  0.47787274831E+02  0.20000017263E+02 0.  0.
         12    1    1    2    0    0 -0.31436211824E+02 -0.28037087654E+02  0.10455106277E+02  0.43400725169E+02  0.00000000000E+00 0. -1.
         11    1    3    3    0    0  0.67440851929E+01  0.30025375557E+00 -0.44073353908E+00  0.67651373763E+01  0.51100000000E-03 0. -1.
        -11    1    3    3    0    0  0.20487009101E+02  0.12907292568E+02 -0.78621788366E+01  0.25458389573E+02  0.51100000000E-03 0.  1.
        -12    1    3    3    0    0  0.42051175298E+01  0.14829541331E+02 -0.21521939011E+01  0.15563747881E+02  0.00000000000E+00 0.  1.
</event>
<event>
 7    1  0.2580704E-010  0.4778727E+02  0.7816164E-02  0.1312668E+00
        -11   -1    0    0    0    0  0.00000000000E+00  0.00000000000E+00  0.45593999997E+02  0.45594000000E+02  0.51100000000E-03 0.  1.
         11   -1    0    0    0    0 -0.00000000000E+00 -0.00000000000E+00 -0.45593999997E+02  0.45594000000E+02  0.51100000000E-03 0. -1.
    9900012    2    1    2    0    0 -0.57506657447E+01  0.68469468543E+00  0.43012607448E+02  0.47787270020E+02  0.19999995328E+02 0.  0.
         12    1    1    2    0    0  0.57506657447E+01 -0.68469468543E+00 -0.43012607448E+02  0.43400729980E+02  0.00000000000E+00 0. -1.
         11    1    3    3    0    0 -0.50049924169E+01  0.20516315228E+01  0.40646965193E+01  0.67661583675E+01  0.51100000000E-03 0. -1.
        -11    1    3    3    0    0 -0.52010150105E+01 -0.52950690752E+00  0.69139496966E+01  0.86679660458E+01  0.51100000000E-03 0.  1.
        -12    1    3    3    0    0  0.44553416826E+01 -0.83742992988E+00  0.32033961232E+02  0.32353145606E+02  0.00000000000E+00 0.  1.
</event>
<event>
 7    1  0.2580704E-010  0.4778727E+02  0.7816164E-02  0.1312668E+00
        -11   -1    0    0    0    0  0.00000000000E+00  0.00000000000E+00  0.45593999997E+02  0.45594000000E+02  0.51100000000E-03 0.  1.
         11   -1    0    0    0    0 -0.00000000000E+00 -0.00000000000E+00 -0.45593999997E+02  0.45594000000E+02  0.51100000000E-03 0. -1.
    9900012    2    1    2    0    0 -0.35268574911E+02 -0.25075081266E+02 -0.33152924319E+01  0.47787271427E+02  0.20000001746E+02 0.  0.
         12    1    1    2    0    0  0.35268574911E+02  0.25075081266E+02  0.33152924319E+01  0.43400728573E+02  0.00000000000E+00 0. -1.
         11    1    3    3    0    0  0.33937329827E+00  0.16169521746E+01 -0.14494583875E+01  0.21978713449E+01  0.51100000000E-03 0. -1.
        -11    1    3    3    0    0 -0.49554630879E+01 -0.86837612066E+01 -0.23281228205E+00  0.10000926204E+02  0.51100000000E-03 0.  1.
         12    1    3    3    0    0 -0.30652485121E+02 -0.18008272234E+02 -0.16330217624E+01  0.35588473879E+02  0.00000000000E+00 0. -1.
</event>
<event>
 7    1  0.2580704E-010  0.4778727E+02  0.7816164E-02  0.1312668E+00
        -11   -1    0    0    0    0  0.00000000000E+00  0.00000000000E+00  0.45593999997E+02  0.45594000000E+02  0.51100000000E-03 0.  1.
         11   -1    0    0    0    0 -0.00000000000E+00 -0.00000000000E+00 -0.45593999997E+02  0.45594000000E+02  0.51100000000E-03 0. -1.
    9900012    2    1    2    0    0 -0.18152844507E+01  0.12120469575E+02  0.41634386692E+02  0.47787271946E+02  0.20000004111E+02 0.  0.
         12    1    1    2    0    0  0.18152844507E+01 -0.12120469575E+02 -0.41634386692E+02  0.43400728054E+02  0.00000000000E+00 0. -1.
         11    1    3    3    0    0 -0.37971291023E+01  0.40314206336E+01  0.41165893255E+00  0.55533778084E+01  0.51100000000E-03 0. -1.
        -11    1    3    3    0    0  0.29959486534E+01  0.46077028451E+01  0.22337291505E+02  0.23003504643E+02  0.51100000000E-03 0.  1.
        -12    1    3    3    0    0 -0.10141040018E+01  0.34813460958E+01  0.18885436255E+02  0.19230389495E+02  0.00000000000E+00 0.  1.
</event>
<event>
 7    1  0.2580704E-010  0.4778726E+02  0.7816164E-02  0.1312668E+00
        -11   -1    0    0    0    0  0.00000000000E+00  0.00000000000E+00  0.45593999997E+02  0.45594000000E+02  0.51100000000E-03 0.  1.
         11   -1    0    0    0    0 -0.00000000000E+00 -0.00000000000E+00 -0.45593999997E+02  0.45594000000E+02  0.51100000000E-03 0. -1.
    9900012    2    1    2    0    0 -0.22893512137E+02  0.23621423407E+02  0.28311472094E+02  0.47787262750E+02  0.19999962182E+02 0.  0.
         12    1    1    2    0    0  0.22893512137E+02 -0.23621423407E+02 -0.28311472094E+02  0.43400737250E+02  0.00000000000E+00 0. -1.
         11    1    3    3    0    0  0.31863165767E+00 -0.81082618630E+00  0.62027619947E+01  0.62636428587E+01  0.51100000000E-03 0. -1.
        -11    1    3    3    0    0 -0.33973790083E+01  0.59663442658E+01  0.51700500625E+00  0.68852554391E+01  0.51100000000E-03 0.  1.
        -12    1    3    3    0    0 -0.19814764786E+02  0.18465905328E+02  0.21591705093E+02  0.34638364452E+02  0.00000000000E+00 0.  1.
</event>
<event>
 7    1  0.2580704E-010  0.4778727E+02  0.7816164E-02  0.1312668E+00
        -11   -1    0    0    0    0  0.00000000000E+00  0.00000000000E+00  0.45593999997E+02  0.45594000000E+02  0.51100000000E-03 0. -1.
         11   -1    0    0    0    0 -0.00000000000E+00 -0.00000000000E+00 -0.45593999997E+02  0.45594000000E+02  0.51100000000E-03 0.  1.
    9900012    2    1    2    0    0  0.11200309497E+02  0.38907318761E+02 -0.15633191531E+02  0.47787273468E+02  0.20000011051E+02 0.  0.
         12    1    1    2    0    0 -0.11200309497E+02 -0.38907318761E+02  0.15633191531E+02  0.43400726532E+02  0.00000000000E+00 0. -1.
         11    1    3    3    0    0  0.42475317611E+01  0.13503772654E+02 -0.79953641605E+01  0.16257898089E+02  0.51100000000E-03 0. -1.
        -11    1    3    3    0    0  0.31417662351E+01  0.26443408507E+02 -0.63713361285E+01  0.27380987434E+02  0.51100000000E-03 0.  1.
         12    1    3    3    0    0  0.38110115011E+01 -0.10398624002E+01 -0.12664912422E+01  0.41483879446E+01  0.00000000000E+00 0. -1.
</event>
<event>
 7    1  0.2580704E-010  0.4778727E+02  0.7816164E-02  0.1312668E+00
        -11   -1    0    0    0    0  0.00000000000E+00  0.00000000000E+00  0.45593999997E+02  0.45594000000E+02  0.51100000000E-03 0.  1.
         11   -1    0    0    0    0 -0.00000000000E+00 -0.00000000000E+00 -0.45593999997E+02  0.45594000000E+02  0.51100000000E-03 0. -1.
    9900012    2    1    2    0    0 -0.11298352513E+02 -0.33041092281E+02  0.25773177474E+02  0.47787271599E+02  0.20000002529E+02 0.  0.
         12    1    1    2    0    0  0.11298352513E+02  0.33041092281E+02 -0.25773177474E+02  0.43400728401E+02  0.00000000000E+00 0. -1.
         11    1    3    3    0    0 -0.84092923837E+01 -0.22287799600E+02  0.82729956490E+01  0.25217150249E+02  0.51100000000E-03 0. -1.
        -11    1    3    3    0    0 -0.43893206415E+01 -0.14804659947E+01  0.77668909438E+01  0.90433683133E+01  0.51100000000E-03 0.  1.
        -12    1    3    3    0    0  0.15002605119E+01 -0.92728266864E+01  0.97332908811E+01  0.13526753037E+02  0.00000000000E+00 0.  1.
</event>
<event>
 7    1  0.2580704E-010  0.4778728E+02  0.7816164E-02  0.1312668E+00
        -11   -1    0    0    0    0  0.00000000000E+00  0.00000000000E+00  0.45593999997E+02  0.45594000000E+02  0.51100000000E-03 0.  1.
         11   -1    0    0    0    0 -0.00000000000E+00 -0.00000000000E+00 -0.45593999997E+02  0.45594000000E+02  0.51100000000E-03 0. -1.
    9900012    2    1    2    0    0  0.30753500875E+02  0.29276606599E+02  0.89847227229E+01  0.47787277052E+02  0.20000027389E+02 0.  0.
         12    1    1    2    0    0 -0.30753500875E+02 -0.29276606599E+02 -0.89847227229E+01  0.43400722948E+02  0.00000000000E+00 0. -1.
         11    1    3    3    0    0  0.71408175059E+01  0.23372894953E+01  0.15207986977E+01  0.76659654172E+01  0.51100000000E-03 0. -1.
        -11    1    3    3    0    0  0.16443188004E+02  0.24859488856E+02  0.34737964826E+00  0.29807604580E+02  0.51100000000E-03 0.  1.
        -12    1    3    3    0    0  0.71694953654E+01  0.20798282478E+01  0.71165443770E+01  0.10313707054E+02  0.00000000000E+00 0.  1.
</event>
<event>
 7    1  0.2580704E-010  0.4778726E+02  0.7816164E-02  0.1312668E+00
        -11   -1    0    0    0    0  0.00000000000E+00  0.00000000000E+00  0.45593999997E+02  0.45594000000E+02  0.51100000000E-03 0. -1.
         11   -1    0    0    0    0 -0.00000000000E+00 -0.00000000000E+00 -0.45593999997E+02  0.45594000000E+02  0.51100000000E-03 0.  1.
    9900012    2    1    2    0    0  0.14180686523E+02 -0.38069792710E+02 -0.15271639098E+02  0.47787263279E+02  0.19999964593E+02 0.  0.
         12    1    1    2    0    0 -0.14180686523E+02  0.38069792710E+02  0.15271639098E+02  0.43400736721E+02  0.00000000000E+00 0. -1.
         11    1    3    3    0    0  0.69942365727E+01 -0.16934633442E+02  0.87737880511E+00  0.18343144466E+02  0.51100000000E-03 0. -1.
        -11    1    3    3    0    0  0.70994361474E+01 -0.57047436102E+01 -0.48453614269E+01  0.10316182476E+02  0.51100000000E-03 0.  1.
        -12    1    3    3    0    0  0.87013802606E-01 -0.15430415657E+02 -0.11303656477E+02  0.19127936336E+02  0.00000000000E+00 0.  1.
</event>
<event>
 7    1  0.2580704E-010  0.4778728E+02  0.7816164E-02  0.1312668E+00
        -11   -1    0    0    0    0  0.00000000000E+00  0.00000000000E+00  0.45593999997E+02  0.45594000000E+02  0.51100000000E-03 0.  1.
         11   -1    0    0    0    0 -0.00000000000E+00 -0.00000000000E+00 -0.45593999997E+02  0.45594000000E+02  0.51100000000E-03 0. -1.
    9900012    2    1    2    0    0 -0.19424138217E+02  0.30297809021E+02  0.24256309242E+02  0.47787275179E+02  0.20000018851E+02 0.  0.
         12    1    1    2    0    0  0.19424138217E+02 -0.30297809021E+02 -0.24256309242E+02  0.43400724821E+02  0.00000000000E+00 0. -1.
         11    1    3    3    0    0 -0.12491378569E+01  0.90240680669E+01  0.10505655849E+02  0.13905500888E+02  0.51100000000E-03 0. -1.
        -11    1    3    3    0    0  0.18725647170E+01  0.35200948527E+01  0.31495905866E+01  0.50810911737E+01  0.51100000000E-03 0.  1.
         12    1    3    3    0    0 -0.20047565077E+02  0.17753646101E+02  0.10601062807E+02  0.28800683118E+02  0.00000000000E+00 0. -1.
</event>
<event>
 7    1  0.2580704E-010  0.4778724E+02  0.7816164E-02  0.1312668E+00
        -11   -1    0    0    0    0  0.00000000000E+00  0.00000000000E+00  0.45593999997E+02  0.45594000000E+02  0.51100000000E-03 0. -1.
         11   -1    0    0    0    0 -0.00000000000E+00 -0.00000000000E+00 -0.45593999997E+02  0.45594000000E+02  0.51100000000E-03 0.  1.
    9900012    2    1    2    0    0  0.22921051257E+02  0.31769636566E+02 -0.18679985486E+02  0.47787236689E+02  0.19999843357E+02 0.  0.
         12    1    1    2    0    0 -0.22921051257E+02 -0.31769636566E+02  0.18679985486E+02  0.43400763311E+02  0.00000000000E+00 0. -1.
         11    1    3    3    0    0  0.73776543979E+00  0.12550893132E+02 -0.21044426907E+01  0.12747466241E+02  0.51100000000E-03 0. -1.
        -11    1    3    3    0    0  0.11767942320E+02  0.11949287965E+02 -0.41622816343E+01  0.17279888252E+02  0.51100000000E-03 0.  1.
        -12    1    3    3    0    0  0.10415343497E+02  0.72694554685E+01 -0.12413261161E+02  0.17759882196E+02  0.00000000000E+00 0.  1.
</event>
<event>
 7    1  0.2580704E-010  0.4778727E+02  0.7816164E-02  0.1312668E+00
        -11   -1    0    0    0    0  0.00000000000E+00  0.00000000000E+00  0.45593999997E+02  0.45594000000E+02  0.51100000000E-03 0.  1.
         11   -1    0    0    0    0 -0.00000000000E+00 -0.00000000000E+00 -0.45593999997E+02  0.45594000000E+02  0.51100000000E-03 0. -1.
    9900012    2    1    2    0    0 -0.42908101885E+02  0.41461460037E+01 -0.50326816435E+01  0.47787267073E+02  0.19999981893E+02 0.  0.
         12    1    1    2    0    0  0.42908101885E+02 -0.41461460037E+01  0.50326816435E+01  0.43400732927E+02  0.00000000000E+00 0. -1.
         11    1    3    3    0    0 -0.20060918543E+02 -0.35441154706E+01 -0.13066532323E+01  0.20413440430E+02  0.51100000000E-03 0. -1.
        -11    1    3    3    0    0 -0.10988959558E+02 -0.10073482062E+01 -0.58914993235E+01  0.12509266450E+02  0.51100000000E-03 0.  1.
         12    1    3    3    0    0 -0.11858223785E+02  0.86976096805E+01  0.21654709122E+01  0.14864560194E+02  0.00000000000E+00 0. -1.
</event>
<event>
 7    1  0.2580704E-010  0.4778731E+02  0.7816164E-02  0.1312668E+00
        -11   -1    0    0    0    0  0.00000000000E+00  0.00000000000E+00  0.45593999997E+02  0.45594000000E+02  0.51100000000E-03 0.  1.
         11   -1    0    0    0    0 -0.00000000000E+00 -0.00000000000E+00 -0.45593999997E+02  0.45594000000E+02  0.51100000000E-03 0. -1.
    9900012    2    1    2    0    0  0.38575385481E+02 -0.18860191353E+02  0.63129295214E+01  0.47787305742E+02  0.20000158201E+02 0.  0.
         12    1    1    2    0    0 -0.38575385481E+02  0.18860191353E+02 -0.63129295214E+01  0.43400694258E+02  0.00000000000E+00 0. -1.
         11    1    3    3    0    0  0.66925594079E+00  0.58048786258E+00  0.15503544256E+01  0.17856283989E+01  0.51100000000E-03 0. -1.
        -11    1    3    3    0    0  0.22699624181E+02 -0.19482914782E+02  0.67486596494E+01  0.30665963440E+02  0.51100000000E-03 0.  1.
         12    1    3    3    0    0  0.15206505359E+02  0.42235565708E-01 -0.19860845536E+01  0.15335713904E+02  0.00000000000E+00 0. -1.
</event>
<event>
 7    1  0.2580704E-010  0.4778727E+02  0.7816164E-02  0.1312668E+00
        -11   -1    0    0    0    0  0.00000000000E+00  0.00000000000E+00  0.45593999997E+02  0.45594000000E+02  0.51100000000E-03 0. -1.
         11   -1    0    0    0    0 -0.00000000000E+00 -0.00000000000E+00 -0.45593999997E+02  0.45594000000E+02  0.51100000000E-03 0.  1.
    9900012    2    1    2    0    0 -0.23035213239E+02  0.72447579152E+01 -0.36062659429E+02  0.47787274530E+02  0.20000015893E+02 0.  0.
         12    1    1    2    0    0  0.23035213239E+02 -0.72447579152E+01  0.36062659429E+02  0.43400725470E+02  0.00000000000E+00 0. -1.
         11    1    3    3    0    0 -0.16366471735E+00 -0.24743890593E+01 -0.12902022224E+01  0.27953549671E+01  0.51100000000E-03 0. -1.
        -11    1    3    3    0    0 -0.56766119390E+01 -0.30024948741E+01 -0.12840003591E+02  0.14356343234E+02  0.51100000000E-03 0.  1.
        -12    1    3    3    0    0 -0.17194936583E+02  0.12721641849E+02 -0.21932453615E+02  0.30635576329E+02  0.00000000000E+00 0.  1.
</event>
<event>
 7    1  0.2580704E-010  0.4778727E+02  0.7816164E-02  0.1312668E+00
        -11   -1    0    0    0    0  0.00000000000E+00  0.00000000000E+00  0.45593999997E+02  0.45594000000E+02  0.51100000000E-03 0.  1.
         11   -1    0    0    0    0 -0.00000000000E+00 -0.00000000000E+00 -0.45593999997E+02  0.45594000000E+02  0.51100000000E-03 0. -1.
    9900012    2    1    2    0    0 -0.34992836329E+02  0.22343592222E+02  0.12644706699E+02  0.47787270568E+02  0.19999997826E+02 0.  0.
         12    1    1    2    0    0  0.34992836329E+02 -0.22343592222E+02 -0.12644706699E+02  0.43400729432E+02  0.00000000000E+00 0. -1.
         11    1    3    3    0    0 -0.28840710641E+01  0.44682829692E+01 -0.21140541285E+01  0.57229925489E+01  0.51100000000E-03 0. -1.
        -11    1    3    3    0    0 -0.82452685239E+00  0.44868913619E+00  0.48054751240E+01  0.48963004299E+01  0.51100000000E-03 0.  1.
        -12    1    3    3    0    0 -0.31284238413E+02  0.17426620116E+02  0.99532857033E+01  0.37167977589E+02  0.00000000000E+00 0.  1.
</event>
<event>
 7    1  0.2580704E-010  0.4778727E+02  0.7816164E-02  0.1312668E+00
        -11   -1    0    0    0    0  0.00000000000E+00  0.00000000000E+00  0.45593999997E+02  0.45594000000E+02  0.51100000000E-03 0.  1.
         11   -1    0    0    0    0 -0.00000000000E+00 -0.00000000000E+00 -0.45593999997E+02  0.45594000000E+02  0.51100000000E-03 0. -1.
    9900012    2    1    2    0    0  0.90639767757E+01 -0.31133087007E+02  0.28847845850E+02  0.47787274295E+02  0.20000014820E+02 0.  0.
         12    1    1    2    0    0 -0.90639767757E+01  0.31133087007E+02 -0.28847845850E+02  0.43400725705E+02  0.00000000000E+00 0. -1.
         11    1    3    3    0    0  0.52090624657E+01 -0.16028652508E+02  0.25977627137E+01  0.17052870854E+02  0.51100000000E-03 0. -1.
        -11    1    3    3    0    0  0.22139760038E+01 -0.58126291566E+01  0.74968053283E+01  0.97411723036E+01  0.51100000000E-03 0.  1.
         12    1    3    3    0    0  0.16409383063E+01 -0.92918053422E+01  0.18753277808E+02  0.20993231137E+02  0.00000000000E+00 0. -1.
</event>
<event>
 7    1  0.2580704E-010  0.4778727E+02  0.7816164E-02  0.1312668E+00
        -11   -1    0    0    0    0  0.00000000000E+00  0.00000000000E+00  0.45593999997E+02  0.45594000000E+02  0.51100000000E-03 0.  1.
         11   -1    0    0    0    0 -0.00000000000E+00 -0.00000000000E+00 -0.45593999997E+02  0.45594000000E+02  0.51100000000E-03 0. -1.
    9900012    2    1    2    0    0  0.41905635410E+01 -0.15246246306E+01  0.43171028956E+02  0.47787273691E+02  0.20000012066E+02 0.  0.
         12    1    1    2    0    0 -0.41905635410E+01  0.15246246306E+01 -0.43171028956E+02  0.43400726309E+02  0.00000000000E+00 0. -1.
         11    1    3    3    0    0  0.40799204337E+01 -0.19963377955E+01  0.12719457452E+01  0.47168804923E+01  0.51100000000E-03 0. -1.
        -11    1    3    3    0    0  0.26806779227E+01  0.39250426572E+01  0.12788070442E+02  0.13642827415E+02  0.51100000000E-03 0.  1.
         12    1    3    3    0    0 -0.25700348154E+01 -0.34533294923E+01  0.29111012769E+02  0.29427565784E+02  0.00000000000E+00 0. -1.
</event>
<event>
 7    1  0.2580704E-010  0.4778727E+02  0.7816164E-02  0.1312668E+00
        -11   -1    0    0    0    0  0.00000000000E+00  0.00000000000E+00  0.45593999997E+02  0.45594000000E+02  0.51100000000E-03 0.  1.
         11   -1    0    0    0    0 -0.00000000000E+00 -0.00000000000E+00 -0.45593999997E+02  0.45594000000E+02  0.51100000000E-03 0. -1.
    9900012    2    1    2    0    0  0.17993376476E+02 -0.11386392264E+02  0.37818139917E+02  0.47787271520E+02  0.20000002168E+02 0.  0.
         12    1    1    2    0    0 -0.17993376476E+02  0.11386392264E+02 -0.37818139917E+02  0.43400728480E+02  0.00000000000E+00 0. -1.
         11    1    3    3    0    0  0.10293570950E+02 -0.10669035312E+02  0.17792181927E+02  0.23159180801E+02  0.51100000000E-03 0. -1.
        -11    1    3    3    0    0  0.41350692441E+01 -0.39050668954E+01  0.18869609818E+02  0.19708133347E+02  0.51100000000E-03 0.  1.
         12    1    3    3    0    0  0.35647362821E+01  0.31877099434E+01  0.11563481731E+01  0.49199573720E+01  0.00000000000E+00 0. -1.
</event>
<event>
 7    1  0.2580704E-010  0.4778727E+02  0.7816164E-02  0.1312668E+00
        -11   -1    0    0    0    0  0.00000000000E+00  0.00000000000E+00  0.45593999997E+02  0.45594000000E+02  0.51100000000E-03 0.  1.
         11   -1    0    0    0    0 -0.00000000000E+00 -0.00000000000E+00 -0.45593999997E+02  0.45594000000E+02  0.51100000000E-03 0. -1.
    9900012    2    1    2    0    0 -0.19751469112E+02 -0.38306977294E+02 -0.51067329046E+01  0.47787265416E+02  0.19999974337E+02 0.  0.
         12    1    1    2    0    0  0.19751469112E+02  0.38306977294E+02  0.51067329046E+01  0.43400734584E+02  0.00000000000E+00 0. -1.
         11    1    3    3    0    0 -0.38565098188E+01 -0.46231035411E+01  0.49339609972E+00  0.60406286350E+01  0.51100000000E-03 0.  1.
        -11    1    3    3    0    0 -0.10503968704E+02 -0.34365495870E+02 -0.47984451701E+01  0.36253906565E+02  0.51100000000E-03 0. -1.
         12    1    3    3    0    0 -0.53909905897E+01  0.68162211738E+00 -0.80168383423E+00  0.54927302154E+01  0.00000000000E+00 0. -1.
</event>
<event>
 7    1  0.2580704E-010  0.4778727E+02  0.7816164E-02  0.1312668E+00
        -11   -1    0    0    0    0  0.00000000000E+00  0.00000000000E+00  0.45593999997E+02  0.45594000000E+02  0.51100000000E-03 0.  1.
         11   -1    0    0    0    0 -0.00000000000E+00 -0.00000000000E+00 -0.45593999997E+02  0.45594000000E+02  0.51100000000E-03 0. -1.
    9900012    2    1    2    0    0 -0.25106399586E+02  0.15436671164E+02  0.31859078130E+02  0.47787274475E+02  0.20000015640E+02 0.  0.
         12    1    1    2    0    0  0.25106399586E+02 -0.15436671164E+02 -0.31859078130E+02  0.43400725525E+02  0.00000000000E+00 0. -1.
         11    1    3    3    0    0 -0.98643165324E+01  0.12653350964E+02  0.72754965138E+01  0.17616608103E+02  0.51100000000E-03 0. -1.
        -11    1    3    3    0    0 -0.82986364395E+01  0.42347341410E+01  0.85805289828E+01  0.12665931386E+02  0.51100000000E-03 0.  1.
        -12    1    3    3    0    0 -0.69434466144E+01 -0.14514139408E+01  0.16003052633E+02  0.17504734985E+02  0.00000000000E+00 0.  1.
</event>
<event>
 7    1  0.2580704E-010  0.4778727E+02  0.7816164E-02  0.1312668E+00
        -11   -1    0    0    0    0  0.00000000000E+00  0.00000000000E+00  0.45593999997E+02  0.45594000000E+02  0.51100000000E-03 0. -1.
         11   -1    0    0    0    0 -0.00000000000E+00 -0.00000000000E+00 -0.45593999997E+02  0.45594000000E+02  0.51100000000E-03 0.  1.
    9900012    2    1    2    0    0  0.23076763782E+02 -0.37216765217E+01 -0.36568233437E+02  0.47787267293E+02  0.19999982896E+02 0.  0.
         12    1    1    2    0    0 -0.23076763782E+02  0.37216765217E+01  0.36568233437E+02  0.43400732707E+02  0.00000000000E+00 0. -1.
         11    1    3    3    0    0  0.11915376586E+02 -0.34048550858E+00 -0.51166624146E+01  0.12971983815E+02  0.51100000000E-03 0. -1.
        -11    1    3    3    0    0 -0.10243031936E+00  0.10780943708E+01  0.29910527433E-01  0.10833625171E+01  0.51100000000E-03 0.  1.
        -12    1    3    3    0    0  0.11263817516E+02 -0.44592853839E+01 -0.31481481550E+02  0.33731920961E+02  0.00000000000E+00 0.  1.
</event>
<event>
 7    1  0.2580704E-010  0.4778726E+02  0.7816164E-02  0.1312668E+00
        -11   -1    0    0    0    0  0.00000000000E+00  0.00000000000E+00  0.45593999997E+02  0.45594000000E+02  0.51100000000E-03 0. -1.
         11   -1    0    0    0    0 -0.00000000000E+00 -0.00000000000E+00 -0.45593999997E+02  0.45594000000E+02  0.51100000000E-03 0.  1.
    9900012    2    1    2    0    0  0.34036052093E+02  0.22810447139E+02  0.14312757434E+02  0.47787258462E+02  0.19999942630E+02 0.  0.
         12    1    1    2    0    0 -0.34036052093E+02 -0.22810447139E+02 -0.14312757434E+02  0.43400741538E+02  0.00000000000E+00 0. -1.
         11    1    3    3    0    0  0.18404221383E+02  0.12217473546E+02  0.95937777681E+01  0.24083658291E+02  0.51100000000E-03 0. -1.
        -11    1    3    3    0    0  0.16589369941E+02  0.11925305542E+02  0.20007683317E+01  0.20528594240E+02  0.51100000000E-03 0.  1.
        -12    1    3    3    0    0 -0.95753923098E+00 -0.13323319491E+01  0.27182113342E+01  0.31750059305E+01  0.00000000000E+00 0.  1.
</event>
<event>
 7    1  0.2580704E-010  0.4778728E+02  0.7816164E-02  0.1312668E+00
        -11   -1    0    0    0    0  0.00000000000E+00  0.00000000000E+00  0.45593999997E+02  0.45594000000E+02  0.51100000000E-03 0. -1.
         11   -1    0    0    0    0 -0.00000000000E+00 -0.00000000000E+00 -0.45593999997E+02  0.45594000000E+02  0.51100000000E-03 0.  1.
    9900012    2    1    2    0    0 -0.42043319380E+01 -0.40317752970E+02 -0.15505648688E+02  0.47787277047E+02  0.20000027370E+02 0.  0.
         12    1    1    2    0    0  0.42043319380E+01  0.40317752970E+02  0.15505648688E+02  0.43400722953E+02  0.00000000000E+00 0. -1.
         11    1    3    3    0    0 -0.31550127318E+01 -0.91891437174E+01 -0.37261671542E+01  0.10405709467E+02  0.51100000000E-03 0.  1.
        -11    1    3    3    0    0 -0.21415293433E+01 -0.13795000445E+02  0.33403137755E+01  0.14354298366E+02  0.51100000000E-03 0. -1.
         12    1    3    3    0    0  0.10922101371E+01 -0.17333608808E+02 -0.15119795309E+02  0.23027269214E+02  0.00000000000E+00 0. -1.
</event>
<event>
 7    1  0.2580704E-010  0.4778727E+02  0.7816164E-02  0.1312668E+00
        -11   -1    0    0    0    0  0.00000000000E+00  0.00000000000E+00  0.45593999997E+02  0.45594000000E+02  0.51100000000E-03 0.  1.
         11   -1    0    0    0    0 -0.00000000000E+00 -0.00000000000E+00 -0.45593999997E+02  0.45594000000E+02  0.51100000000E-03 0. -1.
    9900012    2    1    2    0    0  0.31755491846E+02 -0.13353792092E+02  0.26398646497E+02  0.47787267720E+02  0.19999984841E+02 0.  0.
         12    1    1    2    0    0 -0.31755491846E+02  0.13353792092E+02 -0.26398646497E+02  0.43400732280E+02  0.00000000000E+00 0. -1.
         11    1    3    3    0    0  0.12131922123E+02 -0.93073778474E+01  0.62131075652E+01  0.16504954488E+02  0.51100000000E-03 0. -1.
        -11    1    3    3    0    0  0.17318749080E+02 -0.80748950631E+01  0.17549734249E+02  0.25944867940E+02  0.51100000000E-03 0.  1.
         12    1    3    3    0    0  0.23048206434E+01  0.40284808189E+01  0.26358046825E+01  0.53374452907E+01  0.00000000000E+00 0. -1.
</event>
<event>
 7    1  0.2580704E-010  0.4778727E+02  0.7816164E-02  0.1312668E+00
        -11   -1    0    0    0    0  0.00000000000E+00  0.00000000000E+00  0.45593999997E+02  0.45594000000E+02  0.51100000000E-03 0.  1.
         11   -1    0    0    0    0 -0.00000000000E+00 -0.00000000000E+00 -0.45593999997E+02  0.45594000000E+02  0.51100000000E-03 0. -1.
    9900012    2    1    2    0    0 -0.25522744536E+02 -0.33613245498E+02  0.10117431656E+02  0.47787272070E+02  0.20000004674E+02 0.  0.
         12    1    1    2    0    0  0.25522744536E+02  0.33613245498E+02 -0.10117431656E+02  0.43400727930E+02  0.00000000000E+00 0. -1.
         11    1    3    3    0    0 -0.69301272342E+01 -0.69017931340E+01 -0.11258634927E+01  0.98452516886E+01  0.51100000000E-03 0.  1.
        -11    1    3    3    0    0 -0.20131520174E+02 -0.21684695252E+02  0.13110269841E+02  0.32363301566E+02  0.51100000000E-03 0. -1.
         12    1    3    3    0    0  0.15389028723E+01 -0.50267571117E+01 -0.18669746922E+01  0.55787188146E+01  0.00000000000E+00 0. -1.
</event>
<event>
 7    1  0.2580704E-010  0.4778727E+02  0.7816164E-02  0.1312668E+00
        -11   -1    0    0    0    0  0.00000000000E+00  0.00000000000E+00  0.45593999997E+02  0.45594000000E+02  0.51100000000E-03 0.  1.
         11   -1    0    0    0    0 -0.00000000000E+00 -0.00000000000E+00 -0.45593999997E+02  0.45594000000E+02  0.51100000000E-03 0. -1.
    9900012    2    1    2    0    0  0.34296087788E+02 -0.14870579289E+02  0.22051482551E+02  0.47787266727E+02  0.19999980314E+02 0.  0.
         12    1    1    2    0    0 -0.34296087788E+02  0.14870579289E+02 -0.22051482551E+02  0.43400733273E+02  0.00000000000E+00 0. -1.
         11    1    3    3    0    0  0.19106833669E+02 -0.78980680163E+01  0.16502711181E+02  0.26453545090E+02  0.51100000000E-03 0.  1.
        -11    1    3    3    0    0  0.26605985116E+01 -0.40988757798E+01  0.68496097397E+01  0.84140787342E+01  0.51100000000E-03 0. -1.
         12    1    3    3    0    0  0.12528655607E+02 -0.28736354927E+01 -0.13008383691E+01  0.12919642903E+02  0.00000000000E+00 0. -1.
</event>
<event>
 7    1  0.2580704E-010  0.4778727E+02  0.7816164E-02  0.1312668E+00
        -11   -1    0    0    0    0  0.00000000000E+00  0.00000000000E+00  0.45593999997E+02  0.45594000000E+02  0.51100000000E-03 0. -1.
         11   -1    0    0    0    0 -0.00000000000E+00 -0.00000000000E+00 -0.45593999997E+02  0.45594000000E+02  0.51100000000E-03 0.  1.
    9900012    2    1    2    0    0 -0.43014155460E+02  0.56218476097E+01 -0.13418130521E+01  0.47787271864E+02  0.20000003735E+02 0.  0.
         12    1    1    2    0    0  0.43014155460E+02 -0.56218476097E+01  0.13418130521E+01  0.43400728136E+02  0.00000000000E+00 0. -1.
         11    1    3    3    0    0 -0.86982676554E+01  0.23396455976E+00  0.55312325491E+01  0.10310632056E+02  0.51100000000E-03 0. -1.
        -11    1    3    3    0    0 -0.13794638300E+02  0.52760409624E+01  0.23900753022E+01  0.14961320606E+02  0.51100000000E-03 0.  1.
        -12    1    3    3    0    0 -0.20521249504E+02  0.11184208760E+00 -0.92631209033E+01  0.22515319201E+02  0.00000000000E+00 0.  1.
</event>
<event>
 7    1  0.2580704E-010  0.4778729E+02  0.7816164E-02  0.1312668E+00
        -11   -1    0    0    0    0  0.00000000000E+00  0.00000000000E+00  0.45593999997E+02  0.45594000000E+02  0.51100000000E-03 0.  1.
         11   -1    0    0    0    0 -0.00000000000E+00 -0.00000000000E+00 -0.45593999997E+02  0.45594000000E+02  0.51100000000E-03 0. -1.
    9900012    2    1    2    0    0  0.84914443834E+00 -0.40319848011E+02  0.16037776099E+02  0.47787292032E+02  0.20000095690E+02 0.  0.
         12    1    1    2    0    0 -0.84914443834E+00  0.40319848011E+02 -0.16037776099E+02  0.43400707968E+02  0.00000000000E+00 0. -1.
         11    1    3    3    0    0 -0.46311905768E+01 -0.16430365102E+02  0.58900858040E+01  0.18058181929E+02  0.51100000000E-03 0. -1.
        -11    1    3    3    0    0 -0.36074494656E+00 -0.11834439697E+02 -0.15549930452E+01  0.11941612265E+02  0.51100000000E-03 0.  1.
         12    1    3    3    0    0  0.58410799617E+01 -0.12055043213E+02  0.11702683340E+02  0.17787497838E+02  0.00000000000E+00 0. -1.
</event>
<event>
 7    1  0.2580704E-010  0.4778727E+02  0.7816164E-02  0.1312668E+00
        -11   -1    0    0    0    0  0.00000000000E+00  0.00000000000E+00  0.45593999997E+02  0.45594000000E+02  0.51100000000E-03 0. -1.
         11   -1    0    0    0    0 -0.00000000000E+00 -0.00000000000E+00 -0.45593999997E+02  0.45594000000E+02  0.51100000000E-03 0.  1.
    9900012    2    1    2    0    0 -0.33443995998E+02  0.70261050282E+01 -0.26753624349E+02  0.47787269176E+02  0.19999991483E+02 0.  0.
         12    1    1    2    0    0  0.33443995998E+02 -0.70261050282E+01  0.26753624349E+02  0.43400730824E+02  0.00000000000E+00 0. -1.
         11    1    3    3    0    0 -0.52266569740E+01 -0.34316945988E+01 -0.20486796204E+01  0.65796321623E+01  0.51100000000E-03 0. -1.
        -11    1    3    3    0    0 -0.15045109597E+02 -0.27392802712E+00 -0.16528062309E+02  0.22351894849E+02  0.51100000000E-03 0.  1.
        -12    1    3    3    0    0 -0.13172229427E+02  0.10731727654E+02 -0.81768824197E+01  0.18855742166E+02  0.00000000000E+00 0.  1.
</event>
<event>
 7    1  0.2580704E-010  0.4778727E+02  0.7816164E-02  0.1312668E+00
        -11   -1    0    0    0    0  0.00000000000E+00  0.00000000000E+00  0.45593999997E+02  0.45594000000E+02  0.51100000000E-03 0.  1.
         11   -1    0    0    0    0 -0.00000000000E+00 -0.00000000000E+00 -0.45593999997E+02  0.45594000000E+02  0.51100000000E-03 0. -1.
    9900012    2    1    2    0    0  0.31477304493E+02  0.16658148056E+02  0.24805417622E+02  0.47787270303E+02  0.19999996620E+02 0.  0.
         12    1    1    2    0    0 -0.31477304493E+02 -0.16658148056E+02 -0.24805417622E+02  0.43400729697E+02  0.00000000000E+00 0. -1.
         11    1    3    3    0    0  0.42567573725E+00  0.44717603097E+01  0.52453127459E+01  0.69058776534E+01  0.51100000000E-03 0. -1.
        -11    1    3    3    0    0  0.53142237637E+01  0.36102386320E+01 -0.14285100149E+01  0.65814465214E+01  0.51100000000E-03 0.  1.
        -12    1    3    3    0    0  0.25737404992E+02  0.85761491142E+01  0.20988614891E+02  0.34299946128E+02  0.00000000000E+00 0.  1.
</event>
<event>
 7    1  0.2580704E-010  0.4778727E+02  0.7816164E-02  0.1312668E+00
        -11   -1    0    0    0    0  0.00000000000E+00  0.00000000000E+00  0.45593999997E+02  0.45594000000E+02  0.51100000000E-03 0.  1.
         11   -1    0    0    0    0 -0.00000000000E+00 -0.00000000000E+00 -0.45593999997E+02  0.45594000000E+02  0.51100000000E-03 0. -1.
    9900012    2    1    2    0    0 -0.29609484600E+02  0.31066171863E+02  0.64648955955E+01  0.47787268583E+02  0.19999988775E+02 0.  0.
         12    1    1    2    0    0  0.29609484600E+02 -0.31066171863E+02 -0.64648955955E+01  0.43400731417E+02  0.00000000000E+00 0. -1.
         11    1    3    3    0    0 -0.33904042341E+00  0.18640930040E+01 -0.13485521269E+01  0.23255933085E+01  0.51100000000E-03 0. -1.
        -11    1    3    3    0    0 -0.29993430642E+02  0.24909801617E+02  0.10460311629E+02  0.40367340982E+02  0.51100000000E-03 0.  1.
        -12    1    3    3    0    0  0.72298646504E+00  0.42922772414E+01 -0.26468639062E+01  0.50943342925E+01  0.00000000000E+00 0.  1.
</event>
<event>
 7    1  0.2580704E-010  0.4778727E+02  0.7816164E-02  0.1312668E+00
        -11   -1    0    0    0    0  0.00000000000E+00  0.00000000000E+00  0.45593999997E+02  0.45594000000E+02  0.51100000000E-03 0. -1.
         11   -1    0    0    0    0 -0.00000000000E+00 -0.00000000000E+00 -0.45593999997E+02  0.45594000000E+02  0.51100000000E-03 0.  1.
    9900012    2    1    2    0    0  0.12923318283E+02  0.38255434697E+02  0.15910153357E+02  0.47787269371E+02  0.19999992368E+02 0.  0.
         12    1    1    2    0    0 -0.12923318283E+02 -0.38255434697E+02 -0.15910153357E+02  0.43400730629E+02  0.00000000000E+00 0. -1.
         11    1    3    3    0    0 -0.18762349587E+01  0.92319159022E+01  0.73362129628E+01  0.11940207274E+02  0.51100000000E-03 0. -1.
        -11    1    3    3    0    0  0.12475310461E+01  0.15046199381E+02  0.58380604119E+01  0.16187260397E+02  0.51100000000E-03 0.  1.
        -12    1    3    3    0    0  0.13552022196E+02  0.13977319413E+02  0.27358799826E+01  0.19659801700E+02  0.00000000000E+00 0.  1.
</event>
<event>
 7    1  0.2580704E-010  0.4778727E+02  0.7816164E-02  0.1312668E+00
        -11   -1    0    0    0    0  0.00000000000E+00  0.00000000000E+00  0.45593999997E+02  0.45594000000E+02  0.51100000000E-03 0. -1.
         11   -1    0    0    0    0 -0.00000000000E+00 -0.00000000000E+00 -0.45593999997E+02  0.45594000000E+02  0.51100000000E-03 0.  1.
    9900012    2    1    2    0    0 -0.23661641685E+02  0.16482012916E+02 -0.32435984039E+02  0.47787273076E+02  0.20000009261E+02 0.  0.
         12    1    1    2    0    0  0.23661641685E+02 -0.16482012916E+02  0.32435984039E+02  0.43400726924E+02  0.00000000000E+00 0. -1.
         11    1    3    3    0    0 -0.22950312887E+01  0.10543086237E+01 -0.73572592319E+01  0.77786887685E+01  0.51100000000E-03 0. -1.
        -11    1    3    3    0    0 -0.10366890034E+02  0.16682513890E+01 -0.18368723497E+02  0.21158106599E+02  0.51100000000E-03 0.  1.
        -12    1    3    3    0    0 -0.10999720363E+02  0.13759452903E+02 -0.67100013097E+01  0.18850477708E+02  0.00000000000E+00 0.  1.
</event>
<event>
 7    1  0.2580704E-010  0.4778727E+02  0.7816164E-02  0.1312668E+00
        -11   -1    0    0    0    0  0.00000000000E+00  0.00000000000E+00  0.45593999997E+02  0.45594000000E+02  0.51100000000E-03 0.  1.
         11   -1    0    0    0    0 -0.00000000000E+00 -0.00000000000E+00 -0.45593999997E+02  0.45594000000E+02  0.51100000000E-03 0. -1.
    9900012    2    1    2    0    0  0.39306621032E+02 -0.13222763646E+01  0.18353867273E+02  0.47787270563E+02  0.19999997807E+02 0.  0.
         12    1    1    2    0    0 -0.39306621032E+02  0.13222763646E+01 -0.18353867273E+02  0.43400729437E+02  0.00000000000E+00 0. -1.
         11    1    3    3    0    0  0.65492849467E+01 -0.45621143844E+01 -0.98465330589E+00  0.80421118721E+01  0.51100000000E-03 0. -1.
        -11    1    3    3    0    0  0.17816228501E+02 -0.43338640904E+00  0.45249136181E+01  0.18386969987E+02  0.51100000000E-03 0.  1.
        -12    1    3    3    0    0  0.14941107584E+02  0.36732244288E+01  0.14813606961E+02  0.21358188704E+02  0.00000000000E+00 0.  1.
</event>
<event>
 7    1  0.2580704E-010  0.4778726E+02  0.7816164E-02  0.1312668E+00
        -11   -1    0    0    0    0  0.00000000000E+00  0.00000000000E+00  0.45593999997E+02  0.45594000000E+02  0.51100000000E-03 0.  1.
         11   -1    0    0    0    0 -0.00000000000E+00 -0.00000000000E+00 -0.45593999997E+02  0.45594000000E+02  0.51100000000E-03 0. -1.
    9900012    2    1    2    0    0  0.32884930872E+01 -0.11147704676E+01  0.43261612148E+02  0.47787262844E+02  0.19999962613E+02 0.  0.
         12    1    1    2    0    0 -0.32884930872E+01  0.11147704676E+01 -0.43261612148E+02  0.43400737156E+02  0.00000000000E+00 0. -1.
         11    1    3    3    0    0  0.21368744202E+01  0.10736104553E+01  0.16654216049E+01  0.29141896096E+01  0.51100000000E-03 0. -1.
        -11    1    3    3    0    0  0.20753132840E+01 -0.48011475640E+01  0.27148089024E+01  0.58930578476E+01  0.51100000000E-03 0.  1.
         12    1    3    3    0    0 -0.92369461708E+00  0.26127666411E+01  0.38881381641E+02  0.38980015387E+02  0.00000000000E+00 0. -1.
</event>
<event>
 7    1  0.2580704E-010  0.4778727E+02  0.7816164E-02  0.1312668E+00
        -11   -1    0    0    0    0  0.00000000000E+00  0.00000000000E+00  0.45593999997E+02  0.45594000000E+02  0.51100000000E-03 0.  1.
         11   -1    0    0    0    0 -0.00000000000E+00 -0.00000000000E+00 -0.45593999997E+02  0.45594000000E+02  0.51100000000E-03 0. -1.
    9900012    2    1    2    0    0  0.10980638615E+02  0.20855269980E+02  0.36443194872E+02  0.47787272324E+02  0.20000005836E+02 0.  0.
         12    1    1    2    0    0 -0.10980638615E+02 -0.20855269980E+02 -0.36443194872E+02  0.43400727676E+02  0.00000000000E+00 0. -1.
         11    1    3    3    0    0  0.10927549170E+02  0.13789521711E+02  0.19011286343E+02  0.25903498770E+02  0.51100000000E-03 0. -1.
        -11    1    3    3    0    0  0.20577749618E+01  0.89687078001E+01  0.16629519132E+02  0.19005606126E+02  0.51100000000E-03 0.  1.
         12    1    3    3    0    0 -0.20046855169E+01 -0.19029595311E+01  0.80238939681E+00  0.28781674279E+01  0.00000000000E+00 0. -1.
</event>
<event>
 7    1  0.2580704E-010  0.4778727E+02  0.7816164E-02  0.1312668E+00
        -11   -1    0    0    0    0  0.00000000000E+00  0.00000000000E+00  0.45593999997E+02  0.45594000000E+02  0.51100000000E-03 0. -1.
         11   -1    0    0    0    0 -0.00000000000E+00 -0.00000000000E+00 -0.45593999997E+02  0.45594000000E+02  0.51100000000E-03 0.  1.
    9900012    2    1    2    0    0 -0.26936711598E+02 -0.90218673493E+01 -0.32812234314E+02  0.47787271402E+02  0.20000001630E+02 0.  0.
         12    1    1    2    0    0  0.26936711598E+02  0.90218673493E+01  0.32812234314E+02  0.43400728598E+02  0.00000000000E+00 0. -1.
         11    1    3    3    0    0 -0.19364996311E+02 -0.99520228504E+00 -0.22241709384E+02  0.29507408329E+02  0.51100000000E-03 0.  1.
        -11    1    3    3    0    0 -0.65529237956E+01 -0.42990191683E+01 -0.11851726551E+02  0.14208652243E+02  0.51100000000E-03 0. -1.
        -12    1    3    3    0    0 -0.10187914915E+01 -0.37276458959E+01  0.12812016205E+01  0.40712108298E+01  0.00000000000E+00 0.  1.
</event>
<event>
 7    1  0.2580704E-010  0.4778727E+02  0.7816164E-02  0.1312668E+00
        -11   -1    0    0    0    0  0.00000000000E+00  0.00000000000E+00  0.45593999997E+02  0.45594000000E+02  0.51100000000E-03 0.  1.
         11   -1    0    0    0    0 -0.00000000000E+00 -0.00000000000E+00 -0.45593999997E+02  0.45594000000E+02  0.51100000000E-03 0. -1.
    9900012    2    1    2    0    0 -0.20145885897E+02 -0.21584315112E+02  0.31810127066E+02  0.47787267732E+02  0.19999984896E+02 0.  0.
         12    1    1    2    0    0  0.20145885897E+02  0.21584315112E+02 -0.31810127066E+02  0.43400732268E+02  0.00000000000E+00 0. -1.
         11    1    3    3    0    0 -0.65020798540E+01 -0.83239488751E+01  0.63262786683E+01  0.12312066007E+02  0.51100000000E-03 0. -1.
        -11    1    3    3    0    0 -0.16511680650E+02 -0.12234450452E+02  0.17719548250E+02  0.27134844134E+02  0.51100000000E-03 0.  1.
        -12    1    3    3    0    0  0.28678746064E+01 -0.10259157852E+01  0.77643001483E+01  0.83403575912E+01  0.00000000000E+00 0.  1.
</event>
<event>
 7    1  0.2580704E-010  0.4778727E+02  0.7816164E-02  0.1312668E+00
        -11   -1    0    0    0    0  0.00000000000E+00  0.00000000000E+00  0.45593999997E+02  0.45594000000E+02  0.51100000000E-03 0.  1.
         11   -1    0    0    0    0 -0.00000000000E+00 -0.00000000000E+00 -0.45593999997E+02  0.45594000000E+02  0.51100000000E-03 0. -1.
    9900012    2    1    2    0    0  0.23688141632E+02 -0.98100890063E+01  0.35017953018E+02  0.47787274962E+02  0.20000017860E+02 0.  0.
         12    1    1    2    0    0 -0.23688141632E+02  0.98100890063E+01 -0.35017953018E+02  0.43400725038E+02  0.00000000000E+00 0. -1.
         11    1    3    3    0    0  0.12632742435E+02 -0.48103090190E+01  0.22248472223E+02  0.26033051508E+02  0.51100000000E-03 0. -1.
        -11    1    3    3    0    0  0.59943589282E+01 -0.83477329538E+01  0.11734212358E+02  0.15598356463E+02  0.51100000000E-03 0.  1.
         12    1    3    3    0    0  0.50610402691E+01  0.33479529665E+01  0.10352684368E+01  0.61558669907E+01  0.00000000000E+00 0. -1.
</event>
