<event>
 7    1  0.3757412E-015  0.9000777E+02  0.7816164E-02  0.1186339E+00
        -11   -1    0    0    0    0  0.00000000000E+00  0.00000000000E+00  0.45593999997E+02  0.45594000000E+02  0.51100000000E-03 0. -1.
         11   -1    0    0    0    0 -0.00000000000E+00 -0.00000000000E+00 -0.45593999997E+02  0.45594000000E+02  0.51100000000E-03 0.  1.
    9900012    2    1    2    0    0 -0.32898739720E+00 -0.10253982488E+01  0.48297239424E+00  0.90007772645E+02  0.90000034444E+02 0.  0.
        -12    1    1    2    0    0  0.32898739720E+00  0.10253982488E+01 -0.48297239424E+00  0.11802273551E+01  0.00000000000E+00 0.  1.
         11    1    3    3    0    0  0.47817744211E+01 -0.66168505738E+01 -0.90454693775E+01  0.12184768962E+02  0.51100000000E-03 0. -1.
        -11    1    3    3    0    0 -0.14759918193E+02 -0.24264042126E+02 -0.20000853897E+02  0.34736624509E+02  0.51100000000E-03 0.  1.
         12    1    3    3    0    0  0.96491563744E+01  0.29855494451E+02  0.29529295669E+02  0.43086379175E+02  0.00000000000E+00 0. -1.
</event>
<event>
 7    1  0.3757412E-015  0.9000770E+02  0.7816164E-02  0.1186339E+00
        -11   -1    0    0    0    0  0.00000000000E+00  0.00000000000E+00  0.45593999997E+02  0.45594000000E+02  0.51100000000E-03 0. -1.
         11   -1    0    0    0    0 -0.00000000000E+00 -0.00000000000E+00 -0.45593999997E+02  0.45594000000E+02  0.51100000000E-03 0.  1.
    9900012    2    1    2    0    0 -0.52550851780E+00 -0.10549436440E+01 -0.63560195022E-01  0.90007701227E+02  0.89999962084E+02 0.  0.
        -12    1    1    2    0    0  0.52550851780E+00  0.10549436440E+01  0.63560195022E-01  0.11802987726E+01  0.00000000000E+00 0.  1.
         11    1    3    3    0    0 -0.68404073209E+01  0.49818577925E+01 -0.61995671006E+01  0.10490219820E+02  0.51100000000E-03 0. -1.
        -11    1    3    3    0    0  0.37199001789E+02 -0.50846853976E+01 -0.16704420618E+02  0.41093277165E+02  0.51100000000E-03 0.  1.
         12    1    3    3    0    0 -0.30884102986E+02 -0.95211603889E+00  0.22840427523E+02  0.38424204242E+02  0.00000000000E+00 0. -1.
</event>
<event>
 7    1  0.3757412E-015  0.9000769E+02  0.7816164E-02  0.1186339E+00
        -11   -1    0    0    0    0  0.00000000000E+00  0.00000000000E+00  0.45593999997E+02  0.45594000000E+02  0.51100000000E-03 0. -1.
         11   -1    0    0    0    0 -0.00000000000E+00 -0.00000000000E+00 -0.45593999997E+02  0.45594000000E+02  0.51100000000E-03 0.  1.
    9900012    2    1    2    0    0 -0.60957386659E+00 -0.18259880474E+00  0.99408365218E+00  0.90007692866E+02  0.89999953612E+02 0.  0.
        -12    1    1    2    0    0  0.60957386659E+00  0.18259880474E+00 -0.99408365218E+00  0.11803071337E+01  0.00000000000E+00 0.  1.
         11    1    3    3    0    0  0.74603916303E+01  0.19581279405E+01 -0.54288004375E+01  0.94320508247E+01  0.51100000000E-03 0. -1.
        -11    1    3    3    0    0  0.23644092344E+02 -0.27679250848E+02 -0.81925288794E+01  0.37313557321E+02  0.51100000000E-03 0.  1.
         12    1    3    3    0    0 -0.31714057841E+02  0.25538524103E+02  0.14615412969E+02  0.43262084720E+02  0.00000000000E+00 0. -1.
</event>
<event>
 7    1  0.3757412E-015  0.9000774E+02  0.7816164E-02  0.1186339E+00
        -11   -1    0    0    0    0  0.00000000000E+00  0.00000000000E+00  0.45593999997E+02  0.45594000000E+02  0.51100000000E-03 0. -1.
         11   -1    0    0    0    0 -0.00000000000E+00 -0.00000000000E+00 -0.45593999997E+02  0.45594000000E+02  0.51100000000E-03 0.  1.
    9900012    2    1    2    0    0  0.59671230522E+00 -0.30750030967E+00  0.97076497853E+00  0.90007742969E+02  0.90000004376E+02 0.  0.
        -12    1    1    2    0    0 -0.59671230522E+00  0.30750030967E+00 -0.97076497853E+00  0.11802570310E+01  0.00000000000E+00 0.  1.
         11    1    3    3    0    0  0.44109268489E+01  0.82153926572E+01 -0.19894269247E+01  0.95345042833E+01  0.51100000000E-03 0. -1.
        -11    1    3    3    0    0 -0.32770200791E+02  0.70780465459E+01 -0.21196118944E+02  0.39664344962E+02  0.51100000000E-03 0.  1.
         12    1    3    3    0    0  0.28955986247E+02 -0.15600939513E+02  0.24156310847E+02  0.40808893723E+02  0.00000000000E+00 0. -1.
</event>
<event>
 7    1  0.3757412E-015  0.9000775E+02  0.7816164E-02  0.1186339E+00
        -11   -1    0    0    0    0  0.00000000000E+00  0.00000000000E+00  0.45593999997E+02  0.45594000000E+02  0.51100000000E-03 0. -1.
         11   -1    0    0    0    0 -0.00000000000E+00 -0.00000000000E+00 -0.45593999997E+02  0.45594000000E+02  0.51100000000E-03 0.  1.
    9900012    2    1    2    0    0 -0.48201615899E+00 -0.76279431134E+00 -0.76077837886E+00  0.90007754907E+02  0.90000016471E+02 0.  0.
        -12    1    1    2    0    0  0.48201615899E+00  0.76279431134E+00  0.76077837886E+00  0.11802450935E+01  0.00000000000E+00 0.  1.
         11    1    3    3    0    0 -0.15639067687E+02  0.79498080209E+01  0.18637224461E+01  0.17642373630E+02  0.51100000000E-03 0. -1.
        -11    1    3    3    0    0 -0.84741147052E+01 -0.14360111910E+02  0.28415880435E+02  0.32946709931E+02  0.51100000000E-03 0.  1.
        -12    1    3    3    0    0  0.23631166233E+02  0.56475095783E+01 -0.31040381260E+02  0.39418671346E+02  0.00000000000E+00 0.  1.
</event>
<event>
 7    1  0.3757412E-015  0.9000773E+02  0.7816164E-02  0.1186339E+00
        -11   -1    0    0    0    0  0.00000000000E+00  0.00000000000E+00  0.45593999997E+02  0.45594000000E+02  0.51100000000E-03 0.  1.
         11   -1    0    0    0    0 -0.00000000000E+00 -0.00000000000E+00 -0.45593999997E+02  0.45594000000E+02  0.51100000000E-03 0. -1.
    9900012    2    1    2    0    0 -0.93418267019E+00 -0.49193004810E+00 -0.52758294541E+00  0.90007730455E+02  0.89999991697E+02 0.  0.
        -12    1    1    2    0    0  0.93418267019E+00  0.49193004810E+00  0.52758294541E+00  0.11802695446E+01  0.00000000000E+00 0.  1.
         11    1    3    3    0    0  0.30360422900E+02  0.13695798522E+02 -0.17213008402E+02  0.37491570177E+02  0.51100000000E-03 0. -1.
        -11    1    3    3    0    0  0.15592965744E+00  0.54886274836E+00 -0.91884236796E+01  0.92061226557E+01  0.51100000000E-03 0.  1.
        -12    1    3    3    0    0 -0.31450535228E+02 -0.14736591318E+02  0.25873849136E+02  0.43310037623E+02  0.00000000000E+00 0.  1.
</event>
<event>
 7    1  0.3757412E-015  0.9000772E+02  0.7816164E-02  0.1186339E+00
        -11   -1    0    0    0    0  0.00000000000E+00  0.00000000000E+00  0.45593999997E+02  0.45594000000E+02  0.51100000000E-03 0.  1.
         11   -1    0    0    0    0 -0.00000000000E+00 -0.00000000000E+00 -0.45593999997E+02  0.45594000000E+02  0.51100000000E-03 0. -1.
    9900012    2    1    2    0    0 -0.11469474924E+01 -0.27756271450E+00  0.23239353296E-01  0.90007716272E+02  0.89999977327E+02 0.  0.
        -12    1    1    2    0    0  0.11469474924E+01  0.27756271450E+00 -0.23239353296E-01  0.11802837279E+01  0.00000000000E+00 0.  1.
         11    1    3    3    0    0  0.24508995742E-02 -0.12153154049E+02 -0.34365301647E+02  0.36450968669E+02  0.51100000000E-03 0. -1.
        -11    1    3    3    0    0 -0.54196902583E+01  0.10446579940E+00 -0.78283824792E+01  0.95219498057E+01  0.51100000000E-03 0.  1.
        -12    1    3    3    0    0  0.42702918664E+01  0.11771125535E+02  0.42216923480E+02  0.44034797798E+02  0.00000000000E+00 0.  1.
</event>
<event>
 7    1  0.3757412E-015  0.9000762E+02  0.7816164E-02  0.1186339E+00
        -11   -1    0    0    0    0  0.00000000000E+00  0.00000000000E+00  0.45593999997E+02  0.45594000000E+02  0.51100000000E-03 0. -1.
         11   -1    0    0    0    0 -0.00000000000E+00 -0.00000000000E+00 -0.45593999997E+02  0.45594000000E+02  0.51100000000E-03 0.  1.
    9900012    2    1    2    0    0 -0.87210778783E+00 -0.65882576832E+00  0.44572677204E+00  0.90007620509E+02  0.89999880300E+02 0.  0.
        -12    1    1    2    0    0  0.87210778783E+00  0.65882576832E+00 -0.44572677204E+00  0.11803794906E+01  0.00000000000E+00 0.  1.
         11    1    3    3    0    0 -0.19359916339E+02 -0.27915316459E+02  0.25134586922E+02  0.42258948327E+02  0.51100000000E-03 0. -1.
        -11    1    3    3    0    0  0.74449064932E+01 -0.15085102853E+01  0.96224265270E+00  0.76569019295E+01  0.51100000000E-03 0.  1.
        -12    1    3    3    0    0  0.11042902058E+02  0.28765000976E+02 -0.25651102803E+02  0.40091770253E+02  0.00000000000E+00 0.  1.
</event>
<event>
 7    1  0.3757412E-015  0.9000775E+02  0.7816164E-02  0.1186339E+00
        -11   -1    0    0    0    0  0.00000000000E+00  0.00000000000E+00  0.45593999997E+02  0.45594000000E+02  0.51100000000E-03 0. -1.
         11   -1    0    0    0    0 -0.00000000000E+00 -0.00000000000E+00 -0.45593999997E+02  0.45594000000E+02  0.51100000000E-03 0.  1.
    9900012    2    1    2    0    0 -0.41717345418E+00  0.76275123943E+00  0.79823032438E+00  0.90007747995E+02  0.90000009469E+02 0.  0.
        -12    1    1    2    0    0  0.41717345418E+00 -0.76275123943E+00 -0.79823032438E+00  0.11802520048E+01  0.00000000000E+00 0.  1.
         11    1    3    3    0    0 -0.36988685958E+01 -0.36297166901E+02  0.89624024931E+01  0.37569809856E+02  0.51100000000E-03 0. -1.
        -11    1    3    3    0    0  0.54718960699E+01 -0.58166501687E+01 -0.49271752400E+01  0.93836092146E+01  0.51100000000E-03 0.  1.
        -12    1    3    3    0    0 -0.21902009283E+01  0.42876568309E+02 -0.32369969288E+01  0.43054328925E+02  0.00000000000E+00 0.  1.
</event>
<event>
 7    1  0.6441491E-015  0.9000776E+02  0.7816164E-02  0.1186339E+00
        -11   -1    0    0    0    0  0.00000000000E+00  0.00000000000E+00  0.45593999997E+02  0.45594000000E+02  0.51100000000E-03 0.  1.
         11   -1    0    0    0    0 -0.00000000000E+00 -0.00000000000E+00 -0.45593999997E+02  0.45594000000E+02  0.51100000000E-03 0. -1.
    9900012    2    1    2    0    0 -0.96789493403E+00 -0.19903693729E+00 -0.64539284283E+00  0.90007759250E+02  0.90000020872E+02 0.  0.
        -12    1    1    2    0    0  0.96789493403E+00  0.19903693729E+00  0.64539284283E+00  0.11802407497E+01  0.00000000000E+00 0.  1.
         11    1    3    3    0    0  0.70416770466E+01  0.62549201140E+01 -0.34548974397E+02  0.35809787397E+02  0.51100000000E-03 0. -1.
        -11    1    3    3    0    0  0.51203885591E+01 -0.14802260158E+01 -0.82195688061E+01  0.97964666933E+01  0.51100000000E-03 0.  1.
        -12    1    3    3    0    0 -0.13129960540E+02 -0.49737310355E+01  0.42123150360E+02  0.44401505160E+02  0.00000000000E+00 0.  1.
</event>
<event>
 7    1  0.3757412E-015  0.9000774E+02  0.7816164E-02  0.1186339E+00
        -11   -1    0    0    0    0  0.00000000000E+00  0.00000000000E+00  0.45593999997E+02  0.45594000000E+02  0.51100000000E-03 0. -1.
         11   -1    0    0    0    0 -0.00000000000E+00 -0.00000000000E+00 -0.45593999997E+02  0.45594000000E+02  0.51100000000E-03 0.  1.
    9900012    2    1    2    0    0 -0.78964575134E+00  0.86809301140E+00 -0.12600028835E+00  0.90007744959E+02  0.90000006392E+02 0.  0.
        -12    1    1    2    0    0  0.78964575134E+00 -0.86809301140E+00  0.12600028835E+00  0.11802550410E+01  0.00000000000E+00 0.  1.
         11    1    3    3    0    0  0.36123269804E+01  0.72234051913E+01 -0.85988101352E+01  0.11796865040E+02  0.51100000000E-03 0. -1.
        -11    1    3    3    0    0 -0.19551219517E+02  0.26980560031E+02 -0.12996114531E+02  0.35764504713E+02  0.51100000000E-03 0.  1.
         12    1    3    3    0    0  0.15149246785E+02 -0.33335872211E+02  0.21468924377E+02  0.42446375206E+02  0.00000000000E+00 0. -1.
</event>
<event>
 7    1  0.3757412E-015  0.9000780E+02  0.7816164E-02  0.1186339E+00
        -11   -1    0    0    0    0  0.00000000000E+00  0.00000000000E+00  0.45593999997E+02  0.45594000000E+02  0.51100000000E-03 0. -1.
         11   -1    0    0    0    0 -0.00000000000E+00 -0.00000000000E+00 -0.45593999997E+02  0.45594000000E+02  0.51100000000E-03 0.  1.
    9900012    2    1    2    0    0  0.73043022975E+00 -0.29713549426E+00  0.87810091111E+00  0.90007797038E+02  0.90000059158E+02 0.  0.
        -12    1    1    2    0    0 -0.73043022975E+00  0.29713549426E+00 -0.87810091111E+00  0.11802029625E+01  0.00000000000E+00 0.  1.
         11    1    3    3    0    0  0.23466058600E+01 -0.31820651539E+02  0.21495727062E+02  0.38472414866E+02  0.51100000000E-03 0. -1.
        -11    1    3    3    0    0  0.77598152295E+01 -0.51070803112E+01 -0.56254502460E+01  0.10860142376E+02  0.51100000000E-03 0.  1.
        -12    1    3    3    0    0 -0.93759908597E+01  0.36630596356E+02 -0.14992175905E+02  0.40675239795E+02  0.00000000000E+00 0.  1.
</event>
<event>
 7    1  0.3757412E-015  0.9000723E+02  0.7816164E-02  0.1186340E+00
        -11   -1    0    0    0    0  0.00000000000E+00  0.00000000000E+00  0.45593999997E+02  0.45594000000E+02  0.51100000000E-03 0. -1.
         11   -1    0    0    0    0 -0.00000000000E+00 -0.00000000000E+00 -0.45593999997E+02  0.45594000000E+02  0.51100000000E-03 0.  1.
    9900012    2    1    2    0    0  0.73852138958E+00 -0.67039484439E+00  0.63195691451E+00  0.90007232185E+02  0.89999486849E+02 0.  0.
        -12    1    1    2    0    0 -0.73852138958E+00  0.67039484439E+00 -0.63195691451E+00  0.11807678146E+01  0.00000000000E+00 0.  1.
         11    1    3    3    0    0  0.44951202997E+01  0.69286875829E+01 -0.17360710488E+02  0.19225168063E+02  0.51100000000E-03 0. -1.
        -11    1    3    3    0    0 -0.38874107916E+01 -0.25332958946E+02 -0.17548812450E+02  0.31061738365E+02  0.51100000000E-03 0.  1.
         12    1    3    3    0    0  0.13081188151E+00  0.17733876518E+02  0.35541479853E+02  0.39720325757E+02  0.00000000000E+00 0. -1.
</event>
<event>
 7    1  0.3757412E-015  0.9000788E+02  0.7816164E-02  0.1186339E+00
        -11   -1    0    0    0    0  0.00000000000E+00  0.00000000000E+00  0.45593999997E+02  0.45594000000E+02  0.51100000000E-03 0.  1.
         11   -1    0    0    0    0 -0.00000000000E+00 -0.00000000000E+00 -0.45593999997E+02  0.45594000000E+02  0.51100000000E-03 0. -1.
    9900012    2    1    2    0    0 -0.95863346113E+00  0.67678419220E+00 -0.12514247957E+00  0.90007883228E+02  0.90000146486E+02 0.  0.
        -12    1    1    2    0    0  0.95863346113E+00 -0.67678419220E+00  0.12514247957E+00  0.11801167721E+01  0.00000000000E+00 0.  1.
         11    1    3    3    0    0  0.37215321219E+01 -0.12631244219E+02 -0.67631679405E+01  0.14803329784E+02  0.51100000000E-03 0. -1.
        -11    1    3    3    0    0  0.28889482449E+01 -0.29561738909E+02  0.10492626951E+02  0.31501391237E+02  0.51100000000E-03 0.  1.
         12    1    3    3    0    0 -0.75691138279E+01  0.42869767320E+02 -0.38546014905E+01  0.43703162206E+02  0.00000000000E+00 0. -1.
</event>
<event>
 7    1  0.3757412E-015  0.9000774E+02  0.7816164E-02  0.1186339E+00
        -11   -1    0    0    0    0  0.00000000000E+00  0.00000000000E+00  0.45593999997E+02  0.45594000000E+02  0.51100000000E-03 0. -1.
         11   -1    0    0    0    0 -0.00000000000E+00 -0.00000000000E+00 -0.45593999997E+02  0.45594000000E+02  0.51100000000E-03 0.  1.
    9900012    2    1    2    0    0 -0.12987661128E+00  0.23801331607E+00  0.11486977412E+01  0.90007735295E+02  0.89999996601E+02 0.  0.
        -12    1    1    2    0    0  0.12987661128E+00 -0.23801331607E+00 -0.11486977412E+01  0.11802647048E+01  0.00000000000E+00 0.  1.
         11    1    3    3    0    0  0.30829146231E+00  0.99702043304E+01 -0.16317413428E+01  0.10107551538E+02  0.51100000000E-03 0. -1.
        -11    1    3    3    0    0 -0.27666753227E+02 -0.33665007673E+02  0.25173589840E+01  0.43647669723E+02  0.51100000000E-03 0.  1.
         12    1    3    3    0    0  0.27228585153E+02  0.23932816659E+02  0.26308009996E+00  0.36252514034E+02  0.00000000000E+00 0. -1.
</event>
<event>
 7    1  0.3757412E-015  0.9000777E+02  0.7816164E-02  0.1186339E+00
        -11   -1    0    0    0    0  0.00000000000E+00  0.00000000000E+00  0.45593999997E+02  0.45594000000E+02  0.51100000000E-03 0.  1.
         11   -1    0    0    0    0 -0.00000000000E+00 -0.00000000000E+00 -0.45593999997E+02  0.45594000000E+02  0.51100000000E-03 0. -1.
    9900012    2    1    2    0    0 -0.87102704412E+00 -0.72028562359E+00 -0.33976753501E+00  0.90007770586E+02  0.90000032358E+02 0.  0.
        -12    1    1    2    0    0  0.87102704412E+00  0.72028562359E+00  0.33976753501E+00  0.11802294137E+01  0.00000000000E+00 0.  1.
         11    1    3    3    0    0 -0.80734117428E+01  0.20856476274E+02 -0.27581858169E+02  0.35509597013E+02  0.51100000000E-03 0. -1.
        -11    1    3    3    0    0 -0.93951652526E+01  0.18958078775E+01 -0.54004909813E+01  0.11001296321E+02  0.51100000000E-03 0.  1.
        -12    1    3    3    0    0  0.16597549951E+02 -0.23472569775E+02  0.32642581615E+02  0.43496877253E+02  0.00000000000E+00 0.  1.
</event>
<event>
 7    1  0.3757412E-015  0.9000780E+02  0.7816164E-02  0.1186339E+00
        -11   -1    0    0    0    0  0.00000000000E+00  0.00000000000E+00  0.45593999997E+02  0.45594000000E+02  0.51100000000E-03 0.  1.
         11   -1    0    0    0    0 -0.00000000000E+00 -0.00000000000E+00 -0.45593999997E+02  0.45594000000E+02  0.51100000000E-03 0. -1.
    9900012    2    1    2    0    0 -0.14099668402E+00  0.30645380616E+00 -0.11309625717E+01  0.90007800721E+02  0.90000062890E+02 0.  0.
        -12    1    1    2    0    0  0.14099668402E+00 -0.30645380616E+00  0.11309625717E+01  0.11801992793E+01  0.00000000000E+00 0.  1.
         11    1    3    3    0    0  0.26447513798E+02  0.24575787950E+02 -0.11458104127E+02  0.37877809993E+02  0.51100000000E-03 0. -1.
        -11    1    3    3    0    0  0.32185173965E+01  0.56018176054E+01  0.74092343258E+01  0.98303595189E+01  0.51100000000E-03 0.  1.
        -12    1    3    3    0    0 -0.29807027879E+02 -0.29871151749E+02  0.29179072290E+01  0.42299631208E+02  0.00000000000E+00 0.  1.
</event>
<event>
 7    1  0.3757412E-015  0.9000771E+02  0.7816164E-02  0.1186339E+00
        -11   -1    0    0    0    0  0.00000000000E+00  0.00000000000E+00  0.45593999997E+02  0.45594000000E+02  0.51100000000E-03 0. -1.
         11   -1    0    0    0    0 -0.00000000000E+00 -0.00000000000E+00 -0.45593999997E+02  0.45594000000E+02  0.51100000000E-03 0.  1.
    9900012    2    1    2    0    0 -0.67314246765E+00 -0.37218706776E+00  0.89523690518E+00  0.90007706345E+02  0.89999967269E+02 0.  0.
        -12    1    1    2    0    0  0.67314246765E+00  0.37218706776E+00 -0.89523690518E+00  0.11802936548E+01  0.00000000000E+00 0.  1.
         11    1    3    3    0    0  0.27351766734E+02 -0.21788117069E+02 -0.12115440602E+02  0.37008446200E+02  0.51100000000E-03 0. -1.
        -11    1    3    3    0    0  0.88915310285E+01  0.38383005067E+01 -0.10963028100E+01  0.97464739738E+01  0.51100000000E-03 0.  1.
        -12    1    3    3    0    0 -0.36916440230E+02  0.17577629495E+02  0.14106980317E+02  0.43252786171E+02  0.00000000000E+00 0.  1.
</event>
<event>
 7    1  0.3757412E-015  0.9000765E+02  0.7816164E-02  0.1186339E+00
        -11   -1    0    0    0    0  0.00000000000E+00  0.00000000000E+00  0.45593999997E+02  0.45594000000E+02  0.51100000000E-03 0.  1.
         11   -1    0    0    0    0 -0.00000000000E+00 -0.00000000000E+00 -0.45593999997E+02  0.45594000000E+02  0.51100000000E-03 0. -1.
    9900012    2    1    2    0    0 -0.89727257087E+00 -0.17165741526E+00 -0.74743768349E+00  0.90007649448E+02  0.89999909621E+02 0.  0.
        -12    1    1    2    0    0  0.89727257087E+00  0.17165741526E+00  0.74743768349E+00  0.11803505519E+01  0.00000000000E+00 0.  1.
         11    1    3    3    0    0  0.49040306935E+01  0.66501011436E+01 -0.78376253638E+00  0.82998582058E+01  0.51100000000E-03 0. -1.
        -11    1    3    3    0    0  0.22683746932E+02  0.25558683966E+02  0.13174251367E+02  0.36624576452E+02  0.51100000000E-03 0.  1.
         12    1    3    3    0    0 -0.28485050196E+02 -0.32380442525E+02 -0.13137926514E+02  0.45083214791E+02  0.00000000000E+00 0. -1.
</event>
<event>
 7    1  0.3757412E-015  0.9000774E+02  0.7816164E-02  0.1186339E+00
        -11   -1    0    0    0    0  0.00000000000E+00  0.00000000000E+00  0.45593999997E+02  0.45594000000E+02  0.51100000000E-03 0. -1.
         11   -1    0    0    0    0 -0.00000000000E+00 -0.00000000000E+00 -0.45593999997E+02  0.45594000000E+02  0.51100000000E-03 0.  1.
    9900012    2    1    2    0    0 -0.43596563862E+00 -0.92219841712E+00 -0.59371547101E+00  0.90007739851E+02  0.90000001217E+02 0.  0.
        -12    1    1    2    0    0  0.43596563862E+00  0.92219841712E+00  0.59371547101E+00  0.11802601489E+01  0.00000000000E+00 0.  1.
         11    1    3    3    0    0  0.22383134907E+02  0.27162026226E+02 -0.18288566676E+02  0.39664241683E+02  0.51100000000E-03 0. -1.
        -11    1    3    3    0    0  0.41805789314E+01 -0.32194105603E+01 -0.49338501903E+01  0.72238993984E+01  0.51100000000E-03 0.  1.
        -12    1    3    3    0    0 -0.26999679477E+02 -0.24864814082E+02  0.22628701395E+02  0.43119598770E+02  0.00000000000E+00 0.  1.
</event>
<event>
 7    1  0.3757412E-015  0.9000765E+02  0.7816164E-02  0.1186339E+00
        -11   -1    0    0    0    0  0.00000000000E+00  0.00000000000E+00  0.45593999997E+02  0.45594000000E+02  0.51100000000E-03 0.  1.
         11   -1    0    0    0    0 -0.00000000000E+00 -0.00000000000E+00 -0.45593999997E+02  0.45594000000E+02  0.51100000000E-03 0. -1.
    9900012    2    1    2    0    0  0.64620278470E+00 -0.98505300265E+00  0.72910493484E-01  0.90007651155E+02  0.89999911350E+02 0.  0.
        -12    1    1    2    0    0 -0.64620278470E+00  0.98505300265E+00 -0.72910493484E-01  0.11803488455E+01  0.00000000000E+00 0.  1.
         11    1    3    3    0    0 -0.26101180870E+01 -0.49899974730E+01  0.10112779657E+02  0.11575020685E+02  0.51100000000E-03 0. -1.
        -11    1    3    3    0    0  0.19536253241E+02  0.28617797887E+02  0.16831057577E+02  0.38521786641E+02  0.51100000000E-03 0.  1.
         12    1    3    3    0    0 -0.16279932369E+02 -0.24612853416E+02 -0.26870926740E+02  0.39910843829E+02  0.00000000000E+00 0. -1.
</event>
<event>
 7    1  0.6041414E-015  0.9000719E+02  0.7816164E-02  0.1186340E+00
        -11   -1    0    0    0    0  0.00000000000E+00  0.00000000000E+00  0.45593999997E+02  0.45594000000E+02  0.51100000000E-03 0. -1.
         11   -1    0    0    0    0 -0.00000000000E+00 -0.00000000000E+00 -0.45593999997E+02  0.45594000000E+02  0.51100000000E-03 0.  1.
    9900012    2    1    2    0    0  0.18452448950E+00 -0.84838887046E+00  0.80031115638E+00  0.90007190570E+02  0.89999444684E+02 0.  0.
        -12    1    1    2    0    0 -0.18452448950E+00  0.84838887046E+00 -0.80031115638E+00  0.11808094299E+01  0.00000000000E+00 0.  1.
         11    1    3    3    0    0  0.16816202620E+02 -0.30727712281E+02  0.21484555036E+02  0.41092129148E+02  0.51100000000E-03 0. -1.
        -11    1    3    3    0    0  0.75513600707E+01  0.58629566667E+01 -0.11434744867E+01  0.96283349523E+01  0.51100000000E-03 0.  1.
        -12    1    3    3    0    0 -0.24183038201E+02  0.24016366744E+02 -0.19540769393E+02  0.39286726469E+02  0.00000000000E+00 0.  1.
</event>
<event>
 7    1  0.3757412E-015  0.9000781E+02  0.7816164E-02  0.1186339E+00
        -11   -1    0    0    0    0  0.00000000000E+00  0.00000000000E+00  0.45593999997E+02  0.45594000000E+02  0.51100000000E-03 0.  1.
         11   -1    0    0    0    0 -0.00000000000E+00 -0.00000000000E+00 -0.45593999997E+02  0.45594000000E+02  0.51100000000E-03 0. -1.
    9900012    2    1    2    0    0  0.10002330100E+01  0.25270391309E+00 -0.57316714546E+00  0.90007811067E+02  0.90000073373E+02 0.  0.
        -12    1    1    2    0    0 -0.10002330100E+01 -0.25270391309E+00  0.57316714546E+00  0.11801889335E+01  0.00000000000E+00 0.  1.
         11    1    3    3    0    0 -0.28337231680E+02 -0.30800023821E+02 -0.62818367450E+01  0.42321408764E+02  0.51100000000E-03 0. -1.
        -11    1    3    3    0    0  0.61910224212E+00  0.30150236243E+01  0.68765137904E+01  0.75339297324E+01  0.51100000000E-03 0.  1.
        -12    1    3    3    0    0  0.28718362448E+02  0.28037704109E+02 -0.11678441909E+01  0.40152472570E+02  0.00000000000E+00 0.  1.
</event>
<event>
 7    1  0.3757412E-015  0.9000770E+02  0.7816164E-02  0.1186339E+00
        -11   -1    0    0    0    0  0.00000000000E+00  0.00000000000E+00  0.45593999997E+02  0.45594000000E+02  0.51100000000E-03 0.  1.
         11   -1    0    0    0    0 -0.00000000000E+00 -0.00000000000E+00 -0.45593999997E+02  0.45594000000E+02  0.51100000000E-03 0. -1.
    9900012    2    1    2    0    0 -0.44039482591E+00 -0.28865971044E+00 -0.10563335101E+01  0.90007698125E+02  0.89999958940E+02 0.  0.
        -12    1    1    2    0    0  0.44039482591E+00  0.28865971044E+00  0.10563335101E+01  0.11803018748E+01  0.00000000000E+00 0.  1.
         11    1    3    3    0    0  0.33225151899E+02  0.11465702392E+02  0.82006814840E+01  0.36091885890E+02  0.51100000000E-03 0. -1.
        -11    1    3    3    0    0  0.62578864034E+01  0.51188816779E+01  0.33883802756E+01  0.87661401439E+01  0.51100000000E-03 0.  1.
        -12    1    3    3    0    0 -0.39923433128E+02 -0.16873243781E+02 -0.12645395270E+02  0.45149672091E+02  0.00000000000E+00 0.  1.
</event>
<event>
 7    1  0.3757412E-015  0.9000793E+02  0.7816164E-02  0.1186339E+00
        -11   -1    0    0    0    0  0.00000000000E+00  0.00000000000E+00  0.45593999997E+02  0.45594000000E+02  0.51100000000E-03 0. -1.
         11   -1    0    0    0    0 -0.00000000000E+00 -0.00000000000E+00 -0.45593999997E+02  0.45594000000E+02  0.51100000000E-03 0.  1.
    9900012    2    1    2    0    0  0.32714789229E+00 -0.68332428441E+00  0.90477301117E+00  0.90007927111E+02  0.90000190949E+02 0.  0.
        -12    1    1    2    0    0 -0.32714789229E+00  0.68332428441E+00 -0.90477301117E+00  0.11800728888E+01  0.00000000000E+00 0.  1.
         11    1    3    3    0    0  0.96037209938E+01 -0.53408319610E+01 -0.83609676690E+01  0.13808031126E+02  0.51100000000E-03 0. -1.
        -11    1    3    3    0    0  0.18645207317E+02 -0.13225247063E+01 -0.25242115969E+02  0.31409508852E+02  0.51100000000E-03 0.  1.
         12    1    3    3    0    0 -0.27921780418E+02  0.59800323829E+01  0.34507856649E+02  0.44790387133E+02  0.00000000000E+00 0. -1.
</event>
<event>
 7    1  0.3757412E-015  0.9000764E+02  0.7816164E-02  0.1186339E+00
        -11   -1    0    0    0    0  0.00000000000E+00  0.00000000000E+00  0.45593999997E+02  0.45594000000E+02  0.51100000000E-03 0.  1.
         11   -1    0    0    0    0 -0.00000000000E+00 -0.00000000000E+00 -0.45593999997E+02  0.45594000000E+02  0.51100000000E-03 0. -1.
    9900012    2    1    2    0    0  0.51437273613E+00  0.46899479772E+00 -0.95326555018E+00  0.90007639614E+02  0.89999899657E+02 0.  0.
        -12    1    1    2    0    0 -0.51437273613E+00 -0.46899479772E+00  0.95326555018E+00  0.11803603861E+01  0.00000000000E+00 0.  1.
         11    1    3    3    0    0  0.65257491105E+01 -0.23320368961E+02 -0.36155624984E+02  0.43516137561E+02  0.51100000000E-03 0. -1.
        -11    1    3    3    0    0 -0.80863592668E+01  0.21187850599E+01  0.72753076407E+01  0.11081902267E+02  0.51100000000E-03 0.  1.
        -12    1    3    3    0    0  0.20749828924E+01  0.21670578699E+02  0.27927051794E+02  0.35409599786E+02  0.00000000000E+00 0.  1.
</event>
<event>
 7    1  0.3757412E-015  0.9000757E+02  0.7816164E-02  0.1186339E+00
        -11   -1    0    0    0    0  0.00000000000E+00  0.00000000000E+00  0.45593999997E+02  0.45594000000E+02  0.51100000000E-03 0.  1.
         11   -1    0    0    0    0 -0.00000000000E+00 -0.00000000000E+00 -0.45593999997E+02  0.45594000000E+02  0.51100000000E-03 0. -1.
    9900012    2    1    2    0    0  0.83239985579E+00  0.80226990967E+00  0.23853562862E+00  0.90007565430E+02  0.89999824494E+02 0.  0.
        -12    1    1    2    0    0 -0.83239985579E+00 -0.80226990967E+00 -0.23853562862E+00  0.11804345700E+01  0.00000000000E+00 0.  1.
         11    1    3    3    0    0 -0.44796360097E+01  0.75492349139E+01  0.18932044650E+00  0.87803148609E+01  0.51100000000E-03 0. -1.
        -11    1    3    3    0    0  0.82972376670E+01 -0.31374796305E+02  0.28703694761E+02  0.43325790118E+02  0.51100000000E-03 0.  1.
         12    1    3    3    0    0 -0.29852018015E+01  0.24627831301E+02 -0.28654479579E+02  0.37901460451E+02  0.00000000000E+00 0. -1.
</event>
<event>
 7    1  0.3757412E-015  0.9000776E+02  0.7816164E-02  0.1186339E+00
        -11   -1    0    0    0    0  0.00000000000E+00  0.00000000000E+00  0.45593999997E+02  0.45594000000E+02  0.51100000000E-03 0.  1.
         11   -1    0    0    0    0 -0.00000000000E+00 -0.00000000000E+00 -0.45593999997E+02  0.45594000000E+02  0.51100000000E-03 0. -1.
    9900012    2    1    2    0    0 -0.21516011369E+00  0.81030308257E+00 -0.83070895964E+00  0.90007761746E+02  0.90000023401E+02 0.  0.
        -12    1    1    2    0    0  0.21516011369E+00 -0.81030308257E+00  0.83070895964E+00  0.11802382538E+01  0.00000000000E+00 0.  1.
         11    1    3    3    0    0 -0.22260069022E+02  0.91621389848E+01  0.26594713936E+02  0.35871078507E+02  0.51100000000E-03 0. -1.
        -11    1    3    3    0    0 -0.37363242793E+01  0.47404105637E+01  0.69580323408E+01  0.92111793897E+01  0.51100000000E-03 0.  1.
        -12    1    3    3    0    0  0.25781233188E+02 -0.13092246466E+02 -0.34383455236E+02  0.44925503850E+02  0.00000000000E+00 0.  1.
</event>
<event>
 7    1  0.3757412E-015  0.9000764E+02  0.7816164E-02  0.1186339E+00
        -11   -1    0    0    0    0  0.00000000000E+00  0.00000000000E+00  0.45593999997E+02  0.45594000000E+02  0.51100000000E-03 0. -1.
         11   -1    0    0    0    0 -0.00000000000E+00 -0.00000000000E+00 -0.45593999997E+02  0.45594000000E+02  0.51100000000E-03 0.  1.
    9900012    2    1    2    0    0 -0.34912610314E+00 -0.18549197583E+00  0.11121861754E+01  0.90007638023E+02  0.89999898044E+02 0.  0.
        -12    1    1    2    0    0  0.34912610314E+00  0.18549197583E+00 -0.11121861754E+01  0.11803619774E+01  0.00000000000E+00 0.  1.
         11    1    3    3    0    0  0.26742949155E+01  0.26405614603E+01  0.83651545946E+01  0.91706177422E+01  0.51100000000E-03 0. -1.
        -11    1    3    3    0    0  0.33206434277E+02 -0.35860903540E+01  0.16756392604E+02  0.37367151548E+02  0.51100000000E-03 0.  1.
         12    1    3    3    0    0 -0.36229855296E+02  0.76003691784E+00 -0.24009361023E+02  0.43469868733E+02  0.00000000000E+00 0. -1.
</event>
<event>
 7    1  0.3757412E-015  0.9000785E+02  0.7816164E-02  0.1186339E+00
        -11   -1    0    0    0    0  0.00000000000E+00  0.00000000000E+00  0.45593999997E+02  0.45594000000E+02  0.51100000000E-03 0.  1.
         11   -1    0    0    0    0 -0.00000000000E+00 -0.00000000000E+00 -0.45593999997E+02  0.45594000000E+02  0.51100000000E-03 0. -1.
    9900012    2    1    2    0    0  0.25925010386E+00  0.11171148841E+01 -0.27856636011E+00  0.90007849375E+02  0.90000112187E+02 0.  0.
        -12    1    1    2    0    0 -0.25925010386E+00 -0.11171148841E+01  0.27856636011E+00  0.11801506250E+01  0.00000000000E+00 0.  1.
         11    1    3    3    0    0 -0.73562015273E+01  0.51784188123E+01  0.20103728596E+01  0.92179890216E+01  0.51100000000E-03 0. -1.
        -11    1    3    3    0    0  0.42892637877E+02  0.43566224336E+01  0.61597943355E+01  0.43551137868E+02  0.51100000000E-03 0.  1.
         12    1    3    3    0    0 -0.35277186246E+02 -0.84179263617E+01 -0.84487335553E+01  0.37238722485E+02  0.00000000000E+00 0. -1.
</event>
<event>
 7    1  0.3757412E-015  0.9000773E+02  0.7816164E-02  0.1186339E+00
        -11   -1    0    0    0    0  0.00000000000E+00  0.00000000000E+00  0.45593999997E+02  0.45594000000E+02  0.51100000000E-03 0. -1.
         11   -1    0    0    0    0 -0.00000000000E+00 -0.00000000000E+00 -0.45593999997E+02  0.45594000000E+02  0.51100000000E-03 0.  1.
    9900012    2    1    2    0    0  0.55513319680E+00 -0.10265542893E+01  0.17622283922E+00  0.90007728394E+02  0.89999989609E+02 0.  0.
        -12    1    1    2    0    0 -0.55513319680E+00  0.10265542893E+01 -0.17622283922E+00  0.11802716061E+01  0.00000000000E+00 0.  1.
         11    1    3    3    0    0 -0.49718428809E+01 -0.32013277639E+01  0.69875995542E+01  0.91539209564E+01  0.51100000000E-03 0. -1.
        -11    1    3    3    0    0 -0.99233568884E+01 -0.63251457248E+01 -0.40853988840E+02  0.42515043041E+02  0.51100000000E-03 0.  1.
         12    1    3    3    0    0  0.15450332966E+02  0.84999191995E+01  0.34042612125E+02  0.38338764397E+02  0.00000000000E+00 0. -1.
</event>
<event>
 7    1  0.3757412E-015  0.9000771E+02  0.7816164E-02  0.1186339E+00
        -11   -1    0    0    0    0  0.00000000000E+00  0.00000000000E+00  0.45593999997E+02  0.45594000000E+02  0.51100000000E-03 0. -1.
         11   -1    0    0    0    0 -0.00000000000E+00 -0.00000000000E+00 -0.45593999997E+02  0.45594000000E+02  0.51100000000E-03 0.  1.
    9900012    2    1    2    0    0  0.87772058676E+00  0.67930037136E+00  0.40154016749E+00  0.90007713201E+02  0.89999974215E+02 0.  0.
        -12    1    1    2    0    0 -0.87772058676E+00 -0.67930037136E+00 -0.40154016749E+00  0.11802867995E+01  0.00000000000E+00 0.  1.
         11    1    3    3    0    0  0.37056662106E+02 -0.98317816835E+00  0.15769769766E+02  0.40284593637E+02  0.51100000000E-03 0. -1.
        -11    1    3    3    0    0  0.46056242991E+01 -0.91672326968E+00 -0.63092693812E+01  0.78650516288E+01  0.51100000000E-03 0.  1.
        -12    1    3    3    0    0 -0.40784565819E+02  0.25792018094E+01 -0.90589602174E+01  0.41858067935E+02  0.00000000000E+00 0.  1.
</event>
<event>
 7    1  0.3757412E-015  0.9000776E+02  0.7816164E-02  0.1186339E+00
        -11   -1    0    0    0    0  0.00000000000E+00  0.00000000000E+00  0.45593999997E+02  0.45594000000E+02  0.51100000000E-03 0.  1.
         11   -1    0    0    0    0 -0.00000000000E+00 -0.00000000000E+00 -0.45593999997E+02  0.45594000000E+02  0.51100000000E-03 0. -1.
    9900012    2    1    2    0    0  0.10584537880E+01  0.48143621252E+00  0.20215345380E+00  0.90007757963E+02  0.90000019568E+02 0.  0.
        -12    1    1    2    0    0 -0.10584537880E+01 -0.48143621252E+00 -0.20215345380E+00  0.11802420374E+01  0.00000000000E+00 0.  1.
         11    1    3    3    0    0 -0.44832371692E+01  0.10565347637E+02 -0.88956845423E-01  0.11477538925E+02  0.51100000000E-03 0. -1.
        -11    1    3    3    0    0  0.35164807721E+02 -0.12393456152E+02 -0.20230062217E+02  0.42419534121E+02  0.51100000000E-03 0.  1.
         12    1    3    3    0    0 -0.29623116764E+02  0.23095447277E+01  0.20521172516E+02  0.36110684916E+02  0.00000000000E+00 0. -1.
</event>
<event>
 7    1  0.3757412E-015  0.9000774E+02  0.7816164E-02  0.1186339E+00
        -11   -1    0    0    0    0  0.00000000000E+00  0.00000000000E+00  0.45593999997E+02  0.45594000000E+02  0.51100000000E-03 0. -1.
         11   -1    0    0    0    0 -0.00000000000E+00 -0.00000000000E+00 -0.45593999997E+02  0.45594000000E+02  0.51100000000E-03 0.  1.
    9900012    2    1    2    0    0  0.43264287060E+00 -0.85319397667E+00  0.69129845813E+00  0.90007740125E+02  0.90000001494E+02 0.  0.
        -12    1    1    2    0    0 -0.43264287060E+00  0.85319397667E+00 -0.69129845813E+00  0.11802598754E+01  0.00000000000E+00 0.  1.
         11    1    3    3    0    0  0.87399123686E+00 -0.32729672054E+01  0.86683240960E+01  0.93067726900E+01  0.51100000000E-03 0. -1.
        -11    1    3    3    0    0 -0.20088970054E+02  0.31740666492E+01  0.30982222947E+02  0.37061294580E+02  0.51100000000E-03 0.  1.
         12    1    3    3    0    0  0.19647621688E+02 -0.75429342048E+00 -0.38959248585E+02  0.43639672855E+02  0.00000000000E+00 0. -1.
</event>
<event>
 7    1  0.3757412E-015  0.9000775E+02  0.7816164E-02  0.1186339E+00
        -11   -1    0    0    0    0  0.00000000000E+00  0.00000000000E+00  0.45593999997E+02  0.45594000000E+02  0.51100000000E-03 0. -1.
         11   -1    0    0    0    0 -0.00000000000E+00 -0.00000000000E+00 -0.45593999997E+02  0.45594000000E+02  0.51100000000E-03 0.  1.
    9900012    2    1    2    0    0 -0.57044562638E+00  0.37093520353E+00  0.96436363252E+00  0.90007746488E+02  0.90000007941E+02 0.  0.
        -12    1    1    2    0    0  0.57044562638E+00 -0.37093520353E+00 -0.96436363252E+00  0.11802535124E+01  0.00000000000E+00 0.  1.
         11    1    3    3    0    0 -0.82505611720E+01 -0.13061596305E+01 -0.84217982627E+01  0.11861892719E+02  0.51100000000E-03 0. -1.
        -11    1    3    3    0    0  0.40755722546E+01 -0.10927090762E+02 -0.32355940135E+02  0.34393581727E+02  0.51100000000E-03 0.  1.
         12    1    3    3    0    0  0.36045432910E+01  0.12604185597E+02  0.41742102030E+02  0.43752272042E+02  0.00000000000E+00 0. -1.
</event>
<event>
 7    1  0.3757412E-015  0.9000765E+02  0.7816164E-02  0.1186339E+00
        -11   -1    0    0    0    0  0.00000000000E+00  0.00000000000E+00  0.45593999997E+02  0.45594000000E+02  0.51100000000E-03 0. -1.
         11   -1    0    0    0    0 -0.00000000000E+00 -0.00000000000E+00 -0.45593999997E+02  0.45594000000E+02  0.51100000000E-03 0.  1.
    9900012    2    1    2    0    0  0.32230900108E+00 -0.88945959045E+00  0.70584189269E+00  0.90007646564E+02  0.89999906699E+02 0.  0.
        -12    1    1    2    0    0 -0.32230900108E+00  0.88945959045E+00 -0.70584189269E+00  0.11803534355E+01  0.00000000000E+00 0.  1.
         11    1    3    3    0    0  0.22722221718E+02  0.22732456208E+02  0.20746750106E+02  0.38255608286E+02  0.51100000000E-03 0. -1.
        -11    1    3    3    0    0 -0.24428890471E+01  0.42334080323E+00  0.88523159871E+01  0.91929550705E+01  0.51100000000E-03 0.  1.
        -12    1    3    3    0    0 -0.19957023670E+02 -0.24045256602E+02 -0.28893224201E+02  0.42559083208E+02  0.00000000000E+00 0.  1.
</event>
<event>
 7    1  0.3757412E-015  0.9000776E+02  0.7816164E-02  0.1186339E+00
        -11   -1    0    0    0    0  0.00000000000E+00  0.00000000000E+00  0.45593999997E+02  0.45594000000E+02  0.51100000000E-03 0. -1.
         11   -1    0    0    0    0 -0.00000000000E+00 -0.00000000000E+00 -0.45593999997E+02  0.45594000000E+02  0.51100000000E-03 0.  1.
    9900012    2    1    2    0    0 -0.75322176348E+00 -0.86604779265E+00 -0.27493680034E+00  0.90007757632E+02  0.90000019232E+02 0.  0.
        -12    1    1    2    0    0  0.75322176348E+00  0.86604779265E+00  0.27493680034E+00  0.11802423685E+01  0.00000000000E+00 0.  1.
         11    1    3    3    0    0  0.25138033801E+02  0.24128162221E+02 -0.15451769292E+02  0.38116218727E+02  0.51100000000E-03 0. -1.
        -11    1    3    3    0    0  0.58839435733E+01  0.35030936188E+01  0.10225270392E+01  0.69237286691E+01  0.51100000000E-03 0.  1.
        -12    1    3    3    0    0 -0.31775199138E+02 -0.28497303632E+02  0.14154305453E+02  0.44967810236E+02  0.00000000000E+00 0.  1.
</event>
<event>
 7    1  0.3757412E-015  0.9000780E+02  0.7816164E-02  0.1186339E+00
        -11   -1    0    0    0    0  0.00000000000E+00  0.00000000000E+00  0.45593999997E+02  0.45594000000E+02  0.51100000000E-03 0.  1.
         11   -1    0    0    0    0 -0.00000000000E+00 -0.00000000000E+00 -0.45593999997E+02  0.45594000000E+02  0.51100000000E-03 0. -1.
    9900012    2    1    2    0    0  0.73091915733E+00 -0.91871968186E+00  0.12078165723E+00  0.90007797951E+02  0.90000060084E+02 0.  0.
        -12    1    1    2    0    0 -0.73091915733E+00  0.91871968186E+00 -0.12078165723E+00  0.11802020493E+01  0.00000000000E+00 0.  1.
         11    1    3    3    0    0 -0.30984167490E+02 -0.12577792514E+02  0.51556036745E+01  0.33834889524E+02  0.51100000000E-03 0. -1.
        -11    1    3    3    0    0 -0.10585794357E+02 -0.29676377500E+01  0.86290576912E+00  0.11027716111E+02  0.51100000000E-03 0.  1.
        -12    1    3    3    0    0  0.42300881005E+02  0.14626710582E+02 -0.58977277864E+01  0.45145192316E+02  0.00000000000E+00 0.  1.
</event>
<event>
 7    1  0.3757412E-015  0.9000773E+02  0.7816164E-02  0.1186339E+00
        -11   -1    0    0    0    0  0.00000000000E+00  0.00000000000E+00  0.45593999997E+02  0.45594000000E+02  0.51100000000E-03 0. -1.
         11   -1    0    0    0    0 -0.00000000000E+00 -0.00000000000E+00 -0.45593999997E+02  0.45594000000E+02  0.51100000000E-03 0.  1.
    9900012    2    1    2    0    0 -0.62172860022E+00 -0.96489365545E+00 -0.27473839792E+00  0.90007725707E+02  0.89999986887E+02 0.  0.
        -12    1    1    2    0    0  0.62172860022E+00  0.96489365545E+00  0.27473839792E+00  0.11802742927E+01  0.00000000000E+00 0.  1.
         11    1    3    3    0    0 -0.20683674646E+02 -0.27933499060E+02  0.11731790668E+02  0.36684188408E+02  0.51100000000E-03 0. -1.
        -11    1    3    3    0    0  0.46563879048E+00 -0.66164093441E+01  0.73396546132E+01  0.98926347448E+01  0.51100000000E-03 0.  1.
        -12    1    3    3    0    0  0.19596307256E+02  0.33585014749E+02 -0.19346183679E+02  0.43430902554E+02  0.00000000000E+00 0.  1.
</event>
<event>
 7    1  0.3757412E-015  0.9000772E+02  0.7816164E-02  0.1186339E+00
        -11   -1    0    0    0    0  0.00000000000E+00  0.00000000000E+00  0.45593999997E+02  0.45594000000E+02  0.51100000000E-03 0.  1.
         11   -1    0    0    0    0 -0.00000000000E+00 -0.00000000000E+00 -0.45593999997E+02  0.45594000000E+02  0.51100000000E-03 0. -1.
    9900012    2    1    2    0    0 -0.46218079364E+00 -0.72028311182E+00 -0.81280126225E+00  0.90007718365E+02  0.89999979447E+02 0.  0.
        -12    1    1    2    0    0  0.46218079364E+00  0.72028311182E+00  0.81280126225E+00  0.11802816355E+01  0.00000000000E+00 0.  1.
         11    1    3    3    0    0 -0.19547173912E+02 -0.32374127233E+02  0.70577592141E+01  0.38470613297E+02  0.51100000000E-03 0. -1.
        -11    1    3    3    0    0 -0.91577705633E+01  0.38772144376E+01  0.31287888418E+01  0.10425299677E+02  0.51100000000E-03 0.  1.
        -12    1    3    3    0    0  0.28242763682E+02  0.27776629684E+02 -0.10999349318E+02  0.41111805390E+02  0.00000000000E+00 0.  1.
</event>
<event>
 7    1  0.3757412E-015  0.9000772E+02  0.7816164E-02  0.1186339E+00
        -11   -1    0    0    0    0  0.00000000000E+00  0.00000000000E+00  0.45593999997E+02  0.45594000000E+02  0.51100000000E-03 0. -1.
         11   -1    0    0    0    0 -0.00000000000E+00 -0.00000000000E+00 -0.45593999997E+02  0.45594000000E+02  0.51100000000E-03 0.  1.
    9900012    2    1    2    0    0  0.10123282762E+01 -0.43401020830E+00  0.42412402195E+00  0.90007722666E+02  0.89999983805E+02 0.  0.
        -12    1    1    2    0    0 -0.10123282762E+01  0.43401020830E+00 -0.42412402195E+00  0.11802773342E+01  0.00000000000E+00 0.  1.
         11    1    3    3    0    0 -0.21923001430E+01  0.10931637509E+01 -0.11941848576E+02  0.12190526428E+02  0.51100000000E-03 0. -1.
        -11    1    3    3    0    0  0.12944171831E+01 -0.88447882958E+01 -0.31787624963E+02  0.33020582927E+02  0.51100000000E-03 0.  1.
         12    1    3    3    0    0  0.19102112360E+01  0.73176143366E+01  0.44153597561E+02  0.44796613311E+02  0.00000000000E+00 0. -1.
</event>
<event>
 7    1  0.3757412E-015  0.9000765E+02  0.7816164E-02  0.1186339E+00
        -11   -1    0    0    0    0  0.00000000000E+00  0.00000000000E+00  0.45593999997E+02  0.45594000000E+02  0.51100000000E-03 0.  1.
         11   -1    0    0    0    0 -0.00000000000E+00 -0.00000000000E+00 -0.45593999997E+02  0.45594000000E+02  0.51100000000E-03 0. -1.
    9900012    2    1    2    0    0 -0.38773657295E+00  0.56856337870E-01 -0.11133949163E+01  0.90007652368E+02  0.89999912579E+02 0.  0.
        -12    1    1    2    0    0  0.38773657295E+00 -0.56856337870E-01  0.11133949163E+01  0.11803476322E+01  0.00000000000E+00 0.  1.
         11    1    3    3    0    0 -0.42692455084E+02 -0.10911544734E+02 -0.25112369726E+01  0.44136309780E+02  0.51100000000E-03 0. -1.
        -11    1    3    3    0    0  0.59352996386E+01  0.35374353567E+01 -0.45556162180E+01  0.82761627636E+01  0.51100000000E-03 0.  1.
        -12    1    3    3    0    0  0.36369418873E+02  0.74309657154E+01  0.59534582743E+01  0.37595179824E+02  0.00000000000E+00 0.  1.
</event>
<event>
 7    1  0.3757412E-015  0.9000771E+02  0.7816164E-02  0.1186339E+00
        -11   -1    0    0    0    0  0.00000000000E+00  0.00000000000E+00  0.45593999997E+02  0.45594000000E+02  0.51100000000E-03 0. -1.
         11   -1    0    0    0    0 -0.00000000000E+00 -0.00000000000E+00 -0.45593999997E+02  0.45594000000E+02  0.51100000000E-03 0.  1.
    9900012    2    1    2    0    0 -0.10859625743E+01 -0.24941336915E+00  0.38930753306E+00  0.90007711011E+02  0.89999971997E+02 0.  0.
        -12    1    1    2    0    0  0.10859625743E+01  0.24941336915E+00 -0.38930753306E+00  0.11802889886E+01  0.00000000000E+00 0.  1.
         11    1    3    3    0    0 -0.86390228653E+01 -0.14611100967E+01 -0.83566993825E+01  0.12107930608E+02  0.51100000000E-03 0. -1.
        -11    1    3    3    0    0  0.26431072798E+02  0.23545057910E+01 -0.26750456535E+02  0.37679334281E+02  0.51100000000E-03 0.  1.
         12    1    3    3    0    0 -0.18878012507E+02 -0.11428090634E+01  0.35496463451E+02  0.40220446122E+02  0.00000000000E+00 0. -1.
</event>
<event>
 7    1  0.3757412E-015  0.9000786E+02  0.7816164E-02  0.1186339E+00
        -11   -1    0    0    0    0  0.00000000000E+00  0.00000000000E+00  0.45593999997E+02  0.45594000000E+02  0.51100000000E-03 0.  1.
         11   -1    0    0    0    0 -0.00000000000E+00 -0.00000000000E+00 -0.45593999997E+02  0.45594000000E+02  0.51100000000E-03 0. -1.
    9900012    2    1    2    0    0  0.45748042040E+00 -0.95608788695E+00  0.51897103415E+00  0.90007863009E+02  0.90000126001E+02 0.  0.
        -12    1    1    2    0    0 -0.45748042040E+00  0.95608788695E+00 -0.51897103415E+00  0.11801369907E+01  0.00000000000E+00 0.  1.
         11    1    3    3    0    0  0.65271494080E+01 -0.38164126195E+00  0.74941404488E+01  0.99454246151E+01  0.51100000000E-03 0. -1.
        -11    1    3    3    0    0 -0.29760686768E+02 -0.15228157437E+02  0.21880618803E+02  0.39954433237E+02  0.51100000000E-03 0.  1.
         12    1    3    3    0    0  0.23691017780E+02  0.14653710812E+02 -0.28855788218E+02  0.40108005157E+02  0.00000000000E+00 0. -1.
</event>
<event>
 7    1  0.3757412E-015  0.9000775E+02  0.7816164E-02  0.1186339E+00
        -11   -1    0    0    0    0  0.00000000000E+00  0.00000000000E+00  0.45593999997E+02  0.45594000000E+02  0.51100000000E-03 0. -1.
         11   -1    0    0    0    0 -0.00000000000E+00 -0.00000000000E+00 -0.45593999997E+02  0.45594000000E+02  0.51100000000E-03 0.  1.
    9900012    2    1    2    0    0  0.77491730066E+00  0.86729702170E+00  0.20069603084E+00  0.90007754329E+02  0.90000015886E+02 0.  0.
        -12    1    1    2    0    0 -0.77491730066E+00 -0.86729702170E+00 -0.20069603084E+00  0.11802456708E+01  0.00000000000E+00 0.  1.
         11    1    3    3    0    0 -0.14019325956E+02  0.34912929815E+01  0.73310159245E+01  0.16201062363E+02  0.51100000000E-03 0. -1.
        -11    1    3    3    0    0 -0.10043627890E+02 -0.28363277461E+02  0.12982858640E+02  0.32770483491E+02  0.51100000000E-03 0.  1.
         12    1    3    3    0    0  0.24837871147E+02  0.25739281501E+02 -0.20113178533E+02  0.41036208475E+02  0.00000000000E+00 0. -1.
</event>
<event>
 7    1  0.4172455E-015  0.9000758E+02  0.7816164E-02  0.1186339E+00
        -11   -1    0    0    0    0  0.00000000000E+00  0.00000000000E+00  0.45593999997E+02  0.45594000000E+02  0.51100000000E-03 0. -1.
         11   -1    0    0    0    0 -0.00000000000E+00 -0.00000000000E+00 -0.45593999997E+02  0.45594000000E+02  0.51100000000E-03 0.  1.
    9900012    2    1    2    0    0  0.11676432017E+00 -0.10873259825E+01 -0.44438038562E+00  0.90007582436E+02  0.89999841724E+02 0.  0.
        -12    1    1    2    0    0 -0.11676432017E+00  0.10873259825E+01  0.44438038562E+00  0.11804175642E+01  0.00000000000E+00 0.  1.
         11    1    3    3    0    0 -0.16029602808E+02 -0.31588720871E+02 -0.10543961767E+02  0.36959039252E+02  0.51100000000E-03 0. -1.
        -11    1    3    3    0    0 -0.39995504890E+00 -0.47113805091E+01 -0.86513988839E+01  0.98591973939E+01  0.51100000000E-03 0.  1.
        -12    1    3    3    0    0  0.16546322177E+02  0.35212775398E+02  0.18750980266E+02  0.43189345789E+02  0.00000000000E+00 0.  1.
</event>
<event>
 7    1  0.3757412E-015  0.9000758E+02  0.7816164E-02  0.1186339E+00
        -11   -1    0    0    0    0  0.00000000000E+00  0.00000000000E+00  0.45593999997E+02  0.45594000000E+02  0.51100000000E-03 0. -1.
         11   -1    0    0    0    0 -0.00000000000E+00 -0.00000000000E+00 -0.45593999997E+02  0.45594000000E+02  0.51100000000E-03 0.  1.
    9900012    2    1    2    0    0 -0.11163530978E+01 -0.20344865645E+00 -0.32518809495E+00  0.90007583594E+02  0.89999842897E+02 0.  0.
        -12    1    1    2    0    0  0.11163530978E+01  0.20344865645E+00  0.32518809495E+00  0.11804164061E+01  0.00000000000E+00 0.  1.
         11    1    3    3    0    0 -0.14384116819E+02 -0.13101962009E+02 -0.18364561045E+02  0.26754837465E+02  0.51100000000E-03 0. -1.
        -11    1    3    3    0    0 -0.10519558931E+01 -0.79427925360E+01 -0.17725154358E+02  0.19451880674E+02  0.51100000000E-03 0.  1.
         12    1    3    3    0    0  0.14319719614E+02  0.20841305888E+02  0.35764527309E+02  0.43800865455E+02  0.00000000000E+00 0. -1.
</event>
<event>
 7    1  0.3757412E-015  0.9000769E+02  0.7816164E-02  0.1186339E+00
        -11   -1    0    0    0    0  0.00000000000E+00  0.00000000000E+00  0.45593999997E+02  0.45594000000E+02  0.51100000000E-03 0. -1.
         11   -1    0    0    0    0 -0.00000000000E+00 -0.00000000000E+00 -0.45593999997E+02  0.45594000000E+02  0.51100000000E-03 0.  1.
    9900012    2    1    2    0    0 -0.65159096240E+00 -0.89494074221E+00 -0.40944694114E+00  0.90007687960E+02  0.89999948641E+02 0.  0.
        -12    1    1    2    0    0  0.65159096240E+00  0.89494074221E+00  0.40944694114E+00  0.11803120401E+01  0.00000000000E+00 0.  1.
         11    1    3    3    0    0 -0.31452242689E+01 -0.34482211265E+02  0.22532815637E+02  0.41311537253E+02  0.51100000000E-03 0. -1.
        -11    1    3    3    0    0  0.86677150687E+01  0.23485506898E+01  0.74202525432E+00  0.90108588155E+01  0.51100000000E-03 0.  1.
        -12    1    3    3    0    0 -0.61740817622E+01  0.31238719833E+02 -0.23684287832E+02  0.39685291892E+02  0.00000000000E+00 0.  1.
</event>
<event>
 7    1  0.3757412E-015  0.9000782E+02  0.7816164E-02  0.1186339E+00
        -11   -1    0    0    0    0  0.00000000000E+00  0.00000000000E+00  0.45593999997E+02  0.45594000000E+02  0.51100000000E-03 0. -1.
         11   -1    0    0    0    0 -0.00000000000E+00 -0.00000000000E+00 -0.45593999997E+02  0.45594000000E+02  0.51100000000E-03 0.  1.
    9900012    2    1    2    0    0 -0.50269531655E+00  0.10117671891E+01  0.34123303871E+00  0.90007823991E+02  0.90000086467E+02 0.  0.
        -12    1    1    2    0    0  0.50269531655E+00 -0.10117671891E+01 -0.34123303871E+00  0.11801760093E+01  0.00000000000E+00 0.  1.
         11    1    3    3    0    0  0.39416346603E+01  0.74723014660E+01 -0.27569557455E+01  0.88866516888E+01  0.51100000000E-03 0. -1.
        -11    1    3    3    0    0 -0.26897722819E+02  0.16117056811E+02 -0.23858201930E+02  0.39401279328E+02  0.51100000000E-03 0.  1.
         12    1    3    3    0    0  0.22453392842E+02 -0.22577591087E+02  0.26956390714E+02  0.41719892974E+02  0.00000000000E+00 0. -1.
</event>
<event>
 7    1  0.3757412E-015  0.9000781E+02  0.7816164E-02  0.1186339E+00
        -11   -1    0    0    0    0  0.00000000000E+00  0.00000000000E+00  0.45593999997E+02  0.45594000000E+02  0.51100000000E-03 0. -1.
         11   -1    0    0    0    0 -0.00000000000E+00 -0.00000000000E+00 -0.45593999997E+02  0.45594000000E+02  0.51100000000E-03 0.  1.
    9900012    2    1    2    0    0 -0.11716210065E+00 -0.10814762411E+01  0.45775106090E+00  0.90007807706E+02  0.90000069967E+02 0.  0.
        -12    1    1    2    0    0  0.11716210065E+00  0.10814762411E+01 -0.45775106090E+00  0.11801922944E+01  0.00000000000E+00 0.  1.
         11    1    3    3    0    0 -0.10920967478E+02 -0.10073962405E+01  0.78397064675E+00  0.10995316643E+02  0.51100000000E-03 0. -1.
        -11    1    3    3    0    0 -0.11746513096E+02  0.12584679565E+02 -0.33073452819E+02  0.37285493310E+02  0.51100000000E-03 0.  1.
         12    1    3    3    0    0  0.22550318474E+02 -0.12658759566E+02  0.32747233233E+02  0.41726997753E+02  0.00000000000E+00 0. -1.
</event>
<event>
 7    1  0.3757412E-015  0.9000766E+02  0.7816164E-02  0.1186339E+00
        -11   -1    0    0    0    0  0.00000000000E+00  0.00000000000E+00  0.45593999997E+02  0.45594000000E+02  0.51100000000E-03 0. -1.
         11   -1    0    0    0    0 -0.00000000000E+00 -0.00000000000E+00 -0.45593999997E+02  0.45594000000E+02  0.51100000000E-03 0.  1.
    9900012    2    1    2    0    0  0.82155694769E+00 -0.36892428036E+00  0.76298392978E+00  0.90007658770E+02  0.89999919065E+02 0.  0.
        -12    1    1    2    0    0 -0.82155694769E+00  0.36892428036E+00 -0.76298392978E+00  0.11803412303E+01  0.00000000000E+00 0.  1.
         11    1    3    3    0    0  0.22116355737E+02 -0.10300390237E+02 -0.11682743737E+02  0.27050281544E+02  0.51100000000E-03 0. -1.
        -11    1    3    3    0    0 -0.16371179223E+02 -0.96538582038E+01 -0.18161703606E+02  0.26288019429E+02  0.51100000000E-03 0.  1.
         12    1    3    3    0    0 -0.49236195669E+01  0.19585324161E+02  0.30607431272E+02  0.36669357797E+02  0.00000000000E+00 0. -1.
</event>
<event>
 7    1  0.3757412E-015  0.9000774E+02  0.7816164E-02  0.1186339E+00
        -11   -1    0    0    0    0  0.00000000000E+00  0.00000000000E+00  0.45593999997E+02  0.45594000000E+02  0.51100000000E-03 0. -1.
         11   -1    0    0    0    0 -0.00000000000E+00 -0.00000000000E+00 -0.45593999997E+02  0.45594000000E+02  0.51100000000E-03 0.  1.
    9900012    2    1    2    0    0 -0.58445984208E+00 -0.56490529534E+00  0.85575238008E+00  0.90007735862E+02  0.89999997175E+02 0.  0.
        -12    1    1    2    0    0  0.58445984208E+00  0.56490529534E+00 -0.85575238008E+00  0.11802641381E+01  0.00000000000E+00 0.  1.
         11    1    3    3    0    0 -0.32817176269E+02 -0.17950714162E+02 -0.67137405614E+01  0.38003546016E+02  0.51100000000E-03 0. -1.
        -11    1    3    3    0    0 -0.77620858265E+01  0.54883523796E+01 -0.43548387678E+00  0.95163876912E+01  0.51100000000E-03 0.  1.
        -12    1    3    3    0    0  0.39994802253E+02  0.11897456487E+02  0.80049768182E+01  0.42487802155E+02  0.00000000000E+00 0.  1.
</event>
<event>
 7    1  0.3757412E-015  0.9000781E+02  0.7816164E-02  0.1186339E+00
        -11   -1    0    0    0    0  0.00000000000E+00  0.00000000000E+00  0.45593999997E+02  0.45594000000E+02  0.51100000000E-03 0. -1.
         11   -1    0    0    0    0 -0.00000000000E+00 -0.00000000000E+00 -0.45593999997E+02  0.45594000000E+02  0.51100000000E-03 0.  1.
    9900012    2    1    2    0    0 -0.87700890451E+00  0.77993127140E+00 -0.12413191085E+00  0.90007810974E+02  0.90000073278E+02 0.  0.
        -12    1    1    2    0    0  0.87700890451E+00 -0.77993127140E+00  0.12413191085E+00  0.11801890264E+01  0.00000000000E+00 0.  1.
         11    1    3    3    0    0  0.11094939157E+02  0.18464926756E+02  0.28863841317E+02  0.36016281469E+02  0.51100000000E-03 0. -1.
        -11    1    3    3    0    0  0.28999001656E+01 -0.56649220204E+01  0.92564023207E+01  0.11233064882E+02  0.51100000000E-03 0.  1.
        -12    1    3    3    0    0 -0.14871848227E+02 -0.12020073464E+02 -0.38244375549E+02  0.42758464623E+02  0.00000000000E+00 0.  1.
</event>
<event>
 7    1  0.3757412E-015  0.9000773E+02  0.7816164E-02  0.1186339E+00
        -11   -1    0    0    0    0  0.00000000000E+00  0.00000000000E+00  0.45593999997E+02  0.45594000000E+02  0.51100000000E-03 0.  1.
         11   -1    0    0    0    0 -0.00000000000E+00 -0.00000000000E+00 -0.45593999997E+02  0.45594000000E+02  0.51100000000E-03 0. -1.
    9900012    2    1    2    0    0 -0.18859331942E+00 -0.47496927286E+00 -0.10638998823E+01  0.90007726214E+02  0.89999987400E+02 0.  0.
        -12    1    1    2    0    0  0.18859331942E+00  0.47496927286E+00  0.10638998823E+01  0.11802737860E+01  0.00000000000E+00 0.  1.
         11    1    3    3    0    0 -0.38808552956E+02  0.12500087363E+01  0.10768530183E+00  0.38828828218E+02  0.51100000000E-03 0. -1.
        -11    1    3    3    0    0 -0.12872780356E+01  0.95963503089E+01 -0.88129981765E-01  0.96827057762E+01  0.51100000000E-03 0.  1.
        -12    1    3    3    0    0  0.39907237673E+02 -0.11321328318E+02 -0.10834552023E+01  0.41496192220E+02  0.00000000000E+00 0.  1.
</event>
<event>
 7    1  0.3757412E-015  0.9000783E+02  0.7816164E-02  0.1186339E+00
        -11   -1    0    0    0    0  0.00000000000E+00  0.00000000000E+00  0.45593999997E+02  0.45594000000E+02  0.51100000000E-03 0. -1.
         11   -1    0    0    0    0 -0.00000000000E+00 -0.00000000000E+00 -0.45593999997E+02  0.45594000000E+02  0.51100000000E-03 0.  1.
    9900012    2    1    2    0    0  0.86967876659E+00  0.19020346596E+00  0.77478454702E+00  0.90007826449E+02  0.90000088958E+02 0.  0.
        -12    1    1    2    0    0 -0.86967876659E+00 -0.19020346596E+00 -0.77478454702E+00  0.11801735507E+01  0.00000000000E+00 0.  1.
         11    1    3    3    0    0  0.13758263387E+02 -0.34230984081E+02 -0.13009323812E+02  0.39118954343E+02  0.51100000000E-03 0. -1.
        -11    1    3    3    0    0  0.96527432055E+01  0.26534530141E+01  0.21912105043E+01  0.10247812841E+02  0.51100000000E-03 0.  1.
        -12    1    3    3    0    0 -0.22541327826E+02  0.31767734533E+02  0.11592897855E+02  0.40641059265E+02  0.00000000000E+00 0.  1.
</event>
<event>
 7    1  0.3757412E-015  0.9000857E+02  0.7816164E-02  0.1186337E+00
        -11   -1    0    0    0    0  0.00000000000E+00  0.00000000000E+00  0.45593999997E+02  0.45594000000E+02  0.51100000000E-03 0.  1.
         11   -1    0    0    0    0 -0.00000000000E+00 -0.00000000000E+00 -0.45593999997E+02  0.45594000000E+02  0.51100000000E-03 0. -1.
    9900012    2    1    2    0    0  0.56188158637E+00  0.10139791857E+01  0.21724040332E+00  0.90008568739E+02  0.90000841043E+02 0.  0.
        -12    1    1    2    0    0 -0.56188158637E+00 -0.10139791857E+01 -0.21724040332E+00  0.11794312608E+01  0.00000000000E+00 0.  1.
         11    1    3    3    0    0  0.43346924113E+01  0.43927186663E+01  0.15631869211E+02  0.16805977236E+02  0.51100000000E-03 0. -1.
        -11    1    3    3    0    0  0.19587808771E+02 -0.20740646308E+02  0.14037757286E+02  0.31794894112E+02  0.51100000000E-03 0.  1.
         12    1    3    3    0    0 -0.23360619596E+02  0.17361906827E+02 -0.29452386093E+02  0.41407697391E+02  0.00000000000E+00 0. -1.
</event>
<event>
 7    1  0.3757412E-015  0.9000769E+02  0.7816164E-02  0.1186339E+00
        -11   -1    0    0    0    0  0.00000000000E+00  0.00000000000E+00  0.45593999997E+02  0.45594000000E+02  0.51100000000E-03 0. -1.
         11   -1    0    0    0    0 -0.00000000000E+00 -0.00000000000E+00 -0.45593999997E+02  0.45594000000E+02  0.51100000000E-03 0.  1.
    9900012    2    1    2    0    0 -0.96002546111E+00 -0.22572921422E+00  0.64848315832E+00  0.90007689460E+02  0.89999950161E+02 0.  0.
        -12    1    1    2    0    0  0.96002546111E+00  0.22572921422E+00 -0.64848315832E+00  0.11803105400E+01  0.00000000000E+00 0.  1.
         11    1    3    3    0    0 -0.75414969032E+01  0.25895766350E+01 -0.46415922247E+01  0.92262918516E+01  0.51100000000E-03 0. -1.
        -11    1    3    3    0    0 -0.17599743532E+02  0.23149207976E+02 -0.21631557446E+02  0.36243083204E+02  0.51100000000E-03 0.  1.
         12    1    3    3    0    0  0.24181214974E+02 -0.25964513825E+02  0.26921632829E+02  0.44538314405E+02  0.00000000000E+00 0. -1.
</event>
<event>
 7    1  0.3757412E-015  0.9000775E+02  0.7816164E-02  0.1186339E+00
        -11   -1    0    0    0    0  0.00000000000E+00  0.00000000000E+00  0.45593999997E+02  0.45594000000E+02  0.51100000000E-03 0.  1.
         11   -1    0    0    0    0 -0.00000000000E+00 -0.00000000000E+00 -0.45593999997E+02  0.45594000000E+02  0.51100000000E-03 0. -1.
    9900012    2    1    2    0    0 -0.61963838780E+00  0.51592197372E+00 -0.86189295412E+00  0.90007751433E+02  0.90000012952E+02 0.  0.
        -12    1    1    2    0    0  0.61963838780E+00 -0.51592197372E+00  0.86189295412E+00  0.11802485666E+01  0.00000000000E+00 0.  1.
         11    1    3    3    0    0  0.18725328005E+02  0.31417780287E+02  0.14747665160E+02  0.39436131339E+02  0.51100000000E-03 0. -1.
        -11    1    3    3    0    0  0.47255277618E+01  0.90598184668E+00 -0.89069221399E+01  0.10123471638E+02  0.51100000000E-03 0.  1.
        -12    1    3    3    0    0 -0.24070494155E+02 -0.31807840160E+02 -0.67026359744E+01  0.40448148456E+02  0.00000000000E+00 0.  1.
</event>
<event>
 7    1  0.3757412E-015  0.9000770E+02  0.7816164E-02  0.1186339E+00
        -11   -1    0    0    0    0  0.00000000000E+00  0.00000000000E+00  0.45593999997E+02  0.45594000000E+02  0.51100000000E-03 0.  1.
         11   -1    0    0    0    0 -0.00000000000E+00 -0.00000000000E+00 -0.45593999997E+02  0.45594000000E+02  0.51100000000E-03 0. -1.
    9900012    2    1    2    0    0  0.76614017533E-01 -0.10578989130E+01 -0.51777610697E+00  0.90007698380E+02  0.89999959198E+02 0.  0.
        -12    1    1    2    0    0 -0.76614017533E-01  0.10578989130E+01  0.51777610697E+00  0.11803016202E+01  0.00000000000E+00 0.  1.
         11    1    3    3    0    0  0.76835713842E+01 -0.31110468346E+02  0.27528465458E+02  0.42245886435E+02  0.51100000000E-03 0. -1.
        -11    1    3    3    0    0  0.77747434117E+01  0.71512803624E+01 -0.44611563254E+01  0.11466881091E+02  0.51100000000E-03 0.  1.
        -12    1    3    3    0    0 -0.15381700778E+02  0.22901289071E+02 -0.23585085239E+02  0.36294930854E+02  0.00000000000E+00 0.  1.
</event>
<event>
 7    1  0.3757412E-015  0.9000772E+02  0.7816164E-02  0.1186339E+00
        -11   -1    0    0    0    0  0.00000000000E+00  0.00000000000E+00  0.45593999997E+02  0.45594000000E+02  0.51100000000E-03 0.  1.
         11   -1    0    0    0    0 -0.00000000000E+00 -0.00000000000E+00 -0.45593999997E+02  0.45594000000E+02  0.51100000000E-03 0. -1.
    9900012    2    1    2    0    0 -0.71019175087E+00  0.93042213327E+00 -0.15167044760E+00  0.90007719697E+02  0.89999980797E+02 0.  0.
        -12    1    1    2    0    0  0.71019175087E+00 -0.93042213327E+00  0.15167044760E+00  0.11802803030E+01  0.00000000000E+00 0.  1.
         11    1    3    3    0    0 -0.10122394857E+02 -0.33192601762E+02 -0.26900130346E+02  0.43907046158E+02  0.51100000000E-03 0. -1.
        -11    1    3    3    0    0 -0.21138533098E+01  0.80915420347E+01  0.25678844111E+01  0.87484546593E+01  0.51100000000E-03 0.  1.
        -12    1    3    3    0    0  0.11526056416E+02  0.26031481861E+02  0.24180575488E+02  0.37352218880E+02  0.00000000000E+00 0.  1.
</event>
<event>
 7    1  0.3757412E-015  0.9000779E+02  0.7816164E-02  0.1186339E+00
        -11   -1    0    0    0    0  0.00000000000E+00  0.00000000000E+00  0.45593999997E+02  0.45594000000E+02  0.51100000000E-03 0.  1.
         11   -1    0    0    0    0 -0.00000000000E+00 -0.00000000000E+00 -0.45593999997E+02  0.45594000000E+02  0.51100000000E-03 0. -1.
    9900012    2    1    2    0    0  0.47194496183E+00  0.23113582613E+00 -0.10567602985E+01  0.90007788940E+02  0.90000050954E+02 0.  0.
        -12    1    1    2    0    0 -0.47194496183E+00 -0.23113582613E+00  0.10567602985E+01  0.11802110598E+01  0.00000000000E+00 0.  1.
         11    1    3    3    0    0  0.30663902090E+01 -0.19606975165E+02 -0.35564310286E+02  0.40726605437E+02  0.51100000000E-03 0. -1.
        -11    1    3    3    0    0 -0.83316215864E+01  0.22177448711E+01 -0.15318258569E+01  0.87567574644E+01  0.51100000000E-03 0.  1.
        -12    1    3    3    0    0  0.57371763393E+01  0.17620366120E+02  0.36039375844E+02  0.40524426039E+02  0.00000000000E+00 0.  1.
</event>
<event>
 7    1  0.3757412E-015  0.9000773E+02  0.7816164E-02  0.1186339E+00
        -11   -1    0    0    0    0  0.00000000000E+00  0.00000000000E+00  0.45593999997E+02  0.45594000000E+02  0.51100000000E-03 0.  1.
         11   -1    0    0    0    0 -0.00000000000E+00 -0.00000000000E+00 -0.45593999997E+02  0.45594000000E+02  0.51100000000E-03 0. -1.
    9900012    2    1    2    0    0 -0.95577775122E+00  0.62051201345E+00 -0.30741307352E+00  0.90007725004E+02  0.89999986174E+02 0.  0.
        -12    1    1    2    0    0  0.95577775122E+00 -0.62051201345E+00  0.30741307352E+00  0.11802749961E+01  0.00000000000E+00 0.  1.
         11    1    3    3    0    0  0.19520758732E+01 -0.37175434533E+02 -0.14341118327E+02  0.39893498318E+02  0.51100000000E-03 0. -1.
        -11    1    3    3    0    0 -0.65065180754E+01 -0.11486788217E+01  0.82637658536E+01  0.10580362321E+02  0.51100000000E-03 0.  1.
        -12    1    3    3    0    0  0.35986644510E+01  0.38944625368E+02  0.57699394001E+01  0.39533864364E+02  0.00000000000E+00 0.  1.
</event>
<event>
 7    1  0.3757412E-015  0.9000767E+02  0.7816164E-02  0.1186339E+00
        -11   -1    0    0    0    0  0.00000000000E+00  0.00000000000E+00  0.45593999997E+02  0.45594000000E+02  0.51100000000E-03 0.  1.
         11   -1    0    0    0    0 -0.00000000000E+00 -0.00000000000E+00 -0.45593999997E+02  0.45594000000E+02  0.51100000000E-03 0. -1.
    9900012    2    1    2    0    0 -0.19994784617E+00  0.10140318978E+01 -0.57003015689E+00  0.90007671990E+02  0.89999932460E+02 0.  0.
        -12    1    1    2    0    0  0.19994784617E+00 -0.10140318978E+01  0.57003015689E+00  0.11803280098E+01  0.00000000000E+00 0.  1.
         11    1    3    3    0    0 -0.89921583768E+01 -0.27693666265E+02 -0.22178036420E+02  0.36601412038E+02  0.51100000000E-03 0. -1.
        -11    1    3    3    0    0  0.41893605000E+01 -0.19870623628E+01 -0.88052412839E+01  0.99514537913E+01  0.51100000000E-03 0.  1.
        -12    1    3    3    0    0  0.46028500306E+01  0.30694760526E+02  0.30413247547E+02  0.43454806161E+02  0.00000000000E+00 0.  1.
</event>
<event>
 7    1  0.3757412E-015  0.9000772E+02  0.7816164E-02  0.1186339E+00
        -11   -1    0    0    0    0  0.00000000000E+00  0.00000000000E+00  0.45593999997E+02  0.45594000000E+02  0.51100000000E-03 0.  1.
         11   -1    0    0    0    0 -0.00000000000E+00 -0.00000000000E+00 -0.45593999997E+02  0.45594000000E+02  0.51100000000E-03 0. -1.
    9900012    2    1    2    0    0  0.11719192724E+01 -0.12142639654E+00 -0.70153826877E-01  0.90007720071E+02  0.89999981176E+02 0.  0.
        -12    1    1    2    0    0 -0.11719192724E+01  0.12142639654E+00  0.70153826877E-01  0.11802799287E+01  0.00000000000E+00 0.  1.
         11    1    3    3    0    0  0.56285567717E+01 -0.59702971274E+01 -0.45116868677E+01  0.93637822366E+01  0.51100000000E-03 0. -1.
        -11    1    3    3    0    0 -0.19724621945E+01 -0.26098845090E+02 -0.25678326130E+02  0.36666289085E+02  0.51100000000E-03 0.  1.
         12    1    3    3    0    0 -0.24841753048E+01  0.31947715821E+02  0.30119859170E+02  0.43977648750E+02  0.00000000000E+00 0. -1.
</event>
<event>
 7    1  0.3757412E-015  0.9000720E+02  0.7816164E-02  0.1186340E+00
        -11   -1    0    0    0    0  0.00000000000E+00  0.00000000000E+00  0.45593999997E+02  0.45594000000E+02  0.51100000000E-03 0.  1.
         11   -1    0    0    0    0 -0.00000000000E+00 -0.00000000000E+00 -0.45593999997E+02  0.45594000000E+02  0.51100000000E-03 0. -1.
    9900012    2    1    2    0    0  0.27501196134E+00 -0.89122053695E+00 -0.72414439140E+00  0.90007199118E+02  0.89999453344E+02 0.  0.
        -12    1    1    2    0    0 -0.27501196134E+00  0.89122053695E+00  0.72414439140E+00  0.11808008824E+01  0.00000000000E+00 0.  1.
         11    1    3    3    0    0  0.72472264741E+01  0.57724446399E+01  0.20867016978E+00  0.92675213616E+01  0.51100000000E-03 0. -1.
        -11    1    3    3    0    0  0.61734325453E+01  0.98418868262E+01  0.36206446496E+02  0.38024738971E+02  0.51100000000E-03 0.  1.
         12    1    3    3    0    0 -0.13145647058E+02 -0.16505552003E+02 -0.37139261057E+02  0.42714938785E+02  0.00000000000E+00 0. -1.
</event>
<event>
 7    1  0.3757412E-015  0.9000769E+02  0.7816164E-02  0.1186339E+00
        -11   -1    0    0    0    0  0.00000000000E+00  0.00000000000E+00  0.45593999997E+02  0.45594000000E+02  0.51100000000E-03 0.  1.
         11   -1    0    0    0    0 -0.00000000000E+00 -0.00000000000E+00 -0.45593999997E+02  0.45594000000E+02  0.51100000000E-03 0. -1.
    9900012    2    1    2    0    0 -0.66045859770E+00 -0.96215839032E+00 -0.17660263081E+00  0.90007685289E+02  0.89999945935E+02 0.  0.
        -12    1    1    2    0    0  0.66045859770E+00  0.96215839032E+00  0.17660263081E+00  0.11803147108E+01  0.00000000000E+00 0.  1.
         11    1    3    3    0    0 -0.58498478450E+01  0.21069343769E+02  0.40133017791E+01  0.22231611685E+02  0.51100000000E-03 0. -1.
        -11    1    3    3    0    0 -0.37784517052E+01  0.22197769051E+02 -0.14553794374E+01  0.22564037265E+02  0.51100000000E-03 0.  1.
        -12    1    3    3    0    0  0.89678409525E+01 -0.44229271210E+02 -0.27345249725E+01  0.45212036340E+02  0.00000000000E+00 0.  1.
</event>
<event>
 7    1  0.3757412E-015  0.9000775E+02  0.7816164E-02  0.1186339E+00
        -11   -1    0    0    0    0  0.00000000000E+00  0.00000000000E+00  0.45593999997E+02  0.45594000000E+02  0.51100000000E-03 0.  1.
         11   -1    0    0    0    0 -0.00000000000E+00 -0.00000000000E+00 -0.45593999997E+02  0.45594000000E+02  0.51100000000E-03 0. -1.
    9900012    2    1    2    0    0  0.74275570336E+00  0.58389565313E+00 -0.70736361599E+00  0.90007752800E+02  0.90000014337E+02 0.  0.
        -12    1    1    2    0    0 -0.74275570336E+00 -0.58389565313E+00  0.70736361599E+00  0.11802472003E+01  0.00000000000E+00 0.  1.
         11    1    3    3    0    0 -0.55678189278E+01  0.23820041813E+02 -0.15154626348E+02  0.28775991722E+02  0.51100000000E-03 0. -1.
        -11    1    3    3    0    0 -0.22953479472E+02 -0.19730874103E+01  0.26841042836E+01  0.23193958478E+02  0.51100000000E-03 0.  1.
        -12    1    3    3    0    0  0.29264054103E+02 -0.21263058749E+02  0.11763158448E+02  0.38037802600E+02  0.00000000000E+00 0.  1.
</event>
<event>
 7    1  0.3757412E-015  0.9000786E+02  0.7816164E-02  0.1186339E+00
        -11   -1    0    0    0    0  0.00000000000E+00  0.00000000000E+00  0.45593999997E+02  0.45594000000E+02  0.51100000000E-03 0.  1.
         11   -1    0    0    0    0 -0.00000000000E+00 -0.00000000000E+00 -0.45593999997E+02  0.45594000000E+02  0.51100000000E-03 0. -1.
    9900012    2    1    2    0    0  0.75755883481E+00  0.83653393086E+00 -0.34504073118E+00  0.90007856995E+02  0.90000119907E+02 0.  0.
        -12    1    1    2    0    0 -0.75755883481E+00 -0.83653393086E+00  0.34504073118E+00  0.11801430048E+01  0.00000000000E+00 0.  1.
         11    1    3    3    0    0  0.10948160747E+02 -0.34791926584E+01 -0.39966743046E+01  0.12163075723E+02  0.51100000000E-03 0. -1.
        -11    1    3    3    0    0 -0.23284371990E+01 -0.18475147141E+02  0.34192835713E+02  0.38934595106E+02  0.51100000000E-03 0.  1.
         12    1    3    3    0    0 -0.78621647130E+01  0.22790873730E+02 -0.30541202140E+02  0.38910186166E+02  0.00000000000E+00 0. -1.
</event>
<event>
 7    1  0.3757412E-015  0.9000776E+02  0.7816164E-02  0.1186339E+00
        -11   -1    0    0    0    0  0.00000000000E+00  0.00000000000E+00  0.45593999997E+02  0.45594000000E+02  0.51100000000E-03 0. -1.
         11   -1    0    0    0    0 -0.00000000000E+00 -0.00000000000E+00 -0.45593999997E+02  0.45594000000E+02  0.51100000000E-03 0.  1.
    9900012    2    1    2    0    0  0.10865764989E+01 -0.45429672129E+00  0.77015477729E-01  0.90007760455E+02  0.90000022093E+02 0.  0.
        -12    1    1    2    0    0 -0.10865764989E+01  0.45429672129E+00 -0.77015477728E-01  0.11802395447E+01  0.00000000000E+00 0.  1.
         11    1    3    3    0    0 -0.14340431534E+02  0.20490775597E+02  0.31891915420E+02  0.40529176288E+02  0.51100000000E-03 0. -1.
        -11    1    3    3    0    0  0.45540861329E+01 -0.59628008483E+01  0.44776257329E+01  0.87374954608E+01  0.51100000000E-03 0.  1.
        -12    1    3    3    0    0  0.10872921900E+02 -0.14982271470E+02 -0.36292525676E+02  0.40741088706E+02  0.00000000000E+00 0.  1.
</event>
<event>
 7    1  0.3757412E-015  0.9000764E+02  0.7816164E-02  0.1186339E+00
        -11   -1    0    0    0    0  0.00000000000E+00  0.00000000000E+00  0.45593999997E+02  0.45594000000E+02  0.51100000000E-03 0.  1.
         11   -1    0    0    0    0 -0.00000000000E+00 -0.00000000000E+00 -0.45593999997E+02  0.45594000000E+02  0.51100000000E-03 0. -1.
    9900012    2    1    2    0    0  0.97587628127E+00  0.58139708087E+00 -0.32076061444E+00  0.90007642235E+02  0.89999902312E+02 0.  0.
        -12    1    1    2    0    0 -0.97587628127E+00 -0.58139708087E+00  0.32076061444E+00  0.11803577652E+01  0.00000000000E+00 0.  1.
         11    1    3    3    0    0  0.66082592952E+01 -0.29248938060E+01  0.85403854185E+01  0.11187594828E+02  0.51100000000E-03 0. -1.
        -11    1    3    3    0    0 -0.24731201437E+02  0.23933084182E+02  0.19028014945E+02  0.39325439553E+02  0.51100000000E-03 0.  1.
         12    1    3    3    0    0  0.19098818424E+02 -0.20426793295E+02 -0.27889160978E+02  0.39494607854E+02  0.00000000000E+00 0. -1.
</event>
<event>
 7    1  0.3757412E-015  0.9000743E+02  0.7816164E-02  0.1186340E+00
        -11   -1    0    0    0    0  0.00000000000E+00  0.00000000000E+00  0.45593999997E+02  0.45594000000E+02  0.51100000000E-03 0. -1.
         11   -1    0    0    0    0 -0.00000000000E+00 -0.00000000000E+00 -0.45593999997E+02  0.45594000000E+02  0.51100000000E-03 0.  1.
    9900012    2    1    2    0    0 -0.17164545588E+00 -0.11549290177E+01 -0.17440698220E+00  0.90007431919E+02  0.89999689220E+02 0.  0.
        -12    1    1    2    0    0  0.17164545588E+00  0.11549290177E+01  0.17440698220E+00  0.11805680810E+01  0.00000000000E+00 0.  1.
         11    1    3    3    0    0 -0.37634328443E+02 -0.67306579496E+01  0.30319494260E+01  0.38351494774E+02  0.51100000000E-03 0. -1.
        -11    1    3    3    0    0  0.99703010905E+00  0.11727332945E+02 -0.81928080639E+01  0.14340380444E+02  0.51100000000E-03 0.  1.
        -12    1    3    3    0    0  0.36465652878E+02 -0.61516040136E+01  0.49864516557E+01  0.37315556701E+02  0.00000000000E+00 0.  1.
</event>
<event>
 7    1  0.3757412E-015  0.9000777E+02  0.7816164E-02  0.1186339E+00
        -11   -1    0    0    0    0  0.00000000000E+00  0.00000000000E+00  0.45593999997E+02  0.45594000000E+02  0.51100000000E-03 0.  1.
         11   -1    0    0    0    0 -0.00000000000E+00 -0.00000000000E+00 -0.45593999997E+02  0.45594000000E+02  0.51100000000E-03 0. -1.
    9900012    2    1    2    0    0 -0.96051759788E+00  0.66740060674E+00  0.15785264365E+00  0.90007773292E+02  0.90000035099E+02 0.  0.
        -12    1    1    2    0    0  0.96051759788E+00 -0.66740060674E+00 -0.15785264365E+00  0.11802267082E+01  0.00000000000E+00 0.  1.
         11    1    3    3    0    0 -0.32837457122E+02  0.16279145643E+02 -0.15239037063E+02  0.39693039994E+02  0.51100000000E-03 0. -1.
        -11    1    3    3    0    0  0.49565898646E+01  0.25661277063E+01 -0.83736136138E+01  0.10063309580E+02  0.51100000000E-03 0.  1.
        -12    1    3    3    0    0  0.26920349659E+02 -0.18177872742E+02  0.23770503320E+02  0.40251423718E+02  0.00000000000E+00 0.  1.
</event>
<event>
 7    1  0.3757412E-015  0.9000779E+02  0.7816164E-02  0.1186339E+00
        -11   -1    0    0    0    0  0.00000000000E+00  0.00000000000E+00  0.45593999997E+02  0.45594000000E+02  0.51100000000E-03 0.  1.
         11   -1    0    0    0    0 -0.00000000000E+00 -0.00000000000E+00 -0.45593999997E+02  0.45594000000E+02  0.51100000000E-03 0. -1.
    9900012    2    1    2    0    0 -0.49675576838E+00  0.42072520251E-01 -0.10697500465E+01  0.90007787497E+02  0.90000049492E+02 0.  0.
        -12    1    1    2    0    0  0.49675576838E+00 -0.42072520251E-01  0.10697500465E+01  0.11802125031E+01  0.00000000000E+00 0.  1.
         11    1    3    3    0    0  0.31165376200E+02  0.40073267412E+01 -0.21461226690E+02  0.38051591196E+02  0.51100000000E-03 0. -1.
        -11    1    3    3    0    0  0.94555714305E+00 -0.10748757859E+02 -0.30677111061E+01  0.11217875267E+02  0.51100000000E-03 0.  1.
        -12    1    3    3    0    0 -0.32607689111E+02  0.67835036377E+01  0.23459187750E+02  0.40738321034E+02  0.00000000000E+00 0.  1.
</event>
<event>
 7    1  0.3757412E-015  0.9000776E+02  0.7816164E-02  0.1186339E+00
        -11   -1    0    0    0    0  0.00000000000E+00  0.00000000000E+00  0.45593999997E+02  0.45594000000E+02  0.51100000000E-03 0.  1.
         11   -1    0    0    0    0 -0.00000000000E+00 -0.00000000000E+00 -0.45593999997E+02  0.45594000000E+02  0.51100000000E-03 0. -1.
    9900012    2    1    2    0    0  0.60895176829E-01  0.35718329219E+00 -0.11232442499E+01  0.90007760291E+02  0.90000021926E+02 0.  0.
        -12    1    1    2    0    0 -0.60895176829E-01 -0.35718329219E+00  0.11232442499E+01  0.11802397095E+01  0.00000000000E+00 0.  1.
         11    1    3    3    0    0 -0.23852048576E+01 -0.93390066331E+01  0.94369417414E+00  0.96848751185E+01  0.51100000000E-03 0. -1.
        -11    1    3    3    0    0 -0.23046108150E+02  0.19672711861E+01 -0.32492319358E+02  0.39884133115E+02  0.51100000000E-03 0.  1.
         12    1    3    3    0    0  0.25492208184E+02  0.77289187392E+01  0.30425380934E+02  0.40438752057E+02  0.00000000000E+00 0. -1.
</event>
<event>
 7    1  0.3757412E-015  0.9000774E+02  0.7816164E-02  0.1186339E+00
        -11   -1    0    0    0    0  0.00000000000E+00  0.00000000000E+00  0.45593999997E+02  0.45594000000E+02  0.51100000000E-03 0.  1.
         11   -1    0    0    0    0 -0.00000000000E+00 -0.00000000000E+00 -0.45593999997E+02  0.45594000000E+02  0.51100000000E-03 0. -1.
    9900012    2    1    2    0    0 -0.85609025383E+00  0.58172676700E+00 -0.56720183792E+00  0.90007739656E+02  0.90000001020E+02 0.  0.
        -12    1    1    2    0    0  0.85609025383E+00 -0.58172676700E+00  0.56720183792E+00  0.11802603438E+01  0.00000000000E+00 0.  1.
         11    1    3    3    0    0  0.58075003912E+01 -0.52150934724E+01  0.30647175820E+01  0.83855086214E+01  0.51100000000E-03 0. -1.
        -11    1    3    3    0    0  0.24835968159E+02 -0.96447461939E+01  0.24851483204E+02  0.36434086530E+02  0.51100000000E-03 0.  1.
         12    1    3    3    0    0 -0.31499558804E+02  0.15441566433E+02 -0.28483402624E+02  0.45188144505E+02  0.00000000000E+00 0. -1.
</event>
<event>
 7    1  0.3757412E-015  0.9000818E+02  0.7816164E-02  0.1186338E+00
        -11   -1    0    0    0    0  0.00000000000E+00  0.00000000000E+00  0.45593999997E+02  0.45594000000E+02  0.51100000000E-03 0.  1.
         11   -1    0    0    0    0 -0.00000000000E+00 -0.00000000000E+00 -0.45593999997E+02  0.45594000000E+02  0.51100000000E-03 0. -1.
    9900012    2    1    2    0    0 -0.51517028015E+00 -0.10591947925E+01 -0.68387300241E-01  0.90008181858E+02  0.90000449057E+02 0.  0.
        -12    1    1    2    0    0  0.51517028015E+00  0.10591947925E+01  0.68387300241E-01  0.11798181423E+01  0.00000000000E+00 0.  1.
         11    1    3    3    0    0  0.18719329074E+02  0.15063781764E+02 -0.30047525534E+02  0.38473167181E+02  0.51100000000E-03 0. -1.
        -11    1    3    3    0    0  0.30037417249E+01 -0.75819621510E+01 -0.47372823459E+01  0.94313550827E+01  0.51100000000E-03 0.  1.
        -12    1    3    3    0    0 -0.22238241079E+02 -0.85410144051E+01  0.34716420579E+02  0.42103659594E+02  0.00000000000E+00 0.  1.
</event>
<event>
 7    1  0.3757412E-015  0.9000768E+02  0.7816164E-02  0.1186339E+00
        -11   -1    0    0    0    0  0.00000000000E+00  0.00000000000E+00  0.45593999997E+02  0.45594000000E+02  0.51100000000E-03 0. -1.
         11   -1    0    0    0    0 -0.00000000000E+00 -0.00000000000E+00 -0.45593999997E+02  0.45594000000E+02  0.51100000000E-03 0.  1.
    9900012    2    1    2    0    0 -0.77565864499E+00  0.38728733384E+00  0.80094765930E+00  0.90007680143E+02  0.89999940721E+02 0.  0.
        -12    1    1    2    0    0  0.77565864499E+00 -0.38728733384E+00 -0.80094765930E+00  0.11803198573E+01  0.00000000000E+00 0.  1.
         11    1    3    3    0    0  0.74483919863E+01 -0.31736078691E+02 -0.14530938071E+02  0.35690410412E+02  0.51100000000E-03 0. -1.
        -11    1    3    3    0    0  0.25521929845E+01 -0.58884782258E+01 -0.65354375612E+01  0.91596839041E+01  0.51100000000E-03 0.  1.
        -12    1    3    3    0    0 -0.10776243616E+02  0.38011844251E+02  0.21867323292E+02  0.45157585827E+02  0.00000000000E+00 0.  1.
</event>
<event>
 7    1  0.3757412E-015  0.9000778E+02  0.7816164E-02  0.1186339E+00
        -11   -1    0    0    0    0  0.00000000000E+00  0.00000000000E+00  0.45593999997E+02  0.45594000000E+02  0.51100000000E-03 0.  1.
         11   -1    0    0    0    0 -0.00000000000E+00 -0.00000000000E+00 -0.45593999997E+02  0.45594000000E+02  0.51100000000E-03 0. -1.
    9900012    2    1    2    0    0 -0.97328073950E+00 -0.51628168393E+00 -0.42319708087E+00  0.90007780552E+02  0.90000042456E+02 0.  0.
        -12    1    1    2    0    0  0.97328073950E+00  0.51628168393E+00  0.42319708087E+00  0.11802194475E+01  0.00000000000E+00 0.  1.
         11    1    3    3    0    0 -0.35173877884E+02 -0.38429121379E+01 -0.25782397051E+02  0.43780151405E+02  0.51100000000E-03 0. -1.
        -11    1    3    3    0    0  0.63377915373E+01  0.12183041778E+01  0.15169334495E+02  0.16485162296E+02  0.51100000000E-03 0.  1.
        -12    1    3    3    0    0  0.27862805607E+02  0.21083262762E+01  0.10189865475E+02  0.29742466851E+02  0.00000000000E+00 0.  1.
</event>
<event>
 7    1  0.3757412E-015  0.9000781E+02  0.7816164E-02  0.1186339E+00
        -11   -1    0    0    0    0  0.00000000000E+00  0.00000000000E+00  0.45593999997E+02  0.45594000000E+02  0.51100000000E-03 0.  1.
         11   -1    0    0    0    0 -0.00000000000E+00 -0.00000000000E+00 -0.45593999997E+02  0.45594000000E+02  0.51100000000E-03 0. -1.
    9900012    2    1    2    0    0 -0.12290460015E+00  0.89966249094E+00  0.75389086510E+00  0.90007809518E+02  0.90000071803E+02 0.  0.
        -12    1    1    2    0    0  0.12290460015E+00 -0.89966249094E+00 -0.75389086510E+00  0.11801904824E+01  0.00000000000E+00 0.  1.
         11    1    3    3    0    0  0.62731291436E+01  0.74975076872E+01  0.21459042084E+01  0.10008480200E+02  0.51100000000E-03 0. -1.
        -11    1    3    3    0    0  0.10024819377E+02  0.13709829914E+02  0.32822622377E+02  0.36956474126E+02  0.51100000000E-03 0.  1.
         12    1    3    3    0    0 -0.16420853121E+02 -0.20307675110E+02 -0.34214635721E+02  0.43042855192E+02  0.00000000000E+00 0. -1.
</event>
<event>
 7    1  0.3757412E-015  0.9000768E+02  0.7816164E-02  0.1186339E+00
        -11   -1    0    0    0    0  0.00000000000E+00  0.00000000000E+00  0.45593999997E+02  0.45594000000E+02  0.51100000000E-03 0. -1.
         11   -1    0    0    0    0 -0.00000000000E+00 -0.00000000000E+00 -0.45593999997E+02  0.45594000000E+02  0.51100000000E-03 0.  1.
    9900012    2    1    2    0    0 -0.94702390139E+00  0.40887064563E+00  0.57368518926E+00  0.90007684715E+02  0.89999945354E+02 0.  0.
        -12    1    1    2    0    0  0.94702390139E+00 -0.40887064563E+00 -0.57368518926E+00  0.11803152846E+01  0.00000000000E+00 0.  1.
         11    1    3    3    0    0 -0.79235901628E+01  0.32752062816E+02 -0.10390788083E+00  0.33697057688E+02  0.51100000000E-03 0. -1.
        -11    1    3    3    0    0  0.77811889547E+01  0.95035816211E+01  0.67542382220E+01  0.14017300004E+02  0.51100000000E-03 0.  1.
        -12    1    3    3    0    0 -0.80462269325E+00 -0.41846773791E+02 -0.60766451519E+01  0.42293327023E+02  0.00000000000E+00 0.  1.
</event>
<event>
 7    1  0.3757412E-015  0.9000765E+02  0.7816164E-02  0.1186339E+00
        -11   -1    0    0    0    0  0.00000000000E+00  0.00000000000E+00  0.45593999997E+02  0.45594000000E+02  0.51100000000E-03 0. -1.
         11   -1    0    0    0    0 -0.00000000000E+00 -0.00000000000E+00 -0.45593999997E+02  0.45594000000E+02  0.51100000000E-03 0.  1.
    9900012    2    1    2    0    0 -0.69065464245E+00  0.22094191698E-01  0.95693519081E+00  0.90007653886E+02  0.89999914118E+02 0.  0.
        -12    1    1    2    0    0  0.69065464245E+00 -0.22094191698E-01 -0.95693519081E+00  0.11803461136E+01  0.00000000000E+00 0.  1.
         11    1    3    3    0    0 -0.24317384497E+01 -0.80147488251E+00 -0.91886569124E+01  0.95387174186E+01  0.51100000000E-03 0. -1.
        -11    1    3    3    0    0  0.35419537754E+02 -0.47752958200E+01 -0.14283375461E+02  0.38488464762E+02  0.51100000000E-03 0.  1.
         12    1    3    3    0    0 -0.33678453947E+02  0.55988648942E+01  0.24428967565E+02  0.41980471706E+02  0.00000000000E+00 0. -1.
</event>
<event>
 7    1  0.3757412E-015  0.9000872E+02  0.7816164E-02  0.1186337E+00
        -11   -1    0    0    0    0  0.00000000000E+00  0.00000000000E+00  0.45593999997E+02  0.45594000000E+02  0.51100000000E-03 0.  1.
         11   -1    0    0    0    0 -0.00000000000E+00 -0.00000000000E+00 -0.45593999997E+02  0.45594000000E+02  0.51100000000E-03 0. -1.
    9900012    2    1    2    0    0 -0.70733457927E+00  0.93651848125E+00 -0.11533446512E+00  0.90008724328E+02  0.90000998683E+02 0.  0.
        -12    1    1    2    0    0  0.70733457927E+00 -0.93651848125E+00  0.11533446512E+00  0.11792756724E+01  0.00000000000E+00 0.  1.
         11    1    3    3    0    0  0.33714804353E+02  0.14100032199E+02  0.13960095460E+02  0.39120112552E+02  0.51100000000E-03 0. -1.
        -11    1    3    3    0    0 -0.80049785617E-01  0.52899672545E+01 -0.10476812109E+02  0.11736854508E+02  0.51100000000E-03 0.  1.
        -12    1    3    3    0    0 -0.34342089147E+02 -0.18453480972E+02 -0.35986178159E+01  0.39151757267E+02  0.00000000000E+00 0.  1.
</event>
<event>
 7    1  0.3757412E-015  0.9000768E+02  0.7816164E-02  0.1186339E+00
        -11   -1    0    0    0    0  0.00000000000E+00  0.00000000000E+00  0.45593999997E+02  0.45594000000E+02  0.51100000000E-03 0.  1.
         11   -1    0    0    0    0 -0.00000000000E+00 -0.00000000000E+00 -0.45593999997E+02  0.45594000000E+02  0.51100000000E-03 0. -1.
    9900012    2    1    2    0    0 -0.11375203848E+00  0.23078603475E+00  0.11519324254E+01  0.90007682232E+02  0.89999942838E+02 0.  0.
        -12    1    1    2    0    0  0.11375203848E+00 -0.23078603475E+00 -0.11519324254E+01  0.11803177677E+01  0.00000000000E+00 0.  1.
         11    1    3    3    0    0 -0.89039703261E+01 -0.96550134045E+00 -0.35492194534E+01  0.96337863478E+01  0.51100000000E-03 0. -1.
        -11    1    3    3    0    0  0.31156548866E+02 -0.42297322355E+01 -0.26832051451E+02  0.41334974990E+02  0.51100000000E-03 0.  1.
         12    1    3    3    0    0 -0.22366330579E+02  0.54260196107E+01  0.31533203330E+02  0.39038920895E+02  0.00000000000E+00 0. -1.
</event>
<event>
 7    1  0.3757412E-015  0.9000782E+02  0.7816164E-02  0.1186339E+00
        -11   -1    0    0    0    0  0.00000000000E+00  0.00000000000E+00  0.45593999997E+02  0.45594000000E+02  0.51100000000E-03 0. -1.
         11   -1    0    0    0    0 -0.00000000000E+00 -0.00000000000E+00 -0.45593999997E+02  0.45594000000E+02  0.51100000000E-03 0.  1.
    9900012    2    1    2    0    0  0.15809783099E+00  0.11387448741E+01  0.26661557641E+00  0.90007822607E+02  0.90000085066E+02 0.  0.
        -12    1    1    2    0    0 -0.15809783099E+00 -0.11387448741E+01 -0.26661557641E+00  0.11801773926E+01  0.00000000000E+00 0.  1.
         11    1    3    3    0    0 -0.41005268590E+01  0.66327880134E+01  0.61007561705E+01  0.99008799339E+01  0.51100000000E-03 0. -1.
        -11    1    3    3    0    0  0.24539472793E+02  0.19726174029E+02 -0.26966931920E+02  0.41455073081E+02  0.51100000000E-03 0.  1.
         12    1    3    3    0    0 -0.20280848103E+02 -0.25220217168E+02  0.21132791325E+02  0.38651869592E+02  0.00000000000E+00 0. -1.
</event>
<event>
 7    1  0.3757412E-015  0.9000768E+02  0.7816164E-02  0.1186339E+00
        -11   -1    0    0    0    0  0.00000000000E+00  0.00000000000E+00  0.45593999997E+02  0.45594000000E+02  0.51100000000E-03 0.  1.
         11   -1    0    0    0    0 -0.00000000000E+00 -0.00000000000E+00 -0.45593999997E+02  0.45594000000E+02  0.51100000000E-03 0. -1.
    9900012    2    1    2    0    0  0.88054596219E+00  0.24708161923E+00 -0.74615361886E+00  0.90007679814E+02  0.89999940388E+02 0.  0.
        -12    1    1    2    0    0 -0.88054596219E+00 -0.24708161923E+00  0.74615361886E+00  0.11803201858E+01  0.00000000000E+00 0.  1.
         11    1    3    3    0    0 -0.18730192387E+02 -0.12012182194E+02 -0.38306648925E+02  0.44300248081E+02  0.51100000000E-03 0. -1.
        -11    1    3    3    0    0  0.40440596495E+01 -0.23668266924E+01  0.68002700987E+01  0.82583267504E+01  0.51100000000E-03 0.  1.
        -12    1    3    3    0    0  0.15566678699E+02  0.14626090506E+02  0.30760225207E+02  0.37449104983E+02  0.00000000000E+00 0.  1.
</event>
<event>
 7    1  0.3757412E-015  0.9000773E+02  0.7816164E-02  0.1186339E+00
        -11   -1    0    0    0    0  0.00000000000E+00  0.00000000000E+00  0.45593999997E+02  0.45594000000E+02  0.51100000000E-03 0.  1.
         11   -1    0    0    0    0 -0.00000000000E+00 -0.00000000000E+00 -0.45593999997E+02  0.45594000000E+02  0.51100000000E-03 0. -1.
    9900012    2    1    2    0    0 -0.36797169540E+00  0.97498280462E+00 -0.55411620194E+00  0.90007729098E+02  0.89999990322E+02 0.  0.
        -12    1    1    2    0    0  0.36797169540E+00 -0.97498280462E+00  0.55411620194E+00  0.11802709025E+01  0.00000000000E+00 0.  1.
         11    1    3    3    0    0 -0.20711367307E+02  0.97865574851E+01 -0.29544993551E+02  0.37385078405E+02  0.51100000000E-03 0. -1.
        -11    1    3    3    0    0  0.43831315481E+00 -0.11974315234E+02 -0.50976432640E+01  0.13021609380E+02  0.51100000000E-03 0.  1.
        -12    1    3    3    0    0  0.19905082457E+02  0.31627405532E+01  0.34088520613E+02  0.39601041312E+02  0.00000000000E+00 0.  1.
</event>
<event>
 7    1  0.3757412E-015  0.9000773E+02  0.7816164E-02  0.1186339E+00
        -11   -1    0    0    0    0  0.00000000000E+00  0.00000000000E+00  0.45593999997E+02  0.45594000000E+02  0.51100000000E-03 0.  1.
         11   -1    0    0    0    0 -0.00000000000E+00 -0.00000000000E+00 -0.45593999997E+02  0.45594000000E+02  0.51100000000E-03 0. -1.
    9900012    2    1    2    0    0 -0.97000143591E+00  0.66887859876E+00 -0.68767716565E-01  0.90007732927E+02  0.89999994201E+02 0.  0.
        -12    1    1    2    0    0  0.97000143591E+00 -0.66887859876E+00  0.68767716565E-01  0.11802670733E+01  0.00000000000E+00 0.  1.
         11    1    3    3    0    0  0.10956500729E+02 -0.32420324777E+02 -0.64602125020E+01  0.34826092412E+02  0.51100000000E-03 0. -1.
        -11    1    3    3    0    0  0.57799669424E+01 -0.32227058817E+01 -0.96611097730E+01  0.11710290063E+02  0.51100000000E-03 0.  1.
        -12    1    3    3    0    0 -0.17706469107E+02  0.36311909258E+02  0.16052554558E+02  0.43471350451E+02  0.00000000000E+00 0.  1.
</event>
<event>
 7    1  0.3757412E-015  0.9000772E+02  0.7816164E-02  0.1186339E+00
        -11   -1    0    0    0    0  0.00000000000E+00  0.00000000000E+00  0.45593999997E+02  0.45594000000E+02  0.51100000000E-03 0.  1.
         11   -1    0    0    0    0 -0.00000000000E+00 -0.00000000000E+00 -0.45593999997E+02  0.45594000000E+02  0.51100000000E-03 0. -1.
    9900012    2    1    2    0    0  0.96602080678E+00  0.64422938099E+00  0.21173163816E+00  0.90007721227E+02  0.89999982348E+02 0.  0.
        -12    1    1    2    0    0 -0.96602080678E+00 -0.64422938099E+00 -0.21173163816E+00  0.11802787726E+01  0.00000000000E+00 0.  1.
         11    1    3    3    0    0  0.84896341638E+01 -0.77177028829E+00  0.84215201897E+01  0.11982967920E+02  0.51100000000E-03 0. -1.
        -11    1    3    3    0    0 -0.40482753458E+01  0.15214494687E+02  0.31841346750E+02  0.35520990203E+02  0.51100000000E-03 0.  1.
         12    1    3    3    0    0 -0.34753380112E+01 -0.13798495018E+02 -0.40051135302E+02  0.42503763104E+02  0.00000000000E+00 0. -1.
</event>
<event>
 7    1  0.3757412E-015  0.9000778E+02  0.7816164E-02  0.1186339E+00
        -11   -1    0    0    0    0  0.00000000000E+00  0.00000000000E+00  0.45593999997E+02  0.45594000000E+02  0.51100000000E-03 0. -1.
         11   -1    0    0    0    0 -0.00000000000E+00 -0.00000000000E+00 -0.45593999997E+02  0.45594000000E+02  0.51100000000E-03 0.  1.
    9900012    2    1    2    0    0  0.28766699357E+00  0.38857472649E-01  0.11439612133E+01  0.90007784147E+02  0.90000046098E+02 0.  0.
        -12    1    1    2    0    0 -0.28766699357E+00 -0.38857472649E-01 -0.11439612133E+01  0.11802158531E+01  0.00000000000E+00 0.  1.
         11    1    3    3    0    0 -0.34456516566E+01  0.19127615963E+00  0.12424111656E+02  0.12894481479E+02  0.51100000000E-03 0. -1.
        -11    1    3    3    0    0  0.93756429706E+01  0.23687258207E+02 -0.34816172616E+02  0.43141102888E+02  0.51100000000E-03 0.  1.
         12    1    3    3    0    0 -0.56423243205E+01 -0.23839676894E+02  0.23536022173E+02  0.33972199780E+02  0.00000000000E+00 0. -1.
</event>
<event>
 7    1  0.3757412E-015  0.9000785E+02  0.7816164E-02  0.1186339E+00
        -11   -1    0    0    0    0  0.00000000000E+00  0.00000000000E+00  0.45593999997E+02  0.45594000000E+02  0.51100000000E-03 0.  1.
         11   -1    0    0    0    0 -0.00000000000E+00 -0.00000000000E+00 -0.45593999997E+02  0.45594000000E+02  0.51100000000E-03 0. -1.
    9900012    2    1    2    0    0  0.25160283937E+00 -0.65398600976E+00 -0.94960714718E+00  0.90007849406E+02  0.90000112218E+02 0.  0.
        -12    1    1    2    0    0 -0.25160283937E+00  0.65398600976E+00  0.94960714718E+00  0.11801505937E+01  0.00000000000E+00 0.  1.
         11    1    3    3    0    0 -0.11589345755E+02 -0.11765874128E+02 -0.34305272978E+02  0.38073619258E+02  0.51100000000E-03 0. -1.
        -11    1    3    3    0    0 -0.89689275637E+01 -0.43506639491E+01  0.36435115127E+00  0.99751035315E+01  0.51100000000E-03 0.  1.
        -12    1    3    3    0    0  0.20809876158E+02  0.15462552067E+02  0.32991314680E+02  0.41959126617E+02  0.00000000000E+00 0.  1.
</event>
<event>
 7    1  0.3757412E-015  0.9000775E+02  0.7816164E-02  0.1186339E+00
        -11   -1    0    0    0    0  0.00000000000E+00  0.00000000000E+00  0.45593999997E+02  0.45594000000E+02  0.51100000000E-03 0. -1.
         11   -1    0    0    0    0 -0.00000000000E+00 -0.00000000000E+00 -0.45593999997E+02  0.45594000000E+02  0.51100000000E-03 0.  1.
    9900012    2    1    2    0    0  0.94915558062E-01  0.10668992561E+01  0.49569978916E+00  0.90007745253E+02  0.90000006691E+02 0.  0.
        -12    1    1    2    0    0 -0.94915558062E-01 -0.10668992561E+01 -0.49569978916E+00  0.11802547466E+01  0.00000000000E+00 0.  1.
         11    1    3    3    0    0 -0.88107550687E+01 -0.93990291848E+00 -0.16062445232E+01  0.90051565287E+01  0.51100000000E-03 0. -1.
        -11    1    3    3    0    0 -0.33667464274E+02  0.14378951433E+02  0.20737986628E+01  0.36668147432E+02  0.51100000000E-03 0.  1.
         12    1    3    3    0    0  0.42573134901E+02 -0.12372149258E+02  0.28145649547E-01  0.44334441293E+02  0.00000000000E+00 0. -1.
</event>
<event>
 7    1  0.3757412E-015  0.9000774E+02  0.7816164E-02  0.1186339E+00
        -11   -1    0    0    0    0  0.00000000000E+00  0.00000000000E+00  0.45593999997E+02  0.45594000000E+02  0.51100000000E-03 0.  1.
         11   -1    0    0    0    0 -0.00000000000E+00 -0.00000000000E+00 -0.45593999997E+02  0.45594000000E+02  0.51100000000E-03 0. -1.
    9900012    2    1    2    0    0 -0.66461163080E+00 -0.97457442229E+00 -0.38962796597E-01  0.90007736460E+02  0.89999997781E+02 0.  0.
        -12    1    1    2    0    0  0.66461163080E+00  0.97457442229E+00  0.38962796597E-01  0.11802635400E+01  0.00000000000E+00 0.  1.
         11    1    3    3    0    0 -0.28885722365E+02  0.23447685661E+02 -0.10603643871E+02  0.38686123908E+02  0.51100000000E-03 0. -1.
        -11    1    3    3    0    0 -0.77418074472E+01 -0.61030311342E+01  0.23439037998E+01  0.10132939201E+02  0.51100000000E-03 0.  1.
        -12    1    3    3    0    0  0.35962918181E+02 -0.18319228950E+02  0.82207772750E+01  0.41188673351E+02  0.00000000000E+00 0.  1.
</event>
<event>
 7    1  0.3757412E-015  0.9000770E+02  0.7816164E-02  0.1186339E+00
        -11   -1    0    0    0    0  0.00000000000E+00  0.00000000000E+00  0.45593999997E+02  0.45594000000E+02  0.51100000000E-03 0.  1.
         11   -1    0    0    0    0 -0.00000000000E+00 -0.00000000000E+00 -0.45593999997E+02  0.45594000000E+02  0.51100000000E-03 0. -1.
    9900012    2    1    2    0    0 -0.89730353899E+00  0.74590269850E+00  0.17771843717E+00  0.90007699903E+02  0.89999960741E+02 0.  0.
        -12    1    1    2    0    0  0.89730353899E+00 -0.74590269850E+00 -0.17771843717E+00  0.11803000973E+01  0.00000000000E+00 0.  1.
         11    1    3    3    0    0 -0.76727922690E+01  0.15885609146E+02 -0.30497131750E+02  0.35232078627E+02  0.51100000000E-03 0. -1.
        -11    1    3    3    0    0 -0.26483752648E+01  0.39948128450E+01 -0.87352857147E+01  0.99638164369E+01  0.51100000000E-03 0.  1.
        -12    1    3    3    0    0  0.94238639948E+01 -0.19134519293E+02  0.39410135901E+02  0.44811804839E+02  0.00000000000E+00 0.  1.
</event>
<event>
 7    1  0.3757412E-015  0.9000778E+02  0.7816164E-02  0.1186339E+00
        -11   -1    0    0    0    0  0.00000000000E+00  0.00000000000E+00  0.45593999997E+02  0.45594000000E+02  0.51100000000E-03 0. -1.
         11   -1    0    0    0    0 -0.00000000000E+00 -0.00000000000E+00 -0.45593999997E+02  0.45594000000E+02  0.51100000000E-03 0.  1.
    9900012    2    1    2    0    0 -0.11716674279E+01  0.91522441276E-02  0.14155714729E+00  0.90007776822E+02  0.90000038676E+02 0.  0.
        -12    1    1    2    0    0  0.11716674279E+01 -0.91522441276E-02 -0.14155714729E+00  0.11802231785E+01  0.00000000000E+00 0.  1.
         11    1    3    3    0    0 -0.44434728139E+01  0.73199776667E+00 -0.96521322275E+01  0.10651005970E+02  0.51100000000E-03 0. -1.
        -11    1    3    3    0    0 -0.17368830608E+02  0.13033688730E+02 -0.27207257425E+02  0.34810747988E+02  0.51100000000E-03 0.  1.
         12    1    3    3    0    0  0.20640635995E+02 -0.13756534253E+02  0.37000946799E+02  0.44546022864E+02  0.00000000000E+00 0. -1.
</event>
<event>
 7    1  0.3757412E-015  0.9000774E+02  0.7816164E-02  0.1186339E+00
        -11   -1    0    0    0    0  0.00000000000E+00  0.00000000000E+00  0.45593999997E+02  0.45594000000E+02  0.51100000000E-03 0. -1.
         11   -1    0    0    0    0 -0.00000000000E+00 -0.00000000000E+00 -0.45593999997E+02  0.45594000000E+02  0.51100000000E-03 0.  1.
    9900012    2    1    2    0    0  0.96517663744E+00  0.66976944863E+00  0.11333746806E+00  0.90007744758E+02  0.90000006188E+02 0.  0.
        -12    1    1    2    0    0 -0.96517663744E+00 -0.66976944863E+00 -0.11333746806E+00  0.11802552425E+01  0.00000000000E+00 0.  1.
         11    1    3    3    0    0 -0.86645599120E+01 -0.14235197750E-01  0.57269194837E+01  0.10386164265E+02  0.51100000000E-03 0. -1.
        -11    1    3    3    0    0 -0.21897477989E+02 -0.60807230220E+01 -0.31101434810E+02  0.38519786893E+02  0.51100000000E-03 0.  1.
         12    1    3    3    0    0  0.31527214539E+02  0.67647276684E+01  0.25487852795E+02  0.41101793599E+02  0.00000000000E+00 0. -1.
</event>
<event>
 7    1  0.3757412E-015  0.9000781E+02  0.7816164E-02  0.1186339E+00
        -11   -1    0    0    0    0  0.00000000000E+00  0.00000000000E+00  0.45593999997E+02  0.45594000000E+02  0.51100000000E-03 0.  1.
         11   -1    0    0    0    0 -0.00000000000E+00 -0.00000000000E+00 -0.45593999997E+02  0.45594000000E+02  0.51100000000E-03 0. -1.
    9900012    2    1    2    0    0  0.18757673764E+00  0.27494512469E+00 -0.11322831221E+01  0.90007811489E+02  0.90000073800E+02 0.  0.
        -12    1    1    2    0    0 -0.18757673764E+00 -0.27494512469E+00  0.11322831221E+01  0.11801885115E+01  0.00000000000E+00 0.  1.
         11    1    3    3    0    0  0.69466346635E+01  0.26734636956E+02 -0.21528312734E+02  0.35020919402E+02  0.51100000000E-03 0. -1.
        -11    1    3    3    0    0  0.64164843240E+01 -0.14853303881E+01 -0.10962547196E+02  0.12788859165E+02  0.51100000000E-03 0.  1.
        -12    1    3    3    0    0 -0.13175542250E+02 -0.24974361443E+02  0.31358576808E+02  0.42198032922E+02  0.00000000000E+00 0.  1.
</event>
<event>
 7    1  0.3757412E-015  0.9000766E+02  0.7816164E-02  0.1186339E+00
        -11   -1    0    0    0    0  0.00000000000E+00  0.00000000000E+00  0.45593999997E+02  0.45594000000E+02  0.51100000000E-03 0. -1.
         11   -1    0    0    0    0 -0.00000000000E+00 -0.00000000000E+00 -0.45593999997E+02  0.45594000000E+02  0.51100000000E-03 0.  1.
    9900012    2    1    2    0    0 -0.93772433695E-01  0.98036666804E+00  0.65060734979E+00  0.90007660220E+02  0.89999920535E+02 0.  0.
        -12    1    1    2    0    0  0.93772433695E-01 -0.98036666804E+00 -0.65060734979E+00  0.11803397802E+01  0.00000000000E+00 0.  1.
         11    1    3    3    0    0 -0.22778020650E+02  0.73498046602E+01  0.21966761597E+02  0.32486866094E+02  0.51100000000E-03 0. -1.
        -11    1    3    3    0    0 -0.44321982731E+00 -0.15793900741E+02  0.90465916470E+01  0.18206717583E+02  0.51100000000E-03 0.  1.
        -12    1    3    3    0    0  0.23127468044E+02  0.94244627491E+01 -0.30362745894E+02  0.39314076543E+02  0.00000000000E+00 0.  1.
</event>
<event>
 7    1  0.3757412E-015  0.9000719E+02  0.7816164E-02  0.1186340E+00
        -11   -1    0    0    0    0  0.00000000000E+00  0.00000000000E+00  0.45593999997E+02  0.45594000000E+02  0.51100000000E-03 0. -1.
         11   -1    0    0    0    0 -0.00000000000E+00 -0.00000000000E+00 -0.45593999997E+02  0.45594000000E+02  0.51100000000E-03 0.  1.
    9900012    2    1    2    0    0  0.33234035753E+00  0.99686745461E+00 -0.53862977032E+00  0.90007188049E+02  0.89999442129E+02 0.  0.
        -12    1    1    2    0    0 -0.33234035753E+00 -0.99686745461E+00  0.53862977032E+00  0.11808119515E+01  0.00000000000E+00 0.  1.
         11    1    3    3    0    0 -0.10326593396E+02  0.22397357818E+02 -0.14879066093E+02  0.28803936822E+02  0.51100000000E-03 0. -1.
        -11    1    3    3    0    0  0.37541662920E+00  0.14312206940E+02 -0.93785456406E+01  0.17115411877E+02  0.51100000000E-03 0.  1.
        -12    1    3    3    0    0  0.10283517125E+02 -0.35712697303E+02  0.23718981963E+02  0.44087839349E+02  0.00000000000E+00 0.  1.
</event>
<event>
 7    1  0.3757412E-015  0.9000769E+02  0.7816164E-02  0.1186339E+00
        -11   -1    0    0    0    0  0.00000000000E+00  0.00000000000E+00  0.45593999997E+02  0.45594000000E+02  0.51100000000E-03 0. -1.
         11   -1    0    0    0    0 -0.00000000000E+00 -0.00000000000E+00 -0.45593999997E+02  0.45594000000E+02  0.51100000000E-03 0.  1.
    9900012    2    1    2    0    0 -0.86640277095E+00 -0.73103079099E+00  0.32873607431E+00  0.90007691911E+02  0.89999952644E+02 0.  0.
        -12    1    1    2    0    0  0.86640277095E+00  0.73103079099E+00 -0.32873607431E+00  0.11803080892E+01  0.00000000000E+00 0.  1.
         11    1    3    3    0    0  0.12693189545E+02 -0.29066544636E+01 -0.18886272663E+01  0.13157986708E+02  0.51100000000E-03 0. -1.
        -11    1    3    3    0    0  0.31145089888E+02  0.35878529446E+01 -0.43206746916E+01  0.31647393936E+02  0.51100000000E-03 0.  1.
         12    1    3    3    0    0 -0.44704682204E+02 -0.14122292720E+01  0.65380380322E+01  0.45202311266E+02  0.00000000000E+00 0. -1.
</event>
<event>
 7    1  0.3757412E-015  0.9000775E+02  0.7816164E-02  0.1186339E+00
        -11   -1    0    0    0    0  0.00000000000E+00  0.00000000000E+00  0.45593999997E+02  0.45594000000E+02  0.51100000000E-03 0.  1.
         11   -1    0    0    0    0 -0.00000000000E+00 -0.00000000000E+00 -0.45593999997E+02  0.45594000000E+02  0.51100000000E-03 0. -1.
    9900012    2    1    2    0    0  0.38600836826E+00  0.43181044753E+00  0.10283613085E+01  0.90007750152E+02  0.90000011654E+02 0.  0.
        -12    1    1    2    0    0 -0.38600836826E+00 -0.43181044753E+00 -0.10283613085E+01  0.11802498480E+01  0.00000000000E+00 0.  1.
         11    1    3    3    0    0  0.36848713298E+02  0.26123467681E+01 -0.13997036496E+02  0.39504038506E+02  0.51100000000E-03 0. -1.
        -11    1    3    3    0    0  0.23596332722E+00 -0.71309040481E+01  0.11194719858E+02  0.13275060233E+02  0.51100000000E-03 0.  1.
        -12    1    3    3    0    0 -0.36698668257E+02  0.49503677276E+01  0.38306779469E+01  0.37228651413E+02  0.00000000000E+00 0.  1.
</event>
<event>
 7    1  0.3757412E-015  0.9000779E+02  0.7816164E-02  0.1186339E+00
        -11   -1    0    0    0    0  0.00000000000E+00  0.00000000000E+00  0.45593999997E+02  0.45594000000E+02  0.51100000000E-03 0. -1.
         11   -1    0    0    0    0 -0.00000000000E+00 -0.00000000000E+00 -0.45593999997E+02  0.45594000000E+02  0.51100000000E-03 0.  1.
    9900012    2    1    2    0    0  0.11636098328E+01  0.19381355356E+00 -0.36535911472E-01  0.90007793912E+02  0.90000055992E+02 0.  0.
        -12    1    1    2    0    0 -0.11636098328E+01 -0.19381355356E+00  0.36535911472E-01  0.11802060877E+01  0.00000000000E+00 0.  1.
         11    1    3    3    0    0 -0.79978915850E+01 -0.15134804011E+02 -0.37416896102E+01  0.17522237405E+02  0.51100000000E-03 0. -1.
        -11    1    3    3    0    0 -0.21091939231E+02 -0.15163893943E+02 -0.93223286418E+01  0.27599264331E+02  0.51100000000E-03 0.  1.
        -12    1    3    3    0    0  0.30253440649E+02  0.30492511508E+02  0.13027482341E+02  0.44886292176E+02  0.00000000000E+00 0.  1.
</event>
<event>
 7    1  0.3757412E-015  0.9000752E+02  0.7816164E-02  0.1186339E+00
        -11   -1    0    0    0    0  0.00000000000E+00  0.00000000000E+00  0.45593999997E+02  0.45594000000E+02  0.51100000000E-03 0.  1.
         11   -1    0    0    0    0 -0.00000000000E+00 -0.00000000000E+00 -0.45593999997E+02  0.45594000000E+02  0.51100000000E-03 0. -1.
    9900012    2    1    2    0    0  0.90478121293E-01 -0.18427568270E+00 -0.11624923224E+01  0.90007520344E+02  0.89999778813E+02 0.  0.
        -12    1    1    2    0    0 -0.90478121293E-01  0.18427568270E+00  0.11624923224E+01  0.11804796556E+01  0.00000000000E+00 0.  1.
         11    1    3    3    0    0  0.20563360164E+01 -0.44208511909E+01  0.84019693190E+01  0.97141922857E+01  0.51100000000E-03 0. -1.
        -11    1    3    3    0    0  0.12746471224E+02 -0.18256219758E+02  0.26947228861E+02  0.34955904109E+02  0.51100000000E-03 0.  1.
         12    1    3    3    0    0 -0.14712329120E+02  0.22492795266E+02 -0.36511690503E+02  0.45337423949E+02  0.00000000000E+00 0. -1.
</event>
<event>
 7    1  0.3757412E-015  0.9000803E+02  0.7816164E-02  0.1186338E+00
        -11   -1    0    0    0    0  0.00000000000E+00  0.00000000000E+00  0.45593999997E+02  0.45594000000E+02  0.51100000000E-03 0.  1.
         11   -1    0    0    0    0 -0.00000000000E+00 -0.00000000000E+00 -0.45593999997E+02  0.45594000000E+02  0.51100000000E-03 0. -1.
    9900012    2    1    2    0    0  0.92817573801E+00  0.14823988348E+00 -0.71333589164E+00  0.90008028238E+02  0.90000293411E+02 0.  0.
        -12    1    1    2    0    0 -0.92817573801E+00 -0.14823988348E+00  0.71333589164E+00  0.11799717615E+01  0.00000000000E+00 0.  1.
         11    1    3    3    0    0 -0.88049544829E+01 -0.12234582254E+01  0.22808718463E+01  0.91774969418E+01  0.51100000000E-03 0. -1.
        -11    1    3    3    0    0 -0.28605854044E+02 -0.43569728628E+01  0.20536813264E+02  0.35482936708E+02  0.51100000000E-03 0.  1.
         12    1    3    3    0    0  0.38338984265E+02  0.57286709717E+01 -0.23531021002E+02  0.45347594589E+02  0.00000000000E+00 0. -1.
</event>
<event>
 7    1  0.3757412E-015  0.9000744E+02  0.7816164E-02  0.1186340E+00
        -11   -1    0    0    0    0  0.00000000000E+00  0.00000000000E+00  0.45593999997E+02  0.45594000000E+02  0.51100000000E-03 0.  1.
         11   -1    0    0    0    0 -0.00000000000E+00 -0.00000000000E+00 -0.45593999997E+02  0.45594000000E+02  0.51100000000E-03 0. -1.
    9900012    2    1    2    0    0  0.96911515025E+00  0.67374701849E+00 -0.24620814009E-01  0.90007438522E+02  0.89999695910E+02 0.  0.
        -12    1    1    2    0    0 -0.96911515025E+00 -0.67374701849E+00  0.24620814009E-01  0.11805614782E+01  0.00000000000E+00 0.  1.
         11    1    3    3    0    0 -0.40281500439E+01 -0.38854804802E+02  0.71944603212E+01  0.39720046683E+02  0.51100000000E-03 0. -1.
        -11    1    3    3    0    0  0.89467558461E+01 -0.36749004145E+00 -0.47110174216E+01  0.10117962962E+02  0.51100000000E-03 0.  1.
        -12    1    3    3    0    0 -0.39494906520E+01  0.39896041862E+02 -0.25080637136E+01  0.40169428876E+02  0.00000000000E+00 0.  1.
</event>
<event>
 7    1  0.3757412E-015  0.9000774E+02  0.7816164E-02  0.1186339E+00
        -11   -1    0    0    0    0  0.00000000000E+00  0.00000000000E+00  0.45593999997E+02  0.45594000000E+02  0.51100000000E-03 0.  1.
         11   -1    0    0    0    0 -0.00000000000E+00 -0.00000000000E+00 -0.45593999997E+02  0.45594000000E+02  0.51100000000E-03 0. -1.
    9900012    2    1    2    0    0 -0.82492452133E-01 -0.84689447222E+00 -0.81790738444E+00  0.90007742511E+02  0.90000003912E+02 0.  0.
        -12    1    1    2    0    0  0.82492452133E-01  0.84689447222E+00  0.81790738444E+00  0.11802574894E+01  0.00000000000E+00 0.  1.
         11    1    3    3    0    0 -0.27396877077E+01 -0.36687370334E+02 -0.81417598358E+01  0.37679666722E+02  0.51100000000E-03 0. -1.
        -11    1    3    3    0    0  0.86210258183E+01 -0.37957771053E+01 -0.46369785934E+01  0.10499122855E+02  0.51100000000E-03 0.  1.
        -12    1    3    3    0    0 -0.59638305628E+01  0.39636252967E+02  0.11960831045E+02  0.41828952934E+02  0.00000000000E+00 0.  1.
</event>
<event>
 7    1  0.4005115E-015  0.9000792E+02  0.7816164E-02  0.1186339E+00
        -11   -1    0    0    0    0  0.00000000000E+00  0.00000000000E+00  0.45593999997E+02  0.45594000000E+02  0.51100000000E-03 0. -1.
         11   -1    0    0    0    0 -0.00000000000E+00 -0.00000000000E+00 -0.45593999997E+02  0.45594000000E+02  0.51100000000E-03 0.  1.
    9900012    2    1    2    0    0  0.43526191893E+00  0.60612507281E+00  0.91418773420E+00  0.90007923835E+02  0.90000187629E+02 0.  0.
        -12    1    1    2    0    0 -0.43526191893E+00 -0.60612507281E+00 -0.91418773420E+00  0.11800761651E+01  0.00000000000E+00 0.  1.
         11    1    3    3    0    0  0.10624987792E+02  0.39195997216E+02  0.13064322347E+02  0.42660204898E+02  0.51100000000E-03 0. -1.
        -11    1    3    3    0    0 -0.89069049485E+01 -0.19890286934E+01 -0.28699937565E+01  0.95669250717E+01  0.51100000000E-03 0.  1.
        -12    1    3    3    0    0 -0.12828209250E+01 -0.36600843450E+02 -0.92801408563E+01  0.37780793865E+02  0.00000000000E+00 0.  1.
</event>
<event>
 7    1  0.3757412E-015  0.9000770E+02  0.7816164E-02  0.1186339E+00
        -11   -1    0    0    0    0  0.00000000000E+00  0.00000000000E+00  0.45593999997E+02  0.45594000000E+02  0.51100000000E-03 0. -1.
         11   -1    0    0    0    0 -0.00000000000E+00 -0.00000000000E+00 -0.45593999997E+02  0.45594000000E+02  0.51100000000E-03 0.  1.
    9900012    2    1    2    0    0  0.34937022378E+00 -0.10689844020E+01  0.35820527431E+00  0.90007704180E+02  0.89999965075E+02 0.  0.
        -12    1    1    2    0    0 -0.34937022378E+00  0.10689844020E+01 -0.35820527431E+00  0.11802958204E+01  0.00000000000E+00 0.  1.
         11    1    3    3    0    0  0.85036551346E+00  0.48073775340E+01 -0.79797783709E+01  0.93547241206E+01  0.51100000000E-03 0. -1.
        -11    1    3    3    0    0 -0.34951451904E+02  0.28563593855E+01 -0.14993540781E+02  0.38138812836E+02  0.51100000000E-03 0.  1.
         12    1    3    3    0    0  0.34450456615E+02 -0.87327213215E+01  0.23331524426E+02  0.42514167223E+02  0.00000000000E+00 0. -1.
</event>
<event>
 7    1  0.3757412E-015  0.9000781E+02  0.7816164E-02  0.1186339E+00
        -11   -1    0    0    0    0  0.00000000000E+00  0.00000000000E+00  0.45593999997E+02  0.45594000000E+02  0.51100000000E-03 0.  1.
         11   -1    0    0    0    0 -0.00000000000E+00 -0.00000000000E+00 -0.45593999997E+02  0.45594000000E+02  0.51100000000E-03 0. -1.
    9900012    2    1    2    0    0  0.10871526959E+01 -0.45855245202E+00  0.26015541919E-01  0.90007810124E+02  0.90000072417E+02 0.  0.
        -12    1    1    2    0    0 -0.10871526959E+01  0.45855245202E+00 -0.26015541919E-01  0.11801898762E+01  0.00000000000E+00 0.  1.
         11    1    3    3    0    0  0.71038975972E+01 -0.71048276648E+01 -0.14706956821E+01  0.10154155960E+02  0.51100000000E-03 0. -1.
        -11    1    3    3    0    0  0.17384294889E+02 -0.26250282163E+02  0.17969179978E+02  0.36251654469E+02  0.51100000000E-03 0.  1.
         12    1    3    3    0    0 -0.23401039791E+02  0.32896557375E+02 -0.16472468754E+02  0.43601999694E+02  0.00000000000E+00 0. -1.
</event>
<event>
 7    1  0.3757412E-015  0.9000767E+02  0.7816164E-02  0.1186339E+00
        -11   -1    0    0    0    0  0.00000000000E+00  0.00000000000E+00  0.45593999997E+02  0.45594000000E+02  0.51100000000E-03 0. -1.
         11   -1    0    0    0    0 -0.00000000000E+00 -0.00000000000E+00 -0.45593999997E+02  0.45594000000E+02  0.51100000000E-03 0.  1.
    9900012    2    1    2    0    0  0.91778187367E+00 -0.64250237782E+00 -0.37153386390E+00  0.90007673653E+02  0.89999934145E+02 0.  0.
        -12    1    1    2    0    0 -0.91778187367E+00  0.64250237782E+00  0.37153386390E+00  0.11803263469E+01  0.00000000000E+00 0.  1.
         11    1    3    3    0    0 -0.98639370063E+01 -0.45307687604E+01  0.46145810976E+01  0.11794892021E+02  0.51100000000E-03 0. -1.
        -11    1    3    3    0    0  0.18058368054E+02  0.38261044790E+02  0.21408312629E+01  0.42362664741E+02  0.51100000000E-03 0.  1.
         12    1    3    3    0    0 -0.72766491740E+01 -0.34372778407E+02 -0.71269462244E+01  0.35850116891E+02  0.00000000000E+00 0. -1.
</event>
<event>
 7    1  0.3757412E-015  0.9000771E+02  0.7816164E-02  0.1186339E+00
        -11   -1    0    0    0    0  0.00000000000E+00  0.00000000000E+00  0.45593999997E+02  0.45594000000E+02  0.51100000000E-03 0.  1.
         11   -1    0    0    0    0 -0.00000000000E+00 -0.00000000000E+00 -0.45593999997E+02  0.45594000000E+02  0.51100000000E-03 0. -1.
    9900012    2    1    2    0    0  0.56555160428E+00  0.10098629203E+01 -0.23112545368E+00  0.90007707362E+02  0.89999968300E+02 0.  0.
        -12    1    1    2    0    0 -0.56555160428E+00 -0.10098629203E+01  0.23112545368E+00  0.11802926375E+01  0.00000000000E+00 0.  1.
         11    1    3    3    0    0 -0.23060406742E+02  0.15840121478E+02 -0.30158811251E+02  0.41136914127E+02  0.51100000000E-03 0. -1.
        -11    1    3    3    0    0 -0.59727405183E+01 -0.25932545514E+01  0.63935212562E+01  0.91255527384E+01  0.51100000000E-03 0.  1.
        -12    1    3    3    0    0  0.29598698864E+02 -0.12237004006E+02  0.23534164541E+02  0.39745240497E+02  0.00000000000E+00 0.  1.
</event>
<event>
 7    1  0.3757412E-015  0.9000773E+02  0.7816164E-02  0.1186339E+00
        -11   -1    0    0    0    0  0.00000000000E+00  0.00000000000E+00  0.45593999997E+02  0.45594000000E+02  0.51100000000E-03 0. -1.
         11   -1    0    0    0    0 -0.00000000000E+00 -0.00000000000E+00 -0.45593999997E+02  0.45594000000E+02  0.51100000000E-03 0.  1.
    9900012    2    1    2    0    0 -0.94696988795E+00  0.39362889984E-01 -0.70338018714E+00  0.90007726687E+02  0.89999987879E+02 0.  0.
        -12    1    1    2    0    0  0.94696988795E+00 -0.39362889984E-01  0.70338018714E+00  0.11802733130E+01  0.00000000000E+00 0.  1.
         11    1    3    3    0    0  0.21848691107E+01 -0.71585567202E-01 -0.43214168560E+01  0.48428732617E+01  0.51100000000E-03 0. -1.
        -11    1    3    3    0    0  0.26839995787E+00 -0.41080313056E+02  0.12397961807E+02  0.42911229493E+02  0.51100000000E-03 0.  1.
         12    1    3    3    0    0 -0.34002389565E+01  0.41191261513E+02 -0.87799251384E+01  0.42253623933E+02  0.00000000000E+00 0. -1.
</event>
<event>
 7    1  0.3757412E-015  0.9000766E+02  0.7816164E-02  0.1186339E+00
        -11   -1    0    0    0    0  0.00000000000E+00  0.00000000000E+00  0.45593999997E+02  0.45594000000E+02  0.51100000000E-03 0.  1.
         11   -1    0    0    0    0 -0.00000000000E+00 -0.00000000000E+00 -0.45593999997E+02  0.45594000000E+02  0.51100000000E-03 0. -1.
    9900012    2    1    2    0    0 -0.11053911682E+01 -0.34463942160E+00  0.22923019453E+00  0.90007655793E+02  0.89999916049E+02 0.  0.
        -12    1    1    2    0    0  0.11053911682E+01  0.34463942160E+00 -0.22923019453E+00  0.11803442073E+01  0.00000000000E+00 0.  1.
         11    1    3    3    0    0 -0.84035069066E+01  0.62008519329E+01 -0.63437962939E+00  0.10462883484E+02  0.51100000000E-03 0. -1.
        -11    1    3    3    0    0 -0.96371748467E+01 -0.19928335532E+01  0.37584405783E+02  0.38851436047E+02  0.51100000000E-03 0.  1.
         12    1    3    3    0    0  0.16935290585E+02 -0.45526578013E+01 -0.36720795959E+02  0.40693336262E+02  0.00000000000E+00 0. -1.
</event>
<event>
 7    1  0.3757412E-015  0.9000772E+02  0.7816164E-02  0.1186339E+00
        -11   -1    0    0    0    0  0.00000000000E+00  0.00000000000E+00  0.45593999997E+02  0.45594000000E+02  0.51100000000E-03 0. -1.
         11   -1    0    0    0    0 -0.00000000000E+00 -0.00000000000E+00 -0.45593999997E+02  0.45594000000E+02  0.51100000000E-03 0.  1.
    9900012    2    1    2    0    0  0.51861951698E+00 -0.40001478862E+00  0.98188169051E+00  0.90007716268E+02  0.89999977322E+02 0.  0.
        -12    1    1    2    0    0 -0.51861951698E+00  0.40001478862E+00 -0.98188169051E+00  0.11802837323E+01  0.00000000000E+00 0.  1.
         11    1    3    3    0    0  0.89498211220E+01  0.34172223023E+02  0.22959683985E+02  0.42130597117E+02  0.51100000000E-03 0. -1.
        -11    1    3    3    0    0 -0.68544065976E+01  0.68675301996E+00 -0.59974754561E+01  0.91336866392E+01  0.51100000000E-03 0.  1.
        -12    1    3    3    0    0 -0.15767950074E+01 -0.35258990832E+02 -0.15980326838E+02  0.38743432512E+02  0.00000000000E+00 0.  1.
</event>
<event>
 7    1  0.3757412E-015  0.9000778E+02  0.7816164E-02  0.1186339E+00
        -11   -1    0    0    0    0  0.00000000000E+00  0.00000000000E+00  0.45593999997E+02  0.45594000000E+02  0.51100000000E-03 0.  1.
         11   -1    0    0    0    0 -0.00000000000E+00 -0.00000000000E+00 -0.45593999997E+02  0.45594000000E+02  0.51100000000E-03 0. -1.
    9900012    2    1    2    0    0 -0.77270575980E+00  0.88963163520E+00 -0.66327845556E-01  0.90007780520E+02  0.90000042423E+02 0.  0.
        -12    1    1    2    0    0  0.77270575980E+00 -0.88963163520E+00  0.66327845556E-01  0.11802194799E+01  0.00000000000E+00 0.  1.
         11    1    3    3    0    0 -0.50829676127E+00 -0.85202818643E+01 -0.64053575040E+01  0.10671559102E+02  0.51100000000E-03 0. -1.
        -11    1    3    3    0    0  0.10277373348E+02 -0.31724083576E+02 -0.83976805513E+01  0.34388412592E+02  0.51100000000E-03 0.  1.
         12    1    3    3    0    0 -0.10541782346E+02  0.41133997076E+02  0.14736710210E+02  0.44947808826E+02  0.00000000000E+00 0. -1.
</event>
<event>
 7    1  0.3757412E-015  0.9000775E+02  0.7816164E-02  0.1186339E+00
        -11   -1    0    0    0    0  0.00000000000E+00  0.00000000000E+00  0.45593999997E+02  0.45594000000E+02  0.51100000000E-03 0. -1.
         11   -1    0    0    0    0 -0.00000000000E+00 -0.00000000000E+00 -0.45593999997E+02  0.45594000000E+02  0.51100000000E-03 0.  1.
    9900012    2    1    2    0    0 -0.12990698093E+00 -0.80156547607E-01  0.11703372376E+01  0.90007749965E+02  0.90000011464E+02 0.  0.
        -12    1    1    2    0    0  0.12990698093E+00  0.80156547607E-01 -0.11703372376E+01  0.11802500352E+01  0.00000000000E+00 0.  1.
         11    1    3    3    0    0 -0.65888007390E+01 -0.20117077423E+02  0.33122859226E+02  0.39309450553E+02  0.51100000000E-03 0. -1.
        -11    1    3    3    0    0  0.45348487042E+01 -0.90064680623E+01 -0.62218430173E+01  0.11848740461E+02  0.51100000000E-03 0.  1.
        -12    1    3    3    0    0  0.19240450538E+01  0.29043388937E+02 -0.25730678971E+02  0.38849558951E+02  0.00000000000E+00 0.  1.
</event>
<event>
 7    1  0.3757412E-015  0.9000778E+02  0.7816164E-02  0.1186339E+00
        -11   -1    0    0    0    0  0.00000000000E+00  0.00000000000E+00  0.45593999997E+02  0.45594000000E+02  0.51100000000E-03 0. -1.
         11   -1    0    0    0    0 -0.00000000000E+00 -0.00000000000E+00 -0.45593999997E+02  0.45594000000E+02  0.51100000000E-03 0.  1.
    9900012    2    1    2    0    0 -0.11437666724E+00 -0.95360487027E+00  0.68591885221E+00  0.90007775893E+02  0.90000037735E+02 0.  0.
        -12    1    1    2    0    0  0.11437666724E+00  0.95360487027E+00 -0.68591885221E+00  0.11802241069E+01  0.00000000000E+00 0.  1.
         11    1    3    3    0    0 -0.37183453373E+02  0.10436428972E+02 -0.16190556180E+00  0.38620648209E+02  0.51100000000E-03 0. -1.
        -11    1    3    3    0    0 -0.51593618390E+01 -0.51144044356E+01 -0.42098661127E+01  0.83963754243E+01  0.51100000000E-03 0.  1.
        -12    1    3    3    0    0  0.42228438545E+02 -0.62756294070E+01  0.50576905268E+01  0.42990752260E+02  0.00000000000E+00 0.  1.
</event>
<event>
 7    1  0.3757412E-015  0.9000778E+02  0.7816164E-02  0.1186339E+00
        -11   -1    0    0    0    0  0.00000000000E+00  0.00000000000E+00  0.45593999997E+02  0.45594000000E+02  0.51100000000E-03 0. -1.
         11   -1    0    0    0    0 -0.00000000000E+00 -0.00000000000E+00 -0.45593999997E+02  0.45594000000E+02  0.51100000000E-03 0.  1.
    9900012    2    1    2    0    0  0.11739274272E+01  0.11849435241E+00  0.27829895891E-01  0.90007779250E+02  0.90000041136E+02 0.  0.
        -12    1    1    2    0    0 -0.11739274272E+01 -0.11849435241E+00 -0.27829895891E-01  0.11802207501E+01  0.00000000000E+00 0.  1.
         11    1    3    3    0    0  0.69351213436E+01 -0.19317303088E+01  0.70658461956E+01  0.10087302551E+02  0.51100000000E-03 0. -1.
        -11    1    3    3    0    0  0.96813100613E+00 -0.32114696445E+02 -0.25027528419E+02  0.40726750231E+02  0.51100000000E-03 0.  1.
         12    1    3    3    0    0 -0.67293249225E+01  0.34164921106E+02  0.17989512119E+02  0.39193726467E+02  0.00000000000E+00 0. -1.
</event>
<event>
 7    1  0.3757412E-015  0.9000768E+02  0.7816164E-02  0.1186339E+00
        -11   -1    0    0    0    0  0.00000000000E+00  0.00000000000E+00  0.45593999997E+02  0.45594000000E+02  0.51100000000E-03 0.  1.
         11   -1    0    0    0    0 -0.00000000000E+00 -0.00000000000E+00 -0.45593999997E+02  0.45594000000E+02  0.51100000000E-03 0. -1.
    9900012    2    1    2    0    0  0.30713333878E+00  0.41226521153E-01 -0.11389159837E+01  0.90007677954E+02  0.89999938503E+02 0.  0.
        -12    1    1    2    0    0 -0.30713333878E+00 -0.41226521153E-01  0.11389159837E+01  0.11803220457E+01  0.00000000000E+00 0.  1.
         11    1    3    3    0    0 -0.40879211785E+01  0.75230767001E+01  0.43933811371E+01  0.96233871726E+01  0.51100000000E-03 0. -1.
        -11    1    3    3    0    0  0.83700197080E-02  0.77285503046E+01  0.35538038470E+02  0.36368705482E+02  0.51100000000E-03 0.  1.
         12    1    3    3    0    0  0.43866844976E+01 -0.15210400484E+02 -0.41070335591E+02  0.44015585300E+02  0.00000000000E+00 0. -1.
</event>
<event>
 7    1  0.3757412E-015  0.9000785E+02  0.7816164E-02  0.1186339E+00
        -11   -1    0    0    0    0  0.00000000000E+00  0.00000000000E+00  0.45593999997E+02  0.45594000000E+02  0.51100000000E-03 0.  1.
         11   -1    0    0    0    0 -0.00000000000E+00 -0.00000000000E+00 -0.45593999997E+02  0.45594000000E+02  0.51100000000E-03 0. -1.
    9900012    2    1    2    0    0 -0.49504908939E+00  0.10709132680E+01  0.28583525484E-01  0.90007853464E+02  0.90000116330E+02 0.  0.
        -12    1    1    2    0    0  0.49504908939E+00 -0.10709132680E+01 -0.28583525484E-01  0.11801465360E+01  0.00000000000E+00 0.  1.
         11    1    3    3    0    0  0.10747104642E+01 -0.66271233737E+01  0.43342879221E+01  0.79912338750E+01  0.51100000000E-03 0. -1.
        -11    1    3    3    0    0  0.38782227103E+02  0.84527234641E+01  0.65348444418E+01  0.40227029037E+02  0.51100000000E-03 0.  1.
         12    1    3    3    0    0 -0.40351986657E+02 -0.75468682243E+00 -0.10840548838E+02  0.41789590552E+02  0.00000000000E+00 0. -1.
</event>
<event>
 7    1  0.3757412E-015  0.9000777E+02  0.7816164E-02  0.1186339E+00
        -11   -1    0    0    0    0  0.00000000000E+00  0.00000000000E+00  0.45593999997E+02  0.45594000000E+02  0.51100000000E-03 0. -1.
         11   -1    0    0    0    0 -0.00000000000E+00 -0.00000000000E+00 -0.45593999997E+02  0.45594000000E+02  0.51100000000E-03 0.  1.
    9900012    2    1    2    0    0  0.17519602609E+00  0.16200927763E+00  0.11558582008E+01  0.90007767466E+02  0.90000029197E+02 0.  0.
        -12    1    1    2    0    0 -0.17519602609E+00 -0.16200927763E+00 -0.11558582008E+01  0.11802325338E+01  0.00000000000E+00 0.  1.
         11    1    3    3    0    0  0.27682455209E+02 -0.19615739012E+02  0.25005295054E+01  0.34019820568E+02  0.51100000000E-03 0. -1.
        -11    1    3    3    0    0  0.10863481224E+02 -0.24126667411E+01  0.27830875110E+01  0.11470909357E+02  0.51100000000E-03 0.  1.
        -12    1    3    3    0    0 -0.38370740408E+02  0.22190415030E+02 -0.41277588156E+01  0.44517037542E+02  0.00000000000E+00 0.  1.
</event>
<event>
 7    1  0.3757412E-015  0.9000774E+02  0.7816164E-02  0.1186339E+00
        -11   -1    0    0    0    0  0.00000000000E+00  0.00000000000E+00  0.45593999997E+02  0.45594000000E+02  0.51100000000E-03 0.  1.
         11   -1    0    0    0    0 -0.00000000000E+00 -0.00000000000E+00 -0.45593999997E+02  0.45594000000E+02  0.51100000000E-03 0. -1.
    9900012    2    1    2    0    0  0.81611318949E+00 -0.49997758424E-01 -0.85115520766E+00  0.90007743375E+02  0.90000004787E+02 0.  0.
        -12    1    1    2    0    0 -0.81611318949E+00  0.49997758424E-01  0.85115520766E+00  0.11802566252E+01  0.00000000000E+00 0.  1.
         11    1    3    3    0    0  0.89103742224E+01  0.61750070393E+00  0.19073322743E+01  0.91331261115E+01  0.51100000000E-03 0. -1.
        -11    1    3    3    0    0 -0.58317863131E+01  0.38948625525E+02  0.70278918471E+01  0.40004955018E+02  0.51100000000E-03 0.  1.
         12    1    3    3    0    0 -0.22624747198E+01 -0.39616123988E+02 -0.97863793290E+01  0.40869662245E+02  0.00000000000E+00 0. -1.
</event>
<event>
 7    1  0.3757412E-015  0.9000708E+02  0.7816164E-02  0.1186340E+00
        -11   -1    0    0    0    0  0.00000000000E+00  0.00000000000E+00  0.45593999997E+02  0.45594000000E+02  0.51100000000E-03 0. -1.
         11   -1    0    0    0    0 -0.00000000000E+00 -0.00000000000E+00 -0.45593999997E+02  0.45594000000E+02  0.51100000000E-03 0.  1.
    9900012    2    1    2    0    0 -0.39294713289E+00 -0.76727787224E+00  0.80711837251E+00  0.90007083894E+02  0.89999336599E+02 0.  0.
        -12    1    1    2    0    0  0.39294713289E+00  0.76727787224E+00 -0.80711837251E+00  0.11809161061E+01  0.00000000000E+00 0.  1.
         11    1    3    3    0    0  0.30859375651E+01 -0.72527563120E+01  0.56110498284E+01  0.96751932909E+01  0.51100000000E-03 0. -1.
        -11    1    3    3    0    0 -0.26824292624E+02 -0.13023609236E+02  0.24120397715E+02  0.38352974572E+02  0.51100000000E-03 0.  1.
         12    1    3    3    0    0  0.23345407926E+02  0.19509087676E+02 -0.28924329171E+02  0.41978916031E+02  0.00000000000E+00 0. -1.
</event>
<event>
 7    1  0.3757412E-015  0.9000770E+02  0.7816164E-02  0.1186339E+00
        -11   -1    0    0    0    0  0.00000000000E+00  0.00000000000E+00  0.45593999997E+02  0.45594000000E+02  0.51100000000E-03 0.  1.
         11   -1    0    0    0    0 -0.00000000000E+00 -0.00000000000E+00 -0.45593999997E+02  0.45594000000E+02  0.51100000000E-03 0. -1.
    9900012    2    1    2    0    0  0.93593813080E+00 -0.49824824796E+00 -0.51852535362E+00  0.90007703409E+02  0.89999964294E+02 0.  0.
        -12    1    1    2    0    0 -0.93593813080E+00  0.49824824796E+00  0.51852535362E+00  0.11802965914E+01  0.00000000000E+00 0.  1.
         11    1    3    3    0    0 -0.25223234813E+02 -0.26525846321E+02  0.12776682559E+02  0.38769520438E+02  0.51100000000E-03 0. -1.
        -11    1    3    3    0    0  0.44577552252E+01 -0.26050627996E+01  0.79646601197E+01  0.94917724857E+01  0.51100000000E-03 0.  1.
        -12    1    3    3    0    0  0.21701417719E+02  0.28632660873E+02 -0.21259868032E+02  0.41746410485E+02  0.00000000000E+00 0.  1.
</event>
<event>
 7    1  0.3757412E-015  0.9000783E+02  0.7816164E-02  0.1186339E+00
        -11   -1    0    0    0    0  0.00000000000E+00  0.00000000000E+00  0.45593999997E+02  0.45594000000E+02  0.51100000000E-03 0. -1.
         11   -1    0    0    0    0 -0.00000000000E+00 -0.00000000000E+00 -0.45593999997E+02  0.45594000000E+02  0.51100000000E-03 0.  1.
    9900012    2    1    2    0    0  0.68305748905E+00  0.80448425359E+00  0.52825042873E+00  0.90007825876E+02  0.90000088377E+02 0.  0.
        -12    1    1    2    0    0 -0.68305748905E+00 -0.80448425359E+00 -0.52825042873E+00  0.11801741240E+01  0.00000000000E+00 0.  1.
         11    1    3    3    0    0 -0.10766083384E+02  0.40319950224E+02 -0.60924757475E+00  0.41737011397E+02  0.51100000000E-03 0. -1.
        -11    1    3    3    0    0  0.10347230241E+02 -0.28092198774E+01  0.39835772259E+01  0.11437909676E+02  0.51100000000E-03 0.  1.
        -12    1    3    3    0    0  0.11019106315E+01 -0.36706246093E+02 -0.28460792224E+01  0.36832904803E+02  0.00000000000E+00 0.  1.
</event>
<event>
 7    1  0.3757412E-015  0.9000777E+02  0.7816164E-02  0.1186339E+00
        -11   -1    0    0    0    0  0.00000000000E+00  0.00000000000E+00  0.45593999997E+02  0.45594000000E+02  0.51100000000E-03 0. -1.
         11   -1    0    0    0    0 -0.00000000000E+00 -0.00000000000E+00 -0.45593999997E+02  0.45594000000E+02  0.51100000000E-03 0.  1.
    9900012    2    1    2    0    0  0.25844349564E+00 -0.58664007557E-01  0.11500876978E+01  0.90007772810E+02  0.90000034612E+02 0.  0.
        -12    1    1    2    0    0 -0.25844349564E+00  0.58664007557E-01 -0.11500876978E+01  0.11802271895E+01  0.00000000000E+00 0.  1.
         11    1    3    3    0    0  0.50783233364E+01 -0.65041489774E+01  0.72386331729E+01  0.10976845280E+02  0.51100000000E-03 0. -1.
        -11    1    3    3    0    0  0.13333272635E+02  0.34215970366E+00 -0.38853615372E+02  0.41079151162E+02  0.51100000000E-03 0.  1.
         12    1    3    3    0    0 -0.18153152476E+02  0.61033252662E+01  0.32765069897E+02  0.37951776368E+02  0.00000000000E+00 0. -1.
</event>
<event>
 7    1  0.3757412E-015  0.9000779E+02  0.7816164E-02  0.1186339E+00
        -11   -1    0    0    0    0  0.00000000000E+00  0.00000000000E+00  0.45593999997E+02  0.45594000000E+02  0.51100000000E-03 0. -1.
         11   -1    0    0    0    0 -0.00000000000E+00 -0.00000000000E+00 -0.45593999997E+02  0.45594000000E+02  0.51100000000E-03 0.  1.
    9900012    2    1    2    0    0  0.26196043831E+00  0.90872666970E-01  0.11471799692E+01  0.90007786886E+02  0.90000048873E+02 0.  0.
        -12    1    1    2    0    0 -0.26196043831E+00 -0.90872666970E-01 -0.11471799692E+01  0.11802131141E+01  0.00000000000E+00 0.  1.
         11    1    3    3    0    0 -0.66423112144E+01  0.58954913094E+01 -0.25735720769E+01  0.92466420685E+01  0.51100000000E-03 0. -1.
        -11    1    3    3    0    0  0.40749782483E+02 -0.17074132583E+02 -0.36586223020E+01  0.44333466967E+02  0.51100000000E-03 0.  1.
         12    1    3    3    0    0 -0.33845510831E+02  0.11269513940E+02  0.73793743481E+01  0.36427677851E+02  0.00000000000E+00 0. -1.
</event>
<event>
 7    1  0.3757412E-015  0.9000771E+02  0.7816164E-02  0.1186339E+00
        -11   -1    0    0    0    0  0.00000000000E+00  0.00000000000E+00  0.45593999997E+02  0.45594000000E+02  0.51100000000E-03 0.  1.
         11   -1    0    0    0    0 -0.00000000000E+00 -0.00000000000E+00 -0.45593999997E+02  0.45594000000E+02  0.51100000000E-03 0. -1.
    9900012    2    1    2    0    0 -0.17156669207E+00  0.87680415451E+00 -0.77127957799E+00  0.90007706459E+02  0.89999967384E+02 0.  0.
        -12    1    1    2    0    0  0.17156669207E+00 -0.87680415451E+00  0.77127957799E+00  0.11802935409E+01  0.00000000000E+00 0.  1.
         11    1    3    3    0    0  0.12193637916E+02  0.36481913305E+01 -0.63505896380E+01  0.14224067443E+02  0.51100000000E-03 0. -1.
        -11    1    3    3    0    0  0.27088369178E+02  0.12074996561E+02  0.14000363072E+02  0.32796271938E+02  0.51100000000E-03 0.  1.
         12    1    3    3    0    0 -0.39453573785E+02 -0.14846383737E+02 -0.84210530115E+01  0.42987367078E+02  0.00000000000E+00 0. -1.
</event>
<event>
 7    1  0.3757412E-015  0.9000764E+02  0.7816164E-02  0.1186339E+00
        -11   -1    0    0    0    0  0.00000000000E+00  0.00000000000E+00  0.45593999997E+02  0.45594000000E+02  0.51100000000E-03 0.  1.
         11   -1    0    0    0    0 -0.00000000000E+00 -0.00000000000E+00 -0.45593999997E+02  0.45594000000E+02  0.51100000000E-03 0. -1.
    9900012    2    1    2    0    0 -0.64225713348E+00  0.56533010246E+00 -0.81311997834E+00  0.90007637153E+02  0.89999897164E+02 0.  0.
        -12    1    1    2    0    0  0.64225713348E+00 -0.56533010246E+00  0.81311997834E+00  0.11803628465E+01  0.00000000000E+00 0.  1.
         11    1    3    3    0    0  0.96680104234E+01 -0.41071047177E+00 -0.19450154052E+01  0.98702681739E+01  0.51100000000E-03 0. -1.
        -11    1    3    3    0    0  0.19807350455E+02  0.23583201986E+02  0.21273693646E+02  0.37430850773E+02  0.51100000000E-03 0.  1.
         12    1    3    3    0    0 -0.30117618012E+02 -0.22607161412E+02 -0.20141798219E+02  0.42706518207E+02  0.00000000000E+00 0. -1.
</event>
<event>
 7    1  0.3757412E-015  0.9000780E+02  0.7816164E-02  0.1186339E+00
        -11   -1    0    0    0    0  0.00000000000E+00  0.00000000000E+00  0.45593999997E+02  0.45594000000E+02  0.51100000000E-03 0. -1.
         11   -1    0    0    0    0 -0.00000000000E+00 -0.00000000000E+00 -0.45593999997E+02  0.45594000000E+02  0.51100000000E-03 0.  1.
    9900012    2    1    2    0    0 -0.93384430771E+00 -0.71796299980E+00  0.73077169769E-01  0.90007798181E+02  0.90000060317E+02 0.  0.
        -12    1    1    2    0    0  0.93384430771E+00  0.71796299980E+00 -0.73077169769E-01  0.11802018187E+01  0.00000000000E+00 0.  1.
         11    1    3    3    0    0  0.35276103188E+02 -0.72744400811E+01  0.11615471965E+02  0.37844948459E+02  0.51100000000E-03 0. -1.
        -11    1    3    3    0    0 -0.41685604960E+01 -0.81476645659E+01  0.77343647401E+01  0.11982559521E+02  0.51100000000E-03 0.  1.
        -12    1    3    3    0    0 -0.32041387000E+02  0.14704141647E+02 -0.19276759535E+02  0.40180290201E+02  0.00000000000E+00 0.  1.
</event>
<event>
 7    1  0.3757412E-015  0.9000770E+02  0.7816164E-02  0.1186339E+00
        -11   -1    0    0    0    0  0.00000000000E+00  0.00000000000E+00  0.45593999997E+02  0.45594000000E+02  0.51100000000E-03 0. -1.
         11   -1    0    0    0    0 -0.00000000000E+00 -0.00000000000E+00 -0.45593999997E+02  0.45594000000E+02  0.51100000000E-03 0.  1.
    9900012    2    1    2    0    0 -0.40318602049E+00  0.31882722252E+00  0.10624919693E+01  0.90007703872E+02  0.89999964763E+02 0.  0.
        -12    1    1    2    0    0  0.40318602049E+00 -0.31882722252E+00 -0.10624919693E+01  0.11802961280E+01  0.00000000000E+00 0.  1.
         11    1    3    3    0    0 -0.29314482557E+02 -0.11027072836E+02  0.20361892955E+02  0.37356952604E+02  0.51100000000E-03 0. -1.
        -11    1    3    3    0    0 -0.65326957248E+01 -0.31764871628E+01  0.35125069576E+01  0.80686981302E+01  0.51100000000E-03 0.  1.
        -12    1    3    3    0    0  0.35443992261E+02  0.14522387221E+02 -0.22811907943E+02  0.44582053138E+02  0.00000000000E+00 0.  1.
</event>
<event>
 7    1  0.3757412E-015  0.9000787E+02  0.7816164E-02  0.1186339E+00
        -11   -1    0    0    0    0  0.00000000000E+00  0.00000000000E+00  0.45593999997E+02  0.45594000000E+02  0.51100000000E-03 0.  1.
         11   -1    0    0    0    0 -0.00000000000E+00 -0.00000000000E+00 -0.45593999997E+02  0.45594000000E+02  0.51100000000E-03 0. -1.
    9900012    2    1    2    0    0 -0.68129110185E-01  0.55032354010E+00 -0.10417290304E+01  0.90007874182E+02  0.90000137321E+02 0.  0.
        -12    1    1    2    0    0  0.68129110185E-01 -0.55032354010E+00  0.10417290304E+01  0.11801258184E+01  0.00000000000E+00 0.  1.
         11    1    3    3    0    0  0.17192549626E+02  0.31329266899E+02 -0.23115772754E+02  0.42561081722E+02  0.51100000000E-03 0. -1.
        -11    1    3    3    0    0 -0.19144245907E+01 -0.76909792386E+01 -0.44411313911E+01  0.90851434472E+01  0.51100000000E-03 0.  1.
        -12    1    3    3    0    0 -0.15346254146E+02 -0.23087964120E+02  0.26515175115E+02  0.38361649012E+02  0.00000000000E+00 0.  1.
</event>
<event>
 7    1  0.3757412E-015  0.9000776E+02  0.7816164E-02  0.1186339E+00
        -11   -1    0    0    0    0  0.00000000000E+00  0.00000000000E+00  0.45593999997E+02  0.45594000000E+02  0.51100000000E-03 0.  1.
         11   -1    0    0    0    0 -0.00000000000E+00 -0.00000000000E+00 -0.45593999997E+02  0.45594000000E+02  0.51100000000E-03 0. -1.
    9900012    2    1    2    0    0 -0.28142896325E+00 -0.57615208021E+00 -0.99086622942E+00  0.90007758768E+02  0.90000020384E+02 0.  0.
        -12    1    1    2    0    0  0.28142896325E+00  0.57615208021E+00  0.99086622942E+00  0.11802412319E+01  0.00000000000E+00 0.  1.
         11    1    3    3    0    0  0.60179619399E+01  0.31888529726E+01  0.69353410141E+01  0.97202677141E+01  0.51100000000E-03 0. -1.
        -11    1    3    3    0    0 -0.93506827994E+01  0.13660151863E+02  0.32326753185E+02  0.36318782874E+02  0.51100000000E-03 0.  1.
         12    1    3    3    0    0  0.30512918962E+01 -0.17425156916E+02 -0.40252960428E+02  0.43968708180E+02  0.00000000000E+00 0. -1.
</event>
<event>
 7    1  0.3757412E-015  0.9000783E+02  0.7816164E-02  0.1186339E+00
        -11   -1    0    0    0    0  0.00000000000E+00  0.00000000000E+00  0.45593999997E+02  0.45594000000E+02  0.51100000000E-03 0.  1.
         11   -1    0    0    0    0 -0.00000000000E+00 -0.00000000000E+00 -0.45593999997E+02  0.45594000000E+02  0.51100000000E-03 0. -1.
    9900012    2    1    2    0    0 -0.78086248018E+00  0.83963594931E-01 -0.88090676922E+00  0.90007833557E+02  0.90000096159E+02 0.  0.
        -12    1    1    2    0    0  0.78086248018E+00 -0.83963594931E-01  0.88090676922E+00  0.11801664435E+01  0.00000000000E+00 0.  1.
         11    1    3    3    0    0 -0.26250080221E+01 -0.64326954086E+01 -0.33685711980E+02  0.34394729672E+02  0.51100000000E-03 0. -1.
        -11    1    3    3    0    0  0.72450787648E+00 -0.21182714432E+01 -0.10860129253E+02  0.11088480203E+02  0.51100000000E-03 0.  1.
        -12    1    3    3    0    0  0.11196376654E+01  0.86349304468E+01  0.43664934463E+02  0.44524623682E+02  0.00000000000E+00 0.  1.
</event>
<event>
 7    1  0.3757412E-015  0.9000763E+02  0.7816164E-02  0.1186339E+00
        -11   -1    0    0    0    0  0.00000000000E+00  0.00000000000E+00  0.45593999997E+02  0.45594000000E+02  0.51100000000E-03 0.  1.
         11   -1    0    0    0    0 -0.00000000000E+00 -0.00000000000E+00 -0.45593999997E+02  0.45594000000E+02  0.51100000000E-03 0. -1.
    9900012    2    1    2    0    0  0.11787818149E+01  0.20492126866E-01  0.57709066971E-01  0.90007628520E+02  0.89999888416E+02 0.  0.
        -12    1    1    2    0    0 -0.11787818149E+01 -0.20492126866E-01 -0.57709066971E-01  0.11803714800E+01  0.00000000000E+00 0.  1.
         11    1    3    3    0    0  0.63467251658E+01  0.56077690865E+01 -0.37043091745E+01  0.92439115735E+01  0.51100000000E-03 0. -1.
        -11    1    3    3    0    0  0.12672321742E+02  0.34353101878E+02 -0.18439544461E+01  0.36662290098E+02  0.51100000000E-03 0.  1.
         12    1    3    3    0    0 -0.17840265093E+02 -0.39940378838E+02  0.56059726876E+01  0.44101426848E+02  0.00000000000E+00 0. -1.
</event>
<event>
 7    1  0.3757412E-015  0.9000774E+02  0.7816164E-02  0.1186339E+00
        -11   -1    0    0    0    0  0.00000000000E+00  0.00000000000E+00  0.45593999997E+02  0.45594000000E+02  0.51100000000E-03 0.  1.
         11   -1    0    0    0    0 -0.00000000000E+00 -0.00000000000E+00 -0.45593999997E+02  0.45594000000E+02  0.51100000000E-03 0. -1.
    9900012    2    1    2    0    0 -0.77696109258E+00 -0.85533268586E+00 -0.24032774294E+00  0.90007737331E+02  0.89999998664E+02 0.  0.
        -12    1    1    2    0    0  0.77696109258E+00  0.85533268586E+00  0.24032774294E+00  0.11802626686E+01  0.00000000000E+00 0.  1.
         11    1    3    3    0    0 -0.27088929675E+00 -0.24023687246E+01  0.74415173387E+01  0.78243809380E+01  0.51100000000E-03 0. -1.
        -11    1    3    3    0    0  0.15653549627E+02  0.22100737485E+02  0.27336908855E+02  0.38480940728E+02  0.51100000000E-03 0.  1.
         12    1    3    3    0    0 -0.16159621423E+02 -0.20553701446E+02 -0.35018753937E+02  0.43702415665E+02  0.00000000000E+00 0. -1.
</event>
<event>
 7    1  0.3757412E-015  0.9000781E+02  0.7816164E-02  0.1186339E+00
        -11   -1    0    0    0    0  0.00000000000E+00  0.00000000000E+00  0.45593999997E+02  0.45594000000E+02  0.51100000000E-03 0.  1.
         11   -1    0    0    0    0 -0.00000000000E+00 -0.00000000000E+00 -0.45593999997E+02  0.45594000000E+02  0.51100000000E-03 0. -1.
    9900012    2    1    2    0    0 -0.70167834667E+00  0.57396574285E+00 -0.75568048581E+00  0.90007812654E+02  0.90000074981E+02 0.  0.
        -12    1    1    2    0    0  0.70167834667E+00 -0.57396574285E+00  0.75568048581E+00  0.11801873465E+01  0.00000000000E+00 0.  1.
         11    1    3    3    0    0  0.64039060710E+01 -0.15104197760E+01 -0.37061120303E+01  0.75515990034E+01  0.51100000000E-03 0. -1.
        -11    1    3    3    0    0  0.25955885510E+02  0.20128203115E+02  0.22700827139E+02  0.39927185054E+02  0.51100000000E-03 0.  1.
         12    1    3    3    0    0 -0.33061469928E+02 -0.18043817596E+02 -0.19750395594E+02  0.42529028597E+02  0.00000000000E+00 0. -1.
</event>
<event>
 7    1  0.4377672E-015  0.9000767E+02  0.7816164E-02  0.1186339E+00
        -11   -1    0    0    0    0  0.00000000000E+00  0.00000000000E+00  0.45593999997E+02  0.45594000000E+02  0.51100000000E-03 0.  1.
         11   -1    0    0    0    0 -0.00000000000E+00 -0.00000000000E+00 -0.45593999997E+02  0.45594000000E+02  0.51100000000E-03 0. -1.
    9900012    2    1    2    0    0 -0.96081998679E+00  0.40081175761E+00 -0.55619373893E+00  0.90007670983E+02  0.89999931440E+02 0.  0.
        -12    1    1    2    0    0  0.96081998679E+00 -0.40081175761E+00  0.55619373893E+00  0.11803290165E+01  0.00000000000E+00 0.  1.
         11    1    3    3    0    0 -0.23358146474E+02  0.86865295885E+01 -0.30823543719E+02  0.39637730140E+02  0.51100000000E-03 0. -1.
        -11    1    3    3    0    0  0.16492208731E+01  0.92067731526E+01 -0.47212485036E+00  0.93652284279E+01  0.51100000000E-03 0.  1.
        -12    1    3    3    0    0  0.20748105614E+02 -0.17492490983E+02  0.30739474831E+02  0.41004712415E+02  0.00000000000E+00 0.  1.
</event>
<event>
 7    1  0.3757412E-015  0.9000770E+02  0.7816164E-02  0.1186339E+00
        -11   -1    0    0    0    0  0.00000000000E+00  0.00000000000E+00  0.45593999997E+02  0.45594000000E+02  0.51100000000E-03 0.  1.
         11   -1    0    0    0    0 -0.00000000000E+00 -0.00000000000E+00 -0.45593999997E+02  0.45594000000E+02  0.51100000000E-03 0. -1.
    9900012    2    1    2    0    0 -0.85399670242E+00 -0.60204076367E+00 -0.54895165224E+00  0.90007698612E+02  0.89999959434E+02 0.  0.
        -12    1    1    2    0    0  0.85399670242E+00  0.60204076367E+00  0.54895165224E+00  0.11803013875E+01  0.00000000000E+00 0.  1.
         11    1    3    3    0    0  0.38615052964E+01 -0.86353822200E+01  0.31627297223E+00  0.94647281046E+01  0.51100000000E-03 0. -1.
        -11    1    3    3    0    0 -0.13022609631E+02  0.39446080823E+02  0.15278696443E+02  0.44260820363E+02  0.51100000000E-03 0.  1.
         12    1    3    3    0    0  0.83071076322E+01 -0.31412739367E+02 -0.16143921067E+02  0.36282150145E+02  0.00000000000E+00 0. -1.
</event>
<event>
 7    1  0.3757412E-015  0.9000769E+02  0.7816164E-02  0.1186339E+00
        -11   -1    0    0    0    0  0.00000000000E+00  0.00000000000E+00  0.45593999997E+02  0.45594000000E+02  0.51100000000E-03 0.  1.
         11   -1    0    0    0    0 -0.00000000000E+00 -0.00000000000E+00 -0.45593999997E+02  0.45594000000E+02  0.51100000000E-03 0. -1.
    9900012    2    1    2    0    0  0.86928672265E+00  0.53407382637E+00 -0.59348726092E+00  0.90007694367E+02  0.89999955133E+02 0.  0.
        -12    1    1    2    0    0 -0.86928672265E+00 -0.53407382637E+00  0.59348726092E+00  0.11803056329E+01  0.00000000000E+00 0.  1.
         11    1    3    3    0    0  0.66141420183E+01 -0.40622092441E+01 -0.61876036840E+01  0.99264725956E+01  0.51100000000E-03 0. -1.
        -11    1    3    3    0    0  0.25431874834E+02  0.26851273530E+02 -0.10631881005E+02  0.38481268713E+02  0.51100000000E-03 0.  1.
         12    1    3    3    0    0 -0.31176730130E+02 -0.22254990460E+02  0.16225997428E+02  0.41599953059E+02  0.00000000000E+00 0. -1.
</event>
<event>
 7    1  0.3757412E-015  0.9000774E+02  0.7816164E-02  0.1186339E+00
        -11   -1    0    0    0    0  0.00000000000E+00  0.00000000000E+00  0.45593999997E+02  0.45594000000E+02  0.51100000000E-03 0.  1.
         11   -1    0    0    0    0 -0.00000000000E+00 -0.00000000000E+00 -0.45593999997E+02  0.45594000000E+02  0.51100000000E-03 0. -1.
    9900012    2    1    2    0    0 -0.79497748248E+00  0.34751541036E+00 -0.80016496567E+00  0.90007737262E+02  0.89999998594E+02 0.  0.
        -12    1    1    2    0    0  0.79497748248E+00 -0.34751541036E+00  0.80016496567E+00  0.11802627379E+01  0.00000000000E+00 0.  1.
         11    1    3    3    0    0 -0.14725356113E+00  0.39724691592E+02 -0.47819554541E+01  0.40011747074E+02  0.51100000000E-03 0. -1.
        -11    1    3    3    0    0  0.11622812268E+02 -0.84407475938E+01 -0.55146290381E+01  0.15386588922E+02  0.51100000000E-03 0.  1.
        -12    1    3    3    0    0 -0.12270536189E+02 -0.30936428588E+02  0.94964195266E+01  0.34609401266E+02  0.00000000000E+00 0.  1.
</event>
<event>
 7    1  0.3757412E-015  0.9000781E+02  0.7816164E-02  0.1186339E+00
        -11   -1    0    0    0    0  0.00000000000E+00  0.00000000000E+00  0.45593999997E+02  0.45594000000E+02  0.51100000000E-03 0.  1.
         11   -1    0    0    0    0 -0.00000000000E+00 -0.00000000000E+00 -0.45593999997E+02  0.45594000000E+02  0.51100000000E-03 0. -1.
    9900012    2    1    2    0    0  0.80190389423E+00 -0.70666311128E+00  0.50042924516E+00  0.90007808474E+02  0.90000070746E+02 0.  0.
        -12    1    1    2    0    0 -0.80190389423E+00  0.70666311128E+00 -0.50042924516E+00  0.11801915259E+01  0.00000000000E+00 0.  1.
         11    1    3    3    0    0 -0.25716436359E+02 -0.82971300894E+01 -0.29803911696E+02  0.40229971655E+02  0.51100000000E-03 0. -1.
        -11    1    3    3    0    0 -0.32498761217E+01 -0.58468803793E+01  0.36431943133E+01  0.76171234756E+01  0.51100000000E-03 0.  1.
        -12    1    3    3    0    0  0.29768216375E+02  0.13437347357E+02  0.26661146628E+02  0.42160713344E+02  0.00000000000E+00 0.  1.
</event>
<event>
 7    1  0.3757412E-015  0.9000774E+02  0.7816164E-02  0.1186339E+00
        -11   -1    0    0    0    0  0.00000000000E+00  0.00000000000E+00  0.45593999997E+02  0.45594000000E+02  0.51100000000E-03 0. -1.
         11   -1    0    0    0    0 -0.00000000000E+00 -0.00000000000E+00 -0.45593999997E+02  0.45594000000E+02  0.51100000000E-03 0.  1.
    9900012    2    1    2    0    0 -0.10756127766E+01 -0.16245989092E+00  0.45789552251E+00  0.90007743938E+02  0.90000005358E+02 0.  0.
        -12    1    1    2    0    0  0.10756127766E+01  0.16245989092E+00 -0.45789552251E+00  0.11802560615E+01  0.00000000000E+00 0.  1.
         11    1    3    3    0    0  0.28112098442E+01  0.19129915754E+01 -0.11190110262E+02  0.11695341187E+02  0.51100000000E-03 0. -1.
        -11    1    3    3    0    0  0.92465969964E+01 -0.56669009508E+01 -0.31369661714E+02  0.33191399469E+02  0.51100000000E-03 0.  1.
         12    1    3    3    0    0 -0.13133419617E+02  0.35914494845E+01  0.43017667498E+02  0.45121003282E+02  0.00000000000E+00 0. -1.
</event>
<event>
 7    1  0.3757412E-015  0.9000775E+02  0.7816164E-02  0.1186339E+00
        -11   -1    0    0    0    0  0.00000000000E+00  0.00000000000E+00  0.45593999997E+02  0.45594000000E+02  0.51100000000E-03 0.  1.
         11   -1    0    0    0    0 -0.00000000000E+00 -0.00000000000E+00 -0.45593999997E+02  0.45594000000E+02  0.51100000000E-03 0. -1.
    9900012    2    1    2    0    0 -0.88479872665E-01 -0.29388180453E+00 -0.11396498330E+01  0.90007747084E+02  0.90000008546E+02 0.  0.
        -12    1    1    2    0    0  0.88479872665E-01  0.29388180453E+00  0.11396498330E+01  0.11802529156E+01  0.00000000000E+00 0.  1.
         11    1    3    3    0    0 -0.27421169851E+02  0.14922579892E+02 -0.18239079225E+02  0.36156160718E+02  0.51100000000E-03 0. -1.
        -11    1    3    3    0    0 -0.58633501954E+01  0.70539704742E+01 -0.22438750712E+01  0.94431112755E+01  0.51100000000E-03 0.  1.
        -12    1    3    3    0    0  0.33196040174E+02 -0.22270432171E+02  0.19343304463E+02  0.44408475091E+02  0.00000000000E+00 0.  1.
</event>
<event>
 7    1  0.3757412E-015  0.9000774E+02  0.7816164E-02  0.1186339E+00
        -11   -1    0    0    0    0  0.00000000000E+00  0.00000000000E+00  0.45593999997E+02  0.45594000000E+02  0.51100000000E-03 0.  1.
         11   -1    0    0    0    0 -0.00000000000E+00 -0.00000000000E+00 -0.45593999997E+02  0.45594000000E+02  0.51100000000E-03 0. -1.
    9900012    2    1    2    0    0 -0.74327383836E+00  0.62518210760E+00 -0.67059194668E+00  0.90007744847E+02  0.90000006279E+02 0.  0.
        -12    1    1    2    0    0  0.74327383836E+00 -0.62518210760E+00  0.67059194668E+00  0.11802551527E+01  0.00000000000E+00 0.  1.
         11    1    3    3    0    0  0.85219522702E+01 -0.26428778505E+01 -0.11193888768E+01  0.89923025720E+01  0.51100000000E-03 0. -1.
        -11    1    3    3    0    0  0.18850688182E+02  0.54601511602E+01  0.32722364339E+02  0.38156451929E+02  0.51100000000E-03 0.  1.
         12    1    3    3    0    0 -0.28115914291E+02 -0.21920912021E+01 -0.32273567409E+02  0.42858990346E+02  0.00000000000E+00 0. -1.
</event>
<event>
 7    1  0.3757412E-015  0.9000773E+02  0.7816164E-02  0.1186339E+00
        -11   -1    0    0    0    0  0.00000000000E+00  0.00000000000E+00  0.45593999997E+02  0.45594000000E+02  0.51100000000E-03 0.  1.
         11   -1    0    0    0    0 -0.00000000000E+00 -0.00000000000E+00 -0.45593999997E+02  0.45594000000E+02  0.51100000000E-03 0. -1.
    9900012    2    1    2    0    0  0.83197561434E-01 -0.11703576517E+01 -0.12799139826E+00  0.90007728563E+02  0.89999989780E+02 0.  0.
        -12    1    1    2    0    0 -0.83197561434E-01  0.11703576517E+01  0.12799139826E+00  0.11802714371E+01  0.00000000000E+00 0.  1.
         11    1    3    3    0    0 -0.60607967927E+01 -0.68471259899E+01  0.15575370151E+01  0.92758996275E+01  0.51100000000E-03 0. -1.
        -11    1    3    3    0    0 -0.14413795561E+01  0.16493378926E+02  0.36632577324E+02  0.40200184640E+02  0.51100000000E-03 0.  1.
         12    1    3    3    0    0  0.75853739103E+01 -0.10816610588E+02 -0.38318105738E+02  0.40531644295E+02  0.00000000000E+00 0. -1.
</event>
<event>
 7    1  0.3757412E-015  0.9000790E+02  0.7816164E-02  0.1186339E+00
        -11   -1    0    0    0    0  0.00000000000E+00  0.00000000000E+00  0.45593999997E+02  0.45594000000E+02  0.51100000000E-03 0. -1.
         11   -1    0    0    0    0 -0.00000000000E+00 -0.00000000000E+00 -0.45593999997E+02  0.45594000000E+02  0.51100000000E-03 0.  1.
    9900012    2    1    2    0    0 -0.10442511896E+01  0.52194624351E+00  0.17244934173E+00  0.90007903731E+02  0.90000167260E+02 0.  0.
        -12    1    1    2    0    0  0.10442511896E+01 -0.52194624351E+00 -0.17244934173E+00  0.11800962688E+01  0.00000000000E+00 0.  1.
         11    1    3    3    0    0  0.27086711169E+02  0.11586968853E+02  0.18021804052E+01  0.29516023168E+02  0.51100000000E-03 0. -1.
        -11    1    3    3    0    0  0.27784148548E+01  0.17159314619E+02  0.50587222573E+01  0.18103931574E+02  0.51100000000E-03 0.  1.
        -12    1    3    3    0    0 -0.30909377213E+02 -0.28224337229E+02 -0.66884533207E+01  0.42387948990E+02  0.00000000000E+00 0.  1.
</event>
<event>
 7    1  0.3757412E-015  0.9000768E+02  0.7816164E-02  0.1186339E+00
        -11   -1    0    0    0    0  0.00000000000E+00  0.00000000000E+00  0.45593999997E+02  0.45594000000E+02  0.51100000000E-03 0.  1.
         11   -1    0    0    0    0 -0.00000000000E+00 -0.00000000000E+00 -0.45593999997E+02  0.45594000000E+02  0.51100000000E-03 0. -1.
    9900012    2    1    2    0    0  0.70479103620E+00  0.63342136394E+00 -0.70371132471E+00  0.90007676884E+02  0.89999937419E+02 0.  0.
        -12    1    1    2    0    0 -0.70479103620E+00 -0.63342136394E+00  0.70371132471E+00  0.11803231157E+01  0.00000000000E+00 0.  1.
         11    1    3    3    0    0 -0.67901764579E+01  0.47976762264E+01 -0.40200689649E+01  0.92349958444E+01  0.51100000000E-03 0. -1.
        -11    1    3    3    0    0 -0.57328133201E+00 -0.39732141007E+02  0.15003421336E+02  0.42474396199E+02  0.51100000000E-03 0.  1.
         12    1    3    3    0    0  0.80682488261E+01  0.35567886144E+02 -0.11687063696E+02  0.38298284840E+02  0.00000000000E+00 0. -1.
</event>
<event>
 7    1  0.3757412E-015  0.9000776E+02  0.7816164E-02  0.1186339E+00
        -11   -1    0    0    0    0  0.00000000000E+00  0.00000000000E+00  0.45593999997E+02  0.45594000000E+02  0.51100000000E-03 0.  1.
         11   -1    0    0    0    0 -0.00000000000E+00 -0.00000000000E+00 -0.45593999997E+02  0.45594000000E+02  0.51100000000E-03 0. -1.
    9900012    2    1    2    0    0 -0.10791993526E+01  0.38577585931E+00  0.28190636199E+00  0.90007760426E+02  0.90000022063E+02 0.  0.
        -12    1    1    2    0    0  0.10791993526E+01 -0.38577585931E+00 -0.28190636199E+00  0.11802395745E+01  0.00000000000E+00 0.  1.
         11    1    3    3    0    0 -0.57134547120E+01  0.26577830533E+01  0.61985423810E+01  0.88390781993E+01  0.51100000000E-03 0. -1.
        -11    1    3    3    0    0 -0.30052292780E+02 -0.69120754757E+01  0.20752349867E+02  0.37169572421E+02  0.51100000000E-03 0.  1.
         12    1    3    3    0    0  0.34686548139E+02  0.46400682817E+01 -0.26668985886E+02  0.43999109805E+02  0.00000000000E+00 0. -1.
</event>
<event>
 7    1  0.3757412E-015  0.9000773E+02  0.7816164E-02  0.1186339E+00
        -11   -1    0    0    0    0  0.00000000000E+00  0.00000000000E+00  0.45593999997E+02  0.45594000000E+02  0.51100000000E-03 0.  1.
         11   -1    0    0    0    0 -0.00000000000E+00 -0.00000000000E+00 -0.45593999997E+02  0.45594000000E+02  0.51100000000E-03 0. -1.
    9900012    2    1    2    0    0 -0.94819266684E+00  0.70239149854E+00 -0.25007613153E-01  0.90007725231E+02  0.89999986404E+02 0.  0.
        -12    1    1    2    0    0  0.94819266684E+00 -0.70239149854E+00  0.25007613153E-01  0.11802747694E+01  0.00000000000E+00 0.  1.
         11    1    3    3    0    0 -0.13491851269E+02  0.13975277854E+02 -0.35113027566E+02  0.40128084266E+02  0.51100000000E-03 0. -1.
        -11    1    3    3    0    0  0.67832806490E+01 -0.37457339262E+01 -0.43596587118E+01  0.88910091302E+01  0.51100000000E-03 0.  1.
        -12    1    3    3    0    0  0.57603779535E+01 -0.95271524294E+01  0.39447678665E+02  0.40988631834E+02  0.00000000000E+00 0.  1.
</event>
<event>
 7    1  0.3757412E-015  0.9000775E+02  0.7816164E-02  0.1186339E+00
        -11   -1    0    0    0    0  0.00000000000E+00  0.00000000000E+00  0.45593999997E+02  0.45594000000E+02  0.51100000000E-03 0.  1.
         11   -1    0    0    0    0 -0.00000000000E+00 -0.00000000000E+00 -0.45593999997E+02  0.45594000000E+02  0.51100000000E-03 0. -1.
    9900012    2    1    2    0    0 -0.57513425088E+00  0.46882955860E+00 -0.91783243652E+00  0.90007747085E+02  0.90000008547E+02 0.  0.
        -12    1    1    2    0    0  0.57513425088E+00 -0.46882955860E+00  0.91783243652E+00  0.11802529149E+01  0.00000000000E+00 0.  1.
         11    1    3    3    0    0 -0.39451136737E+01 -0.45899549278E+01  0.64774796575E+01  0.88650635143E+01  0.51100000000E-03 0. -1.
        -11    1    3    3    0    0  0.88268309606E+01 -0.49581111238E+01  0.35417645328E+02  0.36836197030E+02  0.51100000000E-03 0.  1.
         12    1    3    3    0    0 -0.54568515378E+01  0.10016895610E+02 -0.42812957423E+02  0.44306486541E+02  0.00000000000E+00 0. -1.
</event>
<event>
 7    1  0.3757412E-015  0.9000766E+02  0.7816164E-02  0.1186339E+00
        -11   -1    0    0    0    0  0.00000000000E+00  0.00000000000E+00  0.45593999997E+02  0.45594000000E+02  0.51100000000E-03 0.  1.
         11   -1    0    0    0    0 -0.00000000000E+00 -0.00000000000E+00 -0.45593999997E+02  0.45594000000E+02  0.51100000000E-03 0. -1.
    9900012    2    1    2    0    0 -0.42242128532E+00  0.10837483962E+01 -0.20063690730E+00  0.90007658737E+02  0.89999919032E+02 0.  0.
        -12    1    1    2    0    0  0.42242128532E+00 -0.10837483962E+01  0.20063690730E+00  0.11803412630E+01  0.00000000000E+00 0.  1.
         11    1    3    3    0    0 -0.11709852240E+01  0.12729803417E-01  0.85104952222E+01  0.85906866798E+01  0.51100000000E-03 0. -1.
        -11    1    3    3    0    0  0.35277953111E+02  0.50662040215E+01  0.15696984034E+02  0.38943493769E+02  0.51100000000E-03 0.  1.
         12    1    3    3    0    0 -0.34529389172E+02 -0.39951854287E+01 -0.24408116164E+02  0.42473478288E+02  0.00000000000E+00 0. -1.
</event>
<event>
 7    1  0.3757412E-015  0.9000772E+02  0.7816164E-02  0.1186339E+00
        -11   -1    0    0    0    0  0.00000000000E+00  0.00000000000E+00  0.45593999997E+02  0.45594000000E+02  0.51100000000E-03 0.  1.
         11   -1    0    0    0    0 -0.00000000000E+00 -0.00000000000E+00 -0.45593999997E+02  0.45594000000E+02  0.51100000000E-03 0. -1.
    9900012    2    1    2    0    0 -0.24550049450E+00 -0.59838640845E+00 -0.98727590753E+00  0.90007724395E+02  0.89999985557E+02 0.  0.
        -12    1    1    2    0    0  0.24550049450E+00  0.59838640845E+00  0.98727590753E+00  0.11802756052E+01  0.00000000000E+00 0.  1.
         11    1    3    3    0    0 -0.41283145416E+01  0.55022264893E+01 -0.63557156222E+01  0.93655004471E+01  0.51100000000E-03 0. -1.
        -11    1    3    3    0    0 -0.14167444835E+02  0.30894520729E+02 -0.11888880405E+02  0.36007407319E+02  0.51100000000E-03 0.  1.
         12    1    3    3    0    0  0.18050258882E+02 -0.36995133627E+02  0.17257320120E+02  0.44634816629E+02  0.00000000000E+00 0. -1.
</event>
<event>
 7    1  0.3757412E-015  0.9000773E+02  0.7816164E-02  0.1186339E+00
        -11   -1    0    0    0    0  0.00000000000E+00  0.00000000000E+00  0.45593999997E+02  0.45594000000E+02  0.51100000000E-03 0. -1.
         11   -1    0    0    0    0 -0.00000000000E+00 -0.00000000000E+00 -0.45593999997E+02  0.45594000000E+02  0.51100000000E-03 0.  1.
    9900012    2    1    2    0    0 -0.31968716906E+00  0.62865688937E+00  0.94637613929E+00  0.90007730045E+02  0.89999991281E+02 0.  0.
        -12    1    1    2    0    0  0.31968716906E+00 -0.62865688937E+00 -0.94637613929E+00  0.11802699554E+01  0.00000000000E+00 0.  1.
         11    1    3    3    0    0 -0.13667324239E+02  0.29011030839E+02  0.42761360629E+01  0.32353067893E+02  0.51100000000E-03 0. -1.
        -11    1    3    3    0    0 -0.50261468134E+01  0.11923048800E+02 -0.33221055988E+01  0.13358803477E+02  0.51100000000E-03 0.  1.
        -12    1    3    3    0    0  0.18373783884E+02 -0.40305422749E+02 -0.76543247906E-02  0.44295858675E+02  0.00000000000E+00 0.  1.
</event>
<event>
 7    1  0.3757412E-015  0.9000773E+02  0.7816164E-02  0.1186339E+00
        -11   -1    0    0    0    0  0.00000000000E+00  0.00000000000E+00  0.45593999997E+02  0.45594000000E+02  0.51100000000E-03 0.  1.
         11   -1    0    0    0    0 -0.00000000000E+00 -0.00000000000E+00 -0.45593999997E+02  0.45594000000E+02  0.51100000000E-03 0. -1.
    9900012    2    1    2    0    0  0.25783485527E+00 -0.94255866006E+00 -0.66192016764E+00  0.90007731408E+02  0.89999992663E+02 0.  0.
        -12    1    1    2    0    0 -0.25783485527E+00  0.94255866006E+00  0.66192016764E+00  0.11802685917E+01  0.00000000000E+00 0.  1.
         11    1    3    3    0    0 -0.24521125483E+01 -0.43716375226E+01  0.81910459825E+01  0.96029841782E+01  0.51100000000E-03 0. -1.
        -11    1    3    3    0    0 -0.62359307003E+01  0.38420956611E+02  0.92452728332E+01  0.40006647056E+02  0.51100000000E-03 0.  1.
         12    1    3    3    0    0  0.89458781039E+01 -0.34991877749E+02 -0.18098238983E+02  0.40398100175E+02  0.00000000000E+00 0. -1.
</event>
<event>
 7    1  0.3757412E-015  0.9000791E+02  0.7816164E-02  0.1186339E+00
        -11   -1    0    0    0    0  0.00000000000E+00  0.00000000000E+00  0.45593999997E+02  0.45594000000E+02  0.51100000000E-03 0.  1.
         11   -1    0    0    0    0 -0.00000000000E+00 -0.00000000000E+00 -0.45593999997E+02  0.45594000000E+02  0.51100000000E-03 0. -1.
    9900012    2    1    2    0    0  0.17943481896E+00 -0.95202520341E+00 -0.67384016410E+00  0.90007911271E+02  0.90000174899E+02 0.  0.
        -12    1    1    2    0    0 -0.17943481896E+00  0.95202520341E+00  0.67384016410E+00  0.11800887293E+01  0.00000000000E+00 0.  1.
         11    1    3    3    0    0  0.25764554422E+02  0.10053451364E+02 -0.30180883958E+02  0.40936168673E+02  0.51100000000E-03 0. -1.
        -11    1    3    3    0    0 -0.74730848182E+01 -0.72370064996E+00 -0.48190219182E+01  0.89215308013E+01  0.51100000000E-03 0.  1.
        -12    1    3    3    0    0 -0.18112034785E+02 -0.10281775917E+02  0.34326065712E+02  0.40150211797E+02  0.00000000000E+00 0.  1.
</event>
<event>
 7    1  0.3757412E-015  0.9000768E+02  0.7816164E-02  0.1186339E+00
        -11   -1    0    0    0    0  0.00000000000E+00  0.00000000000E+00  0.45593999997E+02  0.45594000000E+02  0.51100000000E-03 0. -1.
         11   -1    0    0    0    0 -0.00000000000E+00 -0.00000000000E+00 -0.45593999997E+02  0.45594000000E+02  0.51100000000E-03 0.  1.
    9900012    2    1    2    0    0 -0.91996206251E+00 -0.71131457601E+00  0.20214507446E+00  0.90007677479E+02  0.89999938022E+02 0.  0.
        -12    1    1    2    0    0  0.91996206251E+00  0.71131457601E+00 -0.20214507446E+00  0.11803225210E+01  0.00000000000E+00 0.  1.
         11    1    3    3    0    0  0.57508319491E+01  0.62899096415E+01 -0.28273554682E+01  0.89793635972E+01  0.51100000000E-03 0. -1.
        -11    1    3    3    0    0  0.17014318301E+02  0.17512286533E+02 -0.26425217226E+02  0.35978595199E+02  0.51100000000E-03 0.  1.
         12    1    3    3    0    0 -0.23685112312E+02 -0.24513510750E+02  0.29454717768E+02  0.45049718682E+02  0.00000000000E+00 0. -1.
</event>
<event>
 7    1  0.3757412E-015  0.9000780E+02  0.7816164E-02  0.1186339E+00
        -11   -1    0    0    0    0  0.00000000000E+00  0.00000000000E+00  0.45593999997E+02  0.45594000000E+02  0.51100000000E-03 0.  1.
         11   -1    0    0    0    0 -0.00000000000E+00 -0.00000000000E+00 -0.45593999997E+02  0.45594000000E+02  0.51100000000E-03 0. -1.
    9900012    2    1    2    0    0  0.11713288003E+01  0.11959321267E+00 -0.80927602383E-01  0.90007803842E+02  0.90000066053E+02 0.  0.
        -12    1    1    2    0    0 -0.11713288003E+01 -0.11959321267E+00  0.80927602383E-01  0.11801961582E+01  0.00000000000E+00 0.  1.
         11    1    3    3    0    0  0.32703113833E+02  0.28796835082E+01 -0.12523580008E+02  0.35137249294E+02  0.51100000000E-03 0. -1.
        -11    1    3    3    0    0 -0.82536803655E+00 -0.43438819714E+01 -0.13772447030E+02  0.14464813875E+02  0.51100000000E-03 0.  1.
        -12    1    3    3    0    0 -0.30706416996E+02  0.15837916759E+01  0.26215099436E+02  0.40405740672E+02  0.00000000000E+00 0.  1.
</event>
<event>
 7    1  0.3757412E-015  0.9000776E+02  0.7816164E-02  0.1186339E+00
        -11   -1    0    0    0    0  0.00000000000E+00  0.00000000000E+00  0.45593999997E+02  0.45594000000E+02  0.51100000000E-03 0. -1.
         11   -1    0    0    0    0 -0.00000000000E+00 -0.00000000000E+00 -0.45593999997E+02  0.45594000000E+02  0.51100000000E-03 0.  1.
    9900012    2    1    2    0    0  0.48628984268E+00  0.10723304607E+01  0.81144922098E-01  0.90007764885E+02  0.90000026582E+02 0.  0.
        -12    1    1    2    0    0 -0.48628984268E+00 -0.10723304607E+01 -0.81144922098E-01  0.11802351149E+01  0.00000000000E+00 0.  1.
         11    1    3    3    0    0 -0.52478573172E+00  0.11601543284E+00 -0.10137422743E+02  0.10151659952E+02  0.51100000000E-03 0. -1.
        -11    1    3    3    0    0  0.14134185319E+02  0.95529581054E+00 -0.32347205484E+02  0.35313304682E+02  0.51100000000E-03 0.  1.
         12    1    3    3    0    0 -0.13123109745E+02  0.10192172999E-02  0.42565773149E+02  0.44542800251E+02  0.00000000000E+00 0. -1.
</event>
<event>
 7    1  0.3757412E-015  0.9000781E+02  0.7816164E-02  0.1186339E+00
        -11   -1    0    0    0    0  0.00000000000E+00  0.00000000000E+00  0.45593999997E+02  0.45594000000E+02  0.51100000000E-03 0.  1.
         11   -1    0    0    0    0 -0.00000000000E+00 -0.00000000000E+00 -0.45593999997E+02  0.45594000000E+02  0.51100000000E-03 0. -1.
    9900012    2    1    2    0    0 -0.10252075226E+01  0.11217241464E+00 -0.57377860863E+00  0.90007807216E+02  0.90000069471E+02 0.  0.
        -12    1    1    2    0    0  0.10252075226E+01 -0.11217241464E+00  0.57377860863E+00  0.11801927837E+01  0.00000000000E+00 0.  1.
         11    1    3    3    0    0  0.84933558539E+01 -0.40602821002E+01  0.57215536287E+01  0.11016313384E+02  0.51100000000E-03 0. -1.
        -11    1    3    3    0    0  0.12809161100E+02 -0.32987570594E+02 -0.30315291843E+01  0.35516821243E+02  0.51100000000E-03 0.  1.
         12    1    3    3    0    0 -0.22327724476E+02  0.37160025109E+02 -0.32638030531E+01  0.43474672589E+02  0.00000000000E+00 0. -1.
</event>
<event>
 7    1  0.3757412E-015  0.9000776E+02  0.7816164E-02  0.1186339E+00
        -11   -1    0    0    0    0  0.00000000000E+00  0.00000000000E+00  0.45593999997E+02  0.45594000000E+02  0.51100000000E-03 0. -1.
         11   -1    0    0    0    0 -0.00000000000E+00 -0.00000000000E+00 -0.45593999997E+02  0.45594000000E+02  0.51100000000E-03 0.  1.
    9900012    2    1    2    0    0 -0.93254339067E+00  0.38937421692E+00  0.60967664593E+00  0.90007764825E+02  0.90000026520E+02 0.  0.
        -12    1    1    2    0    0  0.93254339067E+00 -0.38937421692E+00 -0.60967664593E+00  0.11802351752E+01  0.00000000000E+00 0.  1.
         11    1    3    3    0    0  0.18216668434E+01  0.30423145793E+02  0.28081154811E+02  0.41441977822E+02  0.51100000000E-03 0. -1.
        -11    1    3    3    0    0  0.24448218351E+01 -0.99517692755E+01  0.38927858496E+01  0.10962146115E+02  0.51100000000E-03 0.  1.
        -12    1    3    3    0    0 -0.51990320691E+01 -0.20082002301E+02 -0.31364264014E+02  0.37603640888E+02  0.00000000000E+00 0.  1.
</event>
<event>
 7    1  0.3757412E-015  0.9000782E+02  0.7816164E-02  0.1186339E+00
        -11   -1    0    0    0    0  0.00000000000E+00  0.00000000000E+00  0.45593999997E+02  0.45594000000E+02  0.51100000000E-03 0. -1.
         11   -1    0    0    0    0 -0.00000000000E+00 -0.00000000000E+00 -0.45593999997E+02  0.45594000000E+02  0.51100000000E-03 0.  1.
    9900012    2    1    2    0    0  0.70012119813E+00 -0.89435207522E+00 -0.32061236380E+00  0.90007818821E+02  0.90000081230E+02 0.  0.
        -12    1    1    2    0    0 -0.70012119813E+00  0.89435207522E+00  0.32061236380E+00  0.11801811786E+01  0.00000000000E+00 0.  1.
         11    1    3    3    0    0 -0.72251940091E+01  0.30374529146E+02  0.20940850953E+02  0.37594343833E+02  0.51100000000E-03 0. -1.
        -11    1    3    3    0    0 -0.53377111591E+00 -0.11245642323E+02  0.95111001812E+01  0.14738059906E+02  0.51100000000E-03 0.  1.
        -12    1    3    3    0    0  0.84590863231E+01 -0.20023238898E+02 -0.30772563498E+02  0.37675415083E+02  0.00000000000E+00 0.  1.
</event>
<event>
 7    1  0.3757412E-015  0.9000767E+02  0.7816164E-02  0.1186339E+00
        -11   -1    0    0    0    0  0.00000000000E+00  0.00000000000E+00  0.45593999997E+02  0.45594000000E+02  0.51100000000E-03 0. -1.
         11   -1    0    0    0    0 -0.00000000000E+00 -0.00000000000E+00 -0.45593999997E+02  0.45594000000E+02  0.51100000000E-03 0.  1.
    9900012    2    1    2    0    0 -0.74856820126E-01  0.11749893174E+01  0.83558823562E-01  0.90007667201E+02  0.89999927608E+02 0.  0.
        -12    1    1    2    0    0  0.74856820126E-01 -0.11749893174E+01 -0.83558823562E-01  0.11803327990E+01  0.00000000000E+00 0.  1.
         11    1    3    3    0    0 -0.10896469325E+02  0.93505326994E+01  0.37150832542E+02  0.39829007825E+02  0.51100000000E-03 0. -1.
        -11    1    3    3    0    0  0.34517154839E+01 -0.95814633958E+01  0.20159026613E+01  0.10381842052E+02  0.51100000000E-03 0.  1.
        -12    1    3    3    0    0  0.73698970213E+01  0.14059200138E+01 -0.39083176380E+02  0.39796817324E+02  0.00000000000E+00 0.  1.
</event>
<event>
 7    1  0.3757412E-015  0.9000770E+02  0.7816164E-02  0.1186339E+00
        -11   -1    0    0    0    0  0.00000000000E+00  0.00000000000E+00  0.45593999997E+02  0.45594000000E+02  0.51100000000E-03 0.  1.
         11   -1    0    0    0    0 -0.00000000000E+00 -0.00000000000E+00 -0.45593999997E+02  0.45594000000E+02  0.51100000000E-03 0. -1.
    9900012    2    1    2    0    0 -0.15555767624E+00  0.11280349998E+01 -0.31057230788E+00  0.90007696518E+02  0.89999957312E+02 0.  0.
        -12    1    1    2    0    0  0.15555767624E+00 -0.11280349998E+01  0.31057230788E+00  0.11803034821E+01  0.00000000000E+00 0.  1.
         11    1    3    3    0    0 -0.65881996995E+01 -0.22719116814E+02 -0.14797896487E+02  0.27902336547E+02  0.51100000000E-03 0. -1.
        -11    1    3    3    0    0 -0.94942300515E+01 -0.14216038718E+02  0.11769966510E+02  0.20754957794E+02  0.51100000000E-03 0.  1.
        -12    1    3    3    0    0  0.15926872075E+02  0.38063190532E+02  0.27173576689E+01  0.41350402177E+02  0.00000000000E+00 0.  1.
</event>
<event>
 7    1  0.3757412E-015  0.9000757E+02  0.7816164E-02  0.1186339E+00
        -11   -1    0    0    0    0  0.00000000000E+00  0.00000000000E+00  0.45593999997E+02  0.45594000000E+02  0.51100000000E-03 0.  1.
         11   -1    0    0    0    0 -0.00000000000E+00 -0.00000000000E+00 -0.45593999997E+02  0.45594000000E+02  0.51100000000E-03 0. -1.
    9900012    2    1    2    0    0  0.10822142840E+01 -0.34223481499E-01 -0.47017472995E+00  0.90007566486E+02  0.89999825564E+02 0.  0.
        -12    1    1    2    0    0 -0.10822142840E+01  0.34223481499E-01  0.47017472995E+00  0.11804335135E+01  0.00000000000E+00 0.  1.
         11    1    3    3    0    0  0.59407125299E+01  0.67082348053E+01 -0.36162034617E+01  0.96627846558E+01  0.51100000000E-03 0. -1.
        -11    1    3    3    0    0  0.14309786443E+02  0.11640039683E+02  0.34580681113E+02  0.39192907756E+02  0.51100000000E-03 0.  1.
         12    1    3    3    0    0 -0.19168284689E+02 -0.18382497969E+02 -0.31434652382E+02  0.41151874075E+02  0.00000000000E+00 0. -1.
</event>
<event>
 7    1  0.3757412E-015  0.9000777E+02  0.7816164E-02  0.1186339E+00
        -11   -1    0    0    0    0  0.00000000000E+00  0.00000000000E+00  0.45593999997E+02  0.45594000000E+02  0.51100000000E-03 0. -1.
         11   -1    0    0    0    0 -0.00000000000E+00 -0.00000000000E+00 -0.45593999997E+02  0.45594000000E+02  0.51100000000E-03 0.  1.
    9900012    2    1    2    0    0 -0.34794924558E+00 -0.88254058531E+00 -0.70213054455E+00  0.90007773808E+02  0.90000035622E+02 0.  0.
        -12    1    1    2    0    0  0.34794924558E+00  0.88254058531E+00  0.70213054455E+00  0.11802261918E+01  0.00000000000E+00 0.  1.
         11    1    3    3    0    0  0.58754595640E+01 -0.81243019098E+01 -0.25889003727E+01  0.10355081458E+02  0.51100000000E-03 0. -1.
        -11    1    3    3    0    0 -0.39507501827E+02  0.89124461474E+01 -0.13843342764E+02  0.42800847376E+02  0.51100000000E-03 0.  1.
         12    1    3    3    0    0  0.33284093018E+02 -0.16706848229E+01  0.15730112592E+02  0.36851844974E+02  0.00000000000E+00 0. -1.
</event>
<event>
 7    1  0.3757412E-015  0.9000775E+02  0.7816164E-02  0.1186339E+00
        -11   -1    0    0    0    0  0.00000000000E+00  0.00000000000E+00  0.45593999997E+02  0.45594000000E+02  0.51100000000E-03 0.  1.
         11   -1    0    0    0    0 -0.00000000000E+00 -0.00000000000E+00 -0.45593999997E+02  0.45594000000E+02  0.51100000000E-03 0. -1.
    9900012    2    1    2    0    0  0.21878948297E+00  0.79445924052E+00 -0.84495779704E+00  0.90007750873E+02  0.90000012385E+02 0.  0.
        -12    1    1    2    0    0 -0.21878948297E+00 -0.79445924052E+00  0.84495779704E+00  0.11802491269E+01  0.00000000000E+00 0.  1.
         11    1    3    3    0    0  0.69894841227E+00  0.64235105618E+01 -0.92975984406E+01  0.11322338709E+02  0.51100000000E-03 0. -1.
        -11    1    3    3    0    0  0.34462468955E+02 -0.73469026814E+01  0.21578694375E+02  0.41319230350E+02  0.51100000000E-03 0.  1.
         12    1    3    3    0    0 -0.34942627885E+02  0.17178513601E+01 -0.13126053732E+02  0.37366181814E+02  0.00000000000E+00 0. -1.
</event>
<event>
 7    1  0.3757412E-015  0.9000774E+02  0.7816164E-02  0.1186339E+00
        -11   -1    0    0    0    0  0.00000000000E+00  0.00000000000E+00  0.45593999997E+02  0.45594000000E+02  0.51100000000E-03 0.  1.
         11   -1    0    0    0    0 -0.00000000000E+00 -0.00000000000E+00 -0.45593999997E+02  0.45594000000E+02  0.51100000000E-03 0. -1.
    9900012    2    1    2    0    0 -0.32150798878E+00  0.67140111497E+00 -0.91589539410E+00  0.90007741038E+02  0.90000002420E+02 0.  0.
        -12    1    1    2    0    0  0.32150798878E+00 -0.67140111497E+00  0.91589539410E+00  0.11802589618E+01  0.00000000000E+00 0.  1.
         11    1    3    3    0    0 -0.22499010725E+01 -0.11645392554E+01  0.94379234927E+01  0.97720318578E+01  0.51100000000E-03 0. -1.
        -11    1    3    3    0    0 -0.74137891734E+01 -0.14838149091E+01  0.33977850029E+02  0.34808910776E+02  0.51100000000E-03 0.  1.
         12    1    3    3    0    0  0.93421822571E+01  0.33197552795E+01 -0.44331668915E+02  0.45426798404E+02  0.00000000000E+00 0. -1.
</event>
<event>
 7    1  0.3757412E-015  0.9000770E+02  0.7816164E-02  0.1186339E+00
        -11   -1    0    0    0    0  0.00000000000E+00  0.00000000000E+00  0.45593999997E+02  0.45594000000E+02  0.51100000000E-03 0. -1.
         11   -1    0    0    0    0 -0.00000000000E+00 -0.00000000000E+00 -0.45593999997E+02  0.45594000000E+02  0.51100000000E-03 0.  1.
    9900012    2    1    2    0    0  0.62304436287E-01 -0.86840140427E+00  0.79693121469E+00  0.90007702494E+02  0.89999963367E+02 0.  0.
        -12    1    1    2    0    0 -0.62304436287E-01  0.86840140427E+00 -0.79693121469E+00  0.11802975060E+01  0.00000000000E+00 0.  1.
         11    1    3    3    0    0  0.77635807778E+01  0.10390296684E+02 -0.39342279377E+00  0.12976372122E+02  0.51100000000E-03 0. -1.
        -11    1    3    3    0    0  0.14184022488E+02  0.26451611134E+02  0.11645295788E+02  0.32194520337E+02  0.51100000000E-03 0.  1.
         12    1    3    3    0    0 -0.21885298830E+02 -0.37710309222E+02 -0.10454941780E+02  0.44836810035E+02  0.00000000000E+00 0. -1.
</event>
<event>
 7    1  0.3757412E-015  0.9000768E+02  0.7816164E-02  0.1186339E+00
        -11   -1    0    0    0    0  0.00000000000E+00  0.00000000000E+00  0.45593999997E+02  0.45594000000E+02  0.51100000000E-03 0. -1.
         11   -1    0    0    0    0 -0.00000000000E+00 -0.00000000000E+00 -0.45593999997E+02  0.45594000000E+02  0.51100000000E-03 0.  1.
    9900012    2    1    2    0    0  0.94216053244E+00 -0.44205464532E-01 -0.70960073593E+00  0.90007680638E+02  0.89999941222E+02 0.  0.
        -12    1    1    2    0    0 -0.94216053244E+00  0.44205464532E-01  0.70960073593E+00  0.11803193620E+01  0.00000000000E+00 0.  1.
         11    1    3    3    0    0  0.27111284642E+02 -0.27588468232E+02 -0.79631753344E+01  0.39491233154E+02  0.51100000000E-03 0. -1.
        -11    1    3    3    0    0 -0.11446965511E+02 -0.61102790178E+01 -0.45042479885E+00  0.12983505376E+02  0.51100000000E-03 0.  1.
        -12    1    3    3    0    0 -0.14722158598E+02  0.33654541786E+02  0.77039993973E+01  0.37532942108E+02  0.00000000000E+00 0.  1.
</event>
<event>
 7    1  0.3757412E-015  0.9000772E+02  0.7816164E-02  0.1186339E+00
        -11   -1    0    0    0    0  0.00000000000E+00  0.00000000000E+00  0.45593999997E+02  0.45594000000E+02  0.51100000000E-03 0. -1.
         11   -1    0    0    0    0 -0.00000000000E+00 -0.00000000000E+00 -0.45593999997E+02  0.45594000000E+02  0.51100000000E-03 0.  1.
    9900012    2    1    2    0    0 -0.88446936813E+00  0.45926367775E+00  0.63232913996E+00  0.90007724892E+02  0.89999986061E+02 0.  0.
        -12    1    1    2    0    0  0.88446936813E+00 -0.45926367775E+00 -0.63232913996E+00  0.11802751078E+01  0.00000000000E+00 0.  1.
         11    1    3    3    0    0 -0.39807432415E+01 -0.83466252211E+01 -0.25762669499E+01  0.95994594116E+01  0.51100000000E-03 0. -1.
        -11    1    3    3    0    0 -0.15591025959E+02 -0.42506821519E+00 -0.34198018218E+02  0.37586769264E+02  0.51100000000E-03 0.  1.
         12    1    3    3    0    0  0.18687299832E+02  0.92309571141E+01  0.37406614308E+02  0.42821496216E+02  0.00000000000E+00 0. -1.
</event>
<event>
 7    1  0.3757412E-015  0.9000769E+02  0.7816164E-02  0.1186339E+00
        -11   -1    0    0    0    0  0.00000000000E+00  0.00000000000E+00  0.45593999997E+02  0.45594000000E+02  0.51100000000E-03 0.  1.
         11   -1    0    0    0    0 -0.00000000000E+00 -0.00000000000E+00 -0.45593999997E+02  0.45594000000E+02  0.51100000000E-03 0. -1.
    9900012    2    1    2    0    0  0.72289366682E+00  0.44178985664E+00 -0.82181926888E+00  0.90007686295E+02  0.89999946954E+02 0.  0.
        -12    1    1    2    0    0 -0.72289366682E+00 -0.44178985664E+00  0.82181926888E+00  0.11803137048E+01  0.00000000000E+00 0.  1.
         11    1    3    3    0    0 -0.95526331488E-01 -0.53670714736E+01  0.93784953568E+01  0.10806051865E+02  0.51100000000E-03 0. -1.
        -11    1    3    3    0    0 -0.27260943705E+02 -0.95235834188E+01  0.20063607940E+02  0.35162566127E+02  0.51100000000E-03 0.  1.
         12    1    3    3    0    0  0.28079363703E+02  0.15332444749E+02 -0.30263922566E+02  0.44039068303E+02  0.00000000000E+00 0. -1.
</event>
<event>
 7    1  0.3757412E-015  0.9000769E+02  0.7816164E-02  0.1186339E+00
        -11   -1    0    0    0    0  0.00000000000E+00  0.00000000000E+00  0.45593999997E+02  0.45594000000E+02  0.51100000000E-03 0.  1.
         11   -1    0    0    0    0 -0.00000000000E+00 -0.00000000000E+00 -0.45593999997E+02  0.45594000000E+02  0.51100000000E-03 0. -1.
    9900012    2    1    2    0    0  0.10606384272E+01 -0.21059300440E+00 -0.47309776197E+00  0.90007692930E+02  0.89999953677E+02 0.  0.
        -12    1    1    2    0    0 -0.10606384272E+01  0.21059300440E+00  0.47309776197E+00  0.11803070698E+01  0.00000000000E+00 0.  1.
         11    1    3    3    0    0  0.41866720379E+01 -0.22651041739E+02 -0.35311272848E+02  0.42160217089E+02  0.51100000000E-03 0. -1.
        -11    1    3    3    0    0 -0.71175889747E+01  0.15250378000E+01  0.31498484242E+00  0.72859473520E+01  0.51100000000E-03 0.  1.
        -12    1    3    3    0    0  0.39915553640E+01  0.20915410935E+02  0.34523190243E+02  0.40561528489E+02  0.00000000000E+00 0.  1.
</event>
<event>
 7    1  0.3757412E-015  0.9000759E+02  0.7816164E-02  0.1186339E+00
        -11   -1    0    0    0    0  0.00000000000E+00  0.00000000000E+00  0.45593999997E+02  0.45594000000E+02  0.51100000000E-03 0.  1.
         11   -1    0    0    0    0 -0.00000000000E+00 -0.00000000000E+00 -0.45593999997E+02  0.45594000000E+02  0.51100000000E-03 0. -1.
    9900012    2    1    2    0    0 -0.72765318873E-01 -0.43734919740E+00 -0.10939785860E+01  0.90007594028E+02  0.89999853469E+02 0.  0.
        -12    1    1    2    0    0  0.72765318873E-01  0.43734919740E+00  0.10939785860E+01  0.11804059720E+01  0.00000000000E+00 0.  1.
         11    1    3    3    0    0 -0.88810151677E+01  0.21379382816E+01  0.50054912167E+01  0.10416244673E+02  0.51100000000E-03 0. -1.
        -11    1    3    3    0    0 -0.16115516442E+02  0.18450482503E+02  0.24663540413E+02  0.34762341704E+02  0.51100000000E-03 0.  1.
         12    1    3    3    0    0  0.24923766291E+02 -0.21025769982E+02 -0.30763010216E+02  0.44829007651E+02  0.00000000000E+00 0. -1.
</event>
<event>
 7    1  0.3757412E-015  0.9000783E+02  0.7816164E-02  0.1186339E+00
        -11   -1    0    0    0    0  0.00000000000E+00  0.00000000000E+00  0.45593999997E+02  0.45594000000E+02  0.51100000000E-03 0.  1.
         11   -1    0    0    0    0 -0.00000000000E+00 -0.00000000000E+00 -0.45593999997E+02  0.45594000000E+02  0.51100000000E-03 0. -1.
    9900012    2    1    2    0    0  0.63205233867E+00  0.93315502888E+00  0.35003375922E+00  0.90007833868E+02  0.90000096475E+02 0.  0.
        -12    1    1    2    0    0 -0.63205233867E+00 -0.93315502888E+00 -0.35003375922E+00  0.11801661321E+01  0.00000000000E+00 0.  1.
         11    1    3    3    0    0  0.58851910697E+01  0.48231488229E+01  0.57354397408E+01  0.95285627340E+01  0.51100000000E-03 0. -1.
        -11    1    3    3    0    0 -0.67550493181E+01 -0.16608958551E+02  0.34340650499E+02  0.38739753128E+02  0.51100000000E-03 0.  1.
         12    1    3    3    0    0  0.15019105871E+01  0.12718964757E+02 -0.39726056480E+02  0.41739518006E+02  0.00000000000E+00 0. -1.
</event>
<event>
 7    1  0.3757412E-015  0.9000772E+02  0.7816164E-02  0.1186339E+00
        -11   -1    0    0    0    0  0.00000000000E+00  0.00000000000E+00  0.45593999997E+02  0.45594000000E+02  0.51100000000E-03 0.  1.
         11   -1    0    0    0    0 -0.00000000000E+00 -0.00000000000E+00 -0.45593999997E+02  0.45594000000E+02  0.51100000000E-03 0. -1.
    9900012    2    1    2    0    0  0.74982901630E+00  0.90466937258E+00  0.11133434257E+00  0.90007718015E+02  0.89999979093E+02 0.  0.
        -12    1    1    2    0    0 -0.74982901630E+00 -0.90466937258E+00 -0.11133434257E+00  0.11802819846E+01  0.00000000000E+00 0.  1.
         11    1    3    3    0    0  0.25562724960E+01 -0.87094518507E+01  0.16022682405E+01  0.92171765954E+01  0.51100000000E-03 0. -1.
        -11    1    3    3    0    0  0.30267232215E+02 -0.18102296401E+02  0.10391418765E+02  0.36766561780E+02  0.51100000000E-03 0.  1.
         12    1    3    3    0    0 -0.32073675695E+02  0.27716417625E+02 -0.11882352663E+02  0.44023979640E+02  0.00000000000E+00 0. -1.
</event>
<event>
 7    1  0.3757412E-015  0.9000783E+02  0.7816164E-02  0.1186339E+00
        -11   -1    0    0    0    0  0.00000000000E+00  0.00000000000E+00  0.45593999997E+02  0.45594000000E+02  0.51100000000E-03 0. -1.
         11   -1    0    0    0    0 -0.00000000000E+00 -0.00000000000E+00 -0.45593999997E+02  0.45594000000E+02  0.51100000000E-03 0.  1.
    9900012    2    1    2    0    0 -0.50720636452E+00 -0.37646903328E+00  0.99690669059E+00  0.90007826208E+02  0.90000088714E+02 0.  0.
        -12    1    1    2    0    0  0.50720636452E+00  0.37646903328E+00 -0.99690669059E+00  0.11801737919E+01  0.00000000000E+00 0.  1.
         11    1    3    3    0    0 -0.52870228886E+01  0.39188684753E+01  0.41150601149E+02  0.41673518166E+02  0.51100000000E-03 0. -1.
        -11    1    3    3    0    0  0.16797652941E+01  0.10096635857E+02 -0.80700076329E+01  0.13034135588E+02  0.51100000000E-03 0.  1.
        -12    1    3    3    0    0  0.31000512299E+01 -0.14391973365E+02 -0.32083686826E+02  0.35300172454E+02  0.00000000000E+00 0.  1.
</event>
<event>
 7    1  0.3757412E-015  0.9000776E+02  0.7816164E-02  0.1186339E+00
        -11   -1    0    0    0    0  0.00000000000E+00  0.00000000000E+00  0.45593999997E+02  0.45594000000E+02  0.51100000000E-03 0.  1.
         11   -1    0    0    0    0 -0.00000000000E+00 -0.00000000000E+00 -0.45593999997E+02  0.45594000000E+02  0.51100000000E-03 0. -1.
    9900012    2    1    2    0    0  0.92789708665E+00 -0.52204978646E+00 -0.50934334860E+00  0.90007762893E+02  0.90000024563E+02 0.  0.
        -12    1    1    2    0    0 -0.92789708665E+00  0.52204978646E+00  0.50934334860E+00  0.11802371074E+01  0.00000000000E+00 0.  1.
         11    1    3    3    0    0  0.35349291507E+02  0.10920296882E+02 -0.16244496685E+02  0.40406793573E+02  0.51100000000E-03 0. -1.
        -11    1    3    3    0    0 -0.35251214959E+00 -0.52514100379E+00  0.13756429017E+02  0.13770961385E+02  0.51100000000E-03 0.  1.
        -12    1    3    3    0    0 -0.34068882271E+02 -0.10917205665E+02  0.19787243193E+01  0.35830007935E+02  0.00000000000E+00 0.  1.
</event>
<event>
 7    1  0.3757412E-015  0.9000783E+02  0.7816164E-02  0.1186339E+00
        -11   -1    0    0    0    0  0.00000000000E+00  0.00000000000E+00  0.45593999997E+02  0.45594000000E+02  0.51100000000E-03 0.  1.
         11   -1    0    0    0    0 -0.00000000000E+00 -0.00000000000E+00 -0.45593999997E+02  0.45594000000E+02  0.51100000000E-03 0. -1.
    9900012    2    1    2    0    0  0.10718281289E+01 -0.49027319007E+00  0.60133865135E-01  0.90007830766E+02  0.90000093332E+02 0.  0.
        -12    1    1    2    0    0 -0.10718281289E+01  0.49027319007E+00 -0.60133865135E-01  0.11801692338E+01  0.00000000000E+00 0.  1.
         11    1    3    3    0    0  0.57379761469E+00 -0.10532622743E+02 -0.25730142768E+01  0.10857522197E+02  0.51100000000E-03 0. -1.
        -11    1    3    3    0    0  0.32591203397E+02 -0.90236467570E+01  0.18547986311E+02  0.38569943429E+02  0.51100000000E-03 0.  1.
         12    1    3    3    0    0 -0.32093172882E+02  0.19065996309E+02 -0.15914838169E+02  0.40580365140E+02  0.00000000000E+00 0. -1.
</event>
<event>
 7    1  0.3757412E-015  0.9000779E+02  0.7816164E-02  0.1186339E+00
        -11   -1    0    0    0    0  0.00000000000E+00  0.00000000000E+00  0.45593999997E+02  0.45594000000E+02  0.51100000000E-03 0. -1.
         11   -1    0    0    0    0 -0.00000000000E+00 -0.00000000000E+00 -0.45593999997E+02  0.45594000000E+02  0.51100000000E-03 0.  1.
    9900012    2    1    2    0    0  0.76748291323E+00  0.69678066455E+00  0.56424476528E+00  0.90007785836E+02  0.90000047810E+02 0.  0.
        -12    1    1    2    0    0 -0.76748291323E+00 -0.69678066455E+00 -0.56424476528E+00  0.11802141635E+01  0.00000000000E+00 0.  1.
         11    1    3    3    0    0 -0.56474412830E+01 -0.92733415406E+01 -0.16063951822E+01  0.10975835372E+02  0.51100000000E-03 0. -1.
        -11    1    3    3    0    0  0.36007022457E+02 -0.10115378763E+02 -0.13796978212E+02  0.39864560223E+02  0.51100000000E-03 0.  1.
         12    1    3    3    0    0 -0.29592098261E+02  0.20085500968E+02  0.15967618160E+02  0.39167390241E+02  0.00000000000E+00 0. -1.
</event>
<event>
 7    1  0.3757412E-015  0.9000770E+02  0.7816164E-02  0.1186339E+00
        -11   -1    0    0    0    0  0.00000000000E+00  0.00000000000E+00  0.45593999997E+02  0.45594000000E+02  0.51100000000E-03 0. -1.
         11   -1    0    0    0    0 -0.00000000000E+00 -0.00000000000E+00 -0.45593999997E+02  0.45594000000E+02  0.51100000000E-03 0.  1.
    9900012    2    1    2    0    0 -0.89321107798E+00  0.65159010566E+00  0.41317436917E+00  0.90007699718E+02  0.89999960555E+02 0.  0.
        -12    1    1    2    0    0  0.89321107798E+00 -0.65159010566E+00 -0.41317436917E+00  0.11803002817E+01  0.00000000000E+00 0.  1.
         11    1    3    3    0    0 -0.20757148725E+02 -0.22259588832E+02 -0.10744974856E+02  0.32276973264E+02  0.51100000000E-03 0. -1.
        -11    1    3    3    0    0  0.15538758511E+02 -0.78352475040E+01 -0.10081724520E+02  0.20111819636E+02  0.51100000000E-03 0.  1.
         12    1    3    3    0    0  0.43251791365E+01  0.30746426441E+02  0.21239873746E+02  0.37618906818E+02  0.00000000000E+00 0. -1.
</event>
<event>
 7    1  0.3757412E-015  0.9000772E+02  0.7816164E-02  0.1186339E+00
        -11   -1    0    0    0    0  0.00000000000E+00  0.00000000000E+00  0.45593999997E+02  0.45594000000E+02  0.51100000000E-03 0.  1.
         11   -1    0    0    0    0 -0.00000000000E+00 -0.00000000000E+00 -0.45593999997E+02  0.45594000000E+02  0.51100000000E-03 0. -1.
    9900012    2    1    2    0    0 -0.75131464040E+00 -0.57900788889E+00 -0.70238105490E+00  0.90007719114E+02  0.89999980206E+02 0.  0.
        -12    1    1    2    0    0  0.75131464040E+00  0.57900788889E+00  0.70238105490E+00  0.11802808863E+01  0.00000000000E+00 0.  1.
         11    1    3    3    0    0 -0.37441833314E+02 -0.63819788242E+01  0.79119925475E+01  0.38797166933E+02  0.51100000000E-03 0. -1.
        -11    1    3    3    0    0  0.30498521716E+00  0.45486629812E+01  0.95064591261E+01  0.10543060100E+02  0.51100000000E-03 0.  1.
        -12    1    3    3    0    0  0.36385533457E+02  0.12543079540E+01 -0.18120832728E+02  0.40667492081E+02  0.00000000000E+00 0.  1.
</event>
<event>
 7    1  0.3757412E-015  0.9000772E+02  0.7816164E-02  0.1186339E+00
        -11   -1    0    0    0    0  0.00000000000E+00  0.00000000000E+00  0.45593999997E+02  0.45594000000E+02  0.51100000000E-03 0. -1.
         11   -1    0    0    0    0 -0.00000000000E+00 -0.00000000000E+00 -0.45593999997E+02  0.45594000000E+02  0.51100000000E-03 0.  1.
    9900012    2    1    2    0    0 -0.96480796107E+00 -0.51412913554E+00 -0.44483780333E+00  0.90007718745E+02  0.89999979832E+02 0.  0.
        -12    1    1    2    0    0  0.96480796107E+00  0.51412913554E+00  0.44483780333E+00  0.11802812551E+01  0.00000000000E+00 0.  1.
         11    1    3    3    0    0 -0.55034847205E+01 -0.65017298582E+01  0.25422500415E+01  0.88895371506E+01  0.51100000000E-03 0. -1.
        -11    1    3    3    0    0 -0.22446998617E+02 -0.28460975789E+01 -0.32864369604E+02  0.39900310877E+02  0.51100000000E-03 0.  1.
         12    1    3    3    0    0  0.26985675376E+02  0.88336983015E+01  0.29877281759E+02  0.41217870718E+02  0.00000000000E+00 0. -1.
</event>
<event>
 7    1  0.3757412E-015  0.9000756E+02  0.7816164E-02  0.1186339E+00
        -11   -1    0    0    0    0  0.00000000000E+00  0.00000000000E+00  0.45593999997E+02  0.45594000000E+02  0.51100000000E-03 0.  1.
         11   -1    0    0    0    0 -0.00000000000E+00 -0.00000000000E+00 -0.45593999997E+02  0.45594000000E+02  0.51100000000E-03 0. -1.
    9900012    2    1    2    0    0 -0.10006417619E+00  0.26443194907E-01 -0.11758944783E+01  0.90007559444E+02  0.89999818429E+02 0.  0.
        -12    1    1    2    0    0  0.10006417619E+00 -0.26443194907E-01  0.11758944783E+01  0.11804405559E+01  0.00000000000E+00 0.  1.
         11    1    3    3    0    0 -0.46823088177E+01  0.23151888951E+01 -0.83464979284E+01  0.98462248306E+01  0.51100000000E-03 0. -1.
        -11    1    3    3    0    0 -0.13598218484E+02  0.45318816556E+01  0.39738266801E+02  0.42244281813E+02  0.51100000000E-03 0.  1.
         12    1    3    3    0    0  0.18180463125E+02 -0.68206273558E+01 -0.32567663351E+02  0.37917052801E+02  0.00000000000E+00 0. -1.
</event>
<event>
 7    1  0.3757412E-015  0.9000723E+02  0.7816164E-02  0.1186340E+00
        -11   -1    0    0    0    0  0.00000000000E+00  0.00000000000E+00  0.45593999997E+02  0.45594000000E+02  0.51100000000E-03 0.  1.
         11   -1    0    0    0    0 -0.00000000000E+00 -0.00000000000E+00 -0.45593999997E+02  0.45594000000E+02  0.51100000000E-03 0. -1.
    9900012    2    1    2    0    0 -0.96116660715E+00  0.13932006082E+00 -0.67153858626E+00  0.90007231014E+02  0.89999485662E+02 0.  0.
        -12    1    1    2    0    0  0.96116660715E+00 -0.13932006082E+00  0.67153858626E+00  0.11807689862E+01  0.00000000000E+00 0.  1.
         11    1    3    3    0    0 -0.55059095471E+01 -0.55577266866E+01 -0.92932532797E+01  0.12147753811E+02  0.51100000000E-03 0. -1.
        -11    1    3    3    0    0  0.70318701327E+01 -0.27258854983E+02  0.27869795586E+02  0.39613354804E+02  0.51100000000E-03 0.  1.
         12    1    3    3    0    0 -0.24871271928E+01  0.32955901730E+02 -0.19248080892E+02  0.38246122399E+02  0.00000000000E+00 0. -1.
</event>
<event>
 7    1  0.3757412E-015  0.9000769E+02  0.7816164E-02  0.1186339E+00
        -11   -1    0    0    0    0  0.00000000000E+00  0.00000000000E+00  0.45593999997E+02  0.45594000000E+02  0.51100000000E-03 0.  1.
         11   -1    0    0    0    0 -0.00000000000E+00 -0.00000000000E+00 -0.45593999997E+02  0.45594000000E+02  0.51100000000E-03 0. -1.
    9900012    2    1    2    0    0  0.25632046808E+00 -0.23952063976E+00 -0.11269659390E+01  0.90007693876E+02  0.89999954635E+02 0.  0.
        -12    1    1    2    0    0 -0.25632046808E+00  0.23952063976E+00  0.11269659390E+01  0.11803061242E+01  0.00000000000E+00 0.  1.
         11    1    3    3    0    0 -0.17452941951E+01  0.63800897650E+01  0.44832385749E+01  0.79906836765E+01  0.51100000000E-03 0. -1.
        -11    1    3    3    0    0 -0.36734066711E+02  0.56486338156E+01  0.10003053701E+02  0.38488437286E+02  0.51100000000E-03 0.  1.
         12    1    3    3    0    0  0.38735681374E+02 -0.12268244220E+02 -0.15613258215E+02  0.43528572913E+02  0.00000000000E+00 0. -1.
</event>
<event>
 7    1  0.3757412E-015  0.9000778E+02  0.7816164E-02  0.1186339E+00
        -11   -1    0    0    0    0  0.00000000000E+00  0.00000000000E+00  0.45593999997E+02  0.45594000000E+02  0.51100000000E-03 0. -1.
         11   -1    0    0    0    0 -0.00000000000E+00 -0.00000000000E+00 -0.45593999997E+02  0.45594000000E+02  0.51100000000E-03 0.  1.
    9900012    2    1    2    0    0 -0.95613669118E+00 -0.69120809410E+00 -0.30841724873E-01  0.90007780862E+02  0.90000042769E+02 0.  0.
        -12    1    1    2    0    0  0.95613669118E+00  0.69120809410E+00  0.30841724873E-01  0.11802191379E+01  0.00000000000E+00 0.  1.
         11    1    3    3    0    0 -0.31531220571E+01  0.78708290447E+01 -0.50010506414E+01  0.98439136697E+01  0.51100000000E-03 0. -1.
        -11    1    3    3    0    0  0.31151346174E+02 -0.10909300726E+02 -0.22689179606E+02  0.40052691323E+02  0.51100000000E-03 0.  1.
         12    1    3    3    0    0 -0.28954360808E+02  0.23472635875E+01  0.27659388523E+02  0.40111175869E+02  0.00000000000E+00 0. -1.
</event>
<event>
 7    1  0.3757412E-015  0.9000811E+02  0.7816164E-02  0.1186338E+00
        -11   -1    0    0    0    0  0.00000000000E+00  0.00000000000E+00  0.45593999997E+02  0.45594000000E+02  0.51100000000E-03 0.  1.
         11   -1    0    0    0    0 -0.00000000000E+00 -0.00000000000E+00 -0.45593999997E+02  0.45594000000E+02  0.51100000000E-03 0. -1.
    9900012    2    1    2    0    0 -0.10698508970E+01  0.17898151655E+00 -0.46423661107E+00  0.90008114007E+02  0.90000380311E+02 0.  0.
        -12    1    1    2    0    0  0.10698508970E+01 -0.17898151655E+00  0.46423661107E+00  0.11798859929E+01  0.00000000000E+00 0.  1.
         11    1    3    3    0    0  0.31224870509E+02  0.19897027564E+02 -0.30107239268E+01  0.37147660801E+02  0.51100000000E-03 0. -1.
        -11    1    3    3    0    0  0.52315565478E+01 -0.23994607102E+00 -0.77415120001E+01  0.93465376658E+01  0.51100000000E-03 0.  1.
        -12    1    3    3    0    0 -0.37526277954E+02 -0.19478099976E+02  0.10287999316E+02  0.43513915540E+02  0.00000000000E+00 0.  1.
</event>
<event>
 7    1  0.3757412E-015  0.9000768E+02  0.7816164E-02  0.1186339E+00
        -11   -1    0    0    0    0  0.00000000000E+00  0.00000000000E+00  0.45593999997E+02  0.45594000000E+02  0.51100000000E-03 0.  1.
         11   -1    0    0    0    0 -0.00000000000E+00 -0.00000000000E+00 -0.45593999997E+02  0.45594000000E+02  0.51100000000E-03 0. -1.
    9900012    2    1    2    0    0  0.11734560125E+01  0.12078192612E+00  0.39673316918E-01  0.90007677477E+02  0.89999938019E+02 0.  0.
        -12    1    1    2    0    0 -0.11734560125E+01 -0.12078192612E+00 -0.39673316918E-01  0.11803225233E+01  0.00000000000E+00 0.  1.
         11    1    3    3    0    0  0.22718147103E+01  0.67464326057E+01 -0.37550099964E+02  0.38218915507E+02  0.51100000000E-03 0. -1.
        -11    1    3    3    0    0  0.47459621210E+01  0.95603050350E+01  0.25241692814E+00  0.10676483662E+02  0.51100000000E-03 0.  1.
        -12    1    3    3    0    0 -0.58443208188E+01 -0.16185955715E+02  0.37337356353E+02  0.41112278308E+02  0.00000000000E+00 0.  1.
</event>
<event>
 7    1  0.3757412E-015  0.9000773E+02  0.7816164E-02  0.1186339E+00
        -11   -1    0    0    0    0  0.00000000000E+00  0.00000000000E+00  0.45593999997E+02  0.45594000000E+02  0.51100000000E-03 0.  1.
         11   -1    0    0    0    0 -0.00000000000E+00 -0.00000000000E+00 -0.45593999997E+02  0.45594000000E+02  0.51100000000E-03 0. -1.
    9900012    2    1    2    0    0  0.10138352794E+01  0.57479088124E+00 -0.18655001077E+00  0.90007725694E+02  0.89999986873E+02 0.  0.
        -12    1    1    2    0    0 -0.10138352794E+01 -0.57479088124E+00  0.18655001077E+00  0.11802743060E+01  0.00000000000E+00 0.  1.
         11    1    3    3    0    0  0.26621686567E+02  0.10966039975E+02  0.29281053638E+02  0.41065171749E+02  0.51100000000E-03 0. -1.
        -11    1    3    3    0    0 -0.49712392300E+01  0.85618007854E+01 -0.28665438206E+01  0.10307023135E+02  0.51100000000E-03 0.  1.
        -12    1    3    3    0    0 -0.20636612057E+02 -0.18953049880E+02 -0.26601059828E+02  0.38635530809E+02  0.00000000000E+00 0.  1.
</event>
<event>
 7    1  0.3803397E-015  0.9000777E+02  0.7816164E-02  0.1186339E+00
        -11   -1    0    0    0    0  0.00000000000E+00  0.00000000000E+00  0.45593999997E+02  0.45594000000E+02  0.51100000000E-03 0.  1.
         11   -1    0    0    0    0 -0.00000000000E+00 -0.00000000000E+00 -0.45593999997E+02  0.45594000000E+02  0.51100000000E-03 0. -1.
    9900012    2    1    2    0    0  0.11359307316E+01 -0.80938786268E-02 -0.32021084525E+00  0.90007771580E+02  0.90000033365E+02 0.  0.
        -12    1    1    2    0    0 -0.11359307316E+01  0.80938786268E-02  0.32021084525E+00  0.11802284200E+01  0.00000000000E+00 0.  1.
         11    1    3    3    0    0  0.26765618984E+02 -0.22972607391E+02 -0.91020282151E+01  0.36427818598E+02  0.51100000000E-03 0. -1.
        -11    1    3    3    0    0  0.91550071074E+01 -0.12243175397E+01 -0.28100275922E+01  0.96544996714E+01  0.51100000000E-03 0.  1.
        -12    1    3    3    0    0 -0.34784695360E+02  0.24188831052E+02  0.11591844962E+02  0.43925453311E+02  0.00000000000E+00 0.  1.
</event>
<event>
 7    1  0.3757412E-015  0.9000772E+02  0.7816164E-02  0.1186339E+00
        -11   -1    0    0    0    0  0.00000000000E+00  0.00000000000E+00  0.45593999997E+02  0.45594000000E+02  0.51100000000E-03 0. -1.
         11   -1    0    0    0    0 -0.00000000000E+00 -0.00000000000E+00 -0.45593999997E+02  0.45594000000E+02  0.51100000000E-03 0.  1.
    9900012    2    1    2    0    0  0.11332828206E+01  0.87205549878E-01 -0.31799425905E+00  0.90007722444E+02  0.89999983581E+02 0.  0.
        -12    1    1    2    0    0 -0.11332828206E+01 -0.87205549878E-01  0.31799425905E+00  0.11802775556E+01  0.00000000000E+00 0.  1.
         11    1    3    3    0    0 -0.24018983287E+02  0.35584136767E+02  0.14697972006E+01  0.42956986064E+02  0.51100000000E-03 0. -1.
        -11    1    3    3    0    0  0.40048720204E+01 -0.93462643283E+01  0.69332993860E+01  0.12307001968E+02  0.51100000000E-03 0.  1.
        -12    1    3    3    0    0  0.21147394088E+02 -0.26150666889E+02 -0.87210908456E+01  0.34743734413E+02  0.00000000000E+00 0.  1.
</event>
<event>
 7    1  0.3757412E-015  0.9000765E+02  0.7816164E-02  0.1186339E+00
        -11   -1    0    0    0    0  0.00000000000E+00  0.00000000000E+00  0.45593999997E+02  0.45594000000E+02  0.51100000000E-03 0. -1.
         11   -1    0    0    0    0 -0.00000000000E+00 -0.00000000000E+00 -0.45593999997E+02  0.45594000000E+02  0.51100000000E-03 0.  1.
    9900012    2    1    2    0    0 -0.62282770223E+00  0.83469412991E+00 -0.55551179267E+00  0.90007651751E+02  0.89999911954E+02 0.  0.
        -12    1    1    2    0    0  0.62282770223E+00 -0.83469412991E+00  0.55551179267E+00  0.11803482490E+01  0.00000000000E+00 0.  1.
         11    1    3    3    0    0  0.62042030774E+01  0.59680474801E+00  0.72808266796E+01  0.95842970077E+01  0.51100000000E-03 0. -1.
        -11    1    3    3    0    0  0.20201229067E+02  0.31825156961E+02 -0.92980758856E+01  0.38825049734E+02  0.51100000000E-03 0.  1.
         12    1    3    3    0    0 -0.27028259846E+02 -0.31587267579E+02  0.14617374133E+01  0.41598305010E+02  0.00000000000E+00 0. -1.
</event>
<event>
 7    1  0.3757412E-015  0.9000788E+02  0.7816164E-02  0.1186339E+00
        -11   -1    0    0    0    0  0.00000000000E+00  0.00000000000E+00  0.45593999997E+02  0.45594000000E+02  0.51100000000E-03 0.  1.
         11   -1    0    0    0    0 -0.00000000000E+00 -0.00000000000E+00 -0.45593999997E+02  0.45594000000E+02  0.51100000000E-03 0. -1.
    9900012    2    1    2    0    0 -0.98295000903E+00 -0.31104071077E+00 -0.57424236953E+00  0.90007876556E+02  0.90000139726E+02 0.  0.
        -12    1    1    2    0    0  0.98295000903E+00  0.31104071077E+00  0.57424236953E+00  0.11801234440E+01  0.00000000000E+00 0.  1.
         11    1    3    3    0    0 -0.20841626490E+01 -0.87292772490E+01  0.80495415848E+01  0.12055668178E+02  0.51100000000E-03 0. -1.
        -11    1    3    3    0    0  0.27753775003E+02 -0.12424276573E+02  0.17609927229E+02  0.35138927311E+02  0.51100000000E-03 0.  1.
         12    1    3    3    0    0 -0.26652562363E+02  0.20842513112E+02 -0.26233711183E+02  0.42813281067E+02  0.00000000000E+00 0. -1.
</event>
<event>
 7    1  0.3757412E-015  0.9000771E+02  0.7816164E-02  0.1186339E+00
        -11   -1    0    0    0    0  0.00000000000E+00  0.00000000000E+00  0.45593999997E+02  0.45594000000E+02  0.51100000000E-03 0. -1.
         11   -1    0    0    0    0 -0.00000000000E+00 -0.00000000000E+00 -0.45593999997E+02  0.45594000000E+02  0.51100000000E-03 0.  1.
    9900012    2    1    2    0    0 -0.57773271875E-02 -0.41557057143E+00  0.11046918512E+01  0.90007713440E+02  0.89999974458E+02 0.  0.
        -12    1    1    2    0    0  0.57773271875E-02  0.41557057143E+00 -0.11046918512E+01  0.11802865599E+01  0.00000000000E+00 0.  1.
         11    1    3    3    0    0  0.14124864778E+02  0.52160359694E+01  0.58564915667E+01  0.16156030761E+02  0.51100000000E-03 0. -1.
        -11    1    3    3    0    0  0.17600564548E+02 -0.21998432679E+02 -0.20487227092E+02  0.34834428185E+02  0.51100000000E-03 0.  1.
         12    1    3    3    0    0 -0.31731206654E+02  0.16366826139E+02  0.15735427377E+02  0.39017254494E+02  0.00000000000E+00 0. -1.
</event>
<event>
 7    1  0.3757412E-015  0.9000771E+02  0.7816164E-02  0.1186339E+00
        -11   -1    0    0    0    0  0.00000000000E+00  0.00000000000E+00  0.45593999997E+02  0.45594000000E+02  0.51100000000E-03 0.  1.
         11   -1    0    0    0    0 -0.00000000000E+00 -0.00000000000E+00 -0.45593999997E+02  0.45594000000E+02  0.51100000000E-03 0. -1.
    9900012    2    1    2    0    0 -0.72063107193E+00  0.93110697804E+00 -0.82567232788E-01  0.90007709064E+02  0.89999970023E+02 0.  0.
        -12    1    1    2    0    0  0.72063107193E+00 -0.93110697804E+00  0.82567232788E-01  0.11802909363E+01  0.00000000000E+00 0.  1.
         11    1    3    3    0    0  0.36405162772E+01  0.60006411198E+01  0.60147881589E+01  0.92433072800E+01  0.51100000000E-03 0. -1.
        -11    1    3    3    0    0 -0.22957865785E+02 -0.34882719812E+02  0.86690277931E+01  0.42649968183E+02  0.51100000000E-03 0.  1.
         12    1    3    3    0    0  0.18596718436E+02  0.29813185670E+02 -0.14766383185E+02  0.38114433601E+02  0.00000000000E+00 0. -1.
</event>
<event>
 7    1  0.3757412E-015  0.9000777E+02  0.7816164E-02  0.1186339E+00
        -11   -1    0    0    0    0  0.00000000000E+00  0.00000000000E+00  0.45593999997E+02  0.45594000000E+02  0.51100000000E-03 0. -1.
         11   -1    0    0    0    0 -0.00000000000E+00 -0.00000000000E+00 -0.45593999997E+02  0.45594000000E+02  0.51100000000E-03 0.  1.
    9900012    2    1    2    0    0 -0.10757571504E+01 -0.38592653264E+00 -0.29454279681E+00  0.90007767737E+02  0.90000029471E+02 0.  0.
        -12    1    1    2    0    0  0.10757571504E+01  0.38592653264E+00  0.29454279681E+00  0.11802322629E+01  0.00000000000E+00 0.  1.
         11    1    3    3    0    0 -0.93735726877E+00 -0.67141647741E+01 -0.73115839698E+01  0.99708529059E+01  0.51100000000E-03 0. -1.
        -11    1    3    3    0    0 -0.98312064909E+01 -0.22717848892E+02 -0.25384303344E+02  0.35455833594E+02  0.51100000000E-03 0.  1.
         12    1    3    3    0    0  0.96928066092E+01  0.29046087134E+02  0.32401344517E+02  0.44581081237E+02  0.00000000000E+00 0. -1.
</event>
<event>
 7    1  0.3757412E-015  0.9000788E+02  0.7816164E-02  0.1186339E+00
        -11   -1    0    0    0    0  0.00000000000E+00  0.00000000000E+00  0.45593999997E+02  0.45594000000E+02  0.51100000000E-03 0.  1.
         11   -1    0    0    0    0 -0.00000000000E+00 -0.00000000000E+00 -0.45593999997E+02  0.45594000000E+02  0.51100000000E-03 0. -1.
    9900012    2    1    2    0    0  0.69369056457E+00 -0.83072197842E+00 -0.47051153958E+00  0.90007878517E+02  0.90000141714E+02 0.  0.
        -12    1    1    2    0    0 -0.69369056457E+00  0.83072197842E+00  0.47051153958E+00  0.11801214826E+01  0.00000000000E+00 0.  1.
         11    1    3    3    0    0  0.13526727750E+02  0.10786120984E+02 -0.14574220360E+02  0.22621243751E+02  0.51100000000E-03 0. -1.
        -11    1    3    3    0    0  0.15432612693E+02  0.18815047160E+02  0.42996176895E+01  0.24711500292E+02  0.51100000000E-03 0.  1.
         12    1    3    3    0    0 -0.28265649878E+02 -0.30431890123E+02  0.98040911306E+01  0.42675134474E+02  0.00000000000E+00 0. -1.
</event>
<event>
 7    1  0.3757412E-015  0.9000771E+02  0.7816164E-02  0.1186339E+00
        -11   -1    0    0    0    0  0.00000000000E+00  0.00000000000E+00  0.45593999997E+02  0.45594000000E+02  0.51100000000E-03 0.  1.
         11   -1    0    0    0    0 -0.00000000000E+00 -0.00000000000E+00 -0.45593999997E+02  0.45594000000E+02  0.51100000000E-03 0. -1.
    9900012    2    1    2    0    0 -0.29977323131E+00 -0.81227327249E+00 -0.80214399568E+00  0.90007708998E+02  0.89999969957E+02 0.  0.
        -12    1    1    2    0    0  0.29977323131E+00  0.81227327249E+00  0.80214399568E+00  0.11802910019E+01  0.00000000000E+00 0.  1.
         11    1    3    3    0    0 -0.30847978620E+02 -0.26336756154E+02 -0.37853062179E+01  0.40737587718E+02  0.51100000000E-03 0. -1.
        -11    1    3    3    0    0 -0.38236422753E+01  0.68785884710E+01  0.62223181595E+01  0.10032570116E+02  0.51100000000E-03 0.  1.
        -12    1    3    3    0    0  0.34371847664E+02  0.18645894410E+02 -0.32391559373E+01  0.39237551164E+02  0.00000000000E+00 0.  1.
</event>
<event>
 7    1  0.3757412E-015  0.9000779E+02  0.7816164E-02  0.1186339E+00
        -11   -1    0    0    0    0  0.00000000000E+00  0.00000000000E+00  0.45593999997E+02  0.45594000000E+02  0.51100000000E-03 0.  1.
         11   -1    0    0    0    0 -0.00000000000E+00 -0.00000000000E+00 -0.45593999997E+02  0.45594000000E+02  0.51100000000E-03 0. -1.
    9900012    2    1    2    0    0 -0.46420877851E-01  0.10655462245E+01 -0.50533182796E+00  0.90007786498E+02  0.90000048480E+02 0.  0.
        -12    1    1    2    0    0  0.46420877851E-01 -0.10655462245E+01  0.50533182796E+00  0.11802135022E+01  0.00000000000E+00 0.  1.
         11    1    3    3    0    0  0.53705441704E+01 -0.65667289232E+01 -0.13873377842E+01  0.85958931954E+01  0.51100000000E-03 0. -1.
        -11    1    3    3    0    0  0.32896797636E+02  0.21836106308E+02  0.69828910089E+01  0.40097077206E+02  0.51100000000E-03 0.  1.
         12    1    3    3    0    0 -0.38313762684E+02 -0.14203831160E+02 -0.61008850527E+01  0.41314816096E+02  0.00000000000E+00 0. -1.
</event>
<event>
 7    1  0.3757412E-015  0.9000765E+02  0.7816164E-02  0.1186339E+00
        -11   -1    0    0    0    0  0.00000000000E+00  0.00000000000E+00  0.45593999997E+02  0.45594000000E+02  0.51100000000E-03 0. -1.
         11   -1    0    0    0    0 -0.00000000000E+00 -0.00000000000E+00 -0.45593999997E+02  0.45594000000E+02  0.51100000000E-03 0.  1.
    9900012    2    1    2    0    0 -0.16163582917E+00 -0.88704723375E+00  0.76174494584E+00  0.90007646537E+02  0.89999906671E+02 0.  0.
        -12    1    1    2    0    0  0.16163582917E+00  0.88704723375E+00 -0.76174494584E+00  0.11803534635E+01  0.00000000000E+00 0.  1.
         11    1    3    3    0    0  0.29637497151E+02  0.14555010365E+02  0.12800899476E+02  0.35413169750E+02  0.51100000000E-03 0. -1.
        -11    1    3    3    0    0 -0.13757101735E+01  0.85119646163E+01  0.85157208576E+01  0.12118730218E+02  0.51100000000E-03 0.  1.
        -12    1    3    3    0    0 -0.28423422807E+02 -0.23954022215E+02 -0.20554875388E+02  0.42475746568E+02  0.00000000000E+00 0.  1.
</event>
<event>
 7    1  0.3757412E-015  0.9000780E+02  0.7816164E-02  0.1186339E+00
        -11   -1    0    0    0    0  0.00000000000E+00  0.00000000000E+00  0.45593999997E+02  0.45594000000E+02  0.51100000000E-03 0.  1.
         11   -1    0    0    0    0 -0.00000000000E+00 -0.00000000000E+00 -0.45593999997E+02  0.45594000000E+02  0.51100000000E-03 0. -1.
    9900012    2    1    2    0    0  0.11500172534E+01 -0.26378594341E+00 -0.27338742086E-01  0.90007800816E+02  0.90000062987E+02 0.  0.
        -12    1    1    2    0    0 -0.11500172534E+01  0.26378594341E+00  0.27338742086E-01  0.11801991840E+01  0.00000000000E+00 0.  1.
         11    1    3    3    0    0  0.29148502590E+01  0.34097211191E+02  0.15650928480E+02  0.37630675327E+02  0.51100000000E-03 0. -1.
        -11    1    3    3    0    0  0.24419196218E+01 -0.87769593640E-01  0.93925311215E+01  0.97051695539E+01  0.51100000000E-03 0.  1.
        -12    1    3    3    0    0 -0.42067526273E+01 -0.34273227541E+02 -0.25070798344E+02  0.42671955935E+02  0.00000000000E+00 0.  1.
</event>
<event>
 7    1  0.3757412E-015  0.9000768E+02  0.7816164E-02  0.1186339E+00
        -11   -1    0    0    0    0  0.00000000000E+00  0.00000000000E+00  0.45593999997E+02  0.45594000000E+02  0.51100000000E-03 0.  1.
         11   -1    0    0    0    0 -0.00000000000E+00 -0.00000000000E+00 -0.45593999997E+02  0.45594000000E+02  0.51100000000E-03 0. -1.
    9900012    2    1    2    0    0  0.51421823868E+00 -0.89083936325E+00 -0.57891847994E+00  0.90007677258E+02  0.89999937798E+02 0.  0.
        -12    1    1    2    0    0 -0.51421823868E+00  0.89083936325E+00  0.57891847994E+00  0.11803227417E+01  0.00000000000E+00 0.  1.
         11    1    3    3    0    0 -0.12621517347E+02 -0.39573874810E+02 -0.62194194711E+01  0.42000898162E+02  0.51100000000E-03 0. -1.
        -11    1    3    3    0    0  0.51174132763E+01  0.17112263186E+01 -0.63385013663E+01  0.83242305341E+01  0.51100000000E-03 0.  1.
        -12    1    3    3    0    0  0.80183223095E+01  0.36971809128E+02  0.11979002357E+02  0.39682548562E+02  0.00000000000E+00 0.  1.
</event>
<event>
 7    1  0.3757412E-015  0.9000774E+02  0.7816164E-02  0.1186339E+00
        -11   -1    0    0    0    0  0.00000000000E+00  0.00000000000E+00  0.45593999997E+02  0.45594000000E+02  0.51100000000E-03 0. -1.
         11   -1    0    0    0    0 -0.00000000000E+00 -0.00000000000E+00 -0.45593999997E+02  0.45594000000E+02  0.51100000000E-03 0.  1.
    9900012    2    1    2    0    0 -0.58438004434E-01 -0.11784839063E+01 -0.27945953127E-01  0.90007737193E+02  0.89999998524E+02 0.  0.
        -12    1    1    2    0    0  0.58438004434E-01  0.11784839063E+01  0.27945953127E-01  0.11802628072E+01  0.00000000000E+00 0.  1.
         11    1    3    3    0    0  0.34999072744E+01  0.54628915788E+01  0.70992448890E+01  0.96172664301E+01  0.51100000000E-03 0. -1.
        -11    1    3    3    0    0 -0.95610489738E+01  0.35281641395E+02 -0.10135100152E+02  0.37933206197E+02  0.51100000000E-03 0.  1.
         12    1    3    3    0    0  0.60027036949E+01 -0.41923016880E+02  0.30079093099E+01  0.42457264566E+02  0.00000000000E+00 0. -1.
</event>
<event>
 7    1  0.3757412E-015  0.9000770E+02  0.7816164E-02  0.1186339E+00
        -11   -1    0    0    0    0  0.00000000000E+00  0.00000000000E+00  0.45593999997E+02  0.45594000000E+02  0.51100000000E-03 0. -1.
         11   -1    0    0    0    0 -0.00000000000E+00 -0.00000000000E+00 -0.45593999997E+02  0.45594000000E+02  0.51100000000E-03 0.  1.
    9900012    2    1    2    0    0 -0.80762429124E-01 -0.10901404821E+01  0.44517491062E+00  0.90007699385E+02  0.89999960217E+02 0.  0.
        -12    1    1    2    0    0  0.80762429124E-01  0.10901404821E+01 -0.44517491062E+00  0.11803006149E+01  0.00000000000E+00 0.  1.
         11    1    3    3    0    0  0.88682146917E+01  0.37621715712E+01  0.33077943199E+01  0.10185316405E+02  0.51100000000E-03 0. -1.
        -11    1    3    3    0    0 -0.31940646828E+02  0.59820425215E+01 -0.28862597176E+02  0.43463079372E+02  0.51100000000E-03 0.  1.
         12    1    3    3    0    0  0.22991669707E+02 -0.10834354575E+02  0.25999977766E+02  0.36359303608E+02  0.00000000000E+00 0. -1.
</event>
<event>
 7    1  0.3757412E-015  0.9000777E+02  0.7816164E-02  0.1186339E+00
        -11   -1    0    0    0    0  0.00000000000E+00  0.00000000000E+00  0.45593999997E+02  0.45594000000E+02  0.51100000000E-03 0.  1.
         11   -1    0    0    0    0 -0.00000000000E+00 -0.00000000000E+00 -0.45593999997E+02  0.45594000000E+02  0.51100000000E-03 0. -1.
    9900012    2    1    2    0    0  0.47932109209E+00  0.10769935725E+01 -0.57313053180E-01  0.90007767544E+02  0.90000029275E+02 0.  0.
        -12    1    1    2    0    0 -0.47932109209E+00 -0.10769935725E+01  0.57313053180E-01  0.11802324562E+01  0.00000000000E+00 0.  1.
         11    1    3    3    0    0  0.16557566087E+02 -0.13125343094E+01 -0.34627757493E+02  0.38405173223E+02  0.51100000000E-03 0. -1.
        -11    1    3    3    0    0  0.20741066641E+01  0.70165911019E+01 -0.42765038912E+01  0.84748424727E+01  0.51100000000E-03 0.  1.
        -12    1    3    3    0    0 -0.18152351659E+02 -0.46270632199E+01  0.38846948331E+02  0.43127751848E+02  0.00000000000E+00 0.  1.
</event>
<event>
 7    1  0.4003225E-015  0.9000778E+02  0.7816164E-02  0.1186339E+00
        -11   -1    0    0    0    0  0.00000000000E+00  0.00000000000E+00  0.45593999997E+02  0.45594000000E+02  0.51100000000E-03 0. -1.
         11   -1    0    0    0    0 -0.00000000000E+00 -0.00000000000E+00 -0.45593999997E+02  0.45594000000E+02  0.51100000000E-03 0.  1.
    9900012    2    1    2    0    0 -0.71504646502E+00 -0.60296999219E+00  0.71975524254E+00  0.90007783127E+02  0.90000045064E+02 0.  0.
        -12    1    1    2    0    0  0.71504646502E+00  0.60296999219E+00 -0.71975524254E+00  0.11802168732E+01  0.00000000000E+00 0.  1.
         11    1    3    3    0    0 -0.31372478299E+02  0.21407966270E+02  0.18710470058E+02  0.42339285593E+02  0.51100000000E-03 0. -1.
        -11    1    3    3    0    0  0.49149861531E+01  0.35141053345E+01 -0.80745077419E+01  0.10084825270E+02  0.51100000000E-03 0.  1.
        -12    1    3    3    0    0  0.25742445681E+02 -0.25525041597E+02 -0.99162070731E+01  0.37583672264E+02  0.00000000000E+00 0.  1.
</event>
<event>
 7    1  0.3757412E-015  0.9000824E+02  0.7816164E-02  0.1186338E+00
        -11   -1    0    0    0    0  0.00000000000E+00  0.00000000000E+00  0.45593999997E+02  0.45594000000E+02  0.51100000000E-03 0.  1.
         11   -1    0    0    0    0 -0.00000000000E+00 -0.00000000000E+00 -0.45593999997E+02  0.45594000000E+02  0.51100000000E-03 0. -1.
    9900012    2    1    2    0    0 -0.20569028071E+00  0.48385729374E+00 -0.10561229108E+01  0.90008244951E+02  0.90000512983E+02 0.  0.
        -12    1    1    2    0    0  0.20569028071E+00 -0.48385729374E+00  0.10561229108E+01  0.11797550487E+01  0.00000000000E+00 0.  1.
         11    1    3    3    0    0 -0.67030979013E+01  0.37456632190E+02  0.25470183579E+01  0.38136834153E+02  0.51100000000E-03 0. -1.
        -11    1    3    3    0    0 -0.36021836509E+01  0.14777962731E+01  0.92942046136E+01  0.10076797534E+02  0.51100000000E-03 0.  1.
        -12    1    3    3    0    0  0.10099591272E+02 -0.38450571169E+02 -0.12897345882E+02  0.41794613264E+02  0.00000000000E+00 0.  1.
</event>
<event>
 7    1  0.3757412E-015  0.9000767E+02  0.7816164E-02  0.1186339E+00
        -11   -1    0    0    0    0  0.00000000000E+00  0.00000000000E+00  0.45593999997E+02  0.45594000000E+02  0.51100000000E-03 0.  1.
         11   -1    0    0    0    0 -0.00000000000E+00 -0.00000000000E+00 -0.45593999997E+02  0.45594000000E+02  0.51100000000E-03 0. -1.
    9900012    2    1    2    0    0  0.10715898544E+00 -0.15865723515E+00 -0.11646992735E+01  0.90007669722E+02  0.89999930163E+02 0.  0.
        -12    1    1    2    0    0 -0.10715898544E+00  0.15865723515E+00  0.11646992735E+01  0.11803302776E+01  0.00000000000E+00 0.  1.
         11    1    3    3    0    0  0.29650820324E+02 -0.13869929348E+02  0.19142458090E+02  0.37920703949E+02  0.51100000000E-03 0. -1.
        -11    1    3    3    0    0  0.75629884269E+01 -0.13051644518E+01 -0.53430104571E+01  0.93514709644E+01  0.51100000000E-03 0.  1.
        -12    1    3    3    0    0 -0.37106649766E+02  0.15016436564E+02 -0.14964146907E+02  0.42735494809E+02  0.00000000000E+00 0.  1.
</event>
<event>
 7    1  0.3757412E-015  0.9000777E+02  0.7816164E-02  0.1186339E+00
        -11   -1    0    0    0    0  0.00000000000E+00  0.00000000000E+00  0.45593999997E+02  0.45594000000E+02  0.51100000000E-03 0.  1.
         11   -1    0    0    0    0 -0.00000000000E+00 -0.00000000000E+00 -0.45593999997E+02  0.45594000000E+02  0.51100000000E-03 0. -1.
    9900012    2    1    2    0    0 -0.83439778171E+00  0.61347682848E+00 -0.56601059251E+00  0.90007770587E+02  0.90000032358E+02 0.  0.
        -12    1    1    2    0    0  0.83439778171E+00 -0.61347682848E+00  0.56601059251E+00  0.11802294133E+01  0.00000000000E+00 0.  1.
         11    1    3    3    0    0  0.45394437091E+01 -0.60390838042E+01  0.40746164369E+01  0.85836811306E+01  0.51100000000E-03 0. -1.
        -11    1    3    3    0    0  0.27475289809E+02 -0.21568798977E+02 -0.13086663063E+02  0.37301010574E+02  0.51100000000E-03 0.  1.
         12    1    3    3    0    0 -0.32849131300E+02  0.28221359610E+02  0.84460360341E+01  0.44123078883E+02  0.00000000000E+00 0. -1.
</event>
<event>
 7    1  0.3757412E-015  0.9000799E+02  0.7816164E-02  0.1186339E+00
        -11   -1    0    0    0    0  0.00000000000E+00  0.00000000000E+00  0.45593999997E+02  0.45594000000E+02  0.51100000000E-03 0.  1.
         11   -1    0    0    0    0 -0.00000000000E+00 -0.00000000000E+00 -0.45593999997E+02  0.45594000000E+02  0.51100000000E-03 0. -1.
    9900012    2    1    2    0    0 -0.44686065139E+00 -0.51922328798E+00 -0.96080056364E+00  0.90007993649E+02  0.90000258365E+02 0.  0.
        -12    1    1    2    0    0  0.44686065139E+00  0.51922328798E+00  0.96080056364E+00  0.11800063507E+01  0.00000000000E+00 0.  1.
         11    1    3    3    0    0 -0.17917477635E+02  0.36321963192E+02 -0.10228118220E+02  0.41772424128E+02  0.51100000000E-03 0. -1.
        -11    1    3    3    0    0  0.80823686744E+01  0.86241877210E+00 -0.59056358726E+00  0.81496757690E+01  0.51100000000E-03 0.  1.
        -12    1    3    3    0    0  0.93882483094E+01 -0.37703605252E+02  0.98578812440E+01  0.40085893753E+02  0.00000000000E+00 0.  1.
</event>
<event>
 7    1  0.3757412E-015  0.9000786E+02  0.7816164E-02  0.1186339E+00
        -11   -1    0    0    0    0  0.00000000000E+00  0.00000000000E+00  0.45593999997E+02  0.45594000000E+02  0.51100000000E-03 0. -1.
         11   -1    0    0    0    0 -0.00000000000E+00 -0.00000000000E+00 -0.45593999997E+02  0.45594000000E+02  0.51100000000E-03 0.  1.
    9900012    2    1    2    0    0 -0.56239588865E+00 -0.11219051969E+00  0.10314285111E+01  0.90007864151E+02  0.90000127158E+02 0.  0.
        -12    1    1    2    0    0  0.56239588865E+00  0.11219051969E+00 -0.10314285111E+01  0.11801358489E+01  0.00000000000E+00 0.  1.
         11    1    3    3    0    0 -0.65471279325E+00 -0.53413410360E+01 -0.12510313878E+01  0.55248215083E+01  0.51100000000E-03 0. -1.
        -11    1    3    3    0    0 -0.29516656974E+02  0.11893361921E+02 -0.27428027470E+02  0.42011686325E+02  0.51100000000E-03 0.  1.
         12    1    3    3    0    0  0.29608973879E+02 -0.66642114051E+01  0.29710487369E+02  0.42471356318E+02  0.00000000000E+00 0. -1.
</event>
<event>
 7    1  0.3757412E-015  0.9000776E+02  0.7816164E-02  0.1186339E+00
        -11   -1    0    0    0    0  0.00000000000E+00  0.00000000000E+00  0.45593999997E+02  0.45594000000E+02  0.51100000000E-03 0. -1.
         11   -1    0    0    0    0 -0.00000000000E+00 -0.00000000000E+00 -0.45593999997E+02  0.45594000000E+02  0.51100000000E-03 0.  1.
    9900012    2    1    2    0    0  0.89549621671E+00  0.76119110009E+00 -0.10793536072E+00  0.90007756209E+02  0.90000017791E+02 0.  0.
        -12    1    1    2    0    0 -0.89549621671E+00 -0.76119110009E+00  0.10793536072E+00  0.11802437914E+01  0.00000000000E+00 0.  1.
         11    1    3    3    0    0  0.44953281732E+01 -0.11506084080E+01  0.83350716210E+01  0.95396695059E+01  0.51100000000E-03 0. -1.
        -11    1    3    3    0    0  0.28638569533E+02 -0.24872503936E+02 -0.66990880785E+01  0.38518656496E+02  0.51100000000E-03 0.  1.
         12    1    3    3    0    0 -0.32238401489E+02  0.26784303444E+02 -0.17439189033E+01  0.41949430207E+02  0.00000000000E+00 0. -1.
</event>
<event>
 7    1  0.3757412E-015  0.9000771E+02  0.7816164E-02  0.1186339E+00
        -11   -1    0    0    0    0  0.00000000000E+00  0.00000000000E+00  0.45593999997E+02  0.45594000000E+02  0.51100000000E-03 0. -1.
         11   -1    0    0    0    0 -0.00000000000E+00 -0.00000000000E+00 -0.45593999997E+02  0.45594000000E+02  0.51100000000E-03 0.  1.
    9900012    2    1    2    0    0 -0.77955040172E-01 -0.68611097330E+00  0.95721364678E+00  0.90007710535E+02  0.89999971514E+02 0.  0.
        -12    1    1    2    0    0  0.77955040172E-01  0.68611097330E+00 -0.95721364678E+00  0.11802894652E+01  0.00000000000E+00 0.  1.
         11    1    3    3    0    0  0.68698919691E+00 -0.17856780268E+01 -0.89195368393E+01  0.91224304799E+01  0.51100000000E-03 0. -1.
        -11    1    3    3    0    0 -0.24800669863E+02  0.15016893565E+02 -0.23602357907E+02  0.37385179109E+02  0.51100000000E-03 0.  1.
         12    1    3    3    0    0  0.24035725626E+02 -0.13917326511E+02  0.33479108393E+02  0.43500100946E+02  0.00000000000E+00 0. -1.
</event>
<event>
 7    1  0.3757412E-015  0.9000774E+02  0.7816164E-02  0.1186339E+00
        -11   -1    0    0    0    0  0.00000000000E+00  0.00000000000E+00  0.45593999997E+02  0.45594000000E+02  0.51100000000E-03 0. -1.
         11   -1    0    0    0    0 -0.00000000000E+00 -0.00000000000E+00 -0.45593999997E+02  0.45594000000E+02  0.51100000000E-03 0.  1.
    9900012    2    1    2    0    0  0.93009165809E+00 -0.68742394458E+00 -0.23534129711E+00  0.90007742529E+02  0.90000003930E+02 0.  0.
        -12    1    1    2    0    0 -0.93009165809E+00  0.68742394458E+00  0.23534129711E+00  0.11802574711E+01  0.00000000000E+00 0.  1.
         11    1    3    3    0    0 -0.25420491276E+02  0.12961989835E+02 -0.24572323259E+02  0.37656521716E+02  0.51100000000E-03 0. -1.
        -11    1    3    3    0    0  0.10662207757E+02 -0.93953639791E+00 -0.85917069607E+01  0.13725262535E+02  0.51100000000E-03 0.  1.
        -12    1    3    3    0    0  0.15688375177E+02 -0.12709877381E+02  0.32928688922E+02  0.38625958278E+02  0.00000000000E+00 0.  1.
</event>
<event>
 7    1  0.3757412E-015  0.9000774E+02  0.7816164E-02  0.1186339E+00
        -11   -1    0    0    0    0  0.00000000000E+00  0.00000000000E+00  0.45593999997E+02  0.45594000000E+02  0.51100000000E-03 0. -1.
         11   -1    0    0    0    0 -0.00000000000E+00 -0.00000000000E+00 -0.45593999997E+02  0.45594000000E+02  0.51100000000E-03 0.  1.
    9900012    2    1    2    0    0 -0.10642301570E+01  0.50802987356E+00 -0.48368001101E-01  0.90007737469E+02  0.89999998803E+02 0.  0.
        -12    1    1    2    0    0  0.10642301570E+01 -0.50802987356E+00  0.48368001101E-01  0.11802625314E+01  0.00000000000E+00 0.  1.
         11    1    3    3    0    0 -0.16998082120E+02  0.40866468974E+01  0.34949364486E+02  0.39078044435E+02  0.51100000000E-03 0. -1.
        -11    1    3    3    0    0  0.32113161780E+01  0.69997876040E+01  0.39194283473E+01  0.86412670904E+01  0.51100000000E-03 0.  1.
        -12    1    3    3    0    0  0.12722535785E+02 -0.10578404628E+02 -0.38917160835E+02  0.42288425943E+02  0.00000000000E+00 0.  1.
</event>
<event>
 7    1  0.3757412E-015  0.9000776E+02  0.7816164E-02  0.1186339E+00
        -11   -1    0    0    0    0  0.00000000000E+00  0.00000000000E+00  0.45593999997E+02  0.45594000000E+02  0.51100000000E-03 0.  1.
         11   -1    0    0    0    0 -0.00000000000E+00 -0.00000000000E+00 -0.45593999997E+02  0.45594000000E+02  0.51100000000E-03 0. -1.
    9900012    2    1    2    0    0 -0.71341057095E+00 -0.18861586903E+00 -0.92110663659E+00  0.90007759336E+02  0.90000020959E+02 0.  0.
        -12    1    1    2    0    0  0.71341057095E+00  0.18861586903E+00  0.92110663659E+00  0.11802406639E+01  0.00000000000E+00 0.  1.
         11    1    3    3    0    0  0.76185812100E+01  0.25100088460E+02 -0.27526602624E+02  0.38023296446E+02  0.51100000000E-03 0. -1.
        -11    1    3    3    0    0  0.17950627980E+01  0.83096514150E+01  0.10332526875E+01  0.85638874622E+01  0.51100000000E-03 0.  1.
        -12    1    3    3    0    0 -0.10127054579E+02 -0.33598355744E+02  0.25572243300E+02  0.43420575428E+02  0.00000000000E+00 0.  1.
</event>
<event>
 7    1  0.3757412E-015  0.9000777E+02  0.7816164E-02  0.1186339E+00
        -11   -1    0    0    0    0  0.00000000000E+00  0.00000000000E+00  0.45593999997E+02  0.45594000000E+02  0.51100000000E-03 0.  1.
         11   -1    0    0    0    0 -0.00000000000E+00 -0.00000000000E+00 -0.45593999997E+02  0.45594000000E+02  0.51100000000E-03 0. -1.
    9900012    2    1    2    0    0 -0.11021473854E+01  0.42197468104E+00  0.11829099570E-01  0.90007774844E+02  0.90000036672E+02 0.  0.
        -12    1    1    2    0    0  0.11021473854E+01 -0.42197468104E+00 -0.11829099570E-01  0.11802251557E+01  0.00000000000E+00 0.  1.
         11    1    3    3    0    0 -0.94749864206E+01  0.67615195017E+01 -0.38184160092E+02  0.39918962860E+02  0.51100000000E-03 0. -1.
        -11    1    3    3    0    0  0.51870783738E+01 -0.63628718189E+01 -0.30220462782E+01  0.87478388079E+01  0.51100000000E-03 0.  1.
        -12    1    3    3    0    0  0.31857606614E+01  0.23326998196E-01  0.41218035470E+02  0.41340973176E+02  0.00000000000E+00 0.  1.
</event>
<event>
 7    1  0.3757412E-015  0.9000756E+02  0.7816164E-02  0.1186339E+00
        -11   -1    0    0    0    0  0.00000000000E+00  0.00000000000E+00  0.45593999997E+02  0.45594000000E+02  0.51100000000E-03 0. -1.
         11   -1    0    0    0    0 -0.00000000000E+00 -0.00000000000E+00 -0.45593999997E+02  0.45594000000E+02  0.51100000000E-03 0.  1.
    9900012    2    1    2    0    0 -0.89799480459E+00 -0.13874025689E+00  0.75351409765E+00  0.90007564901E+02  0.89999823957E+02 0.  0.
        -12    1    1    2    0    0  0.89799480459E+00  0.13874025689E+00 -0.75351409765E+00  0.11804350992E+01  0.00000000000E+00 0.  1.
         11    1    3    3    0    0  0.17898200568E+02  0.20428450138E+02  0.29380604659E+02  0.40011087076E+02  0.51100000000E-03 0. -1.
        -11    1    3    3    0    0 -0.12767462794E+01 -0.46469624083E+01  0.62204768255E+01  0.78688419023E+01  0.51100000000E-03 0.  1.
        -12    1    3    3    0    0 -0.17519449093E+02 -0.15920227986E+02 -0.34847567387E+02  0.42127635923E+02  0.00000000000E+00 0.  1.
</event>
<event>
 7    1  0.3757412E-015  0.9000775E+02  0.7816164E-02  0.1186339E+00
        -11   -1    0    0    0    0  0.00000000000E+00  0.00000000000E+00  0.45593999997E+02  0.45594000000E+02  0.51100000000E-03 0. -1.
         11   -1    0    0    0    0 -0.00000000000E+00 -0.00000000000E+00 -0.45593999997E+02  0.45594000000E+02  0.51100000000E-03 0.  1.
    9900012    2    1    2    0    0 -0.11196955616E+01  0.64403707114E-02  0.37313175997E+00  0.90007751323E+02  0.90000012841E+02 0.  0.
        -12    1    1    2    0    0  0.11196955616E+01 -0.64403707114E-02 -0.37313175997E+00  0.11802486769E+01  0.00000000000E+00 0.  1.
         11    1    3    3    0    0  0.55642603152E+00  0.26412516012E+01  0.86571403791E+01  0.90681806198E+01  0.51100000000E-03 0. -1.
        -11    1    3    3    0    0 -0.19102077404E+02 -0.37163201945E+02 -0.57678040649E+01  0.42181281440E+02  0.51100000000E-03 0.  1.
         12    1    3    3    0    0  0.17425955810E+02  0.34528390715E+02 -0.25162045542E+01  0.38758289263E+02  0.00000000000E+00 0. -1.
</event>
<event>
 7    1  0.3757412E-015  0.9000792E+02  0.7816164E-02  0.1186339E+00
        -11   -1    0    0    0    0  0.00000000000E+00  0.00000000000E+00  0.45593999997E+02  0.45594000000E+02  0.51100000000E-03 0. -1.
         11   -1    0    0    0    0 -0.00000000000E+00 -0.00000000000E+00 -0.45593999997E+02  0.45594000000E+02  0.51100000000E-03 0.  1.
    9900012    2    1    2    0    0  0.62276616958E+00  0.97533289114E+00  0.23124836864E+00  0.90007920444E+02  0.90000184194E+02 0.  0.
        -12    1    1    2    0    0 -0.62276616958E+00 -0.97533289114E+00 -0.23124836864E+00  0.11800795560E+01  0.00000000000E+00 0.  1.
         11    1    3    3    0    0  0.18910394477E+01  0.10141652451E+02  0.13943315403E-01  0.10316459631E+02  0.51100000000E-03 0. -1.
        -11    1    3    3    0    0 -0.13848107052E+02  0.29506510863E+02  0.15697255600E+02  0.36177452728E+02  0.51100000000E-03 0.  1.
         12    1    3    3    0    0  0.12579833774E+02 -0.38672830423E+02 -0.15479950547E+02  0.43514008085E+02  0.00000000000E+00 0. -1.
</event>
<event>
 7    1  0.3757412E-015  0.9000775E+02  0.7816164E-02  0.1186339E+00
        -11   -1    0    0    0    0  0.00000000000E+00  0.00000000000E+00  0.45593999997E+02  0.45594000000E+02  0.51100000000E-03 0. -1.
         11   -1    0    0    0    0 -0.00000000000E+00 -0.00000000000E+00 -0.45593999997E+02  0.45594000000E+02  0.51100000000E-03 0.  1.
    9900012    2    1    2    0    0 -0.93919207437E+00 -0.65514270725E+00 -0.28584290363E+00  0.90007745839E+02  0.90000007284E+02 0.  0.
        -12    1    1    2    0    0  0.93919207437E+00  0.65514270725E+00  0.28584290363E+00  0.11802541612E+01  0.00000000000E+00 0.  1.
         11    1    3    3    0    0 -0.83937651416E+01  0.28205244640E+01  0.26507402713E+01  0.92432178245E+01  0.51100000000E-03 0. -1.
        -11    1    3    3    0    0  0.44386733852E+01 -0.35107174995E+02  0.20850220765E+02  0.41072463571E+02  0.51100000000E-03 0.  1.
         12    1    3    3    0    0  0.30158996820E+01  0.31631507824E+02 -0.23786803940E+02  0.39692064443E+02  0.00000000000E+00 0. -1.
</event>
<event>
 7    1  0.3757412E-015  0.9000770E+02  0.7816164E-02  0.1186339E+00
        -11   -1    0    0    0    0  0.00000000000E+00  0.00000000000E+00  0.45593999997E+02  0.45594000000E+02  0.51100000000E-03 0. -1.
         11   -1    0    0    0    0 -0.00000000000E+00 -0.00000000000E+00 -0.45593999997E+02  0.45594000000E+02  0.51100000000E-03 0.  1.
    9900012    2    1    2    0    0  0.11583338059E+01  0.17586259607E+00  0.14298391917E+00  0.90007699504E+02  0.89999960338E+02 0.  0.
        -12    1    1    2    0    0 -0.11583338059E+01 -0.17586259607E+00 -0.14298391917E+00  0.11803004955E+01  0.00000000000E+00 0.  1.
         11    1    3    3    0    0  0.81237258337E+01  0.10299020045E+01 -0.83586733289E+01  0.11701411865E+02  0.51100000000E-03 0. -1.
        -11    1    3    3    0    0 -0.16797899133E+02 -0.90472175152E+01 -0.31211814063E+02  0.36581400976E+02  0.51100000000E-03 0.  1.
         12    1    3    3    0    0  0.98325071052E+01  0.81931781068E+01  0.39713471311E+02  0.41724886663E+02  0.00000000000E+00 0. -1.
</event>
<event>
 7    1  0.3757412E-015  0.9000764E+02  0.7816164E-02  0.1186339E+00
        -11   -1    0    0    0    0  0.00000000000E+00  0.00000000000E+00  0.45593999997E+02  0.45594000000E+02  0.51100000000E-03 0.  1.
         11   -1    0    0    0    0 -0.00000000000E+00 -0.00000000000E+00 -0.45593999997E+02  0.45594000000E+02  0.51100000000E-03 0. -1.
    9900012    2    1    2    0    0 -0.70784306734E+00  0.45029531209E+00 -0.83033272445E+00  0.90007635603E+02  0.89999895593E+02 0.  0.
        -12    1    1    2    0    0  0.70784306734E+00 -0.45029531209E+00  0.83033272445E+00  0.11803643969E+01  0.00000000000E+00 0.  1.
         11    1    3    3    0    0 -0.23898177943E+02 -0.30487492377E+02 -0.30760676423E+01  0.38859648645E+02  0.51100000000E-03 0. -1.
        -11    1    3    3    0    0 -0.81205162810E+01  0.40387970690E+01 -0.29649498443E+01  0.95417815042E+01  0.51100000000E-03 0.  1.
        -12    1    3    3    0    0  0.31310851157E+02  0.26898990620E+02  0.52106847622E+01  0.41606205454E+02  0.00000000000E+00 0.  1.
</event>
<event>
 7    1  0.3757412E-015  0.9000775E+02  0.7816164E-02  0.1186339E+00
        -11   -1    0    0    0    0  0.00000000000E+00  0.00000000000E+00  0.45593999997E+02  0.45594000000E+02  0.51100000000E-03 0.  1.
         11   -1    0    0    0    0 -0.00000000000E+00 -0.00000000000E+00 -0.45593999997E+02  0.45594000000E+02  0.51100000000E-03 0. -1.
    9900012    2    1    2    0    0 -0.71909264125E+00  0.51665846291E+00 -0.78035630698E+00  0.90007751653E+02  0.90000013175E+02 0.  0.
        -12    1    1    2    0    0  0.71909264125E+00 -0.51665846291E+00  0.78035630698E+00  0.11802483467E+01  0.00000000000E+00 0.  1.
         11    1    3    3    0    0  0.84249776815E+01  0.41058951756E+01 -0.20031134813E+01  0.95838973287E+01  0.51100000000E-03 0. -1.
        -11    1    3    3    0    0 -0.35520507158E+01  0.35851331004E+02  0.13907387508E+02  0.38618006507E+02  0.51100000000E-03 0.  1.
         12    1    3    3    0    0 -0.55920196069E+01 -0.39440567716E+02 -0.12684630334E+02  0.41805847818E+02  0.00000000000E+00 0. -1.
</event>
<event>
 7    1  0.3757412E-015  0.9000769E+02  0.7816164E-02  0.1186339E+00
        -11   -1    0    0    0    0  0.00000000000E+00  0.00000000000E+00  0.45593999997E+02  0.45594000000E+02  0.51100000000E-03 0.  1.
         11   -1    0    0    0    0 -0.00000000000E+00 -0.00000000000E+00 -0.45593999997E+02  0.45594000000E+02  0.51100000000E-03 0. -1.
    9900012    2    1    2    0    0 -0.69899665989E+00 -0.20217029263E+00 -0.92933145564E+00  0.90007692365E+02  0.89999953105E+02 0.  0.
        -12    1    1    2    0    0  0.69899665989E+00  0.20217029263E+00  0.92933145564E+00  0.11803076346E+01  0.00000000000E+00 0.  1.
         11    1    3    3    0    0  0.17183797487E+01  0.85633071371E+01 -0.41294171812E+01  0.96610115724E+01  0.51100000000E-03 0. -1.
        -11    1    3    3    0    0 -0.39536148049E+02 -0.12540681127E+02  0.93884874026E+01  0.42526690227E+02  0.51100000000E-03 0.  1.
         12    1    3    3    0    0  0.37118771641E+02  0.37752036971E+01 -0.61884016771E+01  0.37819990566E+02  0.00000000000E+00 0. -1.
</event>
<event>
 7    1  0.3757412E-015  0.9000773E+02  0.7816164E-02  0.1186339E+00
        -11   -1    0    0    0    0  0.00000000000E+00  0.00000000000E+00  0.45593999997E+02  0.45594000000E+02  0.51100000000E-03 0. -1.
         11   -1    0    0    0    0 -0.00000000000E+00 -0.00000000000E+00 -0.45593999997E+02  0.45594000000E+02  0.51100000000E-03 0.  1.
    9900012    2    1    2    0    0 -0.25225373901E+00  0.11523710807E+01  0.37963910076E-01  0.90007732100E+02  0.89999993364E+02 0.  0.
        -12    1    1    2    0    0  0.25225373901E+00 -0.11523710807E+01 -0.37963910076E-01  0.11802678997E+01  0.00000000000E+00 0.  1.
         11    1    3    3    0    0  0.24716587886E+01  0.36218786195E+01  0.69236048784E+01  0.81953283446E+01  0.51100000000E-03 0. -1.
        -11    1    3    3    0    0  0.34089196264E+02  0.12379265394E+02  0.11526756057E+02  0.38055034083E+02  0.51100000000E-03 0.  1.
         12    1    3    3    0    0 -0.36813108791E+02 -0.14848772932E+02 -0.18412397025E+02  0.43757369673E+02  0.00000000000E+00 0. -1.
</event>
<event>
 7    1  0.4552956E-015  0.9000791E+02  0.7816164E-02  0.1186339E+00
        -11   -1    0    0    0    0  0.00000000000E+00  0.00000000000E+00  0.45593999997E+02  0.45594000000E+02  0.51100000000E-03 0. -1.
         11   -1    0    0    0    0 -0.00000000000E+00 -0.00000000000E+00 -0.45593999997E+02  0.45594000000E+02  0.51100000000E-03 0.  1.
    9900012    2    1    2    0    0 -0.32327704200E-01  0.36468004004E+00  0.11218646606E+01  0.90007908085E+02  0.90000171671E+02 0.  0.
        -12    1    1    2    0    0  0.32327704200E-01 -0.36468004004E+00 -0.11218646606E+01  0.11800919154E+01  0.00000000000E+00 0.  1.
         11    1    3    3    0    0  0.25775553732E+02 -0.24969480494E+02 -0.60293295498E+01  0.36389654319E+02  0.51100000000E-03 0. -1.
        -11    1    3    3    0    0  0.88779607535E+01 -0.22793499853E+00 -0.29584173693E+01  0.93606824055E+01  0.51100000000E-03 0.  1.
        -12    1    3    3    0    0 -0.34685842190E+02  0.25562095532E+02  0.10109611580E+02  0.44257571361E+02  0.00000000000E+00 0.  1.
</event>
<event>
 7    1  0.3757412E-015  0.9000771E+02  0.7816164E-02  0.1186339E+00
        -11   -1    0    0    0    0  0.00000000000E+00  0.00000000000E+00  0.45593999997E+02  0.45594000000E+02  0.51100000000E-03 0.  1.
         11   -1    0    0    0    0 -0.00000000000E+00 -0.00000000000E+00 -0.45593999997E+02  0.45594000000E+02  0.51100000000E-03 0. -1.
    9900012    2    1    2    0    0  0.55721269979E+00 -0.68963190243E+00 -0.77910812736E+00  0.90007708668E+02  0.89999969623E+02 0.  0.
        -12    1    1    2    0    0 -0.55721269979E+00  0.68963190243E+00  0.77910812736E+00  0.11802913317E+01  0.00000000000E+00 0.  1.
         11    1    3    3    0    0 -0.67811060268E+01  0.57402648076E+01 -0.16098020310E+01  0.90291473489E+01  0.51100000000E-03 0. -1.
        -11    1    3    3    0    0  0.26797320459E+01  0.36712298840E+02  0.59387480872E+01  0.37285956862E+02  0.51100000000E-03 0.  1.
         12    1    3    3    0    0  0.46585866807E+01 -0.43142195550E+02 -0.51080541835E+01  0.43692604458E+02  0.00000000000E+00 0. -1.
</event>
<event>
 7    1  0.3757412E-015  0.9000780E+02  0.7816164E-02  0.1186339E+00
        -11   -1    0    0    0    0  0.00000000000E+00  0.00000000000E+00  0.45593999997E+02  0.45594000000E+02  0.51100000000E-03 0.  1.
         11   -1    0    0    0    0 -0.00000000000E+00 -0.00000000000E+00 -0.45593999997E+02  0.45594000000E+02  0.51100000000E-03 0. -1.
    9900012    2    1    2    0    0 -0.10247188608E+01 -0.49571318671E+00 -0.31158073094E+00  0.90007803890E+02  0.90000066101E+02 0.  0.
        -12    1    1    2    0    0  0.10247188608E+01  0.49571318671E+00  0.31158073094E+00  0.11801961104E+01  0.00000000000E+00 0.  1.
         11    1    3    3    0    0  0.13144139952E+02  0.81247841020E+00  0.69442962526E+01  0.14887974575E+02  0.51100000000E-03 0. -1.
        -11    1    3    3    0    0  0.62815373928E+01 -0.34886819135E+02 -0.38664667341E+01  0.35658062575E+02  0.51100000000E-03 0.  1.
         12    1    3    3    0    0 -0.20450396206E+02  0.33578627538E+02 -0.33894102494E+01  0.39461766739E+02  0.00000000000E+00 0. -1.
</event>
<event>
 7    1  0.3757412E-015  0.9000773E+02  0.7816164E-02  0.1186339E+00
        -11   -1    0    0    0    0  0.00000000000E+00  0.00000000000E+00  0.45593999997E+02  0.45594000000E+02  0.51100000000E-03 0.  1.
         11   -1    0    0    0    0 -0.00000000000E+00 -0.00000000000E+00 -0.45593999997E+02  0.45594000000E+02  0.51100000000E-03 0. -1.
    9900012    2    1    2    0    0 -0.96839353316E+00 -0.63997637570E+00 -0.21374623780E+00  0.90007727468E+02  0.89999988670E+02 0.  0.
        -12    1    1    2    0    0  0.96839353316E+00  0.63997637570E+00  0.21374623780E+00  0.11802725324E+01  0.00000000000E+00 0.  1.
         11    1    3    3    0    0  0.55306730053E+01 -0.80212198883E+01 -0.26909667133E+01  0.10107898619E+02  0.51100000000E-03 0. -1.
        -11    1    3    3    0    0 -0.33209082034E+02  0.37037896809E+01  0.27377847459E+02  0.43198468946E+02  0.51100000000E-03 0.  1.
         12    1    3    3    0    0  0.26710015496E+02  0.36774538317E+01 -0.24900626983E+02  0.36701359902E+02  0.00000000000E+00 0. -1.
</event>
<event>
 7    1  0.3757412E-015  0.9000776E+02  0.7816164E-02  0.1186339E+00
        -11   -1    0    0    0    0  0.00000000000E+00  0.00000000000E+00  0.45593999997E+02  0.45594000000E+02  0.51100000000E-03 0.  1.
         11   -1    0    0    0    0 -0.00000000000E+00 -0.00000000000E+00 -0.45593999997E+02  0.45594000000E+02  0.51100000000E-03 0. -1.
    9900012    2    1    2    0    0  0.46780434686E+00 -0.10832286421E+00 -0.10781454194E+01  0.90007757527E+02  0.90000019126E+02 0.  0.
        -12    1    1    2    0    0 -0.46780434686E+00  0.10832286421E+00  0.10781454194E+01  0.11802424731E+01  0.00000000000E+00 0.  1.
         11    1    3    3    0    0 -0.28128477415E+02  0.16456432001E+02 -0.11944453676E+02  0.34708721811E+02  0.51100000000E-03 0. -1.
        -11    1    3    3    0    0 -0.23677442782E+01  0.18225448097E+01 -0.12181868547E+02  0.12542958348E+02  0.51100000000E-03 0.  1.
        -12    1    3    3    0    0  0.30964026040E+02 -0.18387299675E+02  0.23048176804E+02  0.42756077368E+02  0.00000000000E+00 0.  1.
</event>
<event>
 7    1  0.3757412E-015  0.9000779E+02  0.7816164E-02  0.1186339E+00
        -11   -1    0    0    0    0  0.00000000000E+00  0.00000000000E+00  0.45593999997E+02  0.45594000000E+02  0.51100000000E-03 0. -1.
         11   -1    0    0    0    0 -0.00000000000E+00 -0.00000000000E+00 -0.45593999997E+02  0.45594000000E+02  0.51100000000E-03 0.  1.
    9900012    2    1    2    0    0  0.33925958193E+00 -0.85405489681E+00 -0.74053031143E+00  0.90007791555E+02  0.90000053604E+02 0.  0.
        -12    1    1    2    0    0 -0.33925958193E+00  0.85405489681E+00  0.74053031143E+00  0.11802084447E+01  0.00000000000E+00 0.  1.
         11    1    3    3    0    0 -0.66907295637E+01  0.25922708748E+01 -0.68912076632E+01  0.99485915436E+01  0.51100000000E-03 0. -1.
        -11    1    3    3    0    0 -0.22286430499E+02  0.22161629811E+02 -0.16004598858E+02  0.35269958962E+02  0.51100000000E-03 0.  1.
         12    1    3    3    0    0  0.29316419645E+02 -0.25607955583E+02  0.22155276210E+02  0.44789241050E+02  0.00000000000E+00 0. -1.
</event>
<event>
 7    1  0.4677270E-015  0.9000772E+02  0.7816164E-02  0.1186339E+00
        -11   -1    0    0    0    0  0.00000000000E+00  0.00000000000E+00  0.45593999997E+02  0.45594000000E+02  0.51100000000E-03 0. -1.
         11   -1    0    0    0    0 -0.00000000000E+00 -0.00000000000E+00 -0.45593999997E+02  0.45594000000E+02  0.51100000000E-03 0.  1.
    9900012    2    1    2    0    0 -0.48663992672E+00  0.37830405359E+00  0.10065446588E+01  0.90007718455E+02  0.89999979539E+02 0.  0.
        -12    1    1    2    0    0  0.48663992672E+00 -0.37830405359E+00 -0.10065446588E+01  0.11802815450E+01  0.00000000000E+00 0.  1.
         11    1    3    3    0    0 -0.18070838697E+02  0.37920258997E+02  0.39547144408E+01  0.42191717435E+02  0.51100000000E-03 0. -1.
        -11    1    3    3    0    0  0.91673746759E+01 -0.29378080534E+00  0.17604779221E+01  0.93395047184E+01  0.51100000000E-03 0.  1.
        -12    1    3    3    0    0  0.84168240942E+01 -0.37248174138E+02 -0.47086477042E+01  0.38476496301E+02  0.00000000000E+00 0.  1.
</event>
<event>
 7    1  0.3757412E-015  0.9000771E+02  0.7816164E-02  0.1186339E+00
        -11   -1    0    0    0    0  0.00000000000E+00  0.00000000000E+00  0.45593999997E+02  0.45594000000E+02  0.51100000000E-03 0. -1.
         11   -1    0    0    0    0 -0.00000000000E+00 -0.00000000000E+00 -0.45593999997E+02  0.45594000000E+02  0.51100000000E-03 0.  1.
    9900012    2    1    2    0    0  0.55076666639E+00 -0.10403385979E+01  0.86248734655E-01  0.90007708865E+02  0.89999969822E+02 0.  0.
        -12    1    1    2    0    0 -0.55076666639E+00  0.10403385979E+01 -0.86248734655E-01  0.11802911350E+01  0.00000000000E+00 0.  1.
         11    1    3    3    0    0 -0.29340728643E+01 -0.37424704092E+02  0.11763796351E+02  0.39339600466E+02  0.51100000000E-03 0. -1.
        -11    1    3    3    0    0  0.97379357565E+01 -0.22936888509E+01 -0.97164059808E+00  0.10051491783E+02  0.51100000000E-03 0.  1.
        -12    1    3    3    0    0 -0.62530962258E+01  0.38678054345E+02 -0.10705907018E+02  0.40616616617E+02  0.00000000000E+00 0.  1.
</event>
<event>
 7    1  0.3757412E-015  0.9000759E+02  0.7816164E-02  0.1186339E+00
        -11   -1    0    0    0    0  0.00000000000E+00  0.00000000000E+00  0.45593999997E+02  0.45594000000E+02  0.51100000000E-03 0.  1.
         11   -1    0    0    0    0 -0.00000000000E+00 -0.00000000000E+00 -0.45593999997E+02  0.45594000000E+02  0.51100000000E-03 0. -1.
    9900012    2    1    2    0    0  0.53075491879E+00  0.59526387827E+00 -0.87023977437E+00  0.90007594505E+02  0.89999853952E+02 0.  0.
        -12    1    1    2    0    0 -0.53075491879E+00 -0.59526387827E+00  0.87023977437E+00  0.11804054954E+01  0.00000000000E+00 0.  1.
         11    1    3    3    0    0 -0.87358621041E+01 -0.34434245219E+01 -0.11583236460E+02  0.14911198016E+02  0.51100000000E-03 0. -1.
        -11    1    3    3    0    0 -0.78663337914E+01 -0.12497261118E+02  0.36874420356E+02  0.39721324495E+02  0.51100000000E-03 0.  1.
         12    1    3    3    0    0  0.17132950814E+02  0.16535949518E+02 -0.26161423671E+02  0.35375071994E+02  0.00000000000E+00 0. -1.
</event>
<event>
 7    1  0.3757412E-015  0.9000770E+02  0.7816164E-02  0.1186339E+00
        -11   -1    0    0    0    0  0.00000000000E+00  0.00000000000E+00  0.45593999997E+02  0.45594000000E+02  0.51100000000E-03 0. -1.
         11   -1    0    0    0    0 -0.00000000000E+00 -0.00000000000E+00 -0.45593999997E+02  0.45594000000E+02  0.51100000000E-03 0.  1.
    9900012    2    1    2    0    0 -0.37999466399E+00  0.10581712964E+01  0.35913728025E+00  0.90007702570E+02  0.89999963444E+02 0.  0.
        -12    1    1    2    0    0  0.37999466399E+00 -0.10581712964E+01 -0.35913728025E+00  0.11802974300E+01  0.00000000000E+00 0.  1.
         11    1    3    3    0    0 -0.53666876559E+01  0.56590315505E+01  0.88119374718E+01  0.11767591799E+02  0.51100000000E-03 0. -1.
        -11    1    3    3    0    0 -0.11515757163E+02  0.30995561081E+02 -0.18294131428E+02  0.37789055488E+02  0.51100000000E-03 0.  1.
         12    1    3    3    0    0  0.16502450155E+02 -0.35596421335E+02  0.98413312363E+01  0.40451055282E+02  0.00000000000E+00 0. -1.
</event>
<event>
 7    1  0.3757412E-015  0.9000647E+02  0.7816164E-02  0.1186342E+00
        -11   -1    0    0    0    0  0.00000000000E+00  0.00000000000E+00  0.45593999997E+02  0.45594000000E+02  0.51100000000E-03 0.  1.
         11   -1    0    0    0    0 -0.00000000000E+00 -0.00000000000E+00 -0.45593999997E+02  0.45594000000E+02  0.51100000000E-03 0. -1.
    9900012    2    1    2    0    0  0.11058055885E+01 -0.39016536235E+00  0.14487572317E+00  0.90006465411E+02  0.89998709945E+02 0.  0.
        -12    1    1    2    0    0 -0.11058055885E+01  0.39016536235E+00 -0.14487572317E+00  0.11815345889E+01  0.00000000000E+00 0.  1.
         11    1    3    3    0    0  0.32091899493E+02 -0.20276848017E+02  0.52656356324E+01  0.38324502573E+02  0.51100000000E-03 0. -1.
        -11    1    3    3    0    0  0.60530220561E+01 -0.15783204991E+01 -0.62704853773E+01  0.88571529702E+01  0.51100000000E-03 0.  1.
        -12    1    3    3    0    0 -0.37039115961E+02  0.21465003154E+02  0.11497254680E+01  0.42824809868E+02  0.00000000000E+00 0.  1.
</event>
<event>
 7    1  0.3757412E-015  0.9000755E+02  0.7816164E-02  0.1186339E+00
        -11   -1    0    0    0    0  0.00000000000E+00  0.00000000000E+00  0.45593999997E+02  0.45594000000E+02  0.51100000000E-03 0.  1.
         11   -1    0    0    0    0 -0.00000000000E+00 -0.00000000000E+00 -0.45593999997E+02  0.45594000000E+02  0.51100000000E-03 0. -1.
    9900012    2    1    2    0    0  0.98609394518E+00  0.40502213249E-02  0.64889525607E+00  0.90007549778E+02  0.89999808635E+02 0.  0.
        -12    1    1    2    0    0 -0.98609394518E+00 -0.40502213249E-02 -0.64889525607E+00  0.11804502219E+01  0.00000000000E+00 0.  1.
         11    1    3    3    0    0 -0.18498885213E+02  0.22475680031E+02 -0.26097311964E+02  0.39095199693E+02  0.51100000000E-03 0. -1.
        -11    1    3    3    0    0  0.68149905575E+01 -0.13181449564E+02 -0.48617136374E+01  0.15615087853E+02  0.51100000000E-03 0.  1.
        -12    1    3    3    0    0  0.12669988601E+02 -0.92901802460E+01  0.31607920858E+02  0.35297262232E+02  0.00000000000E+00 0.  1.
</event>
<event>
 7    1  0.3757412E-015  0.9000778E+02  0.7816164E-02  0.1186339E+00
        -11   -1    0    0    0    0  0.00000000000E+00  0.00000000000E+00  0.45593999997E+02  0.45594000000E+02  0.51100000000E-03 0. -1.
         11   -1    0    0    0    0 -0.00000000000E+00 -0.00000000000E+00 -0.45593999997E+02  0.45594000000E+02  0.51100000000E-03 0.  1.
    9900012    2    1    2    0    0  0.63991181567E+00 -0.60173386863E+00 -0.78825144814E+00  0.90007783441E+02  0.90000045382E+02 0.  0.
        -12    1    1    2    0    0 -0.63991181567E+00  0.60173386863E+00  0.78825144814E+00  0.11802165589E+01  0.00000000000E+00 0.  1.
         11    1    3    3    0    0  0.38775543824E+01 -0.79774096522E+01  0.81159270129E+01  0.12022593908E+02  0.51100000000E-03 0. -1.
        -11    1    3    3    0    0  0.25911652549E+02 -0.19835721674E+02  0.96132450965E+01  0.34018878196E+02  0.51100000000E-03 0.  1.
         12    1    3    3    0    0 -0.29149295116E+02  0.27211397458E+02 -0.18517423558E+02  0.43966311337E+02  0.00000000000E+00 0. -1.
</event>
<event>
 7    1  0.3757412E-015  0.9000774E+02  0.7816164E-02  0.1186339E+00
        -11   -1    0    0    0    0  0.00000000000E+00  0.00000000000E+00  0.45593999997E+02  0.45594000000E+02  0.51100000000E-03 0. -1.
         11   -1    0    0    0    0 -0.00000000000E+00 -0.00000000000E+00 -0.45593999997E+02  0.45594000000E+02  0.51100000000E-03 0.  1.
    9900012    2    1    2    0    0 -0.89276247744E+00 -0.75769499852E+00 -0.14793932011E+00  0.90007740455E+02  0.90000001829E+02 0.  0.
        -12    1    1    2    0    0  0.89276247744E+00  0.75769499852E+00  0.14793932011E+00  0.11802595453E+01  0.00000000000E+00 0.  1.
         11    1    3    3    0    0 -0.34004018409E+00 -0.35926589792E+02  0.21401642001E+02  0.41819442392E+02  0.51100000000E-03 0. -1.
        -11    1    3    3    0    0 -0.10699018059E+02  0.67825483735E+01 -0.38911939070E+01  0.13251918357E+02  0.51100000000E-03 0.  1.
        -12    1    3    3    0    0  0.10146295766E+02  0.28386346420E+02 -0.17658387414E+02  0.34936379705E+02  0.00000000000E+00 0.  1.
</event>
<event>
 7    1  0.8271626E-015  0.9000777E+02  0.7816164E-02  0.1186339E+00
        -11   -1    0    0    0    0  0.00000000000E+00  0.00000000000E+00  0.45593999997E+02  0.45594000000E+02  0.51100000000E-03 0. -1.
         11   -1    0    0    0    0 -0.00000000000E+00 -0.00000000000E+00 -0.45593999997E+02  0.45594000000E+02  0.51100000000E-03 0.  1.
    9900012    2    1    2    0    0  0.53696851085E+00  0.75906148948E+00  0.72693548490E+00  0.90007769207E+02  0.90000030960E+02 0.  0.
        -12    1    1    2    0    0 -0.53696851085E+00 -0.75906148948E+00 -0.72693548490E+00  0.11802307934E+01  0.00000000000E+00 0.  1.
         11    1    3    3    0    0  0.91375246372E+01 -0.33197695554E+02  0.17073807271E+02  0.38433009791E+02  0.51100000000E-03 0. -1.
        -11    1    3    3    0    0  0.38268168993E+01 -0.52019064301E+01 -0.68377868334E+01  0.94053010121E+01  0.51100000000E-03 0.  1.
        -12    1    3    3    0    0 -0.12427373026E+02  0.39158663474E+02 -0.95090849529E+01  0.42169458403E+02  0.00000000000E+00 0.  1.
</event>
<event>
 7    1  0.3757412E-015  0.9000757E+02  0.7816164E-02  0.1186339E+00
        -11   -1    0    0    0    0  0.00000000000E+00  0.00000000000E+00  0.45593999997E+02  0.45594000000E+02  0.51100000000E-03 0.  1.
         11   -1    0    0    0    0 -0.00000000000E+00 -0.00000000000E+00 -0.45593999997E+02  0.45594000000E+02  0.51100000000E-03 0. -1.
    9900012    2    1    2    0    0 -0.10449392042E+01 -0.49036268854E+00 -0.24712579560E+00  0.90007565899E+02  0.89999824969E+02 0.  0.
        -12    1    1    2    0    0  0.10449392042E+01  0.49036268854E+00  0.24712579560E+00  0.11804341005E+01  0.00000000000E+00 0.  1.
         11    1    3    3    0    0  0.11428008783E+02  0.91175075001E+01 -0.13178195099E+02  0.19682305609E+02  0.51100000000E-03 0. -1.
        -11    1    3    3    0    0  0.17353106920E+02  0.46210443507E+01  0.28585865706E+02  0.33758496546E+02  0.51100000000E-03 0.  1.
         12    1    3    3    0    0 -0.29826054907E+02 -0.14228914539E+02 -0.15654796402E+02  0.36566763744E+02  0.00000000000E+00 0. -1.
</event>
<event>
 7    1  0.3757412E-015  0.9000773E+02  0.7816164E-02  0.1186339E+00
        -11   -1    0    0    0    0  0.00000000000E+00  0.00000000000E+00  0.45593999997E+02  0.45594000000E+02  0.51100000000E-03 0.  1.
         11   -1    0    0    0    0 -0.00000000000E+00 -0.00000000000E+00 -0.45593999997E+02  0.45594000000E+02  0.51100000000E-03 0. -1.
    9900012    2    1    2    0    0  0.18484729593E-01  0.13305911859E+00 -0.11726040366E+01  0.90007726031E+02  0.89999987215E+02 0.  0.
        -12    1    1    2    0    0 -0.18484729593E-01 -0.13305911859E+00  0.11726040366E+01  0.11802739685E+01  0.00000000000E+00 0.  1.
         11    1    3    3    0    0  0.18466303548E+02  0.17387845660E+02 -0.29588134276E+02  0.38971774832E+02  0.51100000000E-03 0. -1.
        -11    1    3    3    0    0 -0.65725944098E+01  0.76890673886E+01 -0.16009416127E+01  0.10241277698E+02  0.51100000000E-03 0.  1.
        -12    1    3    3    0    0 -0.11875224409E+02 -0.24943853930E+02  0.30016471852E+02  0.40794673501E+02  0.00000000000E+00 0.  1.
</event>
<event>
 7    1  0.3757412E-015  0.9000720E+02  0.7816164E-02  0.1186340E+00
        -11   -1    0    0    0    0  0.00000000000E+00  0.00000000000E+00  0.45593999997E+02  0.45594000000E+02  0.51100000000E-03 0.  1.
         11   -1    0    0    0    0 -0.00000000000E+00 -0.00000000000E+00 -0.45593999997E+02  0.45594000000E+02  0.51100000000E-03 0. -1.
    9900012    2    1    2    0    0 -0.76269637404E+00 -0.88447125047E+00  0.17404786660E+00  0.90007200351E+02  0.89999454594E+02 0.  0.
        -12    1    1    2    0    0  0.76269637404E+00  0.88447125047E+00 -0.17404786660E+00  0.11807996493E+01  0.00000000000E+00 0.  1.
         11    1    3    3    0    0  0.69365512683E+01 -0.20865413365E+01  0.33133290201E+01  0.79653968955E+01  0.51100000000E-03 0. -1.
        -11    1    3    3    0    0  0.16067764995E+01  0.26087941392E+02  0.29855087614E+02  0.39679827034E+02  0.51100000000E-03 0.  1.
         12    1    3    3    0    0 -0.93060241419E+01 -0.24885871306E+02 -0.32994368767E+02  0.42361976421E+02  0.00000000000E+00 0. -1.
</event>
<event>
 7    1  0.3757412E-015  0.9000775E+02  0.7816164E-02  0.1186339E+00
        -11   -1    0    0    0    0  0.00000000000E+00  0.00000000000E+00  0.45593999997E+02  0.45594000000E+02  0.51100000000E-03 0. -1.
         11   -1    0    0    0    0 -0.00000000000E+00 -0.00000000000E+00 -0.45593999997E+02  0.45594000000E+02  0.51100000000E-03 0.  1.
    9900012    2    1    2    0    0  0.16395804893E+00 -0.10112262987E+01 -0.58612311223E+00  0.90007745294E+02  0.90000006732E+02 0.  0.
        -12    1    1    2    0    0 -0.16395804893E+00  0.10112262987E+01  0.58612311223E+00  0.11802547062E+01  0.00000000000E+00 0.  1.
         11    1    3    3    0    0 -0.18839006403E+01 -0.96390845481E+01  0.25239009665E+01  0.10140567484E+02  0.51100000000E-03 0. -1.
        -11    1    3    3    0    0 -0.29971415374E+02 -0.43588822541E+01  0.21761364451E+02  0.37294001891E+02  0.51100000000E-03 0.  1.
         12    1    3    3    0    0  0.32019274063E+02  0.12986740503E+02 -0.24871388529E+02  0.42573175919E+02  0.00000000000E+00 0. -1.
</event>
<event>
 7    1  0.3757412E-015  0.9000778E+02  0.7816164E-02  0.1186339E+00
        -11   -1    0    0    0    0  0.00000000000E+00  0.00000000000E+00  0.45593999997E+02  0.45594000000E+02  0.51100000000E-03 0.  1.
         11   -1    0    0    0    0 -0.00000000000E+00 -0.00000000000E+00 -0.45593999997E+02  0.45594000000E+02  0.51100000000E-03 0. -1.
    9900012    2    1    2    0    0 -0.58474651326E+00 -0.13071743222E+00 -0.10168064980E+01  0.90007783500E+02  0.90000045442E+02 0.  0.
        -12    1    1    2    0    0  0.58474651326E+00  0.13071743222E+00  0.10168064980E+01  0.11802164997E+01  0.00000000000E+00 0.  1.
         11    1    3    3    0    0 -0.61507550860E+01 -0.82310995030E+01  0.15583000345E+01  0.10392838227E+02  0.51100000000E-03 0. -1.
        -11    1    3    3    0    0 -0.32917189801E+01  0.35549975384E+02  0.21817036067E+02  0.41840401847E+02  0.51100000000E-03 0.  1.
         12    1    3    3    0    0  0.88577275529E+01 -0.27449593314E+02 -0.24392142600E+02  0.37774543427E+02  0.00000000000E+00 0. -1.
</event>
<event>
 7    1  0.3757412E-015  0.9000768E+02  0.7816164E-02  0.1186339E+00
        -11   -1    0    0    0    0  0.00000000000E+00  0.00000000000E+00  0.45593999997E+02  0.45594000000E+02  0.51100000000E-03 0.  1.
         11   -1    0    0    0    0 -0.00000000000E+00 -0.00000000000E+00 -0.45593999997E+02  0.45594000000E+02  0.51100000000E-03 0. -1.
    9900012    2    1    2    0    0 -0.38152408415E+00  0.11137631734E+01  0.84427358741E-01  0.90007679276E+02  0.89999939842E+02 0.  0.
        -12    1    1    2    0    0  0.38152408415E+00 -0.11137631734E+01 -0.84427358741E-01  0.11803207242E+01  0.00000000000E+00 0.  1.
         11    1    3    3    0    0  0.96971994250E+01 -0.68824871628E+01 -0.36361382405E+02  0.38256430007E+02  0.51100000000E-03 0. -1.
        -11    1    3    3    0    0  0.27264012107E+01  0.50541656808E+01 -0.54051856005E+01  0.78863100325E+01  0.51100000000E-03 0.  1.
        -12    1    3    3    0    0 -0.12805124720E+02  0.29420846553E+01  0.41850995364E+02  0.43864939236E+02  0.00000000000E+00 0.  1.
</event>
<event>
 7    1  0.3757412E-015  0.9000773E+02  0.7816164E-02  0.1186339E+00
        -11   -1    0    0    0    0  0.00000000000E+00  0.00000000000E+00  0.45593999997E+02  0.45594000000E+02  0.51100000000E-03 0.  1.
         11   -1    0    0    0    0 -0.00000000000E+00 -0.00000000000E+00 -0.45593999997E+02  0.45594000000E+02  0.51100000000E-03 0. -1.
    9900012    2    1    2    0    0  0.95942964274E+00 -0.67790626483E+00  0.11392833608E+00  0.90007728078E+02  0.89999989289E+02 0.  0.
        -12    1    1    2    0    0 -0.95942964274E+00  0.67790626483E+00 -0.11392833608E+00  0.11802719216E+01  0.00000000000E+00 0.  1.
         11    1    3    3    0    0 -0.36269943811E+02 -0.43467445141E-02 -0.13660653613E+02  0.38757222557E+02  0.51100000000E-03 0. -1.
        -11    1    3    3    0    0 -0.50026835982E+01  0.19986152339E+01  0.62824043859E+01  0.82758631674E+01  0.51100000000E-03 0.  1.
        -12    1    3    3    0    0  0.42232057052E+02 -0.26721747542E+01  0.74921775637E+01  0.42974642354E+02  0.00000000000E+00 0.  1.
</event>
<event>
 7    1  0.3757412E-015  0.9000779E+02  0.7816164E-02  0.1186339E+00
        -11   -1    0    0    0    0  0.00000000000E+00  0.00000000000E+00  0.45593999997E+02  0.45594000000E+02  0.51100000000E-03 0.  1.
         11   -1    0    0    0    0 -0.00000000000E+00 -0.00000000000E+00 -0.45593999997E+02  0.45594000000E+02  0.51100000000E-03 0. -1.
    9900012    2    1    2    0    0 -0.10816890822E+01  0.41238681690E+00  0.22973136650E+00  0.90007792112E+02  0.90000054168E+02 0.  0.
        -12    1    1    2    0    0  0.10816890822E+01 -0.41238681690E+00 -0.22973136650E+00  0.11802078876E+01  0.00000000000E+00 0.  1.
         11    1    3    3    0    0 -0.27801578933E+01 -0.82138123497E+01 -0.30862233600E+01  0.92043884162E+01  0.51100000000E-03 0. -1.
        -11    1    3    3    0    0 -0.36389674158E+02  0.18691078222E+02 -0.24773927001E+01  0.40984170911E+02  0.51100000000E-03 0.  1.
         12    1    3    3    0    0  0.38088142969E+02 -0.10064879056E+02  0.57933474266E+01  0.39819232785E+02  0.00000000000E+00 0. -1.
</event>
<event>
 7    1  0.3757412E-015  0.9000770E+02  0.7816164E-02  0.1186339E+00
        -11   -1    0    0    0    0  0.00000000000E+00  0.00000000000E+00  0.45593999997E+02  0.45594000000E+02  0.51100000000E-03 0.  1.
         11   -1    0    0    0    0 -0.00000000000E+00 -0.00000000000E+00 -0.45593999997E+02  0.45594000000E+02  0.51100000000E-03 0. -1.
    9900012    2    1    2    0    0 -0.54083035197E+00  0.10178327273E+01  0.25421882607E+00  0.90007699978E+02  0.89999960818E+02 0.  0.
        -12    1    1    2    0    0  0.54083035197E+00 -0.10178327273E+01 -0.25421882607E+00  0.11803000220E+01  0.00000000000E+00 0.  1.
         11    1    3    3    0    0 -0.77055977627E+01  0.41484116877E+01  0.35074105270E+01  0.94280159777E+01  0.51100000000E-03 0. -1.
        -11    1    3    3    0    0  0.18614744472E+02  0.34093536089E+02  0.87675196289E+01  0.39821442910E+02  0.51100000000E-03 0.  1.
         12    1    3    3    0    0 -0.11449977061E+02 -0.37224115049E+02 -0.12020711330E+02  0.40758241090E+02  0.00000000000E+00 0. -1.
</event>
<event>
 7    1  0.3757412E-015  0.9000773E+02  0.7816164E-02  0.1186339E+00
        -11   -1    0    0    0    0  0.00000000000E+00  0.00000000000E+00  0.45593999997E+02  0.45594000000E+02  0.51100000000E-03 0. -1.
         11   -1    0    0    0    0 -0.00000000000E+00 -0.00000000000E+00 -0.45593999997E+02  0.45594000000E+02  0.51100000000E-03 0.  1.
    9900012    2    1    2    0    0 -0.67327793680E+00 -0.76598327096E+00  0.59413994132E+00  0.90007730615E+02  0.89999991859E+02 0.  0.
        -12    1    1    2    0    0  0.67327793680E+00  0.76598327096E+00 -0.59413994132E+00  0.11802693851E+01  0.00000000000E+00 0.  1.
         11    1    3    3    0    0  0.36154253203E+01 -0.75156878020E+01  0.58346625112E+01  0.10178415902E+02  0.51100000000E-03 0. -1.
        -11    1    3    3    0    0 -0.70809339924E+01 -0.34411064906E+02 -0.13712038533E+02  0.37713141147E+02  0.51100000000E-03 0.  1.
         12    1    3    3    0    0  0.27922307352E+01  0.41160769437E+02  0.84715159635E+01  0.42116173566E+02  0.00000000000E+00 0. -1.
</event>
<event>
 7    1  0.3757412E-015  0.9000767E+02  0.7816164E-02  0.1186339E+00
        -11   -1    0    0    0    0  0.00000000000E+00  0.00000000000E+00  0.45593999997E+02  0.45594000000E+02  0.51100000000E-03 0.  1.
         11   -1    0    0    0    0 -0.00000000000E+00 -0.00000000000E+00 -0.45593999997E+02  0.45594000000E+02  0.51100000000E-03 0. -1.
    9900012    2    1    2    0    0 -0.68002736020E+00  0.96470181701E+00 -0.10003493228E-01  0.90007666625E+02  0.89999927024E+02 0.  0.
        -12    1    1    2    0    0  0.68002736020E+00 -0.96470181701E+00  0.10003493228E-01  0.11803333750E+01  0.00000000000E+00 0.  1.
         11    1    3    3    0    0  0.30783482589E+02 -0.20935715538E+01 -0.31795387571E+02  0.44305219932E+02  0.51100000000E-03 0. -1.
        -11    1    3    3    0    0 -0.35977458429E+01 -0.10023717759E+01  0.80481033897E+01  0.88724569743E+01  0.51100000000E-03 0.  1.
        -12    1    3    3    0    0 -0.27865764106E+02  0.40606451467E+01  0.23737280688E+02  0.36829989719E+02  0.00000000000E+00 0.  1.
</event>
<event>
 7    1  0.3757412E-015  0.9000774E+02  0.7816164E-02  0.1186339E+00
        -11   -1    0    0    0    0  0.00000000000E+00  0.00000000000E+00  0.45593999997E+02  0.45594000000E+02  0.51100000000E-03 0.  1.
         11   -1    0    0    0    0 -0.00000000000E+00 -0.00000000000E+00 -0.45593999997E+02  0.45594000000E+02  0.51100000000E-03 0. -1.
    9900012    2    1    2    0    0 -0.79865895643E+00 -0.15320969744E-02 -0.86899945487E+00  0.90007737941E+02  0.89999999282E+02 0.  0.
        -12    1    1    2    0    0  0.79865895643E+00  0.15320969744E-02  0.86899945487E+00  0.11802620593E+01  0.00000000000E+00 0.  1.
         11    1    3    3    0    0 -0.83348154378E+00  0.68192552959E+01  0.54830247190E+01  0.87897949126E+01  0.51100000000E-03 0. -1.
        -11    1    3    3    0    0 -0.35700926842E+02  0.14286760523E+02  0.33374696334E+01  0.38598010408E+02  0.51100000000E-03 0.  1.
         12    1    3    3    0    0  0.35735749430E+02 -0.21107547916E+02 -0.96894938073E+01  0.42619932620E+02  0.00000000000E+00 0. -1.
</event>
<event>
 7    1  0.3757412E-015  0.9000768E+02  0.7816164E-02  0.1186339E+00
        -11   -1    0    0    0    0  0.00000000000E+00  0.00000000000E+00  0.45593999997E+02  0.45594000000E+02  0.51100000000E-03 0.  1.
         11   -1    0    0    0    0 -0.00000000000E+00 -0.00000000000E+00 -0.45593999997E+02  0.45594000000E+02  0.51100000000E-03 0. -1.
    9900012    2    1    2    0    0 -0.74569661983E+00  0.60870653353E+00  0.68306610962E+00  0.90007675298E+02  0.89999935812E+02 0.  0.
        -12    1    1    2    0    0  0.74569661983E+00 -0.60870653353E+00 -0.68306610962E+00  0.11803247023E+01  0.00000000000E+00 0.  1.
         11    1    3    3    0    0  0.35031574979E+02  0.25655305094E+01  0.58756562715E+01  0.35613431864E+02  0.51100000000E-03 0. -1.
        -11    1    3    3    0    0 -0.96823125188E+00 -0.16420220157E+02 -0.13231406553E+01  0.16501872718E+02  0.51100000000E-03 0.  1.
        -12    1    3    3    0    0 -0.34809040347E+02  0.14463396181E+02 -0.38694495066E+01  0.37892370715E+02  0.00000000000E+00 0.  1.
</event>
<event>
 7    1  0.3757412E-015  0.9000779E+02  0.7816164E-02  0.1186339E+00
        -11   -1    0    0    0    0  0.00000000000E+00  0.00000000000E+00  0.45593999997E+02  0.45594000000E+02  0.51100000000E-03 0.  1.
         11   -1    0    0    0    0 -0.00000000000E+00 -0.00000000000E+00 -0.45593999997E+02  0.45594000000E+02  0.51100000000E-03 0. -1.
    9900012    2    1    2    0    0 -0.98647049063E+00 -0.64541801115E+00 -0.56576177610E-01  0.90007792687E+02  0.90000054750E+02 0.  0.
        -12    1    1    2    0    0  0.98647049063E+00  0.64541801115E+00  0.56576177610E-01  0.11802073131E+01  0.00000000000E+00 0.  1.
         11    1    3    3    0    0  0.27199830303E+00 -0.89930270599E+01  0.23719510767E+01  0.93045510880E+01  0.51100000000E-03 0. -1.
        -11    1    3    3    0    0  0.17855615405E+02  0.23576802238E+02 -0.31175276536E+02  0.42971926564E+02  0.51100000000E-03 0.  1.
         12    1    3    3    0    0 -0.19114084199E+02 -0.15229193190E+02  0.28746749282E+02  0.37731315035E+02  0.00000000000E+00 0. -1.
</event>
<event>
 7    1  0.3757412E-015  0.9000768E+02  0.7816164E-02  0.1186339E+00
        -11   -1    0    0    0    0  0.00000000000E+00  0.00000000000E+00  0.45593999997E+02  0.45594000000E+02  0.51100000000E-03 0. -1.
         11   -1    0    0    0    0 -0.00000000000E+00 -0.00000000000E+00 -0.45593999997E+02  0.45594000000E+02  0.51100000000E-03 0.  1.
    9900012    2    1    2    0    0 -0.37078105321E+00  0.23341423387E+00  0.10959864912E+01  0.90007683440E+02  0.89999944061E+02 0.  0.
        -12    1    1    2    0    0  0.37078105321E+00 -0.23341423387E+00 -0.10959864912E+01  0.11803165604E+01  0.00000000000E+00 0.  1.
         11    1    3    3    0    0  0.27022704704E+02 -0.30091260107E+02 -0.15325400802E+02  0.43250183981E+02  0.51100000000E-03 0. -1.
        -11    1    3    3    0    0  0.55981088903E+00  0.77582124966E+01  0.39903454229E+01  0.87422025960E+01  0.51100000000E-03 0.  1.
        -12    1    3    3    0    0 -0.27953296647E+02  0.22566461844E+02  0.12431041871E+02  0.38015296863E+02  0.00000000000E+00 0.  1.
</event>
<event>
 7    1  0.3757412E-015  0.9000769E+02  0.7816164E-02  0.1186339E+00
        -11   -1    0    0    0    0  0.00000000000E+00  0.00000000000E+00  0.45593999997E+02  0.45594000000E+02  0.51100000000E-03 0. -1.
         11   -1    0    0    0    0 -0.00000000000E+00 -0.00000000000E+00 -0.45593999997E+02  0.45594000000E+02  0.51100000000E-03 0.  1.
    9900012    2    1    2    0    0 -0.32868499959E+00  0.72880328582E+00  0.86829588227E+00  0.90007692499E+02  0.89999953240E+02 0.  0.
        -12    1    1    2    0    0  0.32868499959E+00 -0.72880328582E+00 -0.86829588227E+00  0.11803075013E+01  0.00000000000E+00 0.  1.
         11    1    3    3    0    0 -0.10111509655E+00  0.67187287113E+01  0.53484724109E+01  0.85882301523E+01  0.51100000000E-03 0. -1.
        -11    1    3    3    0    0  0.26820799106E+02 -0.18673010419E+02  0.23685379533E+02  0.40361290696E+02  0.51100000000E-03 0.  1.
         12    1    3    3    0    0 -0.27048369009E+02  0.12683084994E+02 -0.28165556061E+02  0.41058171650E+02  0.00000000000E+00 0. -1.
</event>
<event>
 7    1  0.3757412E-015  0.9000774E+02  0.7816164E-02  0.1186339E+00
        -11   -1    0    0    0    0  0.00000000000E+00  0.00000000000E+00  0.45593999997E+02  0.45594000000E+02  0.51100000000E-03 0. -1.
         11   -1    0    0    0    0 -0.00000000000E+00 -0.00000000000E+00 -0.45593999997E+02  0.45594000000E+02  0.51100000000E-03 0.  1.
    9900012    2    1    2    0    0 -0.60084719607E+00  0.60910395525E+00  0.81301660479E+00  0.90007736902E+02  0.89999998229E+02 0.  0.
        -12    1    1    2    0    0  0.60084719607E+00 -0.60910395525E+00 -0.81301660479E+00  0.11802630982E+01  0.00000000000E+00 0.  1.
         11    1    3    3    0    0  0.16283881215E+00  0.33027158072E+02 -0.16201479305E+02  0.36787329595E+02  0.51100000000E-03 0. -1.
        -11    1    3    3    0    0  0.10412245557E+01  0.60764863543E+01 -0.57766317653E+01  0.84485093242E+01  0.51100000000E-03 0.  1.
        -12    1    3    3    0    0 -0.18049105639E+01 -0.38494540471E+02  0.22791127675E+02  0.44771897982E+02  0.00000000000E+00 0.  1.
</event>
<event>
 7    1  0.3757412E-015  0.9000765E+02  0.7816164E-02  0.1186339E+00
        -11   -1    0    0    0    0  0.00000000000E+00  0.00000000000E+00  0.45593999997E+02  0.45594000000E+02  0.51100000000E-03 0.  1.
         11   -1    0    0    0    0 -0.00000000000E+00 -0.00000000000E+00 -0.45593999997E+02  0.45594000000E+02  0.51100000000E-03 0. -1.
    9900012    2    1    2    0    0 -0.10499566476E+01  0.53793534925E+00 -0.37868134269E-01  0.90007653696E+02  0.89999913925E+02 0.  0.
        -12    1    1    2    0    0  0.10499566476E+01 -0.53793534925E+00  0.37868134269E-01  0.11803463040E+01  0.00000000000E+00 0.  1.
         11    1    3    3    0    0  0.10746574580E+02 -0.32957218910E+02 -0.23037804030E+02  0.41622200305E+02  0.51100000000E-03 0. -1.
        -11    1    3    3    0    0  0.46111245804E+01  0.18707262053E+01  0.86448099833E+01  0.99747093361E+01  0.51100000000E-03 0.  1.
        -12    1    3    3    0    0 -0.16407655808E+02  0.31624428054E+02  0.14355125912E+02  0.38410744055E+02  0.00000000000E+00 0.  1.
</event>
<event>
 7    1  0.3757412E-015  0.9000773E+02  0.7816164E-02  0.1186339E+00
        -11   -1    0    0    0    0  0.00000000000E+00  0.00000000000E+00  0.45593999997E+02  0.45594000000E+02  0.51100000000E-03 0.  1.
         11   -1    0    0    0    0 -0.00000000000E+00 -0.00000000000E+00 -0.45593999997E+02  0.45594000000E+02  0.51100000000E-03 0. -1.
    9900012    2    1    2    0    0 -0.94417250978E+00 -0.17151678335E+00 -0.68712882804E+00  0.90007734877E+02  0.89999996177E+02 0.  0.
        -12    1    1    2    0    0  0.94417250978E+00  0.17151678335E+00  0.68712882804E+00  0.11802651234E+01  0.00000000000E+00 0.  1.
         11    1    3    3    0    0  0.31713670425E+01 -0.63628280896E+01  0.64250815028E+01  0.95825269524E+01  0.51100000000E-03 0. -1.
        -11    1    3    3    0    0 -0.54114357322E+01 -0.22748876006E+02  0.26969461744E+02  0.35695193840E+02  0.51100000000E-03 0.  1.
         12    1    3    3    0    0  0.12958961800E+01  0.28940187312E+02 -0.34081672075E+02  0.44730014085E+02  0.00000000000E+00 0. -1.
</event>
<event>
 7    1  0.3757412E-015  0.9000773E+02  0.7816164E-02  0.1186339E+00
        -11   -1    0    0    0    0  0.00000000000E+00  0.00000000000E+00  0.45593999997E+02  0.45594000000E+02  0.51100000000E-03 0.  1.
         11   -1    0    0    0    0 -0.00000000000E+00 -0.00000000000E+00 -0.45593999997E+02  0.45594000000E+02  0.51100000000E-03 0. -1.
    9900012    2    1    2    0    0 -0.26469571515E-01  0.10673019884E+01  0.50320108845E+00  0.90007726511E+02  0.89999987701E+02 0.  0.
        -12    1    1    2    0    0  0.26469571515E-01 -0.10673019884E+01 -0.50320108845E+00  0.11802734887E+01  0.00000000000E+00 0.  1.
         11    1    3    3    0    0  0.12678657596E+02 -0.34206933287E+02  0.11113233855E+02  0.38136158830E+02  0.51100000000E-03 0. -1.
        -11    1    3    3    0    0  0.65613494533E+01  0.10865297436E+01  0.62811551526E+01  0.91479376825E+01  0.51100000000E-03 0.  1.
        -12    1    3    3    0    0 -0.19266476620E+02  0.34187705532E+02 -0.16891187919E+02  0.42723629998E+02  0.00000000000E+00 0.  1.
</event>
<event>
 7    1  0.3757412E-015  0.9000775E+02  0.7816164E-02  0.1186339E+00
        -11   -1    0    0    0    0  0.00000000000E+00  0.00000000000E+00  0.45593999997E+02  0.45594000000E+02  0.51100000000E-03 0.  1.
         11   -1    0    0    0    0 -0.00000000000E+00 -0.00000000000E+00 -0.45593999997E+02  0.45594000000E+02  0.51100000000E-03 0. -1.
    9900012    2    1    2    0    0 -0.94504254299E+00 -0.57252088280E+00 -0.41484680037E+00  0.90007752807E+02  0.90000014344E+02 0.  0.
        -12    1    1    2    0    0  0.94504254299E+00  0.57252088280E+00  0.41484680037E+00  0.11802471932E+01  0.00000000000E+00 0.  1.
         11    1    3    3    0    0 -0.83382577441E+01 -0.21624150200E+01  0.26231355371E+01  0.90046333203E+01  0.51100000000E-03 0. -1.
        -11    1    3    3    0    0 -0.30834661862E+02 -0.20275647380E+02 -0.10346779784E+01  0.36918136568E+02  0.51100000000E-03 0.  1.
         12    1    3    3    0    0  0.38227877063E+02  0.21865541517E+02 -0.20033043591E+01  0.44084982919E+02  0.00000000000E+00 0. -1.
</event>
<event>
 7    1  0.3757412E-015  0.9000768E+02  0.7816164E-02  0.1186339E+00
        -11   -1    0    0    0    0  0.00000000000E+00  0.00000000000E+00  0.45593999997E+02  0.45594000000E+02  0.51100000000E-03 0.  1.
         11   -1    0    0    0    0 -0.00000000000E+00 -0.00000000000E+00 -0.45593999997E+02  0.45594000000E+02  0.51100000000E-03 0. -1.
    9900012    2    1    2    0    0  0.25117591319E+00  0.10016061298E+01 -0.57170392669E+00  0.90007682433E+02  0.89999943041E+02 0.  0.
        -12    1    1    2    0    0 -0.25117591319E+00 -0.10016061298E+01  0.57170392669E+00  0.11803175668E+01  0.00000000000E+00 0.  1.
         11    1    3    3    0    0 -0.27786671073E+01 -0.82188823218E+01 -0.18472152042E+01  0.88703563505E+01  0.51100000000E-03 0. -1.
        -11    1    3    3    0    0 -0.16072601904E+02 -0.30789511456E+02  0.95819802455E+01  0.36029666850E+02  0.51100000000E-03 0.  1.
         12    1    3    3    0    0  0.19102444925E+02  0.40009999908E+02 -0.83064689680E+01  0.45107659232E+02  0.00000000000E+00 0. -1.
</event>
<event>
 7    1  0.3757412E-015  0.9000774E+02  0.7816164E-02  0.1186339E+00
        -11   -1    0    0    0    0  0.00000000000E+00  0.00000000000E+00  0.45593999997E+02  0.45594000000E+02  0.51100000000E-03 0.  1.
         11   -1    0    0    0    0 -0.00000000000E+00 -0.00000000000E+00 -0.45593999997E+02  0.45594000000E+02  0.51100000000E-03 0. -1.
    9900012    2    1    2    0    0  0.54372464991E+00 -0.44544717383E+00 -0.94812761992E+00  0.90007743391E+02  0.90000004804E+02 0.  0.
        -12    1    1    2    0    0 -0.54372464991E+00  0.44544717383E+00  0.94812761992E+00  0.11802566091E+01  0.00000000000E+00 0.  1.
         11    1    3    3    0    0  0.16220909581E+01 -0.94201975518E+01  0.15268565879E+01  0.96800099325E+01  0.51100000000E-03 0. -1.
        -11    1    3    3    0    0  0.14050738380E+02 -0.31742090083E+02  0.80499636209E+01  0.35634048976E+02  0.51100000000E-03 0.  1.
         12    1    3    3    0    0 -0.15129104688E+02  0.40716840461E+02 -0.10524947829E+02  0.44693684482E+02  0.00000000000E+00 0. -1.
</event>
<event>
 7    1  0.3757412E-015  0.9000780E+02  0.7816164E-02  0.1186339E+00
        -11   -1    0    0    0    0  0.00000000000E+00  0.00000000000E+00  0.45593999997E+02  0.45594000000E+02  0.51100000000E-03 0. -1.
         11   -1    0    0    0    0 -0.00000000000E+00 -0.00000000000E+00 -0.45593999997E+02  0.45594000000E+02  0.51100000000E-03 0.  1.
    9900012    2    1    2    0    0 -0.32996426799E+00 -0.50618168781E+00  0.10137942001E+01  0.90007798746E+02  0.90000060890E+02 0.  0.
        -12    1    1    2    0    0  0.32996426799E+00  0.50618168781E+00 -0.10137942001E+01  0.11802012537E+01  0.00000000000E+00 0.  1.
         11    1    3    3    0    0  0.87304620127E+01  0.38131293473E+02 -0.13898003774E+01  0.39142662840E+02  0.51100000000E-03 0. -1.
        -11    1    3    3    0    0  0.35061523085E+01  0.13711156810E+01 -0.69452305041E+01  0.78999550149E+01  0.51100000000E-03 0.  1.
        -12    1    3    3    0    0 -0.12566578589E+02 -0.40008590842E+02  0.93488250816E+01  0.42965180891E+02  0.00000000000E+00 0.  1.
</event>
<event>
 7    1  0.3757412E-015  0.9000783E+02  0.7816164E-02  0.1186339E+00
        -11   -1    0    0    0    0  0.00000000000E+00  0.00000000000E+00  0.45593999997E+02  0.45594000000E+02  0.51100000000E-03 0. -1.
         11   -1    0    0    0    0 -0.00000000000E+00 -0.00000000000E+00 -0.45593999997E+02  0.45594000000E+02  0.51100000000E-03 0.  1.
    9900012    2    1    2    0    0  0.37734198367E+00 -0.23633010541E+00  0.10929597464E+01  0.90007830564E+02  0.90000093127E+02 0.  0.
        -12    1    1    2    0    0 -0.37734198367E+00  0.23633010541E+00 -0.10929597464E+01  0.11801694364E+01  0.00000000000E+00 0.  1.
         11    1    3    3    0    0  0.17063371475E-01  0.28094149683E+01 -0.91979770039E+01  0.96174780920E+01  0.51100000000E-03 0. -1.
        -11    1    3    3    0    0 -0.15120386945E+02  0.85524027810E+01 -0.30581920976E+02  0.35171346086E+02  0.51100000000E-03 0.  1.
         12    1    3    3    0    0  0.15480665558E+02 -0.11598147855E+02  0.40872857726E+02  0.45219006385E+02  0.00000000000E+00 0. -1.
</event>
<event>
 7    1  0.3757412E-015  0.9000772E+02  0.7816164E-02  0.1186339E+00
        -11   -1    0    0    0    0  0.00000000000E+00  0.00000000000E+00  0.45593999997E+02  0.45594000000E+02  0.51100000000E-03 0. -1.
         11   -1    0    0    0    0 -0.00000000000E+00 -0.00000000000E+00 -0.45593999997E+02  0.45594000000E+02  0.51100000000E-03 0.  1.
    9900012    2    1    2    0    0  0.10428581147E+01  0.43314285834E+00  0.34334628831E+00  0.90007723568E+02  0.89999984719E+02 0.  0.
        -12    1    1    2    0    0 -0.10428581147E+01 -0.43314285834E+00 -0.34334628831E+00  0.11802764323E+01  0.00000000000E+00 0.  1.
         11    1    3    3    0    0 -0.20340590641E+02  0.29383231025E+02 -0.38143649106E+01  0.35939717209E+02  0.51100000000E-03 0. -1.
        -11    1    3    3    0    0 -0.35177595374E+01  0.53229471976E+01 -0.77728121025E+01  0.10056093042E+02  0.51100000000E-03 0.  1.
        -12    1    3    3    0    0  0.24901208293E+02 -0.34273035365E+02  0.11930523301E+02  0.44011913317E+02  0.00000000000E+00 0.  1.
</event>
<event>
 7    1  0.3757412E-015  0.9000761E+02  0.7816164E-02  0.1186339E+00
        -11   -1    0    0    0    0  0.00000000000E+00  0.00000000000E+00  0.45593999997E+02  0.45594000000E+02  0.51100000000E-03 0. -1.
         11   -1    0    0    0    0 -0.00000000000E+00 -0.00000000000E+00 -0.45593999997E+02  0.45594000000E+02  0.51100000000E-03 0.  1.
    9900012    2    1    2    0    0  0.57211489463E+00 -0.81990598190E+00  0.62749415403E+00  0.90007614391E+02  0.89999874101E+02 0.  0.
        -12    1    1    2    0    0 -0.57211489463E+00  0.81990598190E+00 -0.62749415403E+00  0.11803856087E+01  0.00000000000E+00 0.  1.
         11    1    3    3    0    0  0.68972623794E+01 -0.56584718782E+01  0.50917940642E+01  0.10272141908E+02  0.51100000000E-03 0. -1.
        -11    1    3    3    0    0 -0.39200975024E+02 -0.62153828213E+01  0.11827384393E+02  0.41415389027E+02  0.51100000000E-03 0.  1.
         12    1    3    3    0    0  0.32875827539E+02  0.11053948718E+02 -0.16291684304E+02  0.38320083456E+02  0.00000000000E+00 0. -1.
</event>
<event>
 7    1  0.3757412E-015  0.9000780E+02  0.7816164E-02  0.1186339E+00
        -11   -1    0    0    0    0  0.00000000000E+00  0.00000000000E+00  0.45593999997E+02  0.45594000000E+02  0.51100000000E-03 0.  1.
         11   -1    0    0    0    0 -0.00000000000E+00 -0.00000000000E+00 -0.45593999997E+02  0.45594000000E+02  0.51100000000E-03 0. -1.
    9900012    2    1    2    0    0 -0.10950071771E+01  0.38234799798E+00 -0.21824394441E+00  0.90007804623E+02  0.90000066844E+02 0.  0.
        -12    1    1    2    0    0  0.10950071771E+01 -0.38234799798E+00  0.21824394441E+00  0.11801953773E+01  0.00000000000E+00 0.  1.
         11    1    3    3    0    0 -0.74294208166E+01 -0.20167798085E+02  0.90151229580E+01  0.23306840530E+02  0.51100000000E-03 0. -1.
        -11    1    3    3    0    0  0.17279336965E+01  0.13278159415E+02  0.26636453442E+02  0.29812680599E+02  0.51100000000E-03 0.  1.
         12    1    3    3    0    0  0.46064799430E+01  0.72719866683E+01 -0.35869820344E+02  0.36888283494E+02  0.00000000000E+00 0. -1.
</event>
<event>
 7    1  0.3757412E-015  0.9000776E+02  0.7816164E-02  0.1186339E+00
        -11   -1    0    0    0    0  0.00000000000E+00  0.00000000000E+00  0.45593999997E+02  0.45594000000E+02  0.51100000000E-03 0. -1.
         11   -1    0    0    0    0 -0.00000000000E+00 -0.00000000000E+00 -0.45593999997E+02  0.45594000000E+02  0.51100000000E-03 0.  1.
    9900012    2    1    2    0    0  0.74112110025E+00 -0.85610717790E+00 -0.33285971841E+00  0.90007756136E+02  0.90000017717E+02 0.  0.
        -12    1    1    2    0    0 -0.74112110025E+00  0.85610717790E+00  0.33285971841E+00  0.11802438635E+01  0.00000000000E+00 0.  1.
         11    1    3    3    0    0 -0.54779744410E+01 -0.23662262435E+01 -0.53297638217E+01  0.80008507840E+01  0.51100000000E-03 0. -1.
        -11    1    3    3    0    0 -0.14345079529E+02 -0.87308804243E+01 -0.33330419108E+02  0.37321929450E+02  0.51100000000E-03 0.  1.
         12    1    3    3    0    0  0.20564175071E+02  0.10240999490E+02  0.38327323211E+02  0.44684975903E+02  0.00000000000E+00 0. -1.
</event>
<event>
 7    1  0.3757412E-015  0.9000790E+02  0.7816164E-02  0.1186339E+00
        -11   -1    0    0    0    0  0.00000000000E+00  0.00000000000E+00  0.45593999997E+02  0.45594000000E+02  0.51100000000E-03 0.  1.
         11   -1    0    0    0    0 -0.00000000000E+00 -0.00000000000E+00 -0.45593999997E+02  0.45594000000E+02  0.51100000000E-03 0. -1.
    9900012    2    1    2    0    0  0.94010563021E+00  0.35429830004E+00 -0.61911474243E+00  0.90007902993E+02  0.90000166512E+02 0.  0.
        -12    1    1    2    0    0 -0.94010563021E+00 -0.35429830004E+00  0.61911474243E+00  0.11800970069E+01  0.00000000000E+00 0.  1.
         11    1    3    3    0    0 -0.23511093062E+02 -0.21969605855E+02  0.13737562926E+02  0.34987936690E+02  0.51100000000E-03 0. -1.
        -11    1    3    3    0    0 -0.66008712783E+01 -0.73206784392E+01 -0.35413055991E+00  0.98635309680E+01  0.51100000000E-03 0.  1.
        -12    1    3    3    0    0  0.31052069970E+02  0.29644582595E+02 -0.14002547109E+02  0.45156435335E+02  0.00000000000E+00 0.  1.
</event>
<event>
 7    1  0.3757412E-015  0.9000774E+02  0.7816164E-02  0.1186339E+00
        -11   -1    0    0    0    0  0.00000000000E+00  0.00000000000E+00  0.45593999997E+02  0.45594000000E+02  0.51100000000E-03 0.  1.
         11   -1    0    0    0    0 -0.00000000000E+00 -0.00000000000E+00 -0.45593999997E+02  0.45594000000E+02  0.51100000000E-03 0. -1.
    9900012    2    1    2    0    0  0.36602549574E+00  0.84192413491E-01 -0.11189053355E+01  0.90007740632E+02  0.90000002008E+02 0.  0.
        -12    1    1    2    0    0 -0.36602549574E+00 -0.84192413491E-01  0.11189053355E+01  0.11802593680E+01  0.00000000000E+00 0.  1.
         11    1    3    3    0    0 -0.74137497944E+01 -0.40980704848E+00  0.29582844706E+01  0.79926888530E+01  0.51100000000E-03 0. -1.
        -11    1    3    3    0    0 -0.21317390609E+02 -0.28115555251E+02  0.13240809686E+02  0.37686000462E+02  0.51100000000E-03 0.  1.
         12    1    3    3    0    0  0.29097165899E+02  0.28609554713E+02 -0.17317999492E+02  0.44329051317E+02  0.00000000000E+00 0. -1.
</event>
<event>
 7    1  0.3757412E-015  0.9000787E+02  0.7816164E-02  0.1186339E+00
        -11   -1    0    0    0    0  0.00000000000E+00  0.00000000000E+00  0.45593999997E+02  0.45594000000E+02  0.51100000000E-03 0. -1.
         11   -1    0    0    0    0 -0.00000000000E+00 -0.00000000000E+00 -0.45593999997E+02  0.45594000000E+02  0.51100000000E-03 0.  1.
    9900012    2    1    2    0    0 -0.11564730036E+01  0.78585082709E-03  0.23509411808E+00  0.90007873028E+02  0.90000136152E+02 0.  0.
        -12    1    1    2    0    0  0.11564730036E+01 -0.78585082708E-03 -0.23509411808E+00  0.11801269720E+01  0.00000000000E+00 0.  1.
         11    1    3    3    0    0 -0.21899614737E+02 -0.21849739365E+02  0.27649725897E+02  0.41491102400E+02  0.51100000000E-03 0. -1.
        -11    1    3    3    0    0  0.24389550296E+01  0.48546158007E+01  0.51432142928E+01  0.74812064356E+01  0.51100000000E-03 0.  1.
        -12    1    3    3    0    0  0.18304186704E+02  0.16995909415E+02 -0.32557846072E+02  0.41035564192E+02  0.00000000000E+00 0.  1.
</event>
<event>
 7    1  0.3757412E-015  0.9000775E+02  0.7816164E-02  0.1186339E+00
        -11   -1    0    0    0    0  0.00000000000E+00  0.00000000000E+00  0.45593999997E+02  0.45594000000E+02  0.51100000000E-03 0.  1.
         11   -1    0    0    0    0 -0.00000000000E+00 -0.00000000000E+00 -0.45593999997E+02  0.45594000000E+02  0.51100000000E-03 0. -1.
    9900012    2    1    2    0    0  0.10391301786E+01  0.46978289604E-02  0.55963180152E+00  0.90007745218E+02  0.90000006655E+02 0.  0.
        -12    1    1    2    0    0 -0.10391301786E+01 -0.46978289604E-02 -0.55963180152E+00  0.11802547822E+01  0.00000000000E+00 0.  1.
         11    1    3    3    0    0 -0.31779049548E+01 -0.50727018534E+01 -0.75438412961E+01  0.96302090194E+01  0.51100000000E-03 0. -1.
        -11    1    3    3    0    0  0.38625208805E+02 -0.13357346529E+02  0.25501561517E+01  0.40949099602E+02  0.51100000000E-03 0.  1.
         12    1    3    3    0    0 -0.34408173672E+02  0.18434746211E+02  0.55533169459E+01  0.39428436596E+02  0.00000000000E+00 0. -1.
</event>
<event>
 7    1  0.3757412E-015  0.9000771E+02  0.7816164E-02  0.1186339E+00
        -11   -1    0    0    0    0  0.00000000000E+00  0.00000000000E+00  0.45593999997E+02  0.45594000000E+02  0.51100000000E-03 0. -1.
         11   -1    0    0    0    0 -0.00000000000E+00 -0.00000000000E+00 -0.45593999997E+02  0.45594000000E+02  0.51100000000E-03 0.  1.
    9900012    2    1    2    0    0  0.74567731336E-02  0.84277599866E+00 -0.82628694203E+00  0.90007713129E+02  0.89999974142E+02 0.  0.
        -12    1    1    2    0    0 -0.74567731336E-02 -0.84277599866E+00  0.82628694203E+00  0.11802868710E+01  0.00000000000E+00 0.  1.
         11    1    3    3    0    0  0.24677850120E+01  0.10552741855E+02  0.35407655944E+01  0.11401199269E+02  0.51100000000E-03 0. -1.
        -11    1    3    3    0    0 -0.53701606633E+01  0.22565780458E+02 -0.29549095585E+02  0.37565970284E+02  0.51100000000E-03 0.  1.
         12    1    3    3    0    0  0.29098324244E+01 -0.32275746314E+02  0.25182043049E+02  0.41040543576E+02  0.00000000000E+00 0. -1.
</event>
<event>
 7    1  0.3757412E-015  0.9000775E+02  0.7816164E-02  0.1186339E+00
        -11   -1    0    0    0    0  0.00000000000E+00  0.00000000000E+00  0.45593999997E+02  0.45594000000E+02  0.51100000000E-03 0. -1.
         11   -1    0    0    0    0 -0.00000000000E+00 -0.00000000000E+00 -0.45593999997E+02  0.45594000000E+02  0.51100000000E-03 0.  1.
    9900012    2    1    2    0    0  0.11317827004E+00 -0.10474739615E+01  0.53195655729E+00  0.90007750535E+02  0.90000012042E+02 0.  0.
        -12    1    1    2    0    0 -0.11317827004E+00  0.10474739615E+01 -0.53195655729E+00  0.11802494650E+01  0.00000000000E+00 0.  1.
         11    1    3    3    0    0  0.91133868260E+01  0.35890510018E+01  0.34391342358E+02  0.35758908484E+02  0.51100000000E-03 0. -1.
        -11    1    3    3    0    0  0.83224275280E+01  0.35043319617E+01  0.54358500925E+01  0.10540000424E+02  0.51100000000E-03 0.  1.
        -12    1    3    3    0    0 -0.17322636084E+02 -0.81408569251E+01 -0.39295235893E+02  0.43708841626E+02  0.00000000000E+00 0.  1.
</event>
<event>
 7    1  0.3757412E-015  0.9000782E+02  0.7816164E-02  0.1186339E+00
        -11   -1    0    0    0    0  0.00000000000E+00  0.00000000000E+00  0.45593999997E+02  0.45594000000E+02  0.51100000000E-03 0. -1.
         11   -1    0    0    0    0 -0.00000000000E+00 -0.00000000000E+00 -0.45593999997E+02  0.45594000000E+02  0.51100000000E-03 0.  1.
    9900012    2    1    2    0    0  0.22671367752E+00  0.31267042915E+00  0.11151992256E+01  0.90007817302E+02  0.90000079690E+02 0.  0.
        -12    1    1    2    0    0 -0.22671367752E+00 -0.31267042915E+00 -0.11151992256E+01  0.11801826984E+01  0.00000000000E+00 0.  1.
         11    1    3    3    0    0 -0.37481419079E+02  0.73029944451E+01 -0.43711131901E+01  0.38435623253E+02  0.51100000000E-03 0. -1.
        -11    1    3    3    0    0 -0.18958739301E+01  0.56572068095E+01  0.79324320075E+01  0.99258150627E+01  0.51100000000E-03 0.  1.
        -12    1    3    3    0    0  0.39604006687E+02 -0.12647530825E+02 -0.24461195917E+01  0.41646378986E+02  0.00000000000E+00 0.  1.
</event>
<event>
 7    1  0.3757412E-015  0.9000778E+02  0.7816164E-02  0.1186339E+00
        -11   -1    0    0    0    0  0.00000000000E+00  0.00000000000E+00  0.45593999997E+02  0.45594000000E+02  0.51100000000E-03 0. -1.
         11   -1    0    0    0    0 -0.00000000000E+00 -0.00000000000E+00 -0.45593999997E+02  0.45594000000E+02  0.51100000000E-03 0.  1.
    9900012    2    1    2    0    0 -0.98335270619E+00  0.65237712333E+00 -0.18764691721E-01  0.90007775204E+02  0.90000037037E+02 0.  0.
        -12    1    1    2    0    0  0.98335270619E+00 -0.65237712333E+00  0.18764691721E-01  0.11802247962E+01  0.00000000000E+00 0.  1.
         11    1    3    3    0    0 -0.28001783730E+02  0.22912725385E+02  0.17219295821E+02  0.40069901740E+02  0.51100000000E-03 0. -1.
        -11    1    3    3    0    0 -0.23573131405E+01 -0.28582767258E+01  0.64971270278E+01  0.74792600543E+01  0.51100000000E-03 0.  1.
        -12    1    3    3    0    0  0.29375744164E+02 -0.19402071536E+02 -0.23735187541E+02  0.42458613410E+02  0.00000000000E+00 0.  1.
</event>
<event>
 7    1  0.3757412E-015  0.9000775E+02  0.7816164E-02  0.1186339E+00
        -11   -1    0    0    0    0  0.00000000000E+00  0.00000000000E+00  0.45593999997E+02  0.45594000000E+02  0.51100000000E-03 0.  1.
         11   -1    0    0    0    0 -0.00000000000E+00 -0.00000000000E+00 -0.45593999997E+02  0.45594000000E+02  0.51100000000E-03 0. -1.
    9900012    2    1    2    0    0 -0.57434813358E+00  0.88171468565E+00 -0.53449843628E+00  0.90007752084E+02  0.90000013611E+02 0.  0.
        -12    1    1    2    0    0  0.57434813358E+00 -0.88171468565E+00  0.53449843628E+00  0.11802479163E+01  0.00000000000E+00 0.  1.
         11    1    3    3    0    0 -0.25078236470E+01 -0.61120984447E+01 -0.65327413966E+01  0.92910514613E+01  0.51100000000E-03 0. -1.
        -11    1    3    3    0    0 -0.45782785781E+01 -0.23854510106E+02  0.31772797380E+02  0.39993861289E+02  0.51100000000E-03 0.  1.
         12    1    3    3    0    0  0.65117540915E+01  0.30848323237E+02 -0.25774554420E+02  0.40722839334E+02  0.00000000000E+00 0. -1.
</event>
<event>
 7    1  0.3757412E-015  0.9000903E+02  0.7816164E-02  0.1186336E+00
        -11   -1    0    0    0    0  0.00000000000E+00  0.00000000000E+00  0.45593999997E+02  0.45594000000E+02  0.51100000000E-03 0. -1.
         11   -1    0    0    0    0 -0.00000000000E+00 -0.00000000000E+00 -0.45593999997E+02  0.45594000000E+02  0.51100000000E-03 0.  1.
    9900012    2    1    2    0    0  0.27780504558E+00  0.30714839703E+00  0.11038351320E+01  0.90009031052E+02  0.90001309453E+02 0.  0.
        -12    1    1    2    0    0 -0.27780504558E+00 -0.30714839703E+00 -0.11038351320E+01  0.11789689478E+01  0.00000000000E+00 0.  1.
         11    1    3    3    0    0 -0.54507051346E+01  0.69913806602E+01  0.25918541408E+01  0.92361950038E+01  0.51100000000E-03 0. -1.
        -11    1    3    3    0    0 -0.11346948638E+02  0.34411833138E+02  0.27937379933E+00  0.36235418492E+02  0.51100000000E-03 0.  1.
         12    1    3    3    0    0  0.17075458818E+02 -0.41096065401E+02 -0.17673928081E+01  0.44537417557E+02  0.00000000000E+00 0. -1.
</event>
<event>
 7    1  0.3757412E-015  0.9000777E+02  0.7816164E-02  0.1186339E+00
        -11   -1    0    0    0    0  0.00000000000E+00  0.00000000000E+00  0.45593999997E+02  0.45594000000E+02  0.51100000000E-03 0.  1.
         11   -1    0    0    0    0 -0.00000000000E+00 -0.00000000000E+00 -0.45593999997E+02  0.45594000000E+02  0.51100000000E-03 0. -1.
    9900012    2    1    2    0    0  0.49388307175E+00 -0.10682063121E+01 -0.89196517714E-01  0.90007770686E+02  0.90000032459E+02 0.  0.
        -12    1    1    2    0    0 -0.49388307175E+00  0.10682063121E+01  0.89196517714E-01  0.11802293136E+01  0.00000000000E+00 0.  1.
         11    1    3    3    0    0  0.41431627566E+02  0.16668826736E+01  0.13844123371E+02  0.43715192014E+02  0.51100000000E-03 0. -1.
        -11    1    3    3    0    0 -0.12712143983E+02 -0.17374502022E+01  0.32464561560E+01  0.13234682304E+02  0.51100000000E-03 0.  1.
        -12    1    3    3    0    0 -0.28225600512E+02 -0.99763878351E+00 -0.17179776045E+02  0.33057896369E+02  0.00000000000E+00 0.  1.
</event>
<event>
 7    1  0.3757412E-015  0.9000871E+02  0.7816164E-02  0.1186337E+00
        -11   -1    0    0    0    0  0.00000000000E+00  0.00000000000E+00  0.45593999997E+02  0.45594000000E+02  0.51100000000E-03 0. -1.
         11   -1    0    0    0    0 -0.00000000000E+00 -0.00000000000E+00 -0.45593999997E+02  0.45594000000E+02  0.51100000000E-03 0.  1.
    9900012    2    1    2    0    0 -0.69017083834E+00  0.14324866061E+00  0.94544412713E+00  0.90008711841E+02  0.90000986032E+02 0.  0.
        -12    1    1    2    0    0  0.69017083834E+00 -0.14324866061E+00 -0.94544412713E+00  0.11792881592E+01  0.00000000000E+00 0.  1.
         11    1    3    3    0    0 -0.24939550262E+02  0.28849515085E+02  0.14638316074E+02  0.40847961830E+02  0.51100000000E-03 0. -1.
        -11    1    3    3    0    0 -0.28155695131E+01 -0.80407545736E+01  0.54333190132E+01  0.10104559444E+02  0.51100000000E-03 0.  1.
        -12    1    3    3    0    0  0.27064948936E+02 -0.20665511851E+02 -0.19126190960E+02  0.39056190567E+02  0.00000000000E+00 0.  1.
</event>
<event>
 7    1  0.3757412E-015  0.9000776E+02  0.7816164E-02  0.1186339E+00
        -11   -1    0    0    0    0  0.00000000000E+00  0.00000000000E+00  0.45593999997E+02  0.45594000000E+02  0.51100000000E-03 0.  1.
         11   -1    0    0    0    0 -0.00000000000E+00 -0.00000000000E+00 -0.45593999997E+02  0.45594000000E+02  0.51100000000E-03 0. -1.
    9900012    2    1    2    0    0 -0.46005719883E+00 -0.10838477895E+01 -0.81142864998E-01  0.90007761540E+02  0.90000023193E+02 0.  0.
        -12    1    1    2    0    0  0.46005719883E+00  0.10838477895E+01  0.81142864998E-01  0.11802384596E+01  0.00000000000E+00 0.  1.
         11    1    3    3    0    0 -0.35847032488E+01 -0.11308265104E+02  0.48913786019E+00  0.11872919319E+02  0.51100000000E-03 0. -1.
        -11    1    3    3    0    0  0.25510385849E+02 -0.58656661744E+01 -0.28633985976E+02  0.38795502046E+02  0.51100000000E-03 0.  1.
         12    1    3    3    0    0 -0.22385739799E+02  0.16090083489E+02  0.28063705251E+02  0.39339340176E+02  0.00000000000E+00 0. -1.
</event>
<event>
 7    1  0.3757412E-015  0.9000781E+02  0.7816164E-02  0.1186339E+00
        -11   -1    0    0    0    0  0.00000000000E+00  0.00000000000E+00  0.45593999997E+02  0.45594000000E+02  0.51100000000E-03 0. -1.
         11   -1    0    0    0    0 -0.00000000000E+00 -0.00000000000E+00 -0.45593999997E+02  0.45594000000E+02  0.51100000000E-03 0.  1.
    9900012    2    1    2    0    0 -0.47373452322E+00 -0.85374310879E+00  0.66298570963E+00  0.90007808598E+02  0.90000070871E+02 0.  0.
        -12    1    1    2    0    0  0.47373452322E+00  0.85374310879E+00 -0.66298570963E+00  0.11801914021E+01  0.00000000000E+00 0.  1.
         11    1    3    3    0    0  0.76104358010E+01  0.30285836122E+01  0.37438183463E+01  0.90059551325E+01  0.51100000000E-03 0. -1.
        -11    1    3    3    0    0  0.27652183054E+02 -0.25848139896E+02 -0.82398140867E+01  0.38738406010E+02  0.51100000000E-03 0.  1.
         12    1    3    3    0    0 -0.35736353379E+02  0.21965813175E+02  0.51589814500E+01  0.42263447456E+02  0.00000000000E+00 0. -1.
</event>
<event>
 7    1  0.3757412E-015  0.9000775E+02  0.7816164E-02  0.1186339E+00
        -11   -1    0    0    0    0  0.00000000000E+00  0.00000000000E+00  0.45593999997E+02  0.45594000000E+02  0.51100000000E-03 0.  1.
         11   -1    0    0    0    0 -0.00000000000E+00 -0.00000000000E+00 -0.45593999997E+02  0.45594000000E+02  0.51100000000E-03 0. -1.
    9900012    2    1    2    0    0 -0.73235854294E+00 -0.63461914866E+00 -0.67372801800E+00  0.90007745815E+02  0.90000007260E+02 0.  0.
        -12    1    1    2    0    0  0.73235854294E+00  0.63461914866E+00  0.67372801800E+00  0.11802541851E+01  0.00000000000E+00 0.  1.
         11    1    3    3    0    0 -0.12825569809E+02 -0.13718795490E+01 -0.85745569674E+01  0.15488715953E+02  0.51100000000E-03 0. -1.
        -11    1    3    3    0    0 -0.66306682373E+01 -0.33234026145E+02 -0.35503145968E+01  0.34074491766E+02  0.51100000000E-03 0.  1.
         12    1    3    3    0    0  0.18723879504E+02  0.33971286546E+02  0.11451143546E+02  0.40444538096E+02  0.00000000000E+00 0. -1.
</event>
<event>
 7    1  0.3757412E-015  0.9000770E+02  0.7816164E-02  0.1186339E+00
        -11   -1    0    0    0    0  0.00000000000E+00  0.00000000000E+00  0.45593999997E+02  0.45594000000E+02  0.51100000000E-03 0.  1.
         11   -1    0    0    0    0 -0.00000000000E+00 -0.00000000000E+00 -0.45593999997E+02  0.45594000000E+02  0.51100000000E-03 0. -1.
    9900012    2    1    2    0    0 -0.35060514398E+00  0.93651914700E+00 -0.62698404690E+00  0.90007702972E+02  0.89999963851E+02 0.  0.
        -12    1    1    2    0    0  0.35060514398E+00 -0.93651914700E+00  0.62698404690E+00  0.11802970282E+01  0.00000000000E+00 0.  1.
         11    1    3    3    0    0 -0.13514953344E+01 -0.17964928242E+02 -0.34829793168E+02  0.39213258967E+02  0.51100000000E-03 0. -1.
        -11    1    3    3    0    0 -0.75220392279E+01  0.85911324471E+01 -0.25351895957E+01  0.11696829375E+02  0.51100000000E-03 0.  1.
        -12    1    3    3    0    0  0.85229294184E+01  0.10310314942E+02  0.36737998717E+02  0.39097614631E+02  0.00000000000E+00 0.  1.
</event>
<event>
 7    1  0.3757412E-015  0.9000774E+02  0.7816164E-02  0.1186339E+00
        -11   -1    0    0    0    0  0.00000000000E+00  0.00000000000E+00  0.45593999997E+02  0.45594000000E+02  0.51100000000E-03 0.  1.
         11   -1    0    0    0    0 -0.00000000000E+00 -0.00000000000E+00 -0.45593999997E+02  0.45594000000E+02  0.51100000000E-03 0. -1.
    9900012    2    1    2    0    0  0.60376710143E+00  0.14551605094E+00 -0.10036486908E+01  0.90007737178E+02  0.89999998509E+02 0.  0.
        -12    1    1    2    0    0 -0.60376710143E+00 -0.14551605094E+00  0.10036486908E+01  0.11802628217E+01  0.00000000000E+00 0.  1.
         11    1    3    3    0    0  0.90309557984E+01  0.38677581610E+01 -0.40219042047E+00  0.98325720551E+01  0.51100000000E-03 0. -1.
        -11    1    3    3    0    0  0.16407627060E+02  0.25337518515E+02  0.20521552161E+02  0.36501153045E+02  0.51100000000E-03 0.  1.
         12    1    3    3    0    0 -0.24834815757E+02 -0.29059760625E+02 -0.21123010432E+02  0.43674012078E+02  0.00000000000E+00 0. -1.
</event>
<event>
 7    1  0.3757412E-015  0.9000796E+02  0.7816164E-02  0.1186339E+00
        -11   -1    0    0    0    0  0.00000000000E+00  0.00000000000E+00  0.45593999997E+02  0.45594000000E+02  0.51100000000E-03 0. -1.
         11   -1    0    0    0    0 -0.00000000000E+00 -0.00000000000E+00 -0.45593999997E+02  0.45594000000E+02  0.51100000000E-03 0.  1.
    9900012    2    1    2    0    0 -0.61366966008E+00  0.45151213217E+00  0.90113902993E+00  0.90007955421E+02  0.90000219632E+02 0.  0.
        -12    1    1    2    0    0  0.61366966008E+00 -0.45151213217E+00 -0.90113902993E+00  0.11800445790E+01  0.00000000000E+00 0.  1.
         11    1    3    3    0    0 -0.23058230207E+01  0.10018827558E+02  0.10467386927E+02  0.14671738641E+02  0.51100000000E-03 0. -1.
        -11    1    3    3    0    0 -0.86163431531E+01  0.28127542846E+02 -0.19146961763E+02  0.35099945597E+02  0.51100000000E-03 0.  1.
         12    1    3    3    0    0  0.10308496514E+02 -0.37694858271E+02  0.95807138667E+01  0.40236271182E+02  0.00000000000E+00 0. -1.
</event>
<event>
 7    1  0.3902136E-015  0.9000793E+02  0.7816164E-02  0.1186339E+00
        -11   -1    0    0    0    0  0.00000000000E+00  0.00000000000E+00  0.45593999997E+02  0.45594000000E+02  0.51100000000E-03 0.  1.
         11   -1    0    0    0    0 -0.00000000000E+00 -0.00000000000E+00 -0.45593999997E+02  0.45594000000E+02  0.51100000000E-03 0. -1.
    9900012    2    1    2    0    0 -0.10637331556E+01 -0.40380273244E+00 -0.31303219448E+00  0.90007926262E+02  0.90000190088E+02 0.  0.
        -12    1    1    2    0    0  0.10637331556E+01  0.40380273244E+00  0.31303219448E+00  0.11800737383E+01  0.00000000000E+00 0.  1.
         11    1    3    3    0    0 -0.81354596589E+01 -0.24298405874E+02 -0.34794111458E+02  0.43211438581E+02  0.51100000000E-03 0. -1.
        -11    1    3    3    0    0 -0.62696302390E+01  0.34625994447E+01  0.65288676657E+01  0.96914380514E+01  0.51100000000E-03 0.  1.
        -12    1    3    3    0    0  0.13341356742E+02  0.20432003697E+02  0.27952211598E+02  0.37105049629E+02  0.00000000000E+00 0.  1.
</event>
<event>
 7    1  0.3757412E-015  0.9000777E+02  0.7816164E-02  0.1186339E+00
        -11   -1    0    0    0    0  0.00000000000E+00  0.00000000000E+00  0.45593999997E+02  0.45594000000E+02  0.51100000000E-03 0. -1.
         11   -1    0    0    0    0 -0.00000000000E+00 -0.00000000000E+00 -0.45593999997E+02  0.45594000000E+02  0.51100000000E-03 0.  1.
    9900012    2    1    2    0    0 -0.51761260528E+00 -0.95182799943E+00  0.46801983237E+00  0.90007770398E+02  0.90000032167E+02 0.  0.
        -12    1    1    2    0    0  0.51761260528E+00  0.95182799943E+00 -0.46801983237E+00  0.11802296019E+01  0.00000000000E+00 0.  1.
         11    1    3    3    0    0 -0.11341467437E+01 -0.57703793244E+01  0.58778628487E+01  0.83146159450E+01  0.51100000000E-03 0. -1.
        -11    1    3    3    0    0  0.37162303105E+02  0.41788846078E+01  0.14454430644E+02  0.40092772593E+02  0.51100000000E-03 0.  1.
         12    1    3    3    0    0 -0.36545768967E+02  0.63966671714E+00 -0.19864273661E+02  0.41600381861E+02  0.00000000000E+00 0. -1.
</event>
<event>
 7    1  0.3757412E-015  0.9000772E+02  0.7816164E-02  0.1186339E+00
        -11   -1    0    0    0    0  0.00000000000E+00  0.00000000000E+00  0.45593999997E+02  0.45594000000E+02  0.51100000000E-03 0.  1.
         11   -1    0    0    0    0 -0.00000000000E+00 -0.00000000000E+00 -0.45593999997E+02  0.45594000000E+02  0.51100000000E-03 0. -1.
    9900012    2    1    2    0    0  0.45582590569E+00 -0.12493085547E+00 -0.10815158891E+01  0.90007719697E+02  0.89999980797E+02 0.  0.
        -12    1    1    2    0    0 -0.45582590569E+00  0.12493085547E+00  0.10815158891E+01  0.11802803029E+01  0.00000000000E+00 0.  1.
         11    1    3    3    0    0 -0.71050114908E+01 -0.48385498125E+01 -0.19680924769E+01  0.88185112593E+01  0.51100000000E-03 0. -1.
        -11    1    3    3    0    0 -0.24005834963E+02  0.20820070544E+02 -0.22316850291E+02  0.38830365140E+02  0.51100000000E-03 0.  1.
         12    1    3    3    0    0  0.31566672359E+02 -0.16106451587E+02  0.23203426879E+02  0.42358843298E+02  0.00000000000E+00 0. -1.
</event>
<event>
 7    1  0.3757412E-015  0.9000791E+02  0.7816164E-02  0.1186339E+00
        -11   -1    0    0    0    0  0.00000000000E+00  0.00000000000E+00  0.45593999997E+02  0.45594000000E+02  0.51100000000E-03 0. -1.
         11   -1    0    0    0    0 -0.00000000000E+00 -0.00000000000E+00 -0.45593999997E+02  0.45594000000E+02  0.51100000000E-03 0.  1.
    9900012    2    1    2    0    0  0.87120199655E+00 -0.31014068862E+00  0.73309761502E+00  0.90007910055E+02  0.90000173667E+02 0.  0.
        -12    1    1    2    0    0 -0.87120199655E+00  0.31014068862E+00 -0.73309761502E+00  0.11800899452E+01  0.00000000000E+00 0.  1.
         11    1    3    3    0    0 -0.97660288437E+01  0.29585139561E+01  0.21822614641E+00  0.10206652101E+02  0.51100000000E-03 0. -1.
        -11    1    3    3    0    0  0.74363248097E+01 -0.16086980370E+02 -0.36458740471E+02  0.40538002184E+02  0.51100000000E-03 0.  1.
         12    1    3    3    0    0  0.32009060305E+01  0.12818325725E+02  0.36973611939E+02  0.39263255770E+02  0.00000000000E+00 0. -1.
</event>
<event>
 7    1  0.3757412E-015  0.9000776E+02  0.7816164E-02  0.1186339E+00
        -11   -1    0    0    0    0  0.00000000000E+00  0.00000000000E+00  0.45593999997E+02  0.45594000000E+02  0.51100000000E-03 0.  1.
         11   -1    0    0    0    0 -0.00000000000E+00 -0.00000000000E+00 -0.45593999997E+02  0.45594000000E+02  0.51100000000E-03 0. -1.
    9900012    2    1    2    0    0  0.34173723288E+00  0.10527005017E+01 -0.40986867735E+00  0.90007764847E+02  0.90000026543E+02 0.  0.
        -12    1    1    2    0    0 -0.34173723288E+00 -0.10527005017E+01  0.40986867735E+00  0.11802351525E+01  0.00000000000E+00 0.  1.
         11    1    3    3    0    0  0.90756173444E+01  0.21060631404E+01  0.14405301717E+02  0.17155612783E+02  0.51100000000E-03 0. -1.
        -11    1    3    3    0    0 -0.16304968927E+02 -0.16024618008E+02  0.22414879738E+02  0.32016671094E+02  0.51100000000E-03 0.  1.
         12    1    3    3    0    0  0.75710888154E+01  0.14971255369E+02 -0.37230050133E+02  0.40835480970E+02  0.00000000000E+00 0. -1.
</event>
<event>
 7    1  0.3757412E-015  0.9000775E+02  0.7816164E-02  0.1186339E+00
        -11   -1    0    0    0    0  0.00000000000E+00  0.00000000000E+00  0.45593999997E+02  0.45594000000E+02  0.51100000000E-03 0.  1.
         11   -1    0    0    0    0 -0.00000000000E+00 -0.00000000000E+00 -0.45593999997E+02  0.45594000000E+02  0.51100000000E-03 0. -1.
    9900012    2    1    2    0    0  0.11247427906E+01 -0.32265314459E+00  0.15441261281E+00  0.90007748056E+02  0.90000009530E+02 0.  0.
        -12    1    1    2    0    0 -0.11247427906E+01  0.32265314459E+00 -0.15441261281E+00  0.11802519441E+01  0.00000000000E+00 0.  1.
         11    1    3    3    0    0 -0.16801117056E+02  0.18729895956E+02  0.51354849063E+01  0.25679948254E+02  0.51100000000E-03 0. -1.
        -11    1    3    3    0    0  0.15591878347E+02 -0.79202750735E+01  0.25994603580E+02  0.31329807583E+02  0.51100000000E-03 0.  1.
         12    1    3    3    0    0  0.23339815001E+01 -0.11132274027E+02 -0.30975675874E+02  0.32997992219E+02  0.00000000000E+00 0. -1.
</event>
<event>
 7    1  0.3757412E-015  0.9000779E+02  0.7816164E-02  0.1186339E+00
        -11   -1    0    0    0    0  0.00000000000E+00  0.00000000000E+00  0.45593999997E+02  0.45594000000E+02  0.51100000000E-03 0. -1.
         11   -1    0    0    0    0 -0.00000000000E+00 -0.00000000000E+00 -0.45593999997E+02  0.45594000000E+02  0.51100000000E-03 0.  1.
    9900012    2    1    2    0    0 -0.78909947764E+00 -0.86747028776E+00  0.13307600253E+00  0.90007791583E+02  0.90000053632E+02 0.  0.
        -12    1    1    2    0    0  0.78909947764E+00  0.86747028776E+00 -0.13307600253E+00  0.11802084173E+01  0.00000000000E+00 0.  1.
         11    1    3    3    0    0 -0.39006571445E+01 -0.25577191237E+02  0.25470467969E+02  0.36306371019E+02  0.51100000000E-03 0. -1.
        -11    1    3    3    0    0 -0.26692499555E+01 -0.10088844898E+02 -0.29377646666E+00  0.10440114538E+02  0.51100000000E-03 0.  1.
        -12    1    3    3    0    0  0.57808076223E+01  0.34798565847E+02 -0.25043615500E+02  0.43261306026E+02  0.00000000000E+00 0.  1.
</event>
<event>
 7    1  0.3757412E-015  0.9000779E+02  0.7816164E-02  0.1186339E+00
        -11   -1    0    0    0    0  0.00000000000E+00  0.00000000000E+00  0.45593999997E+02  0.45594000000E+02  0.51100000000E-03 0.  1.
         11   -1    0    0    0    0 -0.00000000000E+00 -0.00000000000E+00 -0.45593999997E+02  0.45594000000E+02  0.51100000000E-03 0. -1.
    9900012    2    1    2    0    0  0.51931397794E+00  0.59094800200E+00 -0.87977123579E+00  0.90007786470E+02  0.90000048452E+02 0.  0.
        -12    1    1    2    0    0 -0.51931397794E+00 -0.59094800200E+00  0.87977123579E+00  0.11802135299E+01  0.00000000000E+00 0.  1.
         11    1    3    3    0    0 -0.16545657317E+01 -0.77397258534E+01 -0.40162163622E+01  0.88752993287E+01  0.51100000000E-03 0. -1.
        -11    1    3    3    0    0 -0.35859931760E+02 -0.11598938282E+01  0.16802993821E+02  0.39618438398E+02  0.51100000000E-03 0.  1.
         12    1    3    3    0    0  0.38033811469E+02  0.94905676836E+01 -0.13666548695E+02  0.41514048743E+02  0.00000000000E+00 0. -1.
</event>
<event>
 7    1  0.3757412E-015  0.9000774E+02  0.7816164E-02  0.1186339E+00
        -11   -1    0    0    0    0  0.00000000000E+00  0.00000000000E+00  0.45593999997E+02  0.45594000000E+02  0.51100000000E-03 0.  1.
         11   -1    0    0    0    0 -0.00000000000E+00 -0.00000000000E+00 -0.45593999997E+02  0.45594000000E+02  0.51100000000E-03 0. -1.
    9900012    2    1    2    0    0  0.11591097020E+01  0.10357031109E+00 -0.19687075930E+00  0.90007737230E+02  0.89999998561E+02 0.  0.
        -12    1    1    2    0    0 -0.11591097020E+01 -0.10357031109E+00  0.19687075930E+00  0.11802627701E+01  0.00000000000E+00 0.  1.
         11    1    3    3    0    0  0.75940843000E+01 -0.13490210406E+02 -0.17837790307E+02  0.23618692946E+02  0.51100000000E-03 0. -1.
        -11    1    3    3    0    0 -0.37730606536E+01 -0.24810340070E+02  0.10655891138E+02  0.27264206889E+02  0.51100000000E-03 0.  1.
         12    1    3    3    0    0 -0.26619139444E+01  0.38404120787E+02  0.69850284094E+01  0.39124837395E+02  0.00000000000E+00 0. -1.
</event>
<event>
 7    1  0.3757412E-015  0.9000775E+02  0.7816164E-02  0.1186339E+00
        -11   -1    0    0    0    0  0.00000000000E+00  0.00000000000E+00  0.45593999997E+02  0.45594000000E+02  0.51100000000E-03 0. -1.
         11   -1    0    0    0    0 -0.00000000000E+00 -0.00000000000E+00 -0.45593999997E+02  0.45594000000E+02  0.51100000000E-03 0.  1.
    9900012    2    1    2    0    0 -0.89459599644E+00  0.59854411398E+00  0.48418788601E+00  0.90007747924E+02  0.90000009397E+02 0.  0.
        -12    1    1    2    0    0  0.89459599644E+00 -0.59854411398E+00 -0.48418788601E+00  0.11802520757E+01  0.00000000000E+00 0.  1.
         11    1    3    3    0    0  0.58921627396E+00  0.79871620913E+00 -0.89953910058E+01  0.90499824866E+01  0.51100000000E-03 0. -1.
        -11    1    3    3    0    0 -0.39214296947E+01  0.11493841142E+02 -0.33875796341E+02  0.35986880569E+02  0.51100000000E-03 0.  1.
         12    1    3    3    0    0  0.24376174243E+01 -0.11694013238E+02  0.43355375233E+02  0.44970884869E+02  0.00000000000E+00 0. -1.
</event>
<event>
 7    1  0.3757412E-015  0.9000773E+02  0.7816164E-02  0.1186339E+00
        -11   -1    0    0    0    0  0.00000000000E+00  0.00000000000E+00  0.45593999997E+02  0.45594000000E+02  0.51100000000E-03 0.  1.
         11   -1    0    0    0    0 -0.00000000000E+00 -0.00000000000E+00 -0.45593999997E+02  0.45594000000E+02  0.51100000000E-03 0. -1.
    9900012    2    1    2    0    0  0.54196267781E+00 -0.10478329039E+01  0.36820785132E-01  0.90007731764E+02  0.89999993023E+02 0.  0.
        -12    1    1    2    0    0 -0.54196267781E+00  0.10478329039E+01 -0.36820785132E-01  0.11802682360E+01  0.00000000000E+00 0.  1.
         11    1    3    3    0    0  0.10126561291E+01  0.77641987356E+01  0.50368277988E+01  0.93100960778E+01  0.51100000000E-03 0. -1.
        -11    1    3    3    0    0 -0.15279959709E+02 -0.32598205379E+02  0.21665145270E+02  0.42017837670E+02  0.51100000000E-03 0.  1.
         12    1    3    3    0    0  0.14809266258E+02  0.23786173740E+02 -0.26665152283E+02  0.38679798016E+02  0.00000000000E+00 0. -1.
</event>
<event>
 7    1  0.3757412E-015  0.9000777E+02  0.7816164E-02  0.1186339E+00
        -11   -1    0    0    0    0  0.00000000000E+00  0.00000000000E+00  0.45593999997E+02  0.45594000000E+02  0.51100000000E-03 0.  1.
         11   -1    0    0    0    0 -0.00000000000E+00 -0.00000000000E+00 -0.45593999997E+02  0.45594000000E+02  0.51100000000E-03 0. -1.
    9900012    2    1    2    0    0  0.80647915081E+00 -0.52356157132E+00 -0.68440399583E+00  0.90007773679E+02  0.90000035491E+02 0.  0.
        -12    1    1    2    0    0 -0.80647915081E+00  0.52356157132E+00  0.68440399583E+00  0.11802263212E+01  0.00000000000E+00 0.  1.
         11    1    3    3    0    0 -0.16615975030E+02  0.26401985623E+02  0.21206262802E+02  0.37720830496E+02  0.51100000000E-03 0. -1.
        -11    1    3    3    0    0 -0.28634301548E+01  0.63907873715E+01 -0.85732048084E+01  0.11069834526E+02  0.51100000000E-03 0.  1.
        -12    1    3    3    0    0  0.20285884336E+02 -0.33316334566E+02 -0.13317461989E+02  0.41217108657E+02  0.00000000000E+00 0.  1.
</event>
<event>
 7    1  0.3757412E-015  0.9000777E+02  0.7816164E-02  0.1186339E+00
        -11   -1    0    0    0    0  0.00000000000E+00  0.00000000000E+00  0.45593999997E+02  0.45594000000E+02  0.51100000000E-03 0.  1.
         11   -1    0    0    0    0 -0.00000000000E+00 -0.00000000000E+00 -0.45593999997E+02  0.45594000000E+02  0.51100000000E-03 0. -1.
    9900012    2    1    2    0    0 -0.66575560048E+00 -0.92511856992E+00 -0.30637395153E+00  0.90007771257E+02  0.90000033037E+02 0.  0.
        -12    1    1    2    0    0  0.66575560048E+00  0.92511856992E+00  0.30637395153E+00  0.11802287432E+01  0.00000000000E+00 0.  1.
         11    1    3    3    0    0  0.60601598719E+00 -0.86828149860E+01 -0.39432949075E+01  0.95555275336E+01  0.51100000000E-03 0. -1.
        -11    1    3    3    0    0 -0.78849719121E+01  0.38895281051E+01  0.41193939010E+02  0.42121749992E+02  0.51100000000E-03 0.  1.
         12    1    3    3    0    0  0.66132003244E+01  0.38681683109E+01 -0.37557018054E+02  0.38330493732E+02  0.00000000000E+00 0. -1.
</event>
<event>
 7    1  0.3757412E-015  0.9000771E+02  0.7816164E-02  0.1186339E+00
        -11   -1    0    0    0    0  0.00000000000E+00  0.00000000000E+00  0.45593999997E+02  0.45594000000E+02  0.51100000000E-03 0.  1.
         11   -1    0    0    0    0 -0.00000000000E+00 -0.00000000000E+00 -0.45593999997E+02  0.45594000000E+02  0.51100000000E-03 0. -1.
    9900012    2    1    2    0    0 -0.44353801630E+00 -0.24291710452E+00 -0.10664642928E+01  0.90007711569E+02  0.89999972562E+02 0.  0.
        -12    1    1    2    0    0  0.44353801630E+00  0.24291710452E+00  0.10664642928E+01  0.11802884306E+01  0.00000000000E+00 0.  1.
         11    1    3    3    0    0  0.35088757867E+02 -0.12274014465E+02 -0.17489917915E+02  0.41082473011E+02  0.51100000000E-03 0. -1.
        -11    1    3    3    0    0 -0.59572610050E+01 -0.57506300787E+01 -0.35988437081E+01  0.90283099903E+01  0.51100000000E-03 0.  1.
        -12    1    3    3    0    0 -0.29575034878E+02  0.17781727439E+02  0.20022297331E+02  0.39896928568E+02  0.00000000000E+00 0.  1.
</event>
<event>
 7    1  0.3757412E-015  0.9000776E+02  0.7816164E-02  0.1186339E+00
        -11   -1    0    0    0    0  0.00000000000E+00  0.00000000000E+00  0.45593999997E+02  0.45594000000E+02  0.51100000000E-03 0.  1.
         11   -1    0    0    0    0 -0.00000000000E+00 -0.00000000000E+00 -0.45593999997E+02  0.45594000000E+02  0.51100000000E-03 0. -1.
    9900012    2    1    2    0    0  0.11707259821E+01 -0.83200918999E-01 -0.12427883485E+00  0.90007759793E+02  0.90000021422E+02 0.  0.
        -12    1    1    2    0    0 -0.11707259821E+01  0.83200918999E-01  0.12427883485E+00  0.11802402072E+01  0.00000000000E+00 0.  1.
         11    1    3    3    0    0  0.55758439934E+01  0.36857953027E+02  0.18613692887E+02  0.41666152939E+02  0.51100000000E-03 0. -1.
        -11    1    3    3    0    0 -0.76960091193E+01 -0.40604234205E+01  0.25082948840E+01  0.90557792710E+01  0.51100000000E-03 0.  1.
        -12    1    3    3    0    0  0.32908911080E+01 -0.32880730525E+02 -0.21246266606E+02  0.39285827583E+02  0.00000000000E+00 0.  1.
</event>
<event>
 7    1  0.3757412E-015  0.9000777E+02  0.7816164E-02  0.1186339E+00
        -11   -1    0    0    0    0  0.00000000000E+00  0.00000000000E+00  0.45593999997E+02  0.45594000000E+02  0.51100000000E-03 0. -1.
         11   -1    0    0    0    0 -0.00000000000E+00 -0.00000000000E+00 -0.45593999997E+02  0.45594000000E+02  0.51100000000E-03 0.  1.
    9900012    2    1    2    0    0  0.81991798063E+00 -0.76846541161E+00  0.36074345029E+00  0.90007771030E+02  0.90000032808E+02 0.  0.
        -12    1    1    2    0    0 -0.81991798063E+00  0.76846541161E+00 -0.36074345029E+00  0.11802289696E+01  0.00000000000E+00 0.  1.
         11    1    3    3    0    0  0.35975323352E+01  0.36488556776E+01 -0.74470851273E+01  0.90396606028E+01  0.51100000000E-03 0. -1.
        -11    1    3    3    0    0 -0.13759147441E+02  0.82834209257E+01 -0.33077122743E+02  0.36769895971E+02  0.51100000000E-03 0.  1.
         12    1    3    3    0    0  0.10981533086E+02 -0.12700742015E+02  0.40884951320E+02  0.44198214456E+02  0.00000000000E+00 0. -1.
</event>
<event>
 7    1  0.3757412E-015  0.9000769E+02  0.7816164E-02  0.1186339E+00
        -11   -1    0    0    0    0  0.00000000000E+00  0.00000000000E+00  0.45593999997E+02  0.45594000000E+02  0.51100000000E-03 0.  1.
         11   -1    0    0    0    0 -0.00000000000E+00 -0.00000000000E+00 -0.45593999997E+02  0.45594000000E+02  0.51100000000E-03 0. -1.
    9900012    2    1    2    0    0 -0.63161018159E+00  0.64196564897E+00  0.76294713398E+00  0.90007686633E+02  0.89999947296E+02 0.  0.
        -12    1    1    2    0    0  0.63161018159E+00 -0.64196564897E+00 -0.76294713398E+00  0.11803133674E+01  0.00000000000E+00 0.  1.
         11    1    3    3    0    0 -0.22772139521E+02 -0.17386745995E+02 -0.21392991255E+02  0.35756528771E+02  0.51100000000E-03 0. -1.
        -11    1    3    3    0    0 -0.64476028952E+01 -0.68731007246E+01 -0.15304003910E+01  0.95474196662E+01  0.51100000000E-03 0.  1.
        -12    1    3    3    0    0  0.28588132234E+02  0.24901812368E+02  0.23686338780E+02  0.44703738196E+02  0.00000000000E+00 0.  1.
</event>
<event>
 7    1  0.3757412E-015  0.9000779E+02  0.7816164E-02  0.1186339E+00
        -11   -1    0    0    0    0  0.00000000000E+00  0.00000000000E+00  0.45593999997E+02  0.45594000000E+02  0.51100000000E-03 0.  1.
         11   -1    0    0    0    0 -0.00000000000E+00 -0.00000000000E+00 -0.45593999997E+02  0.45594000000E+02  0.51100000000E-03 0. -1.
    9900012    2    1    2    0    0 -0.56946318557E+00 -0.21169836919E+00 -0.10118285382E+01  0.90007787515E+02  0.90000049510E+02 0.  0.
        -12    1    1    2    0    0  0.56946318557E+00  0.21169836919E+00  0.10118285382E+01  0.11802124851E+01  0.00000000000E+00 0.  1.
         11    1    3    3    0    0 -0.37356852636E+01  0.33816472296E+01  0.88551421190E+01  0.10188445641E+02  0.51100000000E-03 0. -1.
        -11    1    3    3    0    0  0.33097153002E+01  0.24652262694E+01  0.34648417437E+02  0.34893328690E+02  0.51100000000E-03 0.  1.
         12    1    3    3    0    0 -0.14349322222E+00 -0.60585718682E+01 -0.44515388094E+02  0.44926013184E+02  0.00000000000E+00 0. -1.
</event>
<event>
 7    1  0.3757412E-015  0.9000769E+02  0.7816164E-02  0.1186339E+00
        -11   -1    0    0    0    0  0.00000000000E+00  0.00000000000E+00  0.45593999997E+02  0.45594000000E+02  0.51100000000E-03 0.  1.
         11   -1    0    0    0    0 -0.00000000000E+00 -0.00000000000E+00 -0.45593999997E+02  0.45594000000E+02  0.51100000000E-03 0. -1.
    9900012    2    1    2    0    0 -0.85045445135E+00 -0.77380608461E+00  0.26660372640E+00  0.90007692338E+02  0.89999953077E+02 0.  0.
        -12    1    1    2    0    0  0.85045445135E+00  0.77380608461E+00 -0.26660372640E+00  0.11803076621E+01  0.00000000000E+00 0.  1.
         11    1    3    3    0    0 -0.88619384808E+01  0.20556371491E+01 -0.65931625498E+01  0.11235185374E+02  0.51100000000E-03 0. -1.
        -11    1    3    3    0    0 -0.26427813669E+02  0.10365402048E+02  0.24859362771E+02  0.37734053752E+02  0.51100000000E-03 0.  1.
         12    1    3    3    0    0  0.34439297698E+02 -0.13194845282E+02 -0.17999596495E+02  0.41038453211E+02  0.00000000000E+00 0. -1.
</event>
<event>
 7    1  0.3757412E-015  0.9000784E+02  0.7816164E-02  0.1186339E+00
        -11   -1    0    0    0    0  0.00000000000E+00  0.00000000000E+00  0.45593999997E+02  0.45594000000E+02  0.51100000000E-03 0.  1.
         11   -1    0    0    0    0 -0.00000000000E+00 -0.00000000000E+00 -0.45593999997E+02  0.45594000000E+02  0.51100000000E-03 0. -1.
    9900012    2    1    2    0    0  0.27846224753E+00  0.83044813373E+00 -0.79094127870E+00  0.90007841777E+02  0.90000104488E+02 0.  0.
        -12    1    1    2    0    0 -0.27846224753E+00 -0.83044813373E+00  0.79094127870E+00  0.11801582235E+01  0.00000000000E+00 0.  1.
         11    1    3    3    0    0  0.83008475616E+01 -0.33664060221E+02  0.76753312731E+01  0.35511740752E+02  0.51100000000E-03 0. -1.
        -11    1    3    3    0    0  0.42940976215E+01 -0.47285928280E+01  0.79761978303E+01  0.10218541804E+02  0.51100000000E-03 0.  1.
        -12    1    3    3    0    0 -0.12316482936E+02  0.39223101183E+02 -0.16442470382E+02  0.44277559221E+02  0.00000000000E+00 0.  1.
</event>
<event>
 7    1  0.3757412E-015  0.9000775E+02  0.7816164E-02  0.1186339E+00
        -11   -1    0    0    0    0  0.00000000000E+00  0.00000000000E+00  0.45593999997E+02  0.45594000000E+02  0.51100000000E-03 0. -1.
         11   -1    0    0    0    0 -0.00000000000E+00 -0.00000000000E+00 -0.45593999997E+02  0.45594000000E+02  0.51100000000E-03 0.  1.
    9900012    2    1    2    0    0 -0.99653035392E+00  0.36736895400E+00 -0.51473185192E+00  0.90007753596E+02  0.90000015144E+02 0.  0.
        -12    1    1    2    0    0  0.99653035392E+00 -0.36736895400E+00  0.51473185192E+00  0.11802464040E+01  0.00000000000E+00 0.  1.
         11    1    3    3    0    0 -0.13981686462E+02 -0.86686951695E+01  0.37914767873E+02  0.41329934132E+02  0.51100000000E-03 0. -1.
        -11    1    3    3    0    0 -0.49333406500E+01 -0.49830470884E+01 -0.73176689868E+01  0.10134934036E+02  0.51100000000E-03 0.  1.
        -12    1    3    3    0    0  0.17918496758E+02  0.14019111212E+02 -0.31111830738E+02  0.38542885428E+02  0.00000000000E+00 0.  1.
</event>
<event>
 7    1  0.3757412E-015  0.9000774E+02  0.7816164E-02  0.1186339E+00
        -11   -1    0    0    0    0  0.00000000000E+00  0.00000000000E+00  0.45593999997E+02  0.45594000000E+02  0.51100000000E-03 0.  1.
         11   -1    0    0    0    0 -0.00000000000E+00 -0.00000000000E+00 -0.45593999997E+02  0.45594000000E+02  0.51100000000E-03 0. -1.
    9900012    2    1    2    0    0  0.61676228926E-01  0.11138104157E+01  0.38552845488E+00  0.90007741643E+02  0.90000003033E+02 0.  0.
        -12    1    1    2    0    0 -0.61676228926E-01 -0.11138104157E+01 -0.38552845488E+00  0.11802583568E+01  0.00000000000E+00 0.  1.
         11    1    3    3    0    0  0.74690119356E+01  0.57775062855E+00 -0.29402138268E+01  0.80476575903E+01  0.51100000000E-03 0. -1.
        -11    1    3    3    0    0  0.34404101403E+02  0.14702323060E+02 -0.21502135569E+01  0.37475644295E+02  0.51100000000E-03 0.  1.
         12    1    3    3    0    0 -0.41811437109E+02 -0.14166263273E+02  0.54759558386E+01  0.44484439758E+02  0.00000000000E+00 0. -1.
</event>
<event>
 7    1  0.3757412E-015  0.9000692E+02  0.7816164E-02  0.1186341E+00
        -11   -1    0    0    0    0  0.00000000000E+00  0.00000000000E+00  0.45593999997E+02  0.45594000000E+02  0.51100000000E-03 0. -1.
         11   -1    0    0    0    0 -0.00000000000E+00 -0.00000000000E+00 -0.45593999997E+02  0.45594000000E+02  0.51100000000E-03 0.  1.
    9900012    2    1    2    0    0  0.14172062971E+00 -0.11717264686E+01  0.43739647971E-01  0.90006923876E+02  0.89999174467E+02 0.  0.
        -12    1    1    2    0    0 -0.14172062971E+00  0.11717264686E+01 -0.43739647971E-01  0.11810761241E+01  0.00000000000E+00 0.  1.
         11    1    3    3    0    0 -0.79824187217E+01  0.20643349320E+02  0.29894482995E+02  0.37196061533E+02  0.51100000000E-03 0. -1.
        -11    1    3    3    0    0 -0.10476771302E+02  0.17071479829E+01 -0.16750065071E+00  0.10616268077E+02  0.51100000000E-03 0.  1.
        -12    1    3    3    0    0  0.18600910653E+02 -0.23522223772E+02 -0.29683242696E+02  0.42194594266E+02  0.00000000000E+00 0.  1.
</event>
<event>
 7    1  0.3757412E-015  0.9000783E+02  0.7816164E-02  0.1186339E+00
        -11   -1    0    0    0    0  0.00000000000E+00  0.00000000000E+00  0.45593999997E+02  0.45594000000E+02  0.51100000000E-03 0. -1.
         11   -1    0    0    0    0 -0.00000000000E+00 -0.00000000000E+00 -0.45593999997E+02  0.45594000000E+02  0.51100000000E-03 0.  1.
    9900012    2    1    2    0    0 -0.74657979966E+00 -0.49513707854E-01  0.91266960438E+00  0.90007831024E+02  0.90000093594E+02 0.  0.
        -12    1    1    2    0    0  0.74657979966E+00  0.49513707854E-01 -0.91266960438E+00  0.11801689757E+01  0.00000000000E+00 0.  1.
         11    1    3    3    0    0  0.29283982694E+02 -0.32497049326E+01  0.48095701923E+01  0.29853713174E+02  0.51100000000E-03 0. -1.
        -11    1    3    3    0    0 -0.32954461449E+01 -0.17056751452E+02  0.13839463625E+02  0.22210886724E+02  0.51100000000E-03 0.  1.
        -12    1    3    3    0    0 -0.26735116349E+02  0.20256942676E+02 -0.17736364213E+02  0.37943231126E+02  0.00000000000E+00 0.  1.
</event>
<event>
 7    1  0.3757412E-015  0.9000782E+02  0.7816164E-02  0.1186339E+00
        -11   -1    0    0    0    0  0.00000000000E+00  0.00000000000E+00  0.45593999997E+02  0.45594000000E+02  0.51100000000E-03 0.  1.
         11   -1    0    0    0    0 -0.00000000000E+00 -0.00000000000E+00 -0.45593999997E+02  0.45594000000E+02  0.51100000000E-03 0. -1.
    9900012    2    1    2    0    0  0.80070294294E+00 -0.13093659369E+00 -0.85705527204E+00  0.90007824872E+02  0.90000087360E+02 0.  0.
        -12    1    1    2    0    0 -0.80070294294E+00  0.13093659369E+00  0.85705527204E+00  0.11801751284E+01  0.00000000000E+00 0.  1.
         11    1    3    3    0    0 -0.10408754653E+01 -0.20787842102E+01 -0.71032904133E+01  0.74740551566E+01  0.51100000000E-03 0. -1.
        -11    1    3    3    0    0 -0.10189934998E+02  0.37022086280E+02  0.19612896812E+02  0.43117692070E+02  0.51100000000E-03 0.  1.
         12    1    3    3    0    0  0.12031513406E+02 -0.35074238664E+02 -0.13366661671E+02  0.39416077645E+02  0.00000000000E+00 0. -1.
</event>
<event>
 7    1  0.3757412E-015  0.9000775E+02  0.7816164E-02  0.1186339E+00
        -11   -1    0    0    0    0  0.00000000000E+00  0.00000000000E+00  0.45593999997E+02  0.45594000000E+02  0.51100000000E-03 0.  1.
         11   -1    0    0    0    0 -0.00000000000E+00 -0.00000000000E+00 -0.45593999997E+02  0.45594000000E+02  0.51100000000E-03 0. -1.
    9900012    2    1    2    0    0 -0.45326618148E+00 -0.46836707120E+00 -0.98396157527E+00  0.90007746499E+02  0.90000007953E+02 0.  0.
        -12    1    1    2    0    0  0.45326618148E+00  0.46836707120E+00  0.98396157527E+00  0.11802535008E+01  0.00000000000E+00 0.  1.
         11    1    3    3    0    0  0.54003939879E+01  0.54769403300E+00 -0.74740966458E+01  0.92372260398E+01  0.51100000000E-03 0. -1.
        -11    1    3    3    0    0  0.37301178881E+02  0.68172550880E+00  0.37515400837E+01  0.37495556388E+02  0.51100000000E-03 0.  1.
         12    1    3    3    0    0 -0.43154839051E+02 -0.16977866130E+01  0.27385949869E+01  0.43274964071E+02  0.00000000000E+00 0. -1.
</event>
<event>
 7    1  0.3757412E-015  0.9000775E+02  0.7816164E-02  0.1186339E+00
        -11   -1    0    0    0    0  0.00000000000E+00  0.00000000000E+00  0.45593999997E+02  0.45594000000E+02  0.51100000000E-03 0. -1.
         11   -1    0    0    0    0 -0.00000000000E+00 -0.00000000000E+00 -0.45593999997E+02  0.45594000000E+02  0.51100000000E-03 0.  1.
    9900012    2    1    2    0    0  0.37391037883E+00  0.17308366537E+00  0.11059985522E+01  0.90007745907E+02  0.90000007353E+02 0.  0.
        -12    1    1    2    0    0 -0.37391037883E+00 -0.17308366537E+00 -0.11059985522E+01  0.11802540931E+01  0.00000000000E+00 0.  1.
         11    1    3    3    0    0  0.36727028022E+02 -0.93386574519E+01  0.20119637951E+02  0.42905535096E+02  0.51100000000E-03 0. -1.
        -11    1    3    3    0    0 -0.12938483825E+01  0.78402695612E+01 -0.43925134074E+01  0.90795398960E+01  0.51100000000E-03 0.  1.
        -12    1    3    3    0    0 -0.35059269261E+02  0.16714715561E+01 -0.14621125991E+02  0.38022670915E+02  0.00000000000E+00 0.  1.
</event>
<event>
 7    1  0.3757412E-015  0.9000788E+02  0.7816164E-02  0.1186339E+00
        -11   -1    0    0    0    0  0.00000000000E+00  0.00000000000E+00  0.45593999997E+02  0.45594000000E+02  0.51100000000E-03 0.  1.
         11   -1    0    0    0    0 -0.00000000000E+00 -0.00000000000E+00 -0.45593999997E+02  0.45594000000E+02  0.51100000000E-03 0. -1.
    9900012    2    1    2    0    0  0.10252345531E+01 -0.57220765347E+00  0.11895432289E+00  0.90007882371E+02  0.90000145618E+02 0.  0.
        -12    1    1    2    0    0 -0.10252345531E+01  0.57220765347E+00 -0.11895432289E+00  0.11801176291E+01  0.00000000000E+00 0.  1.
         11    1    3    3    0    0  0.18956118763E+02  0.12867020557E+02 -0.28134820844E+02  0.36283092492E+02  0.51100000000E-03 0. -1.
        -11    1    3    3    0    0  0.27438499702E+01  0.87667918135E+01 -0.34774930842E+01  0.98223372866E+01  0.51100000000E-03 0.  1.
        -12    1    3    3    0    0 -0.20674734180E+02 -0.22206020024E+02  0.31731268252E+02  0.43902452592E+02  0.00000000000E+00 0.  1.
</event>
<event>
 7    1  0.5257635E-015  0.9000758E+02  0.7816164E-02  0.1186339E+00
        -11   -1    0    0    0    0  0.00000000000E+00  0.00000000000E+00  0.45593999997E+02  0.45594000000E+02  0.51100000000E-03 0. -1.
         11   -1    0    0    0    0 -0.00000000000E+00 -0.00000000000E+00 -0.45593999997E+02  0.45594000000E+02  0.51100000000E-03 0.  1.
    9900012    2    1    2    0    0  0.17035981018E+00 -0.52432182972E+00  0.10437645058E+01  0.90007584738E+02  0.89999844057E+02 0.  0.
        -12    1    1    2    0    0 -0.17035981018E+00  0.52432182972E+00 -0.10437645058E+01  0.11804152615E+01  0.00000000000E+00 0.  1.
         11    1    3    3    0    0  0.29004222195E+02  0.19250668971E+02  0.80957517559E+01  0.35740374336E+02  0.51100000000E-03 0. -1.
        -11    1    3    3    0    0  0.72307888438E+01  0.59766691754E+01  0.84034197915E-01  0.93814681017E+01  0.51100000000E-03 0.  1.
        -12    1    3    3    0    0 -0.36064651229E+02 -0.25751659976E+02 -0.71360214480E+01  0.44885742300E+02  0.00000000000E+00 0.  1.
</event>
<event>
 7    1  0.3757412E-015  0.9000768E+02  0.7816164E-02  0.1186339E+00
        -11   -1    0    0    0    0  0.00000000000E+00  0.00000000000E+00  0.45593999997E+02  0.45594000000E+02  0.51100000000E-03 0.  1.
         11   -1    0    0    0    0 -0.00000000000E+00 -0.00000000000E+00 -0.45593999997E+02  0.45594000000E+02  0.51100000000E-03 0. -1.
    9900012    2    1    2    0    0  0.35681242269E+00 -0.10298842839E+01 -0.45297765021E+00  0.90007675682E+02  0.89999936201E+02 0.  0.
        -12    1    1    2    0    0 -0.35681242269E+00  0.10298842839E+01  0.45297765021E+00  0.11803243177E+01  0.00000000000E+00 0.  1.
         11    1    3    3    0    0 -0.30823670546E+01  0.67813014450E+01 -0.39709720193E+01  0.84413064739E+01  0.51100000000E-03 0. -1.
        -11    1    3    3    0    0 -0.23713392574E+02 -0.35508493230E+02  0.13857447511E+01  0.42721170017E+02  0.51100000000E-03 0.  1.
         12    1    3    3    0    0  0.27152572051E+02  0.27697307501E+02  0.21322496179E+01  0.38845199192E+02  0.00000000000E+00 0. -1.
</event>
<event>
 7    1  0.3757412E-015  0.9000794E+02  0.7816164E-02  0.1186339E+00
        -11   -1    0    0    0    0  0.00000000000E+00  0.00000000000E+00  0.45593999997E+02  0.45594000000E+02  0.51100000000E-03 0. -1.
         11   -1    0    0    0    0 -0.00000000000E+00 -0.00000000000E+00 -0.45593999997E+02  0.45594000000E+02  0.51100000000E-03 0.  1.
    9900012    2    1    2    0    0  0.20743801617E+00 -0.10392178926E+01 -0.51917182108E+00  0.90007939095E+02  0.90000203091E+02 0.  0.
        -12    1    1    2    0    0 -0.20743801617E+00  0.10392178926E+01  0.51917182108E+00  0.11800609046E+01  0.00000000000E+00 0.  1.
         11    1    3    3    0    0 -0.31214112157E+01  0.64883870651E+01 -0.52986184419E+01  0.89396718250E+01  0.51100000000E-03 0. -1.
        -11    1    3    3    0    0  0.27321418672E+02  0.11086528945E+02  0.29651383531E+02  0.41815972880E+02  0.51100000000E-03 0.  1.
         12    1    3    3    0    0 -0.23992569440E+02 -0.18614133902E+02 -0.24871936910E+02  0.39252294391E+02  0.00000000000E+00 0. -1.
</event>
<event>
 7    1  0.3757412E-015  0.9000777E+02  0.7816164E-02  0.1186339E+00
        -11   -1    0    0    0    0  0.00000000000E+00  0.00000000000E+00  0.45593999997E+02  0.45594000000E+02  0.51100000000E-03 0.  1.
         11   -1    0    0    0    0 -0.00000000000E+00 -0.00000000000E+00 -0.45593999997E+02  0.45594000000E+02  0.51100000000E-03 0. -1.
    9900012    2    1    2    0    0  0.52366737640E+00 -0.61838695846E+00 -0.85808939362E+00  0.90007768091E+02  0.90000029830E+02 0.  0.
        -12    1    1    2    0    0 -0.52366737640E+00  0.61838695846E+00  0.85808939362E+00  0.11802319090E+01  0.00000000000E+00 0.  1.
         11    1    3    3    0    0  0.28337591293E+02  0.12062858318E+02 -0.25277746215E+02  0.39843394497E+02  0.51100000000E-03 0. -1.
        -11    1    3    3    0    0  0.86880625812E+00  0.79780539009E+01  0.74642516657E+01  0.10959891493E+02  0.51100000000E-03 0.  1.
        -12    1    3    3    0    0 -0.28682730175E+02 -0.20659299177E+02  0.16955405156E+02  0.39204482100E+02  0.00000000000E+00 0.  1.
</event>
<event>
 7    1  0.3757412E-015  0.9000772E+02  0.7816164E-02  0.1186339E+00
        -11   -1    0    0    0    0  0.00000000000E+00  0.00000000000E+00  0.45593999997E+02  0.45594000000E+02  0.51100000000E-03 0. -1.
         11   -1    0    0    0    0 -0.00000000000E+00 -0.00000000000E+00 -0.45593999997E+02  0.45594000000E+02  0.51100000000E-03 0.  1.
    9900012    2    1    2    0    0 -0.21609523911E-01  0.10281078020E+01  0.57929942325E+00  0.90007720183E+02  0.89999981290E+02 0.  0.
        -12    1    1    2    0    0  0.21609523911E-01 -0.10281078020E+01 -0.57929942325E+00  0.11802798167E+01  0.00000000000E+00 0.  1.
         11    1    3    3    0    0 -0.46430979540E+01  0.90113518086E+01  0.44256361516E+01  0.11061151642E+02  0.51100000000E-03 0. -1.
        -11    1    3    3    0    0  0.13662793383E+02  0.33345408753E+02  0.27003746909E+01  0.36136964893E+02  0.51100000000E-03 0.  1.
         12    1    3    3    0    0 -0.90413049530E+01 -0.41328652760E+02 -0.65467114192E+01  0.42809603649E+02  0.00000000000E+00 0. -1.
</event>
<event>
 7    1  0.3757412E-015  0.9000783E+02  0.7816164E-02  0.1186339E+00
        -11   -1    0    0    0    0  0.00000000000E+00  0.00000000000E+00  0.45593999997E+02  0.45594000000E+02  0.51100000000E-03 0. -1.
         11   -1    0    0    0    0 -0.00000000000E+00 -0.00000000000E+00 -0.45593999997E+02  0.45594000000E+02  0.51100000000E-03 0.  1.
    9900012    2    1    2    0    0  0.81132038307E+00  0.14699467293E+00  0.84436061359E+00  0.90007833468E+02  0.90000096070E+02 0.  0.
        -12    1    1    2    0    0 -0.81132038307E+00 -0.14699467293E+00 -0.84436061359E+00  0.11801665322E+01  0.00000000000E+00 0.  1.
         11    1    3    3    0    0 -0.60941185205E+01  0.31873486603E+01 -0.92333244592E+01  0.11513112214E+02  0.51100000000E-03 0. -1.
        -11    1    3    3    0    0  0.16536435815E+02  0.34578582265E+02 -0.18334328880E+00  0.38329697050E+02  0.51100000000E-03 0.  1.
         12    1    3    3    0    0 -0.96309969111E+01 -0.37618936252E+02  0.10261028362E+02  0.40165024204E+02  0.00000000000E+00 0. -1.
</event>
<event>
 7    1  0.3757412E-015  0.9000776E+02  0.7816164E-02  0.1186339E+00
        -11   -1    0    0    0    0  0.00000000000E+00  0.00000000000E+00  0.45593999997E+02  0.45594000000E+02  0.51100000000E-03 0.  1.
         11   -1    0    0    0    0 -0.00000000000E+00 -0.00000000000E+00 -0.45593999997E+02  0.45594000000E+02  0.51100000000E-03 0. -1.
    9900012    2    1    2    0    0  0.46385352105E+00 -0.80223255264E+00 -0.73090293316E+00  0.90007764322E+02  0.90000026011E+02 0.  0.
        -12    1    1    2    0    0 -0.46385352105E+00  0.80223255264E+00  0.73090293316E+00  0.11802356778E+01  0.00000000000E+00 0.  1.
         11    1    3    3    0    0 -0.17791216579E+02  0.27323401100E+02 -0.26260350934E+02  0.41865279964E+02  0.51100000000E-03 0. -1.
        -11    1    3    3    0    0  0.22062103943E+01  0.39219038419E+01  0.54218758812E+01  0.70459514887E+01  0.51100000000E-03 0.  1.
        -12    1    3    3    0    0  0.16048859705E+02 -0.32047537495E+02  0.20107572120E+02  0.41096532869E+02  0.00000000000E+00 0.  1.
</event>
<event>
 7    1  0.3757412E-015  0.9000774E+02  0.7816164E-02  0.1186339E+00
        -11   -1    0    0    0    0  0.00000000000E+00  0.00000000000E+00  0.45593999997E+02  0.45594000000E+02  0.51100000000E-03 0. -1.
         11   -1    0    0    0    0 -0.00000000000E+00 -0.00000000000E+00 -0.45593999997E+02  0.45594000000E+02  0.51100000000E-03 0.  1.
    9900012    2    1    2    0    0  0.80935860007E+00  0.54508261793E+00  0.66395324506E+00  0.90007741420E+02  0.90000002807E+02 0.  0.
        -12    1    1    2    0    0 -0.80935860007E+00 -0.54508261793E+00 -0.66395324506E+00  0.11802585799E+01  0.00000000000E+00 0.  1.
         11    1    3    3    0    0 -0.28516208817E+02 -0.33697804889E+01  0.16465774771E+02  0.33100624237E+02  0.51100000000E-03 0. -1.
        -11    1    3    3    0    0 -0.10600280803E+02 -0.49070271817E+01  0.27595691346E+01  0.12002503527E+02  0.51100000000E-03 0.  1.
        -12    1    3    3    0    0  0.39925848219E+02  0.88218902885E+01 -0.18561390661E+02  0.44904613655E+02  0.00000000000E+00 0.  1.
</event>
<event>
 7    1  0.3757412E-015  0.9000816E+02  0.7816164E-02  0.1186338E+00
        -11   -1    0    0    0    0  0.00000000000E+00  0.00000000000E+00  0.45593999997E+02  0.45594000000E+02  0.51100000000E-03 0.  1.
         11   -1    0    0    0    0 -0.00000000000E+00 -0.00000000000E+00 -0.45593999997E+02  0.45594000000E+02  0.51100000000E-03 0. -1.
    9900012    2    1    2    0    0 -0.10721555524E+01  0.48210891347E+00 -0.10040506360E+00  0.90008157761E+02  0.90000424642E+02 0.  0.
        -12    1    1    2    0    0  0.10721555524E+01 -0.48210891347E+00  0.10040506360E+00  0.11798422393E+01  0.00000000000E+00 0.  1.
         11    1    3    3    0    0 -0.95401891675E+01 -0.14052712104E+02 -0.10284897568E+01  0.17016219270E+02  0.51100000000E-03 0. -1.
        -11    1    3    3    0    0 -0.16449448204E+02  0.30988280556E+02 -0.16118422429E+02  0.38609084681E+02  0.51100000000E-03 0.  1.
         12    1    3    3    0    0  0.24917481819E+02 -0.16453459539E+02  0.17046507122E+02  0.34382853809E+02  0.00000000000E+00 0. -1.
</event>
<event>
 7    1  0.3757412E-015  0.9000798E+02  0.7816164E-02  0.1186339E+00
        -11   -1    0    0    0    0  0.00000000000E+00  0.00000000000E+00  0.45593999997E+02  0.45594000000E+02  0.51100000000E-03 0. -1.
         11   -1    0    0    0    0 -0.00000000000E+00 -0.00000000000E+00 -0.45593999997E+02  0.45594000000E+02  0.51100000000E-03 0.  1.
    9900012    2    1    2    0    0 -0.31116767976E-01 -0.11528332266E+01 -0.24988831760E+00  0.90007984376E+02  0.90000248969E+02 0.  0.
        -12    1    1    2    0    0  0.31116767976E-01  0.11528332266E+01  0.24988831760E+00  0.11800156240E+01  0.00000000000E+00 0.  1.
         11    1    3    3    0    0  0.22304361823E+02 -0.15631661770E+02  0.33899207810E+02  0.43485511339E+02  0.51100000000E-03 0. -1.
        -11    1    3    3    0    0 -0.56264030310E+00  0.39227820008E+01 -0.15428196678E+02  0.15929031224E+02  0.51100000000E-03 0.  1.
        -12    1    3    3    0    0 -0.21772838288E+02  0.10556046543E+02 -0.18720899449E+02  0.30593441812E+02  0.00000000000E+00 0.  1.
</event>
<event>
 7    1  0.3757412E-015  0.9000777E+02  0.7816164E-02  0.1186339E+00
        -11   -1    0    0    0    0  0.00000000000E+00  0.00000000000E+00  0.45593999997E+02  0.45594000000E+02  0.51100000000E-03 0.  1.
         11   -1    0    0    0    0 -0.00000000000E+00 -0.00000000000E+00 -0.45593999997E+02  0.45594000000E+02  0.51100000000E-03 0. -1.
    9900012    2    1    2    0    0  0.11609542259E+01 -0.66503957591E-01 -0.20174408222E+00  0.90007771986E+02  0.90000033776E+02 0.  0.
        -12    1    1    2    0    0 -0.11609542259E+01  0.66503957591E-01  0.20174408222E+00  0.11802280143E+01  0.00000000000E+00 0.  1.
         11    1    3    3    0    0  0.10179961936E+02 -0.31693267857E+01 -0.36752347392E+02  0.38267627264E+02  0.51100000000E-03 0. -1.
        -11    1    3    3    0    0 -0.74982141162E+01 -0.25001740794E+01 -0.52820563567E+01  0.95065348564E+01  0.51100000000E-03 0.  1.
        -12    1    3    3    0    0 -0.15207935937E+01  0.56029969075E+01  0.41832659667E+02  0.42233609866E+02  0.00000000000E+00 0.  1.
</event>
<event>
 7    1  0.3757412E-015  0.9000770E+02  0.7816164E-02  0.1186339E+00
        -11   -1    0    0    0    0  0.00000000000E+00  0.00000000000E+00  0.45593999997E+02  0.45594000000E+02  0.51100000000E-03 0.  1.
         11   -1    0    0    0    0 -0.00000000000E+00 -0.00000000000E+00 -0.45593999997E+02  0.45594000000E+02  0.51100000000E-03 0. -1.
    9900012    2    1    2    0    0 -0.79778821829E+00  0.46595362022E+00 -0.73453066293E+00  0.90007697449E+02  0.89999958255E+02 0.  0.
        -12    1    1    2    0    0  0.79778821829E+00 -0.46595362022E+00  0.73453066293E+00  0.11803025511E+01  0.00000000000E+00 0.  1.
         11    1    3    3    0    0  0.21282353407E+02 -0.32404583762E+01 -0.32047255341E+02  0.38606550120E+02  0.51100000000E-03 0. -1.
        -11    1    3    3    0    0  0.66245380927E+01  0.52268988224E+01 -0.58973927233E+00  0.84588869782E+01  0.51100000000E-03 0.  1.
        -12    1    3    3    0    0 -0.28704679718E+02 -0.15204868259E+01  0.31902463951E+02  0.42942260350E+02  0.00000000000E+00 0.  1.
</event>
<event>
 7    1  0.3757412E-015  0.9000776E+02  0.7816164E-02  0.1186339E+00
        -11   -1    0    0    0    0  0.00000000000E+00  0.00000000000E+00  0.45593999997E+02  0.45594000000E+02  0.51100000000E-03 0. -1.
         11   -1    0    0    0    0 -0.00000000000E+00 -0.00000000000E+00 -0.45593999997E+02  0.45594000000E+02  0.51100000000E-03 0.  1.
    9900012    2    1    2    0    0 -0.24620233964E+00  0.15459493497E-01  0.11541765392E+01  0.90007755080E+02  0.90000016647E+02 0.  0.
        -12    1    1    2    0    0  0.24620233964E+00 -0.15459493497E-01 -0.11541765392E+01  0.11802449202E+01  0.00000000000E+00 0.  1.
         11    1    3    3    0    0 -0.52950869415E+01  0.96974447836E+01  0.76647958672E+01  0.13447210751E+02  0.51100000000E-03 0. -1.
        -11    1    3    3    0    0  0.24705860487E+02  0.25782193842E+02 -0.20307274125E+01  0.35766253869E+02  0.51100000000E-03 0.  1.
         12    1    3    3    0    0 -0.19656975886E+02 -0.35464179132E+02 -0.44798919154E+01  0.40794290459E+02  0.00000000000E+00 0. -1.
</event>
<event>
 7    1  0.3757412E-015  0.9000778E+02  0.7816164E-02  0.1186339E+00
        -11   -1    0    0    0    0  0.00000000000E+00  0.00000000000E+00  0.45593999997E+02  0.45594000000E+02  0.51100000000E-03 0.  1.
         11   -1    0    0    0    0 -0.00000000000E+00 -0.00000000000E+00 -0.45593999997E+02  0.45594000000E+02  0.51100000000E-03 0. -1.
    9900012    2    1    2    0    0  0.68796271617E+00  0.95893245435E+00  0.85670166758E-02  0.90007780722E+02  0.90000042627E+02 0.  0.
        -12    1    1    2    0    0 -0.68796271617E+00 -0.95893245435E+00 -0.85670166758E-02  0.11802192782E+01  0.00000000000E+00 0.  1.
         11    1    3    3    0    0  0.31942428755E+01 -0.15308151687E+01  0.81885291718E+01  0.89218043516E+01  0.51100000000E-03 0. -1.
        -11    1    3    3    0    0  0.53094949185E-01  0.25979592121E+02  0.27794345532E+02  0.38045599873E+02  0.51100000000E-03 0.  1.
         12    1    3    3    0    0 -0.25593751085E+01 -0.23489844498E+02 -0.35974307687E+02  0.43040376498E+02  0.00000000000E+00 0. -1.
</event>
<event>
 7    1  0.3757412E-015  0.9000756E+02  0.7816164E-02  0.1186339E+00
        -11   -1    0    0    0    0  0.00000000000E+00  0.00000000000E+00  0.45593999997E+02  0.45594000000E+02  0.51100000000E-03 0. -1.
         11   -1    0    0    0    0 -0.00000000000E+00 -0.00000000000E+00 -0.45593999997E+02  0.45594000000E+02  0.51100000000E-03 0.  1.
    9900012    2    1    2    0    0  0.91513168252E+00 -0.84887221459E-01  0.74078951956E+00  0.90007559002E+02  0.89999817981E+02 0.  0.
        -12    1    1    2    0    0 -0.91513168252E+00  0.84887221459E-01 -0.74078951956E+00  0.11804409977E+01  0.00000000000E+00 0.  1.
         11    1    3    3    0    0  0.18812770525E+01 -0.58960400300E+01  0.31987098068E+01  0.69666517117E+01  0.51100000000E-03 0. -1.
        -11    1    3    3    0    0 -0.32263928968E+01 -0.17891607490E+02 -0.36919968122E+02  0.41153411476E+02  0.51100000000E-03 0.  1.
         12    1    3    3    0    0  0.22602475268E+01  0.23702760298E+02  0.34462047835E+02  0.41887495815E+02  0.00000000000E+00 0. -1.
</event>
<event>
 7    1  0.3757412E-015  0.9000770E+02  0.7816164E-02  0.1186339E+00
        -11   -1    0    0    0    0  0.00000000000E+00  0.00000000000E+00  0.45593999997E+02  0.45594000000E+02  0.51100000000E-03 0.  1.
         11   -1    0    0    0    0 -0.00000000000E+00 -0.00000000000E+00 -0.45593999997E+02  0.45594000000E+02  0.51100000000E-03 0. -1.
    9900012    2    1    2    0    0  0.96332205618E+00  0.36790306890E+00 -0.57425862164E+00  0.90007697066E+02  0.89999957867E+02 0.  0.
        -12    1    1    2    0    0 -0.96332205618E+00 -0.36790306890E+00  0.57425862164E+00  0.11803029342E+01  0.00000000000E+00 0.  1.
         11    1    3    3    0    0 -0.34416579058E+02 -0.14789773754E+02 -0.77867732459E+01  0.38260582322E+02  0.51100000000E-03 0. -1.
        -11    1    3    3    0    0 -0.61906351940E+01  0.60444092768E+01  0.53426937402E+00  0.86685807164E+01  0.51100000000E-03 0.  1.
        -12    1    3    3    0    0  0.41570536308E+02  0.91132675459E+01  0.66782452502E+01  0.43078534028E+02  0.00000000000E+00 0.  1.
</event>
<event>
 7    1  0.3757412E-015  0.9000778E+02  0.7816164E-02  0.1186339E+00
        -11   -1    0    0    0    0  0.00000000000E+00  0.00000000000E+00  0.45593999997E+02  0.45594000000E+02  0.51100000000E-03 0.  1.
         11   -1    0    0    0    0 -0.00000000000E+00 -0.00000000000E+00 -0.45593999997E+02  0.45594000000E+02  0.51100000000E-03 0. -1.
    9900012    2    1    2    0    0  0.52138957324E+00 -0.10342798025E+01 -0.22658960519E+00  0.90007777713E+02  0.90000039579E+02 0.  0.
        -12    1    1    2    0    0 -0.52138957324E+00  0.10342798025E+01  0.22658960519E+00  0.11802222867E+01  0.00000000000E+00 0.  1.
         11    1    3    3    0    0 -0.19973664888E+02  0.36503870940E+02  0.60463944805E+01  0.42048053096E+02  0.51100000000E-03 0. -1.
        -11    1    3    3    0    0  0.85039143923E+01 -0.14083818066E+01  0.23361139959E+01  0.89307070363E+01  0.51100000000E-03 0.  1.
        -12    1    3    3    0    0  0.11991140069E+02 -0.36129768936E+02 -0.86090980816E+01  0.39029017581E+02  0.00000000000E+00 0.  1.
</event>
<event>
 7    1  0.3757412E-015  0.9000839E+02  0.7816164E-02  0.1186338E+00
        -11   -1    0    0    0    0  0.00000000000E+00  0.00000000000E+00  0.45593999997E+02  0.45594000000E+02  0.51100000000E-03 0. -1.
         11   -1    0    0    0    0 -0.00000000000E+00 -0.00000000000E+00 -0.45593999997E+02  0.45594000000E+02  0.51100000000E-03 0.  1.
    9900012    2    1    2    0    0  0.51105695512E+00  0.10631551308E+01  0.26391898451E-02  0.90008387772E+02  0.90000657688E+02 0.  0.
        -12    1    1    2    0    0 -0.51105695512E+00 -0.10631551308E+01 -0.26391898450E-02  0.11796122282E+01  0.00000000000E+00 0.  1.
         11    1    3    3    0    0  0.58226301566E+01 -0.75563549570E+01  0.15086748100E+00  0.95406647271E+01  0.51100000000E-03 0. -1.
        -11    1    3    3    0    0  0.33570469375E+01 -0.26596721997E+02  0.24742276799E+02  0.36480620151E+02  0.51100000000E-03 0.  1.
         12    1    3    3    0    0 -0.86686201389E+01  0.35216232085E+02 -0.24890505090E+02  0.43987102894E+02  0.00000000000E+00 0. -1.
</event>
<event>
 7    1  0.3757412E-015  0.9000773E+02  0.7816164E-02  0.1186339E+00
        -11   -1    0    0    0    0  0.00000000000E+00  0.00000000000E+00  0.45593999997E+02  0.45594000000E+02  0.51100000000E-03 0. -1.
         11   -1    0    0    0    0 -0.00000000000E+00 -0.00000000000E+00 -0.45593999997E+02  0.45594000000E+02  0.51100000000E-03 0.  1.
    9900012    2    1    2    0    0 -0.10224892857E+01 -0.45154619897E+00  0.37901106941E+00  0.90007734055E+02  0.89999995345E+02 0.  0.
        -12    1    1    2    0    0  0.10224892857E+01  0.45154619897E+00 -0.37901106941E+00  0.11802659446E+01  0.00000000000E+00 0.  1.
         11    1    3    3    0    0 -0.89060204072E+01 -0.34787478470E+02 -0.15606428236E+01  0.35943309031E+02  0.51100000000E-03 0. -1.
        -11    1    3    3    0    0 -0.76947056729E+01  0.39010793293E+01  0.15131152459E+02  0.17417769384E+02  0.51100000000E-03 0.  1.
        -12    1    3    3    0    0  0.15578236794E+02  0.30434852942E+02 -0.13191498566E+02  0.36646655640E+02  0.00000000000E+00 0.  1.
</event>
<event>
 7    1  0.3757412E-015  0.9000709E+02  0.7816164E-02  0.1186340E+00
        -11   -1    0    0    0    0  0.00000000000E+00  0.00000000000E+00  0.45593999997E+02  0.45594000000E+02  0.51100000000E-03 0.  1.
         11   -1    0    0    0    0 -0.00000000000E+00 -0.00000000000E+00 -0.45593999997E+02  0.45594000000E+02  0.51100000000E-03 0. -1.
    9900012    2    1    2    0    0 -0.41626760964E+00  0.10446525125E+01  0.36050472756E+00  0.90007093038E+02  0.89999345864E+02 0.  0.
        -12    1    1    2    0    0  0.41626760964E+00 -0.10446525125E+01 -0.36050472756E+00  0.11809069622E+01  0.00000000000E+00 0.  1.
         11    1    3    3    0    0  0.41743214481E+01  0.76821397883E+01  0.61029404912E+01  0.10662369070E+02  0.51100000000E-03 0. -1.
        -11    1    3    3    0    0  0.19869947996E+01 -0.17096817689E+02 -0.39666954889E+02  0.43240220094E+02  0.51100000000E-03 0.  1.
         12    1    3    3    0    0 -0.65775838574E+01  0.10459330413E+02  0.33924519125E+02  0.36104503874E+02  0.00000000000E+00 0. -1.
</event>
<event>
 7    1  0.3757412E-015  0.9000775E+02  0.7816164E-02  0.1186339E+00
        -11   -1    0    0    0    0  0.00000000000E+00  0.00000000000E+00  0.45593999997E+02  0.45594000000E+02  0.51100000000E-03 0.  1.
         11   -1    0    0    0    0 -0.00000000000E+00 -0.00000000000E+00 -0.45593999997E+02  0.45594000000E+02  0.51100000000E-03 0. -1.
    9900012    2    1    2    0    0  0.57267597988E+00  0.97262463544E+00 -0.34500066176E+00  0.90007753451E+02  0.90000014997E+02 0.  0.
        -12    1    1    2    0    0 -0.57267597988E+00 -0.97262463544E+00  0.34500066176E+00  0.11802465488E+01  0.00000000000E+00 0.  1.
         11    1    3    3    0    0  0.29760894208E+02  0.19411351554E+02  0.23647702954E+01  0.35610441335E+02  0.51100000000E-03 0. -1.
        -11    1    3    3    0    0  0.53628827185E+01  0.74885356453E+01  0.50565344464E+01  0.10507483906E+02  0.51100000000E-03 0.  1.
        -12    1    3    3    0    0 -0.34551100947E+02 -0.25927262564E+02 -0.77663054035E+01  0.43889828210E+02  0.00000000000E+00 0.  1.
</event>
<event>
 7    1  0.3757412E-015  0.9000768E+02  0.7816164E-02  0.1186339E+00
        -11   -1    0    0    0    0  0.00000000000E+00  0.00000000000E+00  0.45593999997E+02  0.45594000000E+02  0.51100000000E-03 0.  1.
         11   -1    0    0    0    0 -0.00000000000E+00 -0.00000000000E+00 -0.45593999997E+02  0.45594000000E+02  0.51100000000E-03 0. -1.
    9900012    2    1    2    0    0 -0.11253269702E+01 -0.27156614161E+00 -0.23033811943E+00  0.90007676058E+02  0.89999936582E+02 0.  0.
        -12    1    1    2    0    0  0.11253269702E+01  0.27156614161E+00  0.23033811943E+00  0.11803239421E+01  0.00000000000E+00 0.  1.
         11    1    3    3    0    0 -0.17825114336E+02  0.34381091267E+01 -0.36451545847E+02  0.40721867471E+02  0.51100000000E-03 0. -1.
        -11    1    3    3    0    0 -0.52356782284E+01  0.55506780456E+01  0.25470697984E+01  0.80442475159E+01  0.51100000000E-03 0.  1.
        -12    1    3    3    0    0  0.21935465594E+02 -0.92603533139E+01  0.33674137929E+02  0.41241561071E+02  0.00000000000E+00 0.  1.
</event>
<event>
 7    1  0.3757412E-015  0.9000773E+02  0.7816164E-02  0.1186339E+00
        -11   -1    0    0    0    0  0.00000000000E+00  0.00000000000E+00  0.45593999997E+02  0.45594000000E+02  0.51100000000E-03 0.  1.
         11   -1    0    0    0    0 -0.00000000000E+00 -0.00000000000E+00 -0.45593999997E+02  0.45594000000E+02  0.51100000000E-03 0. -1.
    9900012    2    1    2    0    0 -0.83763448052E+00 -0.53104248397E+00 -0.63984159048E+00  0.90007731004E+02  0.89999992253E+02 0.  0.
        -12    1    1    2    0    0  0.83763448052E+00  0.53104248397E+00  0.63984159048E+00  0.11802689963E+01  0.00000000000E+00 0.  1.
         11    1    3    3    0    0 -0.18741182317E+01  0.36293033620E+02 -0.16579187081E+02  0.39944537211E+02  0.51100000000E-03 0. -1.
        -11    1    3    3    0    0 -0.53387614534E+01  0.24637436930E+01  0.72311643680E+01  0.93199863315E+01  0.51100000000E-03 0.  1.
        -12    1    3    3    0    0  0.63752452046E+01 -0.39287819797E+02  0.87081811221E+01  0.40743207461E+02  0.00000000000E+00 0.  1.
</event>
<event>
 7    1  0.3757412E-015  0.9000775E+02  0.7816164E-02  0.1186339E+00
        -11   -1    0    0    0    0  0.00000000000E+00  0.00000000000E+00  0.45593999997E+02  0.45594000000E+02  0.51100000000E-03 0. -1.
         11   -1    0    0    0    0 -0.00000000000E+00 -0.00000000000E+00 -0.45593999997E+02  0.45594000000E+02  0.51100000000E-03 0.  1.
    9900012    2    1    2    0    0  0.15306198938E+00  0.10943358116E+01 -0.41471304654E+00  0.90007751826E+02  0.90000013350E+02 0.  0.
        -12    1    1    2    0    0 -0.15306198938E+00 -0.10943358116E+01  0.41471304654E+00  0.11802481739E+01  0.00000000000E+00 0.  1.
         11    1    3    3    0    0  0.18304137735E+01  0.11553151315E+02  0.37975713504E+00  0.11703415554E+02  0.51100000000E-03 0. -1.
        -11    1    3    3    0    0 -0.25421602427E+02 -0.17930590698E+00 -0.29975668793E+02  0.39304334881E+02  0.51100000000E-03 0.  1.
         12    1    3    3    0    0  0.23744250643E+02 -0.10279509596E+02  0.29181198611E+02  0.39000001391E+02  0.00000000000E+00 0. -1.
</event>
<event>
 7    1  0.3757412E-015  0.9000772E+02  0.7816164E-02  0.1186339E+00
        -11   -1    0    0    0    0  0.00000000000E+00  0.00000000000E+00  0.45593999997E+02  0.45594000000E+02  0.51100000000E-03 0. -1.
         11   -1    0    0    0    0 -0.00000000000E+00 -0.00000000000E+00 -0.45593999997E+02  0.45594000000E+02  0.51100000000E-03 0.  1.
    9900012    2    1    2    0    0  0.76650493087E+00 -0.58100559502E+00  0.68408050620E+00  0.90007718911E+02  0.89999980000E+02 0.  0.
        -12    1    1    2    0    0 -0.76650493087E+00  0.58100559502E+00 -0.68408050620E+00  0.11802810892E+01  0.00000000000E+00 0.  1.
         11    1    3    3    0    0  0.19597124608E+02  0.69362853343E+01  0.27159448343E+02  0.34202265739E+02  0.51100000000E-03 0. -1.
        -11    1    3    3    0    0 -0.22757820880E+01 -0.11951335282E+02  0.98411762368E+01  0.15648078129E+02  0.51100000000E-03 0.  1.
        -12    1    3    3    0    0 -0.16554837589E+02  0.44340443531E+01 -0.36316544073E+02  0.40157375043E+02  0.00000000000E+00 0.  1.
</event>
<event>
 7    1  0.3757412E-015  0.9000776E+02  0.7816164E-02  0.1186339E+00
        -11   -1    0    0    0    0  0.00000000000E+00  0.00000000000E+00  0.45593999997E+02  0.45594000000E+02  0.51100000000E-03 0.  1.
         11   -1    0    0    0    0 -0.00000000000E+00 -0.00000000000E+00 -0.45593999997E+02  0.45594000000E+02  0.51100000000E-03 0. -1.
    9900012    2    1    2    0    0 -0.40028741843E+00 -0.49310633655E+00 -0.99477983902E+00  0.90007758158E+02  0.90000019766E+02 0.  0.
        -12    1    1    2    0    0  0.40028741843E+00  0.49310633655E+00  0.99477983902E+00  0.11802418416E+01  0.00000000000E+00 0.  1.
         11    1    3    3    0    0  0.78944754145E+01 -0.21425179205E+01 -0.45486219237E+01  0.93596520648E+01  0.51100000000E-03 0. -1.
        -11    1    3    3    0    0  0.26818390230E+02  0.14227190486E+02  0.23463501760E+02  0.38368931687E+02  0.51100000000E-03 0.  1.
         12    1    3    3    0    0 -0.35113153063E+02 -0.12577778902E+02 -0.19909659676E+02  0.42279174407E+02  0.00000000000E+00 0. -1.
</event>
<event>
 7    1  0.3893250E-015  0.9000757E+02  0.7816164E-02  0.1186339E+00
        -11   -1    0    0    0    0  0.00000000000E+00  0.00000000000E+00  0.45593999997E+02  0.45594000000E+02  0.51100000000E-03 0.  1.
         11   -1    0    0    0    0 -0.00000000000E+00 -0.00000000000E+00 -0.45593999997E+02  0.45594000000E+02  0.51100000000E-03 0. -1.
    9900012    2    1    2    0    0  0.86344010370E+00 -0.72615103078E+00 -0.34724937684E+00  0.90007573695E+02  0.89999832867E+02 0.  0.
        -12    1    1    2    0    0 -0.86344010370E+00  0.72615103078E+00  0.34724937684E+00  0.11804263051E+01  0.00000000000E+00 0.  1.
         11    1    3    3    0    0  0.23618977728E+02 -0.17799155689E+02 -0.29268437978E+02  0.41608983574E+02  0.51100000000E-03 0. -1.
        -11    1    3    3    0    0  0.15119378962E+01 -0.48715913665E+01  0.82436130789E+01  0.96940969409E+01  0.51100000000E-03 0.  1.
        -12    1    3    3    0    0 -0.24267475520E+02  0.21944596025E+02  0.20677575522E+02  0.38704493180E+02  0.00000000000E+00 0.  1.
</event>
<event>
 7    1  0.4951098E-015  0.9000728E+02  0.7816164E-02  0.1186340E+00
        -11   -1    0    0    0    0  0.00000000000E+00  0.00000000000E+00  0.45593999997E+02  0.45594000000E+02  0.51100000000E-03 0. -1.
         11   -1    0    0    0    0 -0.00000000000E+00 -0.00000000000E+00 -0.45593999997E+02  0.45594000000E+02  0.51100000000E-03 0.  1.
    9900012    2    1    2    0    0 -0.76364560209E+00  0.25503252058E+00  0.86366202579E+00  0.90007276371E+02  0.89999531618E+02 0.  0.
        -12    1    1    2    0    0  0.76364560209E+00 -0.25503252058E+00 -0.86366202579E+00  0.11807236285E+01  0.00000000000E+00 0.  1.
         11    1    3    3    0    0 -0.10333203126E+02 -0.48101136268E+01  0.36899704626E+02  0.38619949271E+02  0.51100000000E-03 0. -1.
        -11    1    3    3    0    0  0.58835427016E+01  0.59662714223E+01  0.52756277249E+01  0.99017532568E+01  0.51100000000E-03 0.  1.
        -12    1    3    3    0    0  0.36860148221E+01 -0.90112527489E+00 -0.41311670326E+02  0.41485573843E+02  0.00000000000E+00 0.  1.
</event>
<event>
 7    1  0.3757412E-015  0.9000773E+02  0.7816164E-02  0.1186339E+00
        -11   -1    0    0    0    0  0.00000000000E+00  0.00000000000E+00  0.45593999997E+02  0.45594000000E+02  0.51100000000E-03 0.  1.
         11   -1    0    0    0    0 -0.00000000000E+00 -0.00000000000E+00 -0.45593999997E+02  0.45594000000E+02  0.51100000000E-03 0. -1.
    9900012    2    1    2    0    0  0.77752934977E+00  0.60828876693E+00 -0.64689063137E+00  0.90007731131E+02  0.89999992382E+02 0.  0.
        -12    1    1    2    0    0 -0.77752934977E+00 -0.60828876693E+00  0.64689063137E+00  0.11802688688E+01  0.00000000000E+00 0.  1.
         11    1    3    3    0    0 -0.74309933802E+01  0.47100152099E+01 -0.13847121584E+01  0.89062525181E+01  0.51100000000E-03 0. -1.
        -11    1    3    3    0    0 -0.29933972136E+02  0.26758348956E+01  0.21685901100E+02  0.37060505757E+02  0.51100000000E-03 0.  1.
         12    1    3    3    0    0  0.38142494866E+02 -0.67775613386E+01 -0.20948079573E+02  0.44040972856E+02  0.00000000000E+00 0. -1.
</event>
<event>
 7    1  0.3757412E-015  0.9000768E+02  0.7816164E-02  0.1186339E+00
        -11   -1    0    0    0    0  0.00000000000E+00  0.00000000000E+00  0.45593999997E+02  0.45594000000E+02  0.51100000000E-03 0. -1.
         11   -1    0    0    0    0 -0.00000000000E+00 -0.00000000000E+00 -0.45593999997E+02  0.45594000000E+02  0.51100000000E-03 0.  1.
    9900012    2    1    2    0    0  0.23974694578E+00 -0.11081968888E+01 -0.32797219072E+00  0.90007684491E+02  0.89999945126E+02 0.  0.
        -12    1    1    2    0    0 -0.23974694578E+00  0.11081968888E+01  0.32797219072E+00  0.11803155088E+01  0.00000000000E+00 0.  1.
         11    1    3    3    0    0 -0.19496221074E+01 -0.49862242384E+01 -0.13416679660E+02  0.14445440522E+02  0.51100000000E-03 0. -1.
        -11    1    3    3    0    0 -0.10871408799E+02 -0.18500279753E+02  0.35382369509E+02  0.41380671243E+02  0.51100000000E-03 0.  1.
         12    1    3    3    0    0  0.13060777852E+02  0.22378307103E+02 -0.22293662040E+02  0.34181572726E+02  0.00000000000E+00 0. -1.
</event>
<event>
 7    1  0.3757412E-015  0.9000783E+02  0.7816164E-02  0.1186339E+00
        -11   -1    0    0    0    0  0.00000000000E+00  0.00000000000E+00  0.45593999997E+02  0.45594000000E+02  0.51100000000E-03 0. -1.
         11   -1    0    0    0    0 -0.00000000000E+00 -0.00000000000E+00 -0.45593999997E+02  0.45594000000E+02  0.51100000000E-03 0.  1.
    9900012    2    1    2    0    0  0.91930359264E+00  0.38675882749E+00  0.63094249551E+00  0.90007834792E+02  0.90000097411E+02 0.  0.
        -12    1    1    2    0    0 -0.91930359264E+00 -0.38675882749E+00 -0.63094249551E+00  0.11801652082E+01  0.00000000000E+00 0.  1.
         11    1    3    3    0    0 -0.22769023432E+01 -0.38243203100E+02  0.16497423237E+02  0.41712010756E+02  0.51100000000E-03 0. -1.
        -11    1    3    3    0    0  0.84145544233E+01  0.36171076157E+01  0.75125983484E+00  0.91898087710E+01  0.51100000000E-03 0.  1.
        -12    1    3    3    0    0 -0.52183484875E+01  0.35012854312E+02 -0.16617740576E+02  0.39106015264E+02  0.00000000000E+00 0.  1.
</event>
<event>
 7    1  0.3757412E-015  0.9000774E+02  0.7816164E-02  0.1186339E+00
        -11   -1    0    0    0    0  0.00000000000E+00  0.00000000000E+00  0.45593999997E+02  0.45594000000E+02  0.51100000000E-03 0.  1.
         11   -1    0    0    0    0 -0.00000000000E+00 -0.00000000000E+00 -0.45593999997E+02  0.45594000000E+02  0.51100000000E-03 0. -1.
    9900012    2    1    2    0    0 -0.83112572177E+00  0.76420306596E+00 -0.34385063397E+00  0.90007741744E+02  0.90000003135E+02 0.  0.
        -12    1    1    2    0    0  0.83112572177E+00 -0.76420306596E+00  0.34385063397E+00  0.11802582556E+01  0.00000000000E+00 0.  1.
         11    1    3    3    0    0  0.22830261816E+01 -0.18959357660E+02 -0.29056985394E+02  0.34770358811E+02  0.51100000000E-03 0. -1.
        -11    1    3    3    0    0  0.10926532327E+02  0.12544537178E+02 -0.55354285660E+01  0.17532697778E+02  0.51100000000E-03 0.  1.
        -12    1    3    3    0    0 -0.14040684230E+02  0.71790235480E+01  0.34248563326E+02  0.37704685155E+02  0.00000000000E+00 0.  1.
</event>
<event>
 7    1  0.3757412E-015  0.9000705E+02  0.7816164E-02  0.1186340E+00
        -11   -1    0    0    0    0  0.00000000000E+00  0.00000000000E+00  0.45593999997E+02  0.45594000000E+02  0.51100000000E-03 0.  1.
         11   -1    0    0    0    0 -0.00000000000E+00 -0.00000000000E+00 -0.45593999997E+02  0.45594000000E+02  0.51100000000E-03 0. -1.
    9900012    2    1    2    0    0  0.96561446898E-01 -0.46060233414E+00 -0.10831298408E+01  0.90007047471E+02  0.89999299695E+02 0.  0.
        -12    1    1    2    0    0 -0.96561446898E-01  0.46060233414E+00  0.10831298408E+01  0.11809525288E+01  0.00000000000E+00 0.  1.
         11    1    3    3    0    0 -0.21856244541E+01  0.45850812133E+01 -0.80506002327E+01  0.95190382053E+01  0.51100000000E-03 0. -1.
        -11    1    3    3    0    0 -0.37236917129E+02  0.29763559642E+01 -0.66151109708E+01  0.37936873692E+02  0.51100000000E-03 0.  1.
         12    1    3    3    0    0  0.39519103030E+02 -0.80220395117E+01  0.13582581363E+02  0.42551135574E+02  0.00000000000E+00 0. -1.
</event>
<event>
 7    1  0.3757412E-015  0.9000774E+02  0.7816164E-02  0.1186339E+00
        -11   -1    0    0    0    0  0.00000000000E+00  0.00000000000E+00  0.45593999997E+02  0.45594000000E+02  0.51100000000E-03 0.  1.
         11   -1    0    0    0    0 -0.00000000000E+00 -0.00000000000E+00 -0.45593999997E+02  0.45594000000E+02  0.51100000000E-03 0. -1.
    9900012    2    1    2    0    0  0.12457886638E+00  0.13354955693E+00 -0.11660396752E+01  0.90007744137E+02  0.90000005560E+02 0.  0.
        -12    1    1    2    0    0 -0.12457886638E+00 -0.13354955693E+00  0.11660396752E+01  0.11802558631E+01  0.00000000000E+00 0.  1.
         11    1    3    3    0    0 -0.95582157205E+01  0.16470370771E+01 -0.24801724309E+01  0.10011167486E+02  0.51100000000E-03 0. -1.
        -11    1    3    3    0    0  0.43436718647E+02 -0.10842492326E+02  0.35208070498E+01  0.44907730395E+02  0.51100000000E-03 0.  1.
         12    1    3    3    0    0 -0.33753924060E+02  0.93290048055E+01 -0.22066742941E+01  0.35088846256E+02  0.00000000000E+00 0. -1.
</event>
<event>
 7    1  0.3757412E-015  0.9000777E+02  0.7816164E-02  0.1186339E+00
        -11   -1    0    0    0    0  0.00000000000E+00  0.00000000000E+00  0.45593999997E+02  0.45594000000E+02  0.51100000000E-03 0.  1.
         11   -1    0    0    0    0 -0.00000000000E+00 -0.00000000000E+00 -0.45593999997E+02  0.45594000000E+02  0.51100000000E-03 0. -1.
    9900012    2    1    2    0    0  0.95506430003E+00  0.20657005522E+00 -0.66191656897E+00  0.90007765892E+02  0.90000027602E+02 0.  0.
        -12    1    1    2    0    0 -0.95506430003E+00 -0.20657005522E+00  0.66191656897E+00  0.11802341078E+01  0.00000000000E+00 0.  1.
         11    1    3    3    0    0 -0.42258300647E+01 -0.32440888988E-01  0.94891057798E+01  0.10387580128E+02  0.51100000000E-03 0. -1.
        -11    1    3    3    0    0 -0.82987149296E+01  0.37189755878E+02  0.28079031184E+01  0.38207733928E+02  0.51100000000E-03 0.  1.
         12    1    3    3    0    0  0.13479609294E+02 -0.36950744933E+02 -0.12958925467E+02  0.41412451837E+02  0.00000000000E+00 0. -1.
</event>
<event>
 7    1  0.3757412E-015  0.9000785E+02  0.7816164E-02  0.1186339E+00
        -11   -1    0    0    0    0  0.00000000000E+00  0.00000000000E+00  0.45593999997E+02  0.45594000000E+02  0.51100000000E-03 0. -1.
         11   -1    0    0    0    0 -0.00000000000E+00 -0.00000000000E+00 -0.45593999997E+02  0.45594000000E+02  0.51100000000E-03 0.  1.
    9900012    2    1    2    0    0  0.99153200743E+00 -0.48180132979E+00 -0.42129718117E+00  0.90007847655E+02  0.90000110444E+02 0.  0.
        -12    1    1    2    0    0 -0.99153200743E+00  0.48180132979E+00  0.42129718117E+00  0.11801523453E+01  0.00000000000E+00 0.  1.
         11    1    3    3    0    0  0.79307246669E+00 -0.94906827125E+01  0.12367751693E+00  0.95245639625E+01  0.51100000000E-03 0. -1.
        -11    1    3    3    0    0  0.59632608107E+01 -0.34948475102E+02  0.49988168618E+01  0.35804253402E+02  0.51100000000E-03 0.  1.
         12    1    3    3    0    0 -0.57648012700E+01  0.43957356484E+02 -0.55437915599E+01  0.44679030290E+02  0.00000000000E+00 0. -1.
</event>
<event>
 7    1  0.4306083E-015  0.9000764E+02  0.7816164E-02  0.1186339E+00
        -11   -1    0    0    0    0  0.00000000000E+00  0.00000000000E+00  0.45593999997E+02  0.45594000000E+02  0.51100000000E-03 0.  1.
         11   -1    0    0    0    0 -0.00000000000E+00 -0.00000000000E+00 -0.45593999997E+02  0.45594000000E+02  0.51100000000E-03 0. -1.
    9900012    2    1    2    0    0 -0.11662335356E+01  0.17051201431E+00 -0.63788386280E-01  0.90007642442E+02  0.89999902522E+02 0.  0.
        -12    1    1    2    0    0  0.11662335356E+01 -0.17051201431E+00  0.63788386280E-01  0.11803575580E+01  0.00000000000E+00 0.  1.
         11    1    3    3    0    0 -0.19718263597E+02 -0.33549371124E+01 -0.36496122927E+02  0.41617694690E+02  0.51100000000E-03 0. -1.
        -11    1    3    3    0    0 -0.56409480329E+01  0.47997521625E+01  0.62797681387E+01  0.97104790648E+01  0.51100000000E-03 0.  1.
        -12    1    3    3    0    0  0.24192978094E+02 -0.12743030357E+01  0.30152566402E+02  0.38679468687E+02  0.00000000000E+00 0.  1.
</event>
<event>
 7    1  0.3757412E-015  0.9000682E+02  0.7816164E-02  0.1186341E+00
        -11   -1    0    0    0    0  0.00000000000E+00  0.00000000000E+00  0.45593999997E+02  0.45594000000E+02  0.51100000000E-03 0.  1.
         11   -1    0    0    0    0 -0.00000000000E+00 -0.00000000000E+00 -0.45593999997E+02  0.45594000000E+02  0.51100000000E-03 0. -1.
    9900012    2    1    2    0    0 -0.65844212249E+00  0.96179029436E-01 -0.97591022202E+00  0.90006815342E+02  0.89999064500E+02 0.  0.
        -12    1    1    2    0    0  0.65844212249E+00 -0.96179029436E-01  0.97591022202E+00  0.11811846578E+01  0.00000000000E+00 0.  1.
         11    1    3    3    0    0  0.31877426706E+02 -0.50650506146E+00 -0.14535050296E+02  0.35038472685E+02  0.51100000000E-03 0. -1.
        -11    1    3    3    0    0  0.94552712388E+01  0.39668342654E+01 -0.12185585584E+01  0.10325832340E+02  0.51100000000E-03 0.  1.
        -12    1    3    3    0    0 -0.41991140067E+02 -0.33641501745E+01  0.14777698632E+02  0.44642510317E+02  0.00000000000E+00 0.  1.
</event>
<event>
 7    1  0.3757412E-015  0.9000773E+02  0.7816164E-02  0.1186339E+00
        -11   -1    0    0    0    0  0.00000000000E+00  0.00000000000E+00  0.45593999997E+02  0.45594000000E+02  0.51100000000E-03 0. -1.
         11   -1    0    0    0    0 -0.00000000000E+00 -0.00000000000E+00 -0.45593999997E+02  0.45594000000E+02  0.51100000000E-03 0.  1.
    9900012    2    1    2    0    0  0.26996689720E+00 -0.76480453105E+00  0.85744894059E+00  0.90007734444E+02  0.89999995739E+02 0.  0.
        -12    1    1    2    0    0 -0.26996689720E+00  0.76480453105E+00 -0.85744894059E+00  0.11802655557E+01  0.00000000000E+00 0.  1.
         11    1    3    3    0    0 -0.18532457025E+02 -0.32194982698E+02  0.22201377493E+02  0.43276668508E+02  0.51100000000E-03 0. -1.
        -11    1    3    3    0    0 -0.29848184080E+01  0.51510363241E+01 -0.82412505309E+01  0.10166637926E+02  0.51100000000E-03 0.  1.
        -12    1    3    3    0    0  0.21787242330E+02  0.26279141843E+02 -0.13102678022E+02  0.36564428010E+02  0.00000000000E+00 0.  1.
</event>
<event>
 7    1  0.3757412E-015  0.9000779E+02  0.7816164E-02  0.1186339E+00
        -11   -1    0    0    0    0  0.00000000000E+00  0.00000000000E+00  0.45593999997E+02  0.45594000000E+02  0.51100000000E-03 0.  1.
         11   -1    0    0    0    0 -0.00000000000E+00 -0.00000000000E+00 -0.45593999997E+02  0.45594000000E+02  0.51100000000E-03 0. -1.
    9900012    2    1    2    0    0  0.27665871089E+00  0.11293596466E+01  0.20223495989E+00  0.90007791445E+02  0.90000053492E+02 0.  0.
        -12    1    1    2    0    0 -0.27665871089E+00 -0.11293596466E+01 -0.20223495989E+00  0.11802085548E+01  0.00000000000E+00 0.  1.
         11    1    3    3    0    0 -0.13250609522E+02 -0.35544192253E+02 -0.57046287842E+01  0.38360279528E+02  0.51100000000E-03 0. -1.
        -11    1    3    3    0    0 -0.46999644234E+01 -0.43027414257E+01  0.17492861378E+01  0.66078174620E+01  0.51100000000E-03 0.  1.
        -12    1    3    3    0    0  0.18227232657E+02  0.40976293326E+02  0.41575776062E+01  0.45039694455E+02  0.00000000000E+00 0.  1.
</event>
<event>
 7    1  0.3757412E-015  0.9000771E+02  0.7816164E-02  0.1186339E+00
        -11   -1    0    0    0    0  0.00000000000E+00  0.00000000000E+00  0.45593999997E+02  0.45594000000E+02  0.51100000000E-03 0.  1.
         11   -1    0    0    0    0 -0.00000000000E+00 -0.00000000000E+00 -0.45593999997E+02  0.45594000000E+02  0.51100000000E-03 0. -1.
    9900012    2    1    2    0    0 -0.11388774130E+00  0.48185646756E+00 -0.10714169469E+01  0.90007707516E+02  0.89999968455E+02 0.  0.
        -12    1    1    2    0    0  0.11388774130E+00 -0.48185646756E+00  0.10714169469E+01  0.11802924837E+01  0.00000000000E+00 0.  1.
         11    1    3    3    0    0 -0.24619041276E+01  0.82268586281E+01  0.24995367287E+01  0.89437049895E+01  0.51100000000E-03 0. -1.
        -11    1    3    3    0    0 -0.32292390005E+02 -0.22068137447E+02  0.11338399018E+02  0.40722971836E+02  0.51100000000E-03 0.  1.
         12    1    3    3    0    0  0.34640406392E+02  0.14323135286E+02 -0.14909352694E+02  0.40341030690E+02  0.00000000000E+00 0. -1.
</event>
<event>
 7    1  0.3757412E-015  0.9000761E+02  0.7816164E-02  0.1186339E+00
        -11   -1    0    0    0    0  0.00000000000E+00  0.00000000000E+00  0.45593999997E+02  0.45594000000E+02  0.51100000000E-03 0.  1.
         11   -1    0    0    0    0 -0.00000000000E+00 -0.00000000000E+00 -0.45593999997E+02  0.45594000000E+02  0.51100000000E-03 0. -1.
    9900012    2    1    2    0    0  0.23000078943E+00  0.43254231812E+00 -0.10739268037E+01  0.90007613623E+02  0.89999873322E+02 0.  0.
        -12    1    1    2    0    0 -0.23000078943E+00 -0.43254231812E+00  0.10739268037E+01  0.11803863773E+01  0.00000000000E+00 0.  1.
         11    1    3    3    0    0 -0.33518181735E+02  0.15712372850E+02  0.12134265165E+02  0.38956226187E+02  0.51100000000E-03 0. -1.
        -11    1    3    3    0    0  0.20373016283E+01  0.90573072079E+01 -0.34515679617E+01  0.99044804729E+01  0.51100000000E-03 0.  1.
        -12    1    3    3    0    0  0.31710880896E+02 -0.24337137740E+02 -0.97566240072E+01  0.41146906963E+02  0.00000000000E+00 0.  1.
</event>
<event>
 7    1  0.3757412E-015  0.9000775E+02  0.7816164E-02  0.1186339E+00
        -11   -1    0    0    0    0  0.00000000000E+00  0.00000000000E+00  0.45593999997E+02  0.45594000000E+02  0.51100000000E-03 0.  1.
         11   -1    0    0    0    0 -0.00000000000E+00 -0.00000000000E+00 -0.45593999997E+02  0.45594000000E+02  0.51100000000E-03 0. -1.
    9900012    2    1    2    0    0  0.41675767811E+00 -0.10105654476E+01 -0.44503972417E+00  0.90007750093E+02  0.90000011595E+02 0.  0.
        -12    1    1    2    0    0 -0.41675767811E+00  0.10105654476E+01  0.44503972417E+00  0.11802499067E+01  0.00000000000E+00 0.  1.
         11    1    3    3    0    0 -0.73329116784E+01  0.51666518300E+01  0.43623573817E+01  0.99747705238E+01  0.51100000000E-03 0. -1.
        -11    1    3    3    0    0 -0.20850982959E+02  0.45221133835E+01  0.28007137823E+02  0.35208134985E+02  0.51100000000E-03 0.  1.
         12    1    3    3    0    0  0.28600652315E+02 -0.10699330661E+02 -0.32814534929E+02  0.44824844585E+02  0.00000000000E+00 0. -1.
</event>
<event>
 7    1  0.3757412E-015  0.9000777E+02  0.7816164E-02  0.1186339E+00
        -11   -1    0    0    0    0  0.00000000000E+00  0.00000000000E+00  0.45593999997E+02  0.45594000000E+02  0.51100000000E-03 0. -1.
         11   -1    0    0    0    0 -0.00000000000E+00 -0.00000000000E+00 -0.45593999997E+02  0.45594000000E+02  0.51100000000E-03 0.  1.
    9900012    2    1    2    0    0  0.79794003462E+00  0.59228911620E+00 -0.63672863055E+00  0.90007772037E+02  0.90000033828E+02 0.  0.
        -12    1    1    2    0    0 -0.79794003462E+00 -0.59228911620E+00  0.63672863055E+00  0.11802279631E+01  0.00000000000E+00 0.  1.
         11    1    3    3    0    0  0.37261852660E+02  0.31352734644E+01 -0.57464838841E+01  0.37832495036E+02  0.51100000000E-03 0. -1.
        -11    1    3    3    0    0  0.53352055806E+01 -0.77018295479E+01  0.35841504626E+01  0.10031387330E+02  0.51100000000E-03 0.  1.
        -12    1    3    3    0    0 -0.41799118206E+02  0.51588451998E+01  0.15256047910E+01  0.42143889671E+02  0.00000000000E+00 0.  1.
</event>
<event>
 7    1  0.3757412E-015  0.9000772E+02  0.7816164E-02  0.1186339E+00
        -11   -1    0    0    0    0  0.00000000000E+00  0.00000000000E+00  0.45593999997E+02  0.45594000000E+02  0.51100000000E-03 0. -1.
         11   -1    0    0    0    0 -0.00000000000E+00 -0.00000000000E+00 -0.45593999997E+02  0.45594000000E+02  0.51100000000E-03 0.  1.
    9900012    2    1    2    0    0 -0.30309168931E+00 -0.10583647281E+01 -0.42550808749E+00  0.90007721388E+02  0.89999982510E+02 0.  0.
        -12    1    1    2    0    0  0.30309168931E+00  0.10583647281E+01  0.42550808749E+00  0.11802786121E+01  0.00000000000E+00 0.  1.
         11    1    3    3    0    0 -0.47794063927E+01  0.51501159258E+01  0.92766367348E+01  0.11637113426E+02  0.51100000000E-03 0. -1.
        -11    1    3    3    0    0 -0.97688147669E+01  0.27624116350E+02 -0.25081966986E+02  0.38569762953E+02  0.51100000000E-03 0.  1.
         12    1    3    3    0    0  0.14245129470E+02 -0.33832597004E+02  0.15379822164E+02  0.39800845009E+02  0.00000000000E+00 0. -1.
</event>
<event>
 7    1  0.3757412E-015  0.9000770E+02  0.7816164E-02  0.1186339E+00
        -11   -1    0    0    0    0  0.00000000000E+00  0.00000000000E+00  0.45593999997E+02  0.45594000000E+02  0.51100000000E-03 0. -1.
         11   -1    0    0    0    0 -0.00000000000E+00 -0.00000000000E+00 -0.45593999997E+02  0.45594000000E+02  0.51100000000E-03 0.  1.
    9900012    2    1    2    0    0  0.21361611389E+00 -0.87597778591E+00  0.76167127353E+00  0.90007698321E+02  0.89999959138E+02 0.  0.
        -12    1    1    2    0    0 -0.21361611389E+00  0.87597778591E+00 -0.76167127353E+00  0.11803016794E+01  0.00000000000E+00 0.  1.
         11    1    3    3    0    0 -0.72135646685E+00 -0.81806616184E+01 -0.53380254917E+01  0.97947994404E+01  0.51100000000E-03 0. -1.
        -11    1    3    3    0    0 -0.12552457476E+02 -0.56482279146E+01 -0.33610563892E+02  0.36319921154E+02  0.51100000000E-03 0.  1.
         12    1    3    3    0    0  0.13487430056E+02  0.12952911747E+02  0.39710260657E+02  0.43892977726E+02  0.00000000000E+00 0. -1.
</event>
<event>
 7    1  0.3757412E-015  0.9000774E+02  0.7816164E-02  0.1186339E+00
        -11   -1    0    0    0    0  0.00000000000E+00  0.00000000000E+00  0.45593999997E+02  0.45594000000E+02  0.51100000000E-03 0.  1.
         11   -1    0    0    0    0 -0.00000000000E+00 -0.00000000000E+00 -0.45593999997E+02  0.45594000000E+02  0.51100000000E-03 0. -1.
    9900012    2    1    2    0    0  0.10041443506E+01  0.61804201596E+00  0.52319852986E-01  0.90007737666E+02  0.89999999003E+02 0.  0.
        -12    1    1    2    0    0 -0.10041443506E+01 -0.61804201596E+00 -0.52319852986E-01  0.11802623341E+01  0.00000000000E+00 0.  1.
         11    1    3    3    0    0 -0.29272159586E+02  0.13330867984E+02 -0.26045615206E+02  0.41387745043E+02  0.51100000000E-03 0. -1.
        -11    1    3    3    0    0  0.11674708384E+02  0.44500061177E+01  0.32597052575E+00  0.12498304979E+02  0.51100000000E-03 0.  1.
        -12    1    3    3    0    0  0.18601595553E+02 -0.17162832086E+02  0.25771964534E+02  0.36121687644E+02  0.00000000000E+00 0.  1.
</event>
<event>
 7    1  0.3757412E-015  0.9000743E+02  0.7816164E-02  0.1186340E+00
        -11   -1    0    0    0    0  0.00000000000E+00  0.00000000000E+00  0.45593999997E+02  0.45594000000E+02  0.51100000000E-03 0. -1.
         11   -1    0    0    0    0 -0.00000000000E+00 -0.00000000000E+00 -0.45593999997E+02  0.45594000000E+02  0.51100000000E-03 0.  1.
    9900012    2    1    2    0    0 -0.85736715633E+00 -0.70865954895E+00  0.39555234578E+00  0.90007432994E+02  0.89999690309E+02 0.  0.
        -12    1    1    2    0    0  0.85736715633E+00  0.70865954895E+00 -0.39555234578E+00  0.11805670059E+01  0.00000000000E+00 0.  1.
         11    1    3    3    0    0  0.34745083156E+02 -0.67048100372E+01  0.87736402110E+01  0.36457537547E+02  0.51100000000E-03 0. -1.
        -11    1    3    3    0    0  0.73169550277E+01 -0.19848237495E+01  0.34371095700E+01  0.83241262996E+01  0.51100000000E-03 0.  1.
        -12    1    3    3    0    0 -0.42919405340E+02  0.79809742378E+01 -0.11815197435E+02  0.45225769148E+02  0.00000000000E+00 0.  1.
</event>
<event>
 7    1  0.3757412E-015  0.9000780E+02  0.7816164E-02  0.1186339E+00
        -11   -1    0    0    0    0  0.00000000000E+00  0.00000000000E+00  0.45593999997E+02  0.45594000000E+02  0.51100000000E-03 0. -1.
         11   -1    0    0    0    0 -0.00000000000E+00 -0.00000000000E+00 -0.45593999997E+02  0.45594000000E+02  0.51100000000E-03 0.  1.
    9900012    2    1    2    0    0  0.14608626706E+00  0.14836494662E+00  0.11616928109E+01  0.90007795127E+02  0.90000057223E+02 0.  0.
        -12    1    1    2    0    0 -0.14608626706E+00 -0.14836494662E+00 -0.11616928109E+01  0.11802048728E+01  0.00000000000E+00 0.  1.
         11    1    3    3    0    0 -0.29936594327E+02 -0.16973448385E+02  0.95310813322E+01  0.35709090461E+02  0.51100000000E-03 0. -1.
        -11    1    3    3    0    0  0.31146855911E+01 -0.11231453174E+02  0.53613186653E+01  0.12829284658E+02  0.51100000000E-03 0.  1.
        -12    1    3    3    0    0  0.26967995003E+02  0.28353266505E+02 -0.13730707187E+02  0.41469420008E+02  0.00000000000E+00 0.  1.
</event>
<event>
 7    1  0.3757412E-015  0.9000770E+02  0.7816164E-02  0.1186339E+00
        -11   -1    0    0    0    0  0.00000000000E+00  0.00000000000E+00  0.45593999997E+02  0.45594000000E+02  0.51100000000E-03 0. -1.
         11   -1    0    0    0    0 -0.00000000000E+00 -0.00000000000E+00 -0.45593999997E+02  0.45594000000E+02  0.51100000000E-03 0.  1.
    9900012    2    1    2    0    0  0.11463035834E+01 -0.24867629558E+00 -0.13132840463E+00  0.90007703870E+02  0.89999964761E+02 0.  0.
        -12    1    1    2    0    0 -0.11463035834E+01  0.24867629558E+00  0.13132840463E+00  0.11802961302E+01  0.00000000000E+00 0.  1.
         11    1    3    3    0    0  0.73937028960E+01 -0.68924445127E+01  0.12486209614E+00  0.10108819154E+02  0.51100000000E-03 0. -1.
        -11    1    3    3    0    0  0.18365085372E+02 -0.27547445949E+02 -0.13475071780E+02  0.35745149304E+02  0.51100000000E-03 0.  1.
         12    1    3    3    0    0 -0.24612484685E+02  0.34191214166E+02  0.13218881279E+02  0.44153735412E+02  0.00000000000E+00 0. -1.
</event>
<event>
 7    1  0.3757412E-015  0.9000777E+02  0.7816164E-02  0.1186339E+00
        -11   -1    0    0    0    0  0.00000000000E+00  0.00000000000E+00  0.45593999997E+02  0.45594000000E+02  0.51100000000E-03 0. -1.
         11   -1    0    0    0    0 -0.00000000000E+00 -0.00000000000E+00 -0.45593999997E+02  0.45594000000E+02  0.51100000000E-03 0.  1.
    9900012    2    1    2    0    0 -0.81463295832E+00  0.85363856316E+00  0.24823544762E-01  0.90007770420E+02  0.90000032189E+02 0.  0.
        -12    1    1    2    0    0  0.81463295832E+00 -0.85363856316E+00 -0.24823544762E-01  0.11802295801E+01  0.00000000000E+00 0.  1.
         11    1    3    3    0    0  0.39935440967E+01 -0.10344539237E+01 -0.99436344179E+01  0.10765424054E+02  0.51100000000E-03 0. -1.
        -11    1    3    3    0    0 -0.12883420363E+02  0.33627709047E+02  0.24352144967E+02  0.43472201472E+02  0.51100000000E-03 0.  1.
         12    1    3    3    0    0  0.80752433084E+01 -0.31739616560E+02 -0.14383687005E+02  0.35770144894E+02  0.00000000000E+00 0. -1.
</event>
<event>
 7    1  0.3757412E-015  0.9000753E+02  0.7816164E-02  0.1186339E+00
        -11   -1    0    0    0    0  0.00000000000E+00  0.00000000000E+00  0.45593999997E+02  0.45594000000E+02  0.51100000000E-03 0. -1.
         11   -1    0    0    0    0 -0.00000000000E+00 -0.00000000000E+00 -0.45593999997E+02  0.45594000000E+02  0.51100000000E-03 0.  1.
    9900012    2    1    2    0    0 -0.37707515029E+00 -0.39730240743E+00  0.10456889939E+01  0.90007533845E+02  0.89999792491E+02 0.  0.
        -12    1    1    2    0    0  0.37707515029E+00  0.39730240743E+00 -0.10456889939E+01  0.11804661553E+01  0.00000000000E+00 0.  1.
         11    1    3    3    0    0 -0.14184558225E+01  0.83126455172E+01  0.70993825251E+01  0.11023308256E+02  0.51100000000E-03 0. -1.
        -11    1    3    3    0    0  0.15241503642E+02  0.45150573611E+01 -0.38233567379E+02  0.41406459050E+02  0.51100000000E-03 0.  1.
         12    1    3    3    0    0 -0.14200122970E+02 -0.13225005286E+02  0.32179873848E+02  0.37577766539E+02  0.00000000000E+00 0. -1.
</event>
<event>
 7    1  0.3757412E-015  0.9000775E+02  0.7816164E-02  0.1186339E+00
        -11   -1    0    0    0    0  0.00000000000E+00  0.00000000000E+00  0.45593999997E+02  0.45594000000E+02  0.51100000000E-03 0. -1.
         11   -1    0    0    0    0 -0.00000000000E+00 -0.00000000000E+00 -0.45593999997E+02  0.45594000000E+02  0.51100000000E-03 0.  1.
    9900012    2    1    2    0    0 -0.49213185707E+00 -0.64798332190E+00  0.85494035785E+00  0.90007746144E+02  0.90000007593E+02 0.  0.
        -12    1    1    2    0    0  0.49213185707E+00  0.64798332190E+00 -0.85494035785E+00  0.11802538565E+01  0.00000000000E+00 0.  1.
         11    1    3    3    0    0 -0.23500808076E+00  0.15988802757E+02 -0.51177942748E+01  0.16789546179E+02  0.51100000000E-03 0. -1.
        -11    1    3    3    0    0 -0.20945964297E+02  0.20634915590E+02 -0.33156119994E+01  0.29589296121E+02  0.51100000000E-03 0.  1.
         12    1    3    3    0    0  0.20688840521E+02 -0.37271701669E+02  0.92883466320E+01  0.43628903843E+02  0.00000000000E+00 0. -1.
</event>
<event>
 7    1  0.3757412E-015  0.9000769E+02  0.7816164E-02  0.1186339E+00
        -11   -1    0    0    0    0  0.00000000000E+00  0.00000000000E+00  0.45593999997E+02  0.45594000000E+02  0.51100000000E-03 0. -1.
         11   -1    0    0    0    0 -0.00000000000E+00 -0.00000000000E+00 -0.45593999997E+02  0.45594000000E+02  0.51100000000E-03 0.  1.
    9900012    2    1    2    0    0  0.50669945694E+00  0.63542272838E+00 -0.85593244254E+00  0.90007692104E+02  0.89999952840E+02 0.  0.
        -12    1    1    2    0    0 -0.50669945694E+00 -0.63542272838E+00  0.85593244254E+00  0.11803078961E+01  0.00000000000E+00 0.  1.
         11    1    3    3    0    0 -0.10105413519E+01  0.22335786117E+02  0.33604455429E+02  0.40362952819E+02  0.51100000000E-03 0. -1.
        -11    1    3    3    0    0 -0.72851708878E+01 -0.47266495085E+01  0.15985510363E+01  0.88300790550E+01  0.51100000000E-03 0.  1.
        -12    1    3    3    0    0  0.88024116966E+01 -0.16973713880E+02 -0.36058938908E+02  0.40814660230E+02  0.00000000000E+00 0.  1.
</event>
<event>
 7    1  0.3757412E-015  0.9000773E+02  0.7816164E-02  0.1186339E+00
        -11   -1    0    0    0    0  0.00000000000E+00  0.00000000000E+00  0.45593999997E+02  0.45594000000E+02  0.51100000000E-03 0.  1.
         11   -1    0    0    0    0 -0.00000000000E+00 -0.00000000000E+00 -0.45593999997E+02  0.45594000000E+02  0.51100000000E-03 0. -1.
    9900012    2    1    2    0    0  0.62776915095E+00 -0.99615256481E+00  0.81368495326E-01  0.90007731017E+02  0.89999992267E+02 0.  0.
        -12    1    1    2    0    0 -0.62776915095E+00  0.99615256481E+00 -0.81368495326E-01  0.11802689826E+01  0.00000000000E+00 0.  1.
         11    1    3    3    0    0 -0.18489814886E+02 -0.15449225992E+02 -0.22915209901E+02  0.33251446335E+02  0.51100000000E-03 0. -1.
        -11    1    3    3    0    0 -0.93448649291E+01 -0.37754168859E+01 -0.64190750042E+01  0.11949259282E+02  0.51100000000E-03 0.  1.
        -12    1    3    3    0    0  0.28462448966E+02  0.18228490314E+02  0.29415653401E+02  0.44807025401E+02  0.00000000000E+00 0.  1.
</event>
<event>
 7    1  0.3757412E-015  0.9000769E+02  0.7816164E-02  0.1186339E+00
        -11   -1    0    0    0    0  0.00000000000E+00  0.00000000000E+00  0.45593999997E+02  0.45594000000E+02  0.51100000000E-03 0. -1.
         11   -1    0    0    0    0 -0.00000000000E+00 -0.00000000000E+00 -0.45593999997E+02  0.45594000000E+02  0.51100000000E-03 0.  1.
    9900012    2    1    2    0    0 -0.36269364403E+00  0.10760472743E+01  0.32203685945E+00  0.90007689806E+02  0.89999950511E+02 0.  0.
        -12    1    1    2    0    0  0.36269364403E+00 -0.10760472743E+01 -0.32203685945E+00  0.11803101943E+01  0.00000000000E+00 0.  1.
         11    1    3    3    0    0 -0.74173596204E+01 -0.20137220871E+01 -0.42422102943E+01  0.87788751458E+01  0.51100000000E-03 0. -1.
        -11    1    3    3    0    0 -0.23534107796E+02 -0.19936194766E+02 -0.19043774167E+02  0.36248743789E+02  0.51100000000E-03 0.  1.
         12    1    3    3    0    0  0.30588773772E+02  0.23025964127E+02  0.23608021321E+02  0.44980070871E+02  0.00000000000E+00 0. -1.
</event>
<event>
 7    1  0.3757412E-015  0.9000774E+02  0.7816164E-02  0.1186339E+00
        -11   -1    0    0    0    0  0.00000000000E+00  0.00000000000E+00  0.45593999997E+02  0.45594000000E+02  0.51100000000E-03 0. -1.
         11   -1    0    0    0    0 -0.00000000000E+00 -0.00000000000E+00 -0.45593999997E+02  0.45594000000E+02  0.51100000000E-03 0.  1.
    9900012    2    1    2    0    0 -0.90337788137E+00 -0.61031808898E+00 -0.45214720682E+00  0.90007738646E+02  0.89999999996E+02 0.  0.
        -12    1    1    2    0    0  0.90337788137E+00  0.61031808898E+00  0.45214720682E+00  0.11802613536E+01  0.00000000000E+00 0.  1.
         11    1    3    3    0    0  0.44705489203E+01  0.30699375988E+02  0.25552923320E+02  0.40191906948E+02  0.51100000000E-03 0. -1.
        -11    1    3    3    0    0  0.36070755508E+01 -0.25786910324E+01  0.49446843702E+01  0.66415770155E+01  0.51100000000E-03 0.  1.
        -12    1    3    3    0    0 -0.89810023526E+01 -0.28731003044E+02 -0.30949754897E+02  0.43174254682E+02  0.00000000000E+00 0.  1.
</event>
<event>
 7    1  0.3757412E-015  0.9000772E+02  0.7816164E-02  0.1186339E+00
        -11   -1    0    0    0    0  0.00000000000E+00  0.00000000000E+00  0.45593999997E+02  0.45594000000E+02  0.51100000000E-03 0.  1.
         11   -1    0    0    0    0 -0.00000000000E+00 -0.00000000000E+00 -0.45593999997E+02  0.45594000000E+02  0.51100000000E-03 0. -1.
    9900012    2    1    2    0    0 -0.38687530044E+00  0.10592174128E+00 -0.11100331623E+01  0.90007718027E+02  0.89999979105E+02 0.  0.
        -12    1    1    2    0    0  0.38687530044E+00 -0.10592174128E+00  0.11100331623E+01  0.11802819726E+01  0.00000000000E+00 0.  1.
         11    1    3    3    0    0 -0.29024858251E+02  0.26516655060E+02 -0.99732779999E+01  0.40559113235E+02  0.51100000000E-03 0. -1.
        -11    1    3    3    0    0 -0.38169567796E+01  0.20684788377E+01 -0.22117516504E+01  0.48723310010E+01  0.51100000000E-03 0.  1.
        -12    1    3    3    0    0  0.32454939730E+02 -0.28479212157E+02  0.11074996488E+02  0.44576273792E+02  0.00000000000E+00 0.  1.
</event>
<event>
 7    1  0.3757412E-015  0.9000773E+02  0.7816164E-02  0.1186339E+00
        -11   -1    0    0    0    0  0.00000000000E+00  0.00000000000E+00  0.45593999997E+02  0.45594000000E+02  0.51100000000E-03 0. -1.
         11   -1    0    0    0    0 -0.00000000000E+00 -0.00000000000E+00 -0.45593999997E+02  0.45594000000E+02  0.51100000000E-03 0.  1.
    9900012    2    1    2    0    0 -0.50610563098E+00 -0.10484629926E+01 -0.19398258084E+00  0.90007725965E+02  0.89999987148E+02 0.  0.
        -12    1    1    2    0    0  0.50610563098E+00  0.10484629926E+01  0.19398258084E+00  0.11802740352E+01  0.00000000000E+00 0.  1.
         11    1    3    3    0    0 -0.27715429417E+02 -0.46314130848E+01  0.10038257522E+02  0.29838928085E+02  0.51100000000E-03 0. -1.
        -11    1    3    3    0    0 -0.14748796269E+02  0.75377121942E+01 -0.67335635013E+01  0.17879736413E+02  0.51100000000E-03 0.  1.
        -12    1    3    3    0    0  0.41958120055E+02 -0.39547621020E+01 -0.34986766015E+01  0.42289061467E+02  0.00000000000E+00 0.  1.
</event>
<event>
 7    1  0.3757412E-015  0.9000771E+02  0.7816164E-02  0.1186339E+00
        -11   -1    0    0    0    0  0.00000000000E+00  0.00000000000E+00  0.45593999997E+02  0.45594000000E+02  0.51100000000E-03 0.  1.
         11   -1    0    0    0    0 -0.00000000000E+00 -0.00000000000E+00 -0.45593999997E+02  0.45594000000E+02  0.51100000000E-03 0. -1.
    9900012    2    1    2    0    0  0.90299685668E+00 -0.35357251574E+00 -0.67280466378E+00  0.90007710645E+02  0.89999971625E+02 0.  0.
        -12    1    1    2    0    0 -0.90299685668E+00  0.35357251574E+00  0.67280466378E+00  0.11802893555E+01  0.00000000000E+00 0.  1.
         11    1    3    3    0    0  0.81362505125E+01 -0.23237144428E+02 -0.10990553865E+02  0.26962116536E+02  0.51100000000E-03 0. -1.
        -11    1    3    3    0    0  0.75170912266E+01 -0.17431553972E+02  0.40721147735E+00  0.18987668520E+02  0.51100000000E-03 0.  1.
        -12    1    3    3    0    0 -0.14750344882E+02  0.40315125884E+02  0.99105377239E+01  0.44057925589E+02  0.00000000000E+00 0.  1.
</event>
<event>
 7    1  0.3757412E-015  0.9000764E+02  0.7816164E-02  0.1186339E+00
        -11   -1    0    0    0    0  0.00000000000E+00  0.00000000000E+00  0.45593999997E+02  0.45594000000E+02  0.51100000000E-03 0. -1.
         11   -1    0    0    0    0 -0.00000000000E+00 -0.00000000000E+00 -0.45593999997E+02  0.45594000000E+02  0.51100000000E-03 0.  1.
    9900012    2    1    2    0    0  0.71838126720E+00 -0.75412440271E+00  0.55540537698E+00  0.90007639719E+02  0.89999899763E+02 0.  0.
        -12    1    1    2    0    0 -0.71838126720E+00  0.75412440271E+00 -0.55540537698E+00  0.11803602808E+01  0.00000000000E+00 0.  1.
         11    1    3    3    0    0  0.26298298749E+02 -0.12340887964E+02  0.16849277742E+01  0.29098745930E+02  0.51100000000E-03 0. -1.
        -11    1    3    3    0    0  0.14221278011E+02  0.44911186126E+01  0.11189922360E+02  0.18644818512E+02  0.51100000000E-03 0.  1.
        -12    1    3    3    0    0 -0.39801195493E+02  0.70956449485E+01 -0.12319444757E+02  0.42264075277E+02  0.00000000000E+00 0.  1.
</event>
<event>
 7    1  0.3757412E-015  0.9000776E+02  0.7816164E-02  0.1186339E+00
        -11   -1    0    0    0    0  0.00000000000E+00  0.00000000000E+00  0.45593999997E+02  0.45594000000E+02  0.51100000000E-03 0. -1.
         11   -1    0    0    0    0 -0.00000000000E+00 -0.00000000000E+00 -0.45593999997E+02  0.45594000000E+02  0.51100000000E-03 0.  1.
    9900012    2    1    2    0    0  0.71542289453E+00  0.23202791691E+00  0.90956647806E+00  0.90007755089E+02  0.90000016656E+02 0.  0.
        -12    1    1    2    0    0 -0.71542289453E+00 -0.23202791691E+00 -0.90956647806E+00  0.11802449111E+01  0.00000000000E+00 0.  1.
         11    1    3    3    0    0 -0.59202149504E+00 -0.74858110845E+01  0.37137408417E+01  0.83773342027E+01  0.51100000000E-03 0. -1.
        -11    1    3    3    0    0 -0.39540790923E+01 -0.33247181392E+02  0.14958709638E+02  0.36671144055E+02  0.51100000000E-03 0.  1.
         12    1    3    3    0    0  0.52615234819E+01  0.40965020393E+02 -0.17762884001E+02  0.44959276832E+02  0.00000000000E+00 0. -1.
</event>
<event>
 7    1  0.3757412E-015  0.9000776E+02  0.7816164E-02  0.1186339E+00
        -11   -1    0    0    0    0  0.00000000000E+00  0.00000000000E+00  0.45593999997E+02  0.45594000000E+02  0.51100000000E-03 0.  1.
         11   -1    0    0    0    0 -0.00000000000E+00 -0.00000000000E+00 -0.45593999997E+02  0.45594000000E+02  0.51100000000E-03 0. -1.
    9900012    2    1    2    0    0 -0.28857642272E+00  0.92888798333E+00 -0.66846550421E+00  0.90007764698E+02  0.90000026392E+02 0.  0.
        -12    1    1    2    0    0  0.28857642272E+00 -0.92888798333E+00  0.66846550421E+00  0.11802353018E+01  0.00000000000E+00 0.  1.
         11    1    3    3    0    0  0.73334535119E+01 -0.35339023347E+01 -0.19134561232E+02  0.20794216502E+02  0.51100000000E-03 0. -1.
        -11    1    3    3    0    0  0.23664475180E+02  0.83630895918E+01 -0.97273384990E+01  0.26917833635E+02  0.51100000000E-03 0.  1.
         12    1    3    3    0    0 -0.31286505115E+02 -0.39002992737E+01  0.28193434227E+02  0.42295714561E+02  0.00000000000E+00 0. -1.
</event>
<event>
 7    1  0.3757412E-015  0.9000767E+02  0.7816164E-02  0.1186339E+00
        -11   -1    0    0    0    0  0.00000000000E+00  0.00000000000E+00  0.45593999997E+02  0.45594000000E+02  0.51100000000E-03 0.  1.
         11   -1    0    0    0    0 -0.00000000000E+00 -0.00000000000E+00 -0.45593999997E+02  0.45594000000E+02  0.51100000000E-03 0. -1.
    9900012    2    1    2    0    0  0.11023859104E+01  0.32798929419E+00 -0.26524254618E+00  0.90007667301E+02  0.89999927709E+02 0.  0.
        -12    1    1    2    0    0 -0.11023859104E+01 -0.32798929419E+00  0.26524254618E+00  0.11803326992E+01  0.00000000000E+00 0.  1.
         11    1    3    3    0    0 -0.53354616563E+01  0.67215360648E+01  0.22254186616E+01  0.88655900332E+01  0.51100000000E-03 0. -1.
        -11    1    3    3    0    0  0.23350499611E+02  0.25054103943E+02  0.19299038668E+02  0.39311663031E+02  0.51100000000E-03 0.  1.
         12    1    3    3    0    0 -0.16912652044E+02 -0.31447650714E+02 -0.21789699876E+02  0.41830414237E+02  0.00000000000E+00 0. -1.
</event>
<event>
 7    1  0.3757412E-015  0.9000775E+02  0.7816164E-02  0.1186339E+00
        -11   -1    0    0    0    0  0.00000000000E+00  0.00000000000E+00  0.45593999997E+02  0.45594000000E+02  0.51100000000E-03 0.  1.
         11   -1    0    0    0    0 -0.00000000000E+00 -0.00000000000E+00 -0.45593999997E+02  0.45594000000E+02  0.51100000000E-03 0. -1.
    9900012    2    1    2    0    0 -0.64716580911E+00  0.96022545974E+00 -0.22830269964E+00  0.90007754839E+02  0.90000016403E+02 0.  0.
        -12    1    1    2    0    0  0.64716580911E+00 -0.96022545974E+00  0.22830269964E+00  0.11802451613E+01  0.00000000000E+00 0.  1.
         11    1    3    3    0    0 -0.45129974276E+01  0.59646137016E+01  0.52047301312E+01  0.91122433237E+01  0.51100000000E-03 0. -1.
        -11    1    3    3    0    0  0.39944897060E+02  0.90797767497E+01 -0.91932311754E+01  0.41982766068E+02  0.51100000000E-03 0.  1.
         12    1    3    3    0    0 -0.36079065442E+02 -0.14084164992E+02  0.37601983446E+01  0.38912745447E+02  0.00000000000E+00 0. -1.
</event>
<event>
 7    1  0.3757412E-015  0.9000736E+02  0.7816164E-02  0.1186340E+00
        -11   -1    0    0    0    0  0.00000000000E+00  0.00000000000E+00  0.45593999997E+02  0.45594000000E+02  0.51100000000E-03 0.  1.
         11   -1    0    0    0    0 -0.00000000000E+00 -0.00000000000E+00 -0.45593999997E+02  0.45594000000E+02  0.51100000000E-03 0. -1.
    9900012    2    1    2    0    0 -0.12832007667E+00  0.10902482472E+01 -0.43452586900E+00  0.90007356102E+02  0.89999612402E+02 0.  0.
        -12    1    1    2    0    0  0.12832007667E+00 -0.10902482472E+01  0.43452586900E+00  0.11806438978E+01  0.00000000000E+00 0.  1.
         11    1    3    3    0    0 -0.10450570007E+02  0.61119277715E+01 -0.84232071284E+01  0.14748575970E+02  0.51100000000E-03 0. -1.
        -11    1    3    3    0    0  0.56579000077E+01 -0.35760077499E+02 -0.12180970272E+02  0.38199097009E+02  0.51100000000E-03 0.  1.
         12    1    3    3    0    0  0.46643499229E+01  0.30738397975E+02  0.20169651532E+02  0.37059683123E+02  0.00000000000E+00 0. -1.
</event>
<event>
 7    1  0.3757412E-015  0.9000780E+02  0.7816164E-02  0.1186339E+00
        -11   -1    0    0    0    0  0.00000000000E+00  0.00000000000E+00  0.45593999997E+02  0.45594000000E+02  0.51100000000E-03 0. -1.
         11   -1    0    0    0    0 -0.00000000000E+00 -0.00000000000E+00 -0.45593999997E+02  0.45594000000E+02  0.51100000000E-03 0.  1.
    9900012    2    1    2    0    0  0.40493106258E-01 -0.11651626051E+01 -0.18337454691E+00  0.90007800944E+02  0.90000063116E+02 0.  0.
        -12    1    1    2    0    0 -0.40493106258E-01  0.11651626051E+01  0.18337454691E+00  0.11801990563E+01  0.00000000000E+00 0.  1.
         11    1    3    3    0    0 -0.28403752234E+01 -0.49494227107E+01 -0.92301474938E+01  0.10851734405E+02  0.51100000000E-03 0. -1.
        -11    1    3    3    0    0  0.33802801602E+02  0.20802767643E+02 -0.71355683252E+01  0.40327420861E+02  0.51100000000E-03 0.  1.
         12    1    3    3    0    0 -0.30921933272E+02 -0.17018507537E+02  0.16182341272E+02  0.38828645677E+02  0.00000000000E+00 0. -1.
</event>
<event>
 7    1  0.3757412E-015  0.9000765E+02  0.7816164E-02  0.1186339E+00
        -11   -1    0    0    0    0  0.00000000000E+00  0.00000000000E+00  0.45593999997E+02  0.45594000000E+02  0.51100000000E-03 0.  1.
         11   -1    0    0    0    0 -0.00000000000E+00 -0.00000000000E+00 -0.45593999997E+02  0.45594000000E+02  0.51100000000E-03 0. -1.
    9900012    2    1    2    0    0  0.82592075720E+00 -0.32434079073E+00 -0.77839311267E+00  0.90007645018E+02  0.89999905132E+02 0.  0.
        -12    1    1    2    0    0 -0.82592075720E+00  0.32434079073E+00  0.77839311267E+00  0.11803549820E+01  0.00000000000E+00 0.  1.
         11    1    3    3    0    0 -0.30945775039E+02 -0.26677017830E+01 -0.27068217925E+02  0.41200073391E+02  0.51100000000E-03 0. -1.
        -11    1    3    3    0    0  0.37202503538E+00 -0.78649063278E+01  0.71965409291E+01  0.10667021879E+02  0.51100000000E-03 0.  1.
        -12    1    3    3    0    0  0.31399670761E+02  0.10208267320E+02  0.19093283883E+02  0.38140549747E+02  0.00000000000E+00 0.  1.
</event>
<event>
 7    1  0.3757412E-015  0.9000771E+02  0.7816164E-02  0.1186339E+00
        -11   -1    0    0    0    0  0.00000000000E+00  0.00000000000E+00  0.45593999997E+02  0.45594000000E+02  0.51100000000E-03 0.  1.
         11   -1    0    0    0    0 -0.00000000000E+00 -0.00000000000E+00 -0.45593999997E+02  0.45594000000E+02  0.51100000000E-03 0. -1.
    9900012    2    1    2    0    0  0.35173205446E+00  0.36707958777E+00  0.10651856141E+01  0.90007710521E+02  0.89999971500E+02 0.  0.
        -12    1    1    2    0    0 -0.35173205446E+00 -0.36707958777E+00 -0.10651856141E+01  0.11802894791E+01  0.00000000000E+00 0.  1.
         11    1    3    3    0    0  0.32870171569E+01  0.19298649571E+02 -0.31759636847E+02  0.37308402405E+02  0.51100000000E-03 0. -1.
        -11    1    3    3    0    0 -0.32511410393E+00 -0.48783162038E+01 -0.80383081439E+01  0.94084040221E+01  0.51100000000E-03 0.  1.
        -12    1    3    3    0    0 -0.26101709985E+01 -0.14053253780E+02  0.40863130605E+02  0.43290904094E+02  0.00000000000E+00 0.  1.
</event>
<event>
 7    1  0.3757412E-015  0.9000780E+02  0.7816164E-02  0.1186339E+00
        -11   -1    0    0    0    0  0.00000000000E+00  0.00000000000E+00  0.45593999997E+02  0.45594000000E+02  0.51100000000E-03 0.  1.
         11   -1    0    0    0    0 -0.00000000000E+00 -0.00000000000E+00 -0.45593999997E+02  0.45594000000E+02  0.51100000000E-03 0. -1.
    9900012    2    1    2    0    0  0.63854545510E+00 -0.39072098403E+00 -0.91239557593E+00  0.90007801342E+02  0.90000063520E+02 0.  0.
        -12    1    1    2    0    0 -0.63854545510E+00  0.39072098403E+00  0.91239557593E+00  0.11801986581E+01  0.00000000000E+00 0.  1.
         11    1    3    3    0    0  0.96749680873E+01 -0.75257275534E+01  0.43616171868E+00  0.12265065022E+02  0.51100000000E-03 0. -1.
        -11    1    3    3    0    0 -0.12554593304E+02 -0.28154532864E+02  0.19622075929E+02  0.36542049722E+02  0.51100000000E-03 0.  1.
         12    1    3    3    0    0  0.35181706722E+01  0.35289539434E+02 -0.20970633223E+02  0.41200686598E+02  0.00000000000E+00 0. -1.
</event>
<event>
 7    1  0.3757412E-015  0.9000769E+02  0.7816164E-02  0.1186339E+00
        -11   -1    0    0    0    0  0.00000000000E+00  0.00000000000E+00  0.45593999997E+02  0.45594000000E+02  0.51100000000E-03 0.  1.
         11   -1    0    0    0    0 -0.00000000000E+00 -0.00000000000E+00 -0.45593999997E+02  0.45594000000E+02  0.51100000000E-03 0. -1.
    9900012    2    1    2    0    0  0.79332301290E+00 -0.81219323880E-01 -0.87015242504E+00  0.90007693589E+02  0.89999954344E+02 0.  0.
        -12    1    1    2    0    0 -0.79332301290E+00  0.81219323880E-01  0.87015242504E+00  0.11803064111E+01  0.00000000000E+00 0.  1.
         11    1    3    3    0    0  0.18766681404E+02 -0.38196649414E+02 -0.12165772300E+02  0.44262606941E+02  0.51100000000E-03 0. -1.
        -11    1    3    3    0    0 -0.74817115536E+01  0.58150731255E+01 -0.12131121483E+01  0.95531525986E+01  0.51100000000E-03 0.  1.
        -12    1    3    3    0    0 -0.10491646837E+02  0.32300356964E+02  0.12508732023E+02  0.36191934049E+02  0.00000000000E+00 0.  1.
</event>
<event>
 7    1  0.3757412E-015  0.9000774E+02  0.7816164E-02  0.1186339E+00
        -11   -1    0    0    0    0  0.00000000000E+00  0.00000000000E+00  0.45593999997E+02  0.45594000000E+02  0.51100000000E-03 0. -1.
         11   -1    0    0    0    0 -0.00000000000E+00 -0.00000000000E+00 -0.45593999997E+02  0.45594000000E+02  0.51100000000E-03 0.  1.
    9900012    2    1    2    0    0 -0.60018616239E+00 -0.92276572534E+00  0.42578802824E+00  0.90007739241E+02  0.90000000599E+02 0.  0.
        -12    1    1    2    0    0  0.60018616239E+00  0.92276572534E+00 -0.42578802824E+00  0.11802607586E+01  0.00000000000E+00 0.  1.
         11    1    3    3    0    0 -0.43938244111E+01 -0.70792367923E+01 -0.13414666403E+01  0.84392428289E+01  0.51100000000E-03 0. -1.
        -11    1    3    3    0    0 -0.27060732345E+02 -0.23355578455E+02 -0.10299428567E+02  0.37200060605E+02  0.51100000000E-03 0.  1.
         12    1    3    3    0    0  0.30854370593E+02  0.29512049521E+02  0.12066683236E+02  0.44368435807E+02  0.00000000000E+00 0. -1.
</event>
<event>
 7    1  0.4059810E-015  0.9000776E+02  0.7816164E-02  0.1186339E+00
        -11   -1    0    0    0    0  0.00000000000E+00  0.00000000000E+00  0.45593999997E+02  0.45594000000E+02  0.51100000000E-03 0. -1.
         11   -1    0    0    0    0 -0.00000000000E+00 -0.00000000000E+00 -0.45593999997E+02  0.45594000000E+02  0.51100000000E-03 0.  1.
    9900012    2    1    2    0    0  0.90467799671E+00  0.24287505184E+00  0.71801239625E+00  0.90007757495E+02  0.90000019094E+02 0.  0.
        -12    1    1    2    0    0 -0.90467799671E+00 -0.24287505184E+00 -0.71801239625E+00  0.11802425046E+01  0.00000000000E+00 0.  1.
         11    1    3    3    0    0  0.59471220773E+01  0.25767359940E+02  0.25572311134E+02  0.36786793776E+02  0.51100000000E-03 0. -1.
        -11    1    3    3    0    0 -0.60408897255E+01  0.52936743223E+01  0.56711802596E+01  0.98324779331E+01  0.51100000000E-03 0.  1.
        -12    1    3    3    0    0  0.99844564490E+00 -0.30818159211E+02 -0.30525478997E+02  0.43388485787E+02  0.00000000000E+00 0.  1.
</event>
<event>
 7    1  0.3757412E-015  0.9000773E+02  0.7816164E-02  0.1186339E+00
        -11   -1    0    0    0    0  0.00000000000E+00  0.00000000000E+00  0.45593999997E+02  0.45594000000E+02  0.51100000000E-03 0.  1.
         11   -1    0    0    0    0 -0.00000000000E+00 -0.00000000000E+00 -0.45593999997E+02  0.45594000000E+02  0.51100000000E-03 0. -1.
    9900012    2    1    2    0    0 -0.51339838561E+00 -0.37466257293E+00 -0.99453140027E+00  0.90007727721E+02  0.89999988927E+02 0.  0.
        -12    1    1    2    0    0  0.51339838561E+00  0.37466257293E+00  0.99453140027E+00  0.11802722788E+01  0.00000000000E+00 0.  1.
         11    1    3    3    0    0 -0.77270347617E+01  0.33354052153E+01 -0.30470165714E+01  0.89507711627E+01  0.51100000000E-03 0. -1.
        -11    1    3    3    0    0 -0.28115359689E+02  0.21980427975E+02 -0.71969975231E+01  0.36406173076E+02  0.51100000000E-03 0.  1.
         12    1    3    3    0    0  0.35328996065E+02 -0.25690495763E+02  0.92494826942E+01  0.44650783483E+02  0.00000000000E+00 0. -1.
</event>
<event>
 7    1  0.3757412E-015  0.9000779E+02  0.7816164E-02  0.1186339E+00
        -11   -1    0    0    0    0  0.00000000000E+00  0.00000000000E+00  0.45593999997E+02  0.45594000000E+02  0.51100000000E-03 0.  1.
         11   -1    0    0    0    0 -0.00000000000E+00 -0.00000000000E+00 -0.45593999997E+02  0.45594000000E+02  0.51100000000E-03 0. -1.
    9900012    2    1    2    0    0  0.53450873962E+00  0.45107123383E+00 -0.95064952174E+00  0.90007788424E+02  0.90000050431E+02 0.  0.
        -12    1    1    2    0    0 -0.53450873962E+00 -0.45107123383E+00  0.95064952174E+00  0.11802115759E+01  0.00000000000E+00 0.  1.
         11    1    3    3    0    0  0.34045380821E+02 -0.11852125109E+02  0.82394586414E+01  0.36979041413E+02  0.51100000000E-03 0. -1.
        -11    1    3    3    0    0  0.53626007255E+01 -0.68736861999E+01 -0.31197590668E+01  0.92594786793E+01  0.51100000000E-03 0.  1.
        -12    1    3    3    0    0 -0.38873472807E+02  0.19176882543E+02 -0.60703490964E+01  0.43769268332E+02  0.00000000000E+00 0.  1.
</event>
<event>
 7    1  0.3757412E-015  0.9000778E+02  0.7816164E-02  0.1186339E+00
        -11   -1    0    0    0    0  0.00000000000E+00  0.00000000000E+00  0.45593999997E+02  0.45594000000E+02  0.51100000000E-03 0.  1.
         11   -1    0    0    0    0 -0.00000000000E+00 -0.00000000000E+00 -0.45593999997E+02  0.45594000000E+02  0.51100000000E-03 0. -1.
    9900012    2    1    2    0    0  0.88064763092E+00  0.41828990722E+00 -0.66514056959E+00  0.90007780244E+02  0.90000042143E+02 0.  0.
        -12    1    1    2    0    0 -0.88064763092E+00 -0.41828990722E+00  0.66514056959E+00  0.11802197565E+01  0.00000000000E+00 0.  1.
         11    1    3    3    0    0 -0.13855871206E+02  0.10623353265E+01 -0.15476727925E+02  0.20800068047E+02  0.51100000000E-03 0. -1.
        -11    1    3    3    0    0 -0.24966176814E+02  0.39736360597E+01 -0.29820169248E+01  0.25455690787E+02  0.51100000000E-03 0.  1.
         12    1    3    3    0    0  0.39702695651E+02 -0.46176814790E+01  0.17793604280E+02  0.43752021410E+02  0.00000000000E+00 0. -1.
</event>
<event>
 7    1  0.3757412E-015  0.9000758E+02  0.7816164E-02  0.1186339E+00
        -11   -1    0    0    0    0  0.00000000000E+00  0.00000000000E+00  0.45593999997E+02  0.45594000000E+02  0.51100000000E-03 0.  1.
         11   -1    0    0    0    0 -0.00000000000E+00 -0.00000000000E+00 -0.45593999997E+02  0.45594000000E+02  0.51100000000E-03 0. -1.
    9900012    2    1    2    0    0 -0.10765407509E+00  0.78361780949E+00 -0.87620637645E+00  0.90007583173E+02  0.89999842471E+02 0.  0.
        -12    1    1    2    0    0  0.10765407509E+00 -0.78361780949E+00  0.87620637645E+00  0.11804168270E+01  0.00000000000E+00 0.  1.
         11    1    3    3    0    0  0.83798253379E+01  0.20672764551E+01  0.27037937915E+01  0.90446451431E+01  0.51100000000E-03 0. -1.
        -11    1    3    3    0    0  0.32505463423E+02  0.11450981541E+02  0.10095566565E+02  0.35911705544E+02  0.51100000000E-03 0.  1.
         12    1    3    3    0    0 -0.40992942836E+02 -0.12734640186E+02 -0.13675566733E+02  0.45051232486E+02  0.00000000000E+00 0. -1.
</event>
<event>
 7    1  0.3757412E-015  0.9000772E+02  0.7816164E-02  0.1186339E+00
        -11   -1    0    0    0    0  0.00000000000E+00  0.00000000000E+00  0.45593999997E+02  0.45594000000E+02  0.51100000000E-03 0.  1.
         11   -1    0    0    0    0 -0.00000000000E+00 -0.00000000000E+00 -0.45593999997E+02  0.45594000000E+02  0.51100000000E-03 0. -1.
    9900012    2    1    2    0    0 -0.10249403050E+01 -0.45096498107E+00  0.37308995308E+00  0.90007716917E+02  0.89999977980E+02 0.  0.
        -12    1    1    2    0    0  0.10249403050E+01  0.45096498107E+00 -0.37308995308E+00  0.11802830830E+01  0.00000000000E+00 0.  1.
         11    1    3    3    0    0 -0.77235203043E+01  0.62997426679E+00 -0.43337009940E+02  0.44024380340E+02  0.51100000000E-03 0. -1.
        -11    1    3    3    0    0 -0.86032177944E+00 -0.47334542135E+01  0.83172000750E+01  0.96084108834E+01  0.51100000000E-03 0.  1.
        -12    1    3    3    0    0  0.75589017787E+01  0.36525149656E+01  0.35392899818E+02  0.36374925694E+02  0.00000000000E+00 0.  1.
</event>
<event>
 7    1  0.3757412E-015  0.9000675E+02  0.7816164E-02  0.1186341E+00
        -11   -1    0    0    0    0  0.00000000000E+00  0.00000000000E+00  0.45593999997E+02  0.45594000000E+02  0.51100000000E-03 0.  1.
         11   -1    0    0    0    0 -0.00000000000E+00 -0.00000000000E+00 -0.45593999997E+02  0.45594000000E+02  0.51100000000E-03 0. -1.
    9900012    2    1    2    0    0  0.88334782132E+00  0.58187566055E+00 -0.52580384431E+00  0.90006749671E+02  0.89998997961E+02 0.  0.
        -12    1    1    2    0    0 -0.88334782132E+00 -0.58187566055E+00  0.52580384431E+00  0.11812503293E+01  0.00000000000E+00 0.  1.
         11    1    3    3    0    0  0.45028488692E+01  0.98563011220E+01  0.46864011756E+01  0.11806128747E+02  0.51100000000E-03 0. -1.
        -11    1    3    3    0    0  0.20890314741E+02 -0.14961370291E+02  0.27035578801E+02  0.37298396377E+02  0.51100000000E-03 0.  1.
         12    1    3    3    0    0 -0.24509815789E+02  0.56869448295E+01 -0.32247783821E+02  0.40902224547E+02  0.00000000000E+00 0. -1.
</event>
<event>
 7    1  0.3757412E-015  0.9000794E+02  0.7816164E-02  0.1186339E+00
        -11   -1    0    0    0    0  0.00000000000E+00  0.00000000000E+00  0.45593999997E+02  0.45594000000E+02  0.51100000000E-03 0.  1.
         11   -1    0    0    0    0 -0.00000000000E+00 -0.00000000000E+00 -0.45593999997E+02  0.45594000000E+02  0.51100000000E-03 0. -1.
    9900012    2    1    2    0    0  0.61393026521E+00 -0.24894925137E+00 -0.97655555230E+00  0.90007937778E+02  0.90000201757E+02 0.  0.
        -12    1    1    2    0    0 -0.61393026521E+00  0.24894925137E+00  0.97655555230E+00  0.11800622217E+01  0.00000000000E+00 0.  1.
         11    1    3    3    0    0  0.77144822771E+00  0.65553429745E+01 -0.41530550696E+01  0.77984306469E+01  0.51100000000E-03 0. -1.
        -11    1    3    3    0    0  0.29873380425E+02 -0.29216710007E+02 -0.91238157195E+01  0.42770071490E+02  0.51100000000E-03 0.  1.
         12    1    3    3    0    0 -0.30030898388E+02  0.22412417782E+02  0.12300315237E+02  0.39439435642E+02  0.00000000000E+00 0. -1.
</event>
<event>
 7    1  0.3757412E-015  0.9000781E+02  0.7816164E-02  0.1186339E+00
        -11   -1    0    0    0    0  0.00000000000E+00  0.00000000000E+00  0.45593999997E+02  0.45594000000E+02  0.51100000000E-03 0. -1.
         11   -1    0    0    0    0 -0.00000000000E+00 -0.00000000000E+00 -0.45593999997E+02  0.45594000000E+02  0.51100000000E-03 0.  1.
    9900012    2    1    2    0    0  0.37959928151E+00 -0.96208600380E-01  0.11133217161E+01  0.90007814865E+02  0.90000077221E+02 0.  0.
        -12    1    1    2    0    0 -0.37959928151E+00  0.96208600380E-01 -0.11133217161E+01  0.11801851350E+01  0.00000000000E+00 0.  1.
         11    1    3    3    0    0  0.93982759498E+01  0.34465198426E+01  0.30815982874E+01  0.10473888395E+02  0.51100000000E-03 0. -1.
        -11    1    3    3    0    0  0.24912062200E+02 -0.19799208118E+02 -0.20234576494E+02  0.37710178617E+02  0.51100000000E-03 0.  1.
         12    1    3    3    0    0 -0.33930738868E+02  0.16256479675E+02  0.18266299923E+02  0.41823747853E+02  0.00000000000E+00 0. -1.
</event>
<event>
 7    1  0.6440573E-015  0.9000783E+02  0.7816164E-02  0.1186339E+00
        -11   -1    0    0    0    0  0.00000000000E+00  0.00000000000E+00  0.45593999997E+02  0.45594000000E+02  0.51100000000E-03 0. -1.
         11   -1    0    0    0    0 -0.00000000000E+00 -0.00000000000E+00 -0.45593999997E+02  0.45594000000E+02  0.51100000000E-03 0.  1.
    9900012    2    1    2    0    0 -0.63765794172E+00 -0.57575717569E+00  0.80913806546E+00  0.90007826968E+02  0.90000089484E+02 0.  0.
        -12    1    1    2    0    0  0.63765794172E+00  0.57575717569E+00 -0.80913806546E+00  0.11801730318E+01  0.00000000000E+00 0.  1.
         11    1    3    3    0    0  0.22646951220E+02  0.77612762516E+01  0.28182087510E+02  0.36977721202E+02  0.51100000000E-03 0. -1.
        -11    1    3    3    0    0  0.88314415317E+01 -0.10920364406E+01  0.17565002845E+01  0.90704022306E+01  0.51100000000E-03 0.  1.
        -12    1    3    3    0    0 -0.32116050693E+02 -0.72449969867E+01 -0.29129449729E+02  0.43959703536E+02  0.00000000000E+00 0.  1.
</event>
<event>
 7    1  0.3757412E-015  0.9000776E+02  0.7816164E-02  0.1186339E+00
        -11   -1    0    0    0    0  0.00000000000E+00  0.00000000000E+00  0.45593999997E+02  0.45594000000E+02  0.51100000000E-03 0.  1.
         11   -1    0    0    0    0 -0.00000000000E+00 -0.00000000000E+00 -0.45593999997E+02  0.45594000000E+02  0.51100000000E-03 0. -1.
    9900012    2    1    2    0    0  0.28550611891E+00 -0.11193817615E+01 -0.24174191792E+00  0.90007759166E+02  0.90000020787E+02 0.  0.
        -12    1    1    2    0    0 -0.28550611891E+00  0.11193817615E+01  0.24174191792E+00  0.11802408342E+01  0.00000000000E+00 0.  1.
         11    1    3    3    0    0 -0.17256071646E+02  0.54812330651E+01 -0.18994718119E+02  0.26241479403E+02  0.51100000000E-03 0. -1.
        -11    1    3    3    0    0 -0.65046714377E+01  0.97299464554E+01 -0.15126863484E+02  0.19126019128E+02  0.51100000000E-03 0.  1.
        -12    1    3    3    0    0  0.24046249203E+02 -0.16330561282E+02  0.33879839685E+02  0.44640260635E+02  0.00000000000E+00 0.  1.
</event>
<event>
 7    1  0.3757412E-015  0.9000797E+02  0.7816164E-02  0.1186339E+00
        -11   -1    0    0    0    0  0.00000000000E+00  0.00000000000E+00  0.45593999997E+02  0.45594000000E+02  0.51100000000E-03 0.  1.
         11   -1    0    0    0    0 -0.00000000000E+00 -0.00000000000E+00 -0.45593999997E+02  0.45594000000E+02  0.51100000000E-03 0. -1.
    9900012    2    1    2    0    0  0.95698995277E+00 -0.12725550132E+00 -0.67856434097E+00  0.90007968942E+02  0.90000233332E+02 0.  0.
        -12    1    1    2    0    0 -0.95698995277E+00  0.12725550132E+00  0.67856434097E+00  0.11800310577E+01  0.00000000000E+00 0.  1.
         11    1    3    3    0    0 -0.36581502034E+02 -0.11026060659E+02 -0.18470572731E+02  0.42437511260E+02  0.51100000000E-03 0. -1.
        -11    1    3    3    0    0  0.33804298016E+01  0.75677134463E+01 -0.11536817841E+01  0.83683077363E+01  0.51100000000E-03 0.  1.
        -12    1    3    3    0    0  0.34158062185E+02  0.33310917111E+01  0.18945690174E+02  0.39202149946E+02  0.00000000000E+00 0.  1.
</event>
<event>
 7    1  0.3757412E-015  0.9000776E+02  0.7816164E-02  0.1186339E+00
        -11   -1    0    0    0    0  0.00000000000E+00  0.00000000000E+00  0.45593999997E+02  0.45594000000E+02  0.51100000000E-03 0. -1.
         11   -1    0    0    0    0 -0.00000000000E+00 -0.00000000000E+00 -0.45593999997E+02  0.45594000000E+02  0.51100000000E-03 0.  1.
    9900012    2    1    2    0    0  0.10816866486E+01 -0.80378417520E-02  0.47208203728E+00  0.90007757625E+02  0.90000019226E+02 0.  0.
        -12    1    1    2    0    0 -0.10816866486E+01  0.80378417520E-02 -0.47208203728E+00  0.11802423746E+01  0.00000000000E+00 0.  1.
         11    1    3    3    0    0 -0.12378855019E+01 -0.29398599780E+01 -0.99765993886E+01  0.10474143059E+02  0.51100000000E-03 0. -1.
        -11    1    3    3    0    0 -0.32777899469E+02 -0.10602116052E+00 -0.15027201437E+02  0.36058545692E+02  0.51100000000E-03 0.  1.
         12    1    3    3    0    0  0.35097471620E+02  0.30378432968E+01  0.25475882863E+02  0.43475068875E+02  0.00000000000E+00 0. -1.
</event>
<event>
 7    1  0.3757412E-015  0.9000772E+02  0.7816164E-02  0.1186339E+00
        -11   -1    0    0    0    0  0.00000000000E+00  0.00000000000E+00  0.45593999997E+02  0.45594000000E+02  0.51100000000E-03 0. -1.
         11   -1    0    0    0    0 -0.00000000000E+00 -0.00000000000E+00 -0.45593999997E+02  0.45594000000E+02  0.51100000000E-03 0.  1.
    9900012    2    1    2    0    0  0.37099358635E+00 -0.29580895640E+00  0.10807058647E+01  0.90007718531E+02  0.89999979616E+02 0.  0.
        -12    1    1    2    0    0 -0.37099358635E+00  0.29580895640E+00 -0.10807058647E+01  0.11802814689E+01  0.00000000000E+00 0.  1.
         11    1    3    3    0    0  0.36812246588E+00  0.26900675122E+02  0.24214512417E+02  0.36195641285E+02  0.51100000000E-03 0. -1.
        -11    1    3    3    0    0  0.33894010217E+01  0.20449579736E+01  0.92422703248E+01  0.10054325110E+02  0.51100000000E-03 0.  1.
        -12    1    3    3    0    0 -0.33865299013E+01 -0.29241442052E+02 -0.32376076877E+02  0.43757752136E+02  0.00000000000E+00 0.  1.
</event>
<event>
 7    1  0.3757412E-015  0.9000774E+02  0.7816164E-02  0.1186339E+00
        -11   -1    0    0    0    0  0.00000000000E+00  0.00000000000E+00  0.45593999997E+02  0.45594000000E+02  0.51100000000E-03 0. -1.
         11   -1    0    0    0    0 -0.00000000000E+00 -0.00000000000E+00 -0.45593999997E+02  0.45594000000E+02  0.51100000000E-03 0.  1.
    9900012    2    1    2    0    0 -0.70271040221E+00 -0.73997831876E+00  0.59299522521E+00  0.90007740216E+02  0.90000001586E+02 0.  0.
        -12    1    1    2    0    0  0.70271040221E+00  0.73997831876E+00 -0.59299522521E+00  0.11802597844E+01  0.00000000000E+00 0.  1.
         11    1    3    3    0    0 -0.18418242799E+02  0.27009960005E+02 -0.22076916652E+02  0.39448192055E+02  0.51100000000E-03 0. -1.
        -11    1    3    3    0    0  0.73310568184E+01  0.17163485174E+01 -0.48239707812E+01  0.89420881603E+01  0.51100000000E-03 0.  1.
        -12    1    3    3    0    0  0.10384475579E+02 -0.29466286841E+02  0.27493882658E+02  0.41617460000E+02  0.00000000000E+00 0.  1.
</event>
<event>
 7    1  0.3757412E-015  0.9000766E+02  0.7816164E-02  0.1186339E+00
        -11   -1    0    0    0    0  0.00000000000E+00  0.00000000000E+00  0.45593999997E+02  0.45594000000E+02  0.51100000000E-03 0. -1.
         11   -1    0    0    0    0 -0.00000000000E+00 -0.00000000000E+00 -0.45593999997E+02  0.45594000000E+02  0.51100000000E-03 0.  1.
    9900012    2    1    2    0    0  0.83579040536E+00 -0.71257594433E+00  0.43231041379E+00  0.90007660061E+02  0.89999920374E+02 0.  0.
        -12    1    1    2    0    0 -0.83579040536E+00  0.71257594433E+00 -0.43231041379E+00  0.11803399392E+01  0.00000000000E+00 0.  1.
         11    1    3    3    0    0 -0.87473397640E+01 -0.25700552516E+01 -0.11538274163E+01  0.91898016796E+01  0.51100000000E-03 0. -1.
        -11    1    3    3    0    0 -0.12160904606E+02  0.12459928474E+02 -0.33760494721E+02  0.37985634422E+02  0.51100000000E-03 0.  1.
         12    1    3    3    0    0  0.21744034775E+02 -0.10602449166E+02  0.35346632551E+02  0.42832223959E+02  0.00000000000E+00 0. -1.
</event>
<event>
 7    1  0.3757412E-015  0.9000774E+02  0.7816164E-02  0.1186339E+00
        -11   -1    0    0    0    0  0.00000000000E+00  0.00000000000E+00  0.45593999997E+02  0.45594000000E+02  0.51100000000E-03 0.  1.
         11   -1    0    0    0    0 -0.00000000000E+00 -0.00000000000E+00 -0.45593999997E+02  0.45594000000E+02  0.51100000000E-03 0. -1.
    9900012    2    1    2    0    0 -0.11480588896E+01 -0.20326795212E+00 -0.18348464127E+00  0.90007735755E+02  0.89999997067E+02 0.  0.
        -12    1    1    2    0    0  0.11480588896E+01  0.20326795212E+00  0.18348464127E+00  0.11802642449E+01  0.00000000000E+00 0.  1.
         11    1    3    3    0    0 -0.20560529519E+02  0.15893745493E+02 -0.29289513029E+02  0.39156379986E+02  0.51100000000E-03 0. -1.
        -11    1    3    3    0    0 -0.39277607670E+01  0.75150904105E+01  0.65170849102E+01  0.10694684872E+02  0.51100000000E-03 0.  1.
        -12    1    3    3    0    0  0.23340231396E+02 -0.23612103856E+02  0.22588943477E+02  0.40156670897E+02  0.00000000000E+00 0.  1.
</event>
<event>
 7    1  0.3757412E-015  0.9000768E+02  0.7816164E-02  0.1186339E+00
        -11   -1    0    0    0    0  0.00000000000E+00  0.00000000000E+00  0.45593999997E+02  0.45594000000E+02  0.51100000000E-03 0.  1.
         11   -1    0    0    0    0 -0.00000000000E+00 -0.00000000000E+00 -0.45593999997E+02  0.45594000000E+02  0.51100000000E-03 0. -1.
    9900012    2    1    2    0    0  0.72149638019E+00 -0.18123905486E+00 -0.91637757111E+00  0.90007681198E+02  0.89999941790E+02 0.  0.
        -12    1    1    2    0    0 -0.72149638019E+00  0.18123905486E+00  0.91637757111E+00  0.11803188020E+01  0.00000000000E+00 0.  1.
         11    1    3    3    0    0  0.52248193242E+00  0.30538699970E+02 -0.65407790490E+01  0.31235668299E+02  0.51100000000E-03 0. -1.
        -11    1    3    3    0    0 -0.11053681438E+02  0.10575255121E+02 -0.15423186803E+01  0.15375260693E+02  0.51100000000E-03 0.  1.
        -12    1    3    3    0    0  0.11252695886E+02 -0.41295194146E+02  0.71667201581E+01  0.43396752206E+02  0.00000000000E+00 0.  1.
</event>
<event>
 7    1  0.3757412E-015  0.9000776E+02  0.7816164E-02  0.1186339E+00
        -11   -1    0    0    0    0  0.00000000000E+00  0.00000000000E+00  0.45593999997E+02  0.45594000000E+02  0.51100000000E-03 0. -1.
         11   -1    0    0    0    0 -0.00000000000E+00 -0.00000000000E+00 -0.45593999997E+02  0.45594000000E+02  0.51100000000E-03 0.  1.
    9900012    2    1    2    0    0  0.72635866564E+00  0.31383076296E+00  0.87571921681E+00  0.90007758158E+02  0.90000019766E+02 0.  0.
        -12    1    1    2    0    0 -0.72635866564E+00 -0.31383076296E+00 -0.87571921681E+00  0.11802418420E+01  0.00000000000E+00 0.  1.
         11    1    3    3    0    0  0.21048154785E+02  0.12601781354E+02  0.32612386622E+02  0.40809281721E+02  0.51100000000E-03 0. -1.
        -11    1    3    3    0    0 -0.61566913277E+01  0.56186807346E+01  0.18960332835E+01  0.85480619894E+01  0.51100000000E-03 0.  1.
        -12    1    3    3    0    0 -0.14165104791E+02 -0.17906631326E+02 -0.33632700688E+02  0.40650414448E+02  0.00000000000E+00 0.  1.
</event>
<event>
 7    1  0.3757412E-015  0.9000769E+02  0.7816164E-02  0.1186339E+00
        -11   -1    0    0    0    0  0.00000000000E+00  0.00000000000E+00  0.45593999997E+02  0.45594000000E+02  0.51100000000E-03 0.  1.
         11   -1    0    0    0    0 -0.00000000000E+00 -0.00000000000E+00 -0.45593999997E+02  0.45594000000E+02  0.51100000000E-03 0. -1.
    9900012    2    1    2    0    0 -0.89149144341E+00  0.32528209390E+00 -0.70183533956E+00  0.90007687212E+02  0.89999947883E+02 0.  0.
        -12    1    1    2    0    0  0.89149144341E+00 -0.32528209390E+00  0.70183533956E+00  0.11803127883E+01  0.00000000000E+00 0.  1.
         11    1    3    3    0    0  0.48328284296E+01 -0.60635127763E+01 -0.67940432837E+01  0.10309289123E+02  0.51100000000E-03 0. -1.
        -11    1    3    3    0    0  0.72342302371E+01 -0.10573766451E+02 -0.32866374941E+02  0.35275164438E+02  0.51100000000E-03 0.  1.
         12    1    3    3    0    0 -0.12958550110E+02  0.16962561321E+02  0.38958582885E+02  0.44423233651E+02  0.00000000000E+00 0. -1.
</event>
<event>
 7    1  0.3757412E-015  0.9000781E+02  0.7816164E-02  0.1186339E+00
        -11   -1    0    0    0    0  0.00000000000E+00  0.00000000000E+00  0.45593999997E+02  0.45594000000E+02  0.51100000000E-03 0. -1.
         11   -1    0    0    0    0 -0.00000000000E+00 -0.00000000000E+00 -0.45593999997E+02  0.45594000000E+02  0.51100000000E-03 0.  1.
    9900012    2    1    2    0    0 -0.73184669323E+00  0.10578446451E+00  0.91981755967E+00  0.90007807525E+02  0.90000069784E+02 0.  0.
        -12    1    1    2    0    0  0.73184669323E+00 -0.10578446451E+00 -0.91981755967E+00  0.11801924751E+01  0.00000000000E+00 0.  1.
         11    1    3    3    0    0 -0.50626245447E+01  0.47251736579E+01 -0.10692977979E+02  0.12739592289E+02  0.51100000000E-03 0. -1.
        -11    1    3    3    0    0  0.35776310736E+02  0.15480653411E+02  0.40800203114E+01  0.39194918114E+02  0.51100000000E-03 0.  1.
         12    1    3    3    0    0 -0.31445532885E+02 -0.20100042604E+02  0.75327752275E+01  0.38073297122E+02  0.00000000000E+00 0. -1.
</event>
<event>
 7    1  0.3757412E-015  0.9000777E+02  0.7816164E-02  0.1186339E+00
        -11   -1    0    0    0    0  0.00000000000E+00  0.00000000000E+00  0.45593999997E+02  0.45594000000E+02  0.51100000000E-03 0.  1.
         11   -1    0    0    0    0 -0.00000000000E+00 -0.00000000000E+00 -0.45593999997E+02  0.45594000000E+02  0.51100000000E-03 0. -1.
    9900012    2    1    2    0    0 -0.87822826279E+00 -0.52940584657E+00 -0.58427447475E+00  0.90007774558E+02  0.90000036382E+02 0.  0.
        -12    1    1    2    0    0  0.87822826279E+00  0.52940584657E+00  0.58427447475E+00  0.11802254419E+01  0.00000000000E+00 0.  1.
         11    1    3    3    0    0  0.44249343910E+01  0.90652067941E+01  0.18413561488E+01  0.10254199691E+02  0.51100000000E-03 0. -1.
        -11    1    3    3    0    0 -0.12416708349E+02  0.26539782202E+02  0.21051381780E+02  0.36079015517E+02  0.51100000000E-03 0.  1.
         12    1    3    3    0    0  0.71135456950E+01 -0.36134394842E+02 -0.23477012404E+02  0.43674559350E+02  0.00000000000E+00 0. -1.
</event>
<event>
 7    1  0.3757412E-015  0.9000771E+02  0.7816164E-02  0.1186339E+00
        -11   -1    0    0    0    0  0.00000000000E+00  0.00000000000E+00  0.45593999997E+02  0.45594000000E+02  0.51100000000E-03 0. -1.
         11   -1    0    0    0    0 -0.00000000000E+00 -0.00000000000E+00 -0.45593999997E+02  0.45594000000E+02  0.51100000000E-03 0.  1.
    9900012    2    1    2    0    0 -0.71584557650E+00  0.30071287507E+00  0.88894436556E+00  0.90007709693E+02  0.89999970661E+02 0.  0.
        -12    1    1    2    0    0  0.71584557650E+00 -0.30071287507E+00 -0.88894436556E+00  0.11802903065E+01  0.00000000000E+00 0.  1.
         11    1    3    3    0    0  0.56458762113E+01 -0.25424994412E+02  0.21651848613E+02  0.33868994784E+02  0.51100000000E-03 0. -1.
        -11    1    3    3    0    0  0.23909515708E+01 -0.41786337395E+01  0.10776802324E+02  0.11803266409E+02  0.51100000000E-03 0.  1.
        -12    1    3    3    0    0 -0.87526733587E+01  0.29904341027E+02 -0.31539706571E+02  0.44335448500E+02  0.00000000000E+00 0.  1.
</event>
<event>
 7    1  0.3757412E-015  0.9000779E+02  0.7816164E-02  0.1186339E+00
        -11   -1    0    0    0    0  0.00000000000E+00  0.00000000000E+00  0.45593999997E+02  0.45594000000E+02  0.51100000000E-03 0. -1.
         11   -1    0    0    0    0 -0.00000000000E+00 -0.00000000000E+00 -0.45593999997E+02  0.45594000000E+02  0.51100000000E-03 0.  1.
    9900012    2    1    2    0    0 -0.49796483561E-02  0.17607267463E+00  0.11669920354E+01  0.90007789513E+02  0.90000051534E+02 0.  0.
        -12    1    1    2    0    0  0.49796483561E-02 -0.17607267463E+00 -0.11669920354E+01  0.11802104873E+01  0.00000000000E+00 0.  1.
         11    1    3    3    0    0  0.26035796211E+01  0.10858304021E+02  0.38383979296E+01  0.11807399882E+02  0.51100000000E-03 0. -1.
        -11    1    3    3    0    0 -0.11100855238E+02  0.32164547322E+02  0.29778403724E+01  0.34156326281E+02  0.51100000000E-03 0.  1.
         12    1    3    3    0    0  0.84922959685E+01 -0.42846778668E+02 -0.56492462667E+01  0.44044063350E+02  0.00000000000E+00 0. -1.
</event>
<event>
 7    1  0.3757412E-015  0.9000772E+02  0.7816164E-02  0.1186339E+00
        -11   -1    0    0    0    0  0.00000000000E+00  0.00000000000E+00  0.45593999997E+02  0.45594000000E+02  0.51100000000E-03 0. -1.
         11   -1    0    0    0    0 -0.00000000000E+00 -0.00000000000E+00 -0.45593999997E+02  0.45594000000E+02  0.51100000000E-03 0.  1.
    9900012    2    1    2    0    0 -0.78500176945E+00 -0.65827176198E+00  0.58609502334E+00  0.90007721699E+02  0.89999982826E+02 0.  0.
        -12    1    1    2    0    0  0.78500176945E+00  0.65827176198E+00 -0.58609502334E+00  0.11802783007E+01  0.00000000000E+00 0.  1.
         11    1    3    3    0    0 -0.11439391147E+02  0.43752092027E+01 -0.14135663163E+02  0.18703451519E+02  0.51100000000E-03 0. -1.
        -11    1    3    3    0    0  0.18229759685E+02  0.26996329004E+02 -0.49669583243E+01  0.32951427786E+02  0.51100000000E-03 0.  1.
         12    1    3    3    0    0 -0.75753703069E+01 -0.32029809969E+02  0.19688716511E+02  0.38352842395E+02  0.00000000000E+00 0. -1.
</event>
<event>
 7    1  0.3757412E-015  0.9000777E+02  0.7816164E-02  0.1186339E+00
        -11   -1    0    0    0    0  0.00000000000E+00  0.00000000000E+00  0.45593999997E+02  0.45594000000E+02  0.51100000000E-03 0.  1.
         11   -1    0    0    0    0 -0.00000000000E+00 -0.00000000000E+00 -0.45593999997E+02  0.45594000000E+02  0.51100000000E-03 0. -1.
    9900012    2    1    2    0    0  0.11130610600E+01  0.32777793416E+00  0.21589569176E+00  0.90007765173E+02  0.90000026873E+02 0.  0.
        -12    1    1    2    0    0 -0.11130610600E+01 -0.32777793416E+00 -0.21589569176E+00  0.11802348271E+01  0.00000000000E+00 0.  1.
         11    1    3    3    0    0 -0.28345747828E+02  0.21674741482E+02 -0.20019599044E+02  0.40915280573E+02  0.51100000000E-03 0. -1.
        -11    1    3    3    0    0  0.68811082731E+01 -0.10412017018E+02 -0.50597266404E+01  0.13467018356E+02  0.51100000000E-03 0.  1.
        -12    1    3    3    0    0  0.22577700615E+02 -0.10934946530E+02  0.25295221376E+02  0.35625466244E+02  0.00000000000E+00 0.  1.
</event>
<event>
 7    1  0.3757412E-015  0.9000771E+02  0.7816164E-02  0.1186339E+00
        -11   -1    0    0    0    0  0.00000000000E+00  0.00000000000E+00  0.45593999997E+02  0.45594000000E+02  0.51100000000E-03 0.  1.
         11   -1    0    0    0    0 -0.00000000000E+00 -0.00000000000E+00 -0.45593999997E+02  0.45594000000E+02  0.51100000000E-03 0. -1.
    9900012    2    1    2    0    0 -0.16216649878E+00  0.92389864612E+00 -0.71637054896E+00  0.90007714676E+02  0.89999975710E+02 0.  0.
        -12    1    1    2    0    0  0.16216649878E+00 -0.92389864612E+00  0.71637054896E+00  0.11802853236E+01  0.00000000000E+00 0.  1.
         11    1    3    3    0    0 -0.33841729672E+02  0.78155093997E+00  0.21848004442E+02  0.40289065358E+02  0.51100000000E-03 0. -1.
        -11    1    3    3    0    0  0.76993374313E+01  0.31431241653E+01  0.65476327156E+01  0.10584447120E+02  0.51100000000E-03 0.  1.
        -12    1    3    3    0    0  0.25980225742E+02 -0.30007764591E+01 -0.29112007707E+02  0.39134202198E+02  0.00000000000E+00 0.  1.
</event>
<event>
 7    1  0.3757412E-015  0.9000755E+02  0.7816164E-02  0.1186339E+00
        -11   -1    0    0    0    0  0.00000000000E+00  0.00000000000E+00  0.45593999997E+02  0.45594000000E+02  0.51100000000E-03 0. -1.
         11   -1    0    0    0    0 -0.00000000000E+00 -0.00000000000E+00 -0.45593999997E+02  0.45594000000E+02  0.51100000000E-03 0.  1.
    9900012    2    1    2    0    0 -0.70010992058E+00 -0.85408932373E+00  0.41693639530E+00  0.90007551597E+02  0.89999810478E+02 0.  0.
        -12    1    1    2    0    0  0.70010992058E+00  0.85408932373E+00 -0.41693639530E+00  0.11804484027E+01  0.00000000000E+00 0.  1.
         11    1    3    3    0    0  0.38651441825E+01 -0.50972774140E+01 -0.52000187124E+01  0.82438929795E+01  0.51100000000E-03 0. -1.
        -11    1    3    3    0    0  0.36241657646E+02 -0.68746730041E+01  0.12426271255E+02  0.38924684911E+02  0.51100000000E-03 0.  1.
         12    1    3    3    0    0 -0.40806911749E+02  0.11117861094E+02 -0.68093161476E+01  0.42838973707E+02  0.00000000000E+00 0. -1.
</event>
<event>
 7    1  0.3757412E-015  0.9000783E+02  0.7816164E-02  0.1186339E+00
        -11   -1    0    0    0    0  0.00000000000E+00  0.00000000000E+00  0.45593999997E+02  0.45594000000E+02  0.51100000000E-03 0. -1.
         11   -1    0    0    0    0 -0.00000000000E+00 -0.00000000000E+00 -0.45593999997E+02  0.45594000000E+02  0.51100000000E-03 0.  1.
    9900012    2    1    2    0    0 -0.54033415866E+00 -0.94528787284E+00  0.45527080714E+00  0.90007829812E+02  0.90000092365E+02 0.  0.
        -12    1    1    2    0    0  0.54033415866E+00  0.94528787284E+00 -0.45527080714E+00  0.11801701883E+01  0.00000000000E+00 0.  1.
         11    1    3    3    0    0  0.36399343636E+01 -0.73668211860E+01 -0.27364744977E+01  0.86606852786E+01  0.51100000000E-03 0. -1.
        -11    1    3    3    0    0  0.20805205688E+02  0.88447578163E+01 -0.31347634023E+02  0.38649197710E+02  0.51100000000E-03 0.  1.
         12    1    3    3    0    0 -0.24985474210E+02 -0.24232245031E+01  0.34539379328E+02  0.42697946823E+02  0.00000000000E+00 0. -1.
</event>
<event>
 7    1  0.3757412E-015  0.9000737E+02  0.7816164E-02  0.1186340E+00
        -11   -1    0    0    0    0  0.00000000000E+00  0.00000000000E+00  0.45593999997E+02  0.45594000000E+02  0.51100000000E-03 0. -1.
         11   -1    0    0    0    0 -0.00000000000E+00 -0.00000000000E+00 -0.45593999997E+02  0.45594000000E+02  0.51100000000E-03 0.  1.
    9900012    2    1    2    0    0 -0.55218835194E+00 -0.43966184117E+00  0.94640119170E+00  0.90007368929E+02  0.89999625398E+02 0.  0.
        -12    1    1    2    0    0  0.55218835194E+00  0.43966184117E+00 -0.94640119170E+00  0.11806310712E+01  0.00000000000E+00 0.  1.
         11    1    3    3    0    0  0.11068909497E+02  0.39160499438E+02 -0.15026893365E+02  0.43380560141E+02  0.51100000000E-03 0. -1.
        -11    1    3    3    0    0  0.81832201294E+00 -0.85949703984E+01 -0.17495960493E+01  0.88093276510E+01  0.51100000000E-03 0.  1.
        -12    1    3    3    0    0 -0.12439419862E+02 -0.31005190881E+02  0.17722890606E+02  0.37817481136E+02  0.00000000000E+00 0.  1.
</event>
<event>
 7    1  0.3757412E-015  0.9000778E+02  0.7816164E-02  0.1186339E+00
        -11   -1    0    0    0    0  0.00000000000E+00  0.00000000000E+00  0.45593999997E+02  0.45594000000E+02  0.51100000000E-03 0. -1.
         11   -1    0    0    0    0 -0.00000000000E+00 -0.00000000000E+00 -0.45593999997E+02  0.45594000000E+02  0.51100000000E-03 0.  1.
    9900012    2    1    2    0    0  0.10900758416E+01  0.37163481504E+00  0.25794530663E+00  0.90007782411E+02  0.90000044339E+02 0.  0.
        -12    1    1    2    0    0 -0.10900758416E+01 -0.37163481504E+00 -0.25794530663E+00  0.11802175890E+01  0.00000000000E+00 0.  1.
         11    1    3    3    0    0  0.89411441024E+01  0.20417151819E+02  0.14919282208E+02  0.26821430389E+02  0.51100000000E-03 0. -1.
        -11    1    3    3    0    0  0.22835384796E+02 -0.70977753676E+01 -0.17686595785E+02  0.29743047670E+02  0.51100000000E-03 0.  1.
        -12    1    3    3    0    0 -0.30686453057E+02 -0.12947741636E+02  0.30252588841E+01  0.33443304352E+02  0.00000000000E+00 0.  1.
</event>
<event>
 7    1  0.3757412E-015  0.9000769E+02  0.7816164E-02  0.1186339E+00
        -11   -1    0    0    0    0  0.00000000000E+00  0.00000000000E+00  0.45593999997E+02  0.45594000000E+02  0.51100000000E-03 0.  1.
         11   -1    0    0    0    0 -0.00000000000E+00 -0.00000000000E+00 -0.45593999997E+02  0.45594000000E+02  0.51100000000E-03 0. -1.
    9900012    2    1    2    0    0 -0.38348407916E+00 -0.97546200046E+00 -0.54271942889E+00  0.90007690493E+02  0.89999951208E+02 0.  0.
        -12    1    1    2    0    0  0.38348407916E+00  0.97546200046E+00  0.54271942889E+00  0.11803095068E+01  0.00000000000E+00 0.  1.
         11    1    3    3    0    0  0.31117310055E+00 -0.32338280496E+02 -0.22067671355E+02  0.39151543181E+02  0.51100000000E-03 0. -1.
        -11    1    3    3    0    0 -0.80699736274E+01  0.35294968816E+01 -0.62886340574E+01  0.10822603252E+02  0.51100000000E-03 0.  1.
        -12    1    3    3    0    0  0.73753164477E+01  0.27833321614E+02  0.27813585984E+02  0.40033544060E+02  0.00000000000E+00 0.  1.
</event>
<event>
 7    1  0.3757412E-015  0.9000777E+02  0.7816164E-02  0.1186339E+00
        -11   -1    0    0    0    0  0.00000000000E+00  0.00000000000E+00  0.45593999997E+02  0.45594000000E+02  0.51100000000E-03 0. -1.
         11   -1    0    0    0    0 -0.00000000000E+00 -0.00000000000E+00 -0.45593999997E+02  0.45594000000E+02  0.51100000000E-03 0.  1.
    9900012    2    1    2    0    0  0.61186195407E+00  0.45134213345E-01  0.10082310446E+01  0.90007770367E+02  0.90000032135E+02 0.  0.
        -12    1    1    2    0    0 -0.61186195407E+00 -0.45134213345E-01 -0.10082310446E+01  0.11802296333E+01  0.00000000000E+00 0.  1.
         11    1    3    3    0    0 -0.24938447065E+02  0.18312231691E+02 -0.15019237278E+02  0.34392462258E+02  0.51100000000E-03 0. -1.
        -11    1    3    3    0    0 -0.77262924130E+01  0.68970494636E+01  0.81012315715E+01  0.13148948209E+02  0.51100000000E-03 0.  1.
        -12    1    3    3    0    0  0.33276601432E+02 -0.25164146941E+02  0.79262367513E+01  0.42466359900E+02  0.00000000000E+00 0.  1.
</event>
<event>
 7    1  0.3757412E-015  0.9000767E+02  0.7816164E-02  0.1186339E+00
        -11   -1    0    0    0    0  0.00000000000E+00  0.00000000000E+00  0.45593999997E+02  0.45594000000E+02  0.51100000000E-03 0.  1.
         11   -1    0    0    0    0 -0.00000000000E+00 -0.00000000000E+00 -0.45593999997E+02  0.45594000000E+02  0.51100000000E-03 0. -1.
    9900012    2    1    2    0    0  0.62213656353E+00 -0.86833295326E+00  0.50211447935E+00  0.90007671668E+02  0.89999932134E+02 0.  0.
        -12    1    1    2    0    0 -0.62213656353E+00  0.86833295326E+00 -0.50211447935E+00  0.11803283322E+01  0.00000000000E+00 0.  1.
         11    1    3    3    0    0 -0.12670658011E+02  0.25806869541E+02 -0.17319345424E+02  0.33563370154E+02  0.51100000000E-03 0. -1.
        -11    1    3    3    0    0 -0.42554973913E+01  0.10505076823E+02 -0.69074170193E+00  0.11355308075E+02  0.51100000000E-03 0.  1.
        -12    1    3    3    0    0  0.17548291966E+02 -0.37180279317E+02  0.18512201606E+02  0.45088993439E+02  0.00000000000E+00 0.  1.
</event>
<event>
 7    1  0.3757412E-015  0.9000772E+02  0.7816164E-02  0.1186339E+00
        -11   -1    0    0    0    0  0.00000000000E+00  0.00000000000E+00  0.45593999997E+02  0.45594000000E+02  0.51100000000E-03 0. -1.
         11   -1    0    0    0    0 -0.00000000000E+00 -0.00000000000E+00 -0.45593999997E+02  0.45594000000E+02  0.51100000000E-03 0.  1.
    9900012    2    1    2    0    0 -0.10099417241E+01 -0.76553529012E-01  0.60599435735E+00  0.90007715335E+02  0.89999976378E+02 0.  0.
        -12    1    1    2    0    0  0.10099417241E+01  0.76553529012E-01 -0.60599435735E+00  0.11802846649E+01  0.00000000000E+00 0.  1.
         11    1    3    3    0    0 -0.25409304223E+01  0.75639636172E+01 -0.32029586093E+01  0.85981868511E+01  0.51100000000E-03 0. -1.
        -11    1    3    3    0    0 -0.19031017110E+02 -0.22150354722E+02 -0.28264716182E+02  0.40641259917E+02  0.51100000000E-03 0.  1.
         12    1    3    3    0    0  0.20562005808E+02  0.14509837575E+02  0.32073669149E+02  0.40768268567E+02  0.00000000000E+00 0. -1.
</event>
<event>
 7    1  0.3757412E-015  0.9000771E+02  0.7816164E-02  0.1186339E+00
        -11   -1    0    0    0    0  0.00000000000E+00  0.00000000000E+00  0.45593999997E+02  0.45594000000E+02  0.51100000000E-03 0.  1.
         11   -1    0    0    0    0 -0.00000000000E+00 -0.00000000000E+00 -0.45593999997E+02  0.45594000000E+02  0.51100000000E-03 0. -1.
    9900012    2    1    2    0    0 -0.10492739120E+01 -0.48784554314E+00 -0.23263507106E+00  0.90007708471E+02  0.89999969423E+02 0.  0.
        -12    1    1    2    0    0  0.10492739120E+01  0.48784554314E+00  0.23263507106E+00  0.11802915287E+01  0.00000000000E+00 0.  1.
         11    1    3    3    0    0  0.57259002745E+01 -0.34247568628E+01  0.49659820492E+01  0.83172033459E+01  0.51100000000E-03 0. -1.
        -11    1    3    3    0    0 -0.10910728285E+02  0.10973781814E+02  0.36172489203E+02  0.39343574499E+02  0.51100000000E-03 0.  1.
         12    1    3    3    0    0  0.41355540981E+01 -0.80368704946E+01 -0.41371106323E+02  0.42346930626E+02  0.00000000000E+00 0. -1.
</event>
<event>
 7    1  0.3843684E-015  0.9000705E+02  0.7816164E-02  0.1186340E+00
        -11   -1    0    0    0    0  0.00000000000E+00  0.00000000000E+00  0.45593999997E+02  0.45594000000E+02  0.51100000000E-03 0.  1.
         11   -1    0    0    0    0 -0.00000000000E+00 -0.00000000000E+00 -0.45593999997E+02  0.45594000000E+02  0.51100000000E-03 0. -1.
    9900012    2    1    2    0    0  0.86636075755E+00  0.22282949495E+00 -0.77097332556E+00  0.90007053848E+02  0.89999306156E+02 0.  0.
        -12    1    1    2    0    0 -0.86636075755E+00 -0.22282949495E+00  0.77097332556E+00  0.11809461524E+01  0.00000000000E+00 0.  1.
         11    1    3    3    0    0  0.19591150980E+02  0.18996922578E+02 -0.23526605970E+02  0.36030507253E+02  0.51100000000E-03 0. -1.
        -11    1    3    3    0    0  0.67359078515E+01  0.65283693870E+01 -0.29420553232E+01  0.98309588151E+01  0.51100000000E-03 0.  1.
        -12    1    3    3    0    0 -0.25460698074E+02 -0.25302462470E+02  0.25697687968E+02  0.44145587779E+02  0.00000000000E+00 0.  1.
</event>
<event>
 7    1  0.3757412E-015  0.9000773E+02  0.7816164E-02  0.1186339E+00
        -11   -1    0    0    0    0  0.00000000000E+00  0.00000000000E+00  0.45593999997E+02  0.45594000000E+02  0.51100000000E-03 0.  1.
         11   -1    0    0    0    0 -0.00000000000E+00 -0.00000000000E+00 -0.45593999997E+02  0.45594000000E+02  0.51100000000E-03 0. -1.
    9900012    2    1    2    0    0 -0.53565730064E-01  0.11692355339E+01 -0.15185282401E+00  0.90007728717E+02  0.89999989936E+02 0.  0.
        -12    1    1    2    0    0  0.53565730064E-01 -0.11692355339E+01  0.15185282401E+00  0.11802712829E+01  0.00000000000E+00 0.  1.
         11    1    3    3    0    0 -0.93001953868E+01  0.27221976553E+01  0.21431140161E+01  0.99245620686E+01  0.51100000000E-03 0. -1.
        -11    1    3    3    0    0  0.18620062813E+01  0.17085518997E+02  0.34295192247E+02  0.38360686103E+02  0.51100000000E-03 0.  1.
         12    1    3    3    0    0  0.73846233754E+01 -0.18638481118E+02 -0.36590159087E+02  0.41722480545E+02  0.00000000000E+00 0. -1.
</event>
<event>
 7    1  0.3757412E-015  0.9000834E+02  0.7816164E-02  0.1186338E+00
        -11   -1    0    0    0    0  0.00000000000E+00  0.00000000000E+00  0.45593999997E+02  0.45594000000E+02  0.51100000000E-03 0. -1.
         11   -1    0    0    0    0 -0.00000000000E+00 -0.00000000000E+00 -0.45593999997E+02  0.45594000000E+02  0.51100000000E-03 0.  1.
    9900012    2    1    2    0    0 -0.19158800854E+00 -0.17207299077E+00  0.11512096090E+01  0.90008339607E+02  0.90000608888E+02 0.  0.
        -12    1    1    2    0    0  0.19158800854E+00  0.17207299077E+00 -0.11512096090E+01  0.11796603931E+01  0.00000000000E+00 0.  1.
         11    1    3    3    0    0  0.11363782482E+02 -0.53630307526E+01  0.17759392157E+02  0.21755313402E+02  0.51100000000E-03 0. -1.
        -11    1    3    3    0    0  0.13069781706E+02 -0.10205422520E+02  0.17059048964E+02  0.23790355073E+02  0.51100000000E-03 0.  1.
        -12    1    3    3    0    0 -0.24625152197E+02  0.15396380282E+02 -0.33667231513E+02  0.44462671132E+02  0.00000000000E+00 0.  1.
</event>
<event>
 7    1  0.3757412E-015  0.9000781E+02  0.7816164E-02  0.1186339E+00
        -11   -1    0    0    0    0  0.00000000000E+00  0.00000000000E+00  0.45593999997E+02  0.45594000000E+02  0.51100000000E-03 0. -1.
         11   -1    0    0    0    0 -0.00000000000E+00 -0.00000000000E+00 -0.45593999997E+02  0.45594000000E+02  0.51100000000E-03 0.  1.
    9900012    2    1    2    0    0  0.11369911734E+01 -0.28093914209E+00  0.14549740199E+00  0.90007811361E+02  0.90000073671E+02 0.  0.
        -12    1    1    2    0    0 -0.11369911734E+01  0.28093914209E+00 -0.14549740199E+00  0.11801886391E+01  0.00000000000E+00 0.  1.
         11    1    3    3    0    0  0.27835833477E+02 -0.27881791768E+02 -0.24001713053E+01  0.39471366332E+02  0.51100000000E-03 0. -1.
        -11    1    3    3    0    0  0.68668109612E+00 -0.33009138799E+01  0.81950319738E+01  0.88614960748E+01  0.51100000000E-03 0.  1.
        -12    1    3    3    0    0 -0.27385523399E+02  0.30901766506E+02 -0.56493632665E+01  0.41674948954E+02  0.00000000000E+00 0.  1.
</event>
<event>
 7    1  0.3757412E-015  0.9000781E+02  0.7816164E-02  0.1186339E+00
        -11   -1    0    0    0    0  0.00000000000E+00  0.00000000000E+00  0.45593999997E+02  0.45594000000E+02  0.51100000000E-03 0. -1.
         11   -1    0    0    0    0 -0.00000000000E+00 -0.00000000000E+00 -0.45593999997E+02  0.45594000000E+02  0.51100000000E-03 0.  1.
    9900012    2    1    2    0    0  0.10969229647E+01  0.72572659654E-01  0.42935776718E+00  0.90007807273E+02  0.90000069529E+02 0.  0.
        -12    1    1    2    0    0 -0.10969229647E+01 -0.72572659654E-01 -0.42935776718E+00  0.11801927273E+01  0.00000000000E+00 0.  1.
         11    1    3    3    0    0 -0.14216577292E+02 -0.14397846337E+02  0.16784946745E+02  0.26289607957E+02  0.51100000000E-03 0. -1.
        -11    1    3    3    0    0 -0.10669347531E+02  0.10196851832E+02  0.16155073361E+02  0.21881434130E+02  0.51100000000E-03 0.  1.
        -12    1    3    3    0    0  0.25982847788E+02  0.42735671654E+01 -0.32510662339E+02  0.41836765186E+02  0.00000000000E+00 0.  1.
</event>
<event>
 7    1  0.3757412E-015  0.9000781E+02  0.7816164E-02  0.1186339E+00
        -11   -1    0    0    0    0  0.00000000000E+00  0.00000000000E+00  0.45593999997E+02  0.45594000000E+02  0.51100000000E-03 0. -1.
         11   -1    0    0    0    0 -0.00000000000E+00 -0.00000000000E+00 -0.45593999997E+02  0.45594000000E+02  0.51100000000E-03 0.  1.
    9900012    2    1    2    0    0 -0.28464843037E+00  0.54776777666E-01  0.11440368498E+01  0.90007811228E+02  0.90000073536E+02 0.  0.
        -12    1    1    2    0    0  0.28464843037E+00 -0.54776777666E-01 -0.11440368498E+01  0.11801887722E+01  0.00000000000E+00 0.  1.
         11    1    3    3    0    0 -0.30302636335E+02 -0.19585603703E+02  0.10315727099E+02  0.37526788660E+02  0.51100000000E-03 0. -1.
        -11    1    3    3    0    0 -0.13278441877E+01 -0.67808734223E+01 -0.91744328451E+01  0.11485366030E+02  0.51100000000E-03 0.  1.
        -12    1    3    3    0    0  0.31345832093E+02  0.26421253903E+02  0.27425957084E-02  0.40995656537E+02  0.00000000000E+00 0.  1.
</event>
<event>
 7    1  0.3757412E-015  0.9000774E+02  0.7816164E-02  0.1186339E+00
        -11   -1    0    0    0    0  0.00000000000E+00  0.00000000000E+00  0.45593999997E+02  0.45594000000E+02  0.51100000000E-03 0.  1.
         11   -1    0    0    0    0 -0.00000000000E+00 -0.00000000000E+00 -0.45593999997E+02  0.45594000000E+02  0.51100000000E-03 0. -1.
    9900012    2    1    2    0    0  0.16396349031E+00  0.11686937428E+01 -0.16676671442E-01  0.90007742739E+02  0.90000004143E+02 0.  0.
        -12    1    1    2    0    0 -0.16396349031E+00 -0.11686937428E+01  0.16676671442E-01  0.11802572609E+01  0.00000000000E+00 0.  1.
         11    1    3    3    0    0 -0.32873170541E+02  0.42563545656E+00 -0.28412033606E+02  0.43451929311E+02  0.51100000000E-03 0. -1.
        -11    1    3    3    0    0  0.96803647486E+00  0.22774601370E+00  0.90406987735E+01  0.90952293780E+01  0.51100000000E-03 0.  1.
        -12    1    3    3    0    0  0.32069097557E+02  0.51531227253E+00  0.19354658161E+02  0.37460584050E+02  0.00000000000E+00 0.  1.
</event>
<event>
 7    1  0.3757412E-015  0.9000771E+02  0.7816164E-02  0.1186339E+00
        -11   -1    0    0    0    0  0.00000000000E+00  0.00000000000E+00  0.45593999997E+02  0.45594000000E+02  0.51100000000E-03 0.  1.
         11   -1    0    0    0    0 -0.00000000000E+00 -0.00000000000E+00 -0.45593999997E+02  0.45594000000E+02  0.51100000000E-03 0. -1.
    9900012    2    1    2    0    0  0.10664847314E+01  0.38638684321E+00 -0.32617639369E+00  0.90007713800E+02  0.89999974822E+02 0.  0.
        -12    1    1    2    0    0 -0.10664847314E+01 -0.38638684321E+00  0.32617639369E+00  0.11802862003E+01  0.00000000000E+00 0.  1.
         11    1    3    3    0    0 -0.16352410149E+02  0.29502607056E+02  0.12319406451E+02  0.35910624004E+02  0.51100000000E-03 0. -1.
        -11    1    3    3    0    0 -0.31435038705E+01  0.79313084010E+01 -0.76011901948E+01  0.11426520125E+02  0.51100000000E-03 0.  1.
        -12    1    3    3    0    0  0.20562398751E+02 -0.37047528614E+02 -0.50443926498E+01  0.42670569670E+02  0.00000000000E+00 0.  1.
</event>
<event>
 7    1  0.3757412E-015  0.9000772E+02  0.7816164E-02  0.1186339E+00
        -11   -1    0    0    0    0  0.00000000000E+00  0.00000000000E+00  0.45593999997E+02  0.45594000000E+02  0.51100000000E-03 0. -1.
         11   -1    0    0    0    0 -0.00000000000E+00 -0.00000000000E+00 -0.45593999997E+02  0.45594000000E+02  0.51100000000E-03 0.  1.
    9900012    2    1    2    0    0  0.56189657437E+00 -0.10354047824E+01 -0.72534237829E-01  0.90007723744E+02  0.89999984898E+02 0.  0.
        -12    1    1    2    0    0 -0.56189657437E+00  0.10354047824E+01  0.72534237829E-01  0.11802762555E+01  0.00000000000E+00 0.  1.
         11    1    3    3    0    0  0.11370692564E+02  0.83637071280E+00 -0.96106533652E+01  0.14911633838E+02  0.51100000000E-03 0. -1.
        -11    1    3    3    0    0 -0.25652946045E+02  0.25387785528E+02 -0.11172815992E+02  0.37781544599E+02  0.51100000000E-03 0.  1.
         12    1    3    3    0    0  0.14844150056E+02 -0.27259561023E+02  0.20710935119E+02  0.37314545308E+02  0.00000000000E+00 0. -1.
</event>
<event>
 7    1  0.3951476E-015  0.9000750E+02  0.7816164E-02  0.1186340E+00
        -11   -1    0    0    0    0  0.00000000000E+00  0.00000000000E+00  0.45593999997E+02  0.45594000000E+02  0.51100000000E-03 0. -1.
         11   -1    0    0    0    0 -0.00000000000E+00 -0.00000000000E+00 -0.45593999997E+02  0.45594000000E+02  0.51100000000E-03 0.  1.
    9900012    2    1    2    0    0 -0.18307065240E+00  0.83213443096E+00  0.81708458278E+00  0.90007495959E+02  0.89999754106E+02 0.  0.
        -12    1    1    2    0    0  0.18307065240E+00 -0.83213443096E+00 -0.81708458278E+00  0.11805040408E+01  0.00000000000E+00 0.  1.
         11    1    3    3    0    0  0.23579503401E+02  0.13214696201E+02  0.26596995658E+02  0.37921252018E+02  0.51100000000E-03 0. -1.
        -11    1    3    3    0    0  0.79531331684E+01 -0.14821314195E+01  0.22293153991E+01  0.83915962813E+01  0.51100000000E-03 0.  1.
        -12    1    3    3    0    0 -0.31715707222E+02 -0.10900430350E+02 -0.28009226475E+02  0.43694647660E+02  0.00000000000E+00 0.  1.
</event>
<event>
 7    1  0.3757412E-015  0.9000776E+02  0.7816164E-02  0.1186339E+00
        -11   -1    0    0    0    0  0.00000000000E+00  0.00000000000E+00  0.45593999997E+02  0.45594000000E+02  0.51100000000E-03 0.  1.
         11   -1    0    0    0    0 -0.00000000000E+00 -0.00000000000E+00 -0.45593999997E+02  0.45594000000E+02  0.51100000000E-03 0. -1.
    9900012    2    1    2    0    0  0.91038119663E+00 -0.27540805187E+00  0.69879334587E+00  0.90007764575E+02  0.90000026267E+02 0.  0.
        -12    1    1    2    0    0 -0.91038119663E+00  0.27540805187E+00 -0.69879334587E+00  0.11802354250E+01  0.00000000000E+00 0.  1.
         11    1    3    3    0    0  0.10733145317E+02  0.87210869476E+00  0.39537581169E+01  0.11471407301E+02  0.51100000000E-03 0. -1.
        -11    1    3    3    0    0  0.13970682421E+02  0.25366634880E+02  0.20708503065E+02  0.35601800964E+02  0.51100000000E-03 0.  1.
         12    1    3    3    0    0 -0.23793446541E+02 -0.26514151627E+02 -0.23963467836E+02  0.42934556310E+02  0.00000000000E+00 0. -1.
</event>
<event>
 7    1  0.3757412E-015  0.9000773E+02  0.7816164E-02  0.1186339E+00
        -11   -1    0    0    0    0  0.00000000000E+00  0.00000000000E+00  0.45593999997E+02  0.45594000000E+02  0.51100000000E-03 0.  1.
         11   -1    0    0    0    0 -0.00000000000E+00 -0.00000000000E+00 -0.45593999997E+02  0.45594000000E+02  0.51100000000E-03 0. -1.
    9900012    2    1    2    0    0 -0.11583241973E+01  0.19550901036E+00  0.11445246830E+00  0.90007729655E+02  0.89999990887E+02 0.  0.
        -12    1    1    2    0    0  0.11583241973E+01 -0.19550901036E+00 -0.11445246830E+00  0.11802703448E+01  0.00000000000E+00 0.  1.
         11    1    3    3    0    0 -0.90030400501E+01 -0.10670765528E+02 -0.30411468822E+02  0.33463075221E+02  0.51100000000E-03 0. -1.
        -11    1    3    3    0    0 -0.15023649864E+02 -0.56808542359E+01  0.16210771064E+01  0.16143421302E+02  0.51100000000E-03 0.  1.
        -12    1    3    3    0    0  0.22868365717E+02  0.16547128774E+02  0.28904844184E+02  0.40401233131E+02  0.00000000000E+00 0.  1.
</event>
<event>
 7    1  0.3757412E-015  0.9000739E+02  0.7816164E-02  0.1186340E+00
        -11   -1    0    0    0    0  0.00000000000E+00  0.00000000000E+00  0.45593999997E+02  0.45594000000E+02  0.51100000000E-03 0.  1.
         11   -1    0    0    0    0 -0.00000000000E+00 -0.00000000000E+00 -0.45593999997E+02  0.45594000000E+02  0.51100000000E-03 0. -1.
    9900012    2    1    2    0    0 -0.67011166289E+00 -0.10017288578E+00 -0.96682746795E+00  0.90007390157E+02  0.89999646907E+02 0.  0.
        -12    1    1    2    0    0  0.67011166289E+00  0.10017288578E+00  0.96682746795E+00  0.11806098427E+01  0.00000000000E+00 0.  1.
         11    1    3    3    0    0 -0.80087491007E+01 -0.53549581756E+01 -0.25874973740E+01  0.99755091170E+01  0.51100000000E-03 0. -1.
        -11    1    3    3    0    0  0.85162763816E+01 -0.39216825167E+01  0.39727071928E+02  0.40818461527E+02  0.51100000000E-03 0.  1.
         12    1    3    3    0    0 -0.11776389437E+01  0.91764678066E+01 -0.38106402022E+02  0.39213419514E+02  0.00000000000E+00 0. -1.
</event>
<event>
 7    1  0.3757412E-015  0.9000776E+02  0.7816164E-02  0.1186339E+00
        -11   -1    0    0    0    0  0.00000000000E+00  0.00000000000E+00  0.45593999997E+02  0.45594000000E+02  0.51100000000E-03 0.  1.
         11   -1    0    0    0    0 -0.00000000000E+00 -0.00000000000E+00 -0.45593999997E+02  0.45594000000E+02  0.51100000000E-03 0. -1.
    9900012    2    1    2    0    0 -0.34586207329E+00 -0.30600293185E+00 -0.10861428389E+01  0.90007760772E+02  0.90000022415E+02 0.  0.
        -12    1    1    2    0    0  0.34586207329E+00  0.30600293185E+00  0.10861428389E+01  0.11802392277E+01  0.00000000000E+00 0.  1.
         11    1    3    3    0    0 -0.88833112102E+01 -0.38227288064E+02 -0.90443361404E+01  0.40274542670E+02  0.51100000000E-03 0. -1.
        -11    1    3    3    0    0  0.10937595815E+02  0.17336254057E+01 -0.36393940317E+01  0.11656828404E+02  0.51100000000E-03 0.  1.
        -12    1    3    3    0    0 -0.24001466781E+01  0.36187659726E+02  0.11597587333E+02  0.38076389699E+02  0.00000000000E+00 0.  1.
</event>
<event>
 7    1  0.3757412E-015  0.9000772E+02  0.7816164E-02  0.1186339E+00
        -11   -1    0    0    0    0  0.00000000000E+00  0.00000000000E+00  0.45593999997E+02  0.45594000000E+02  0.51100000000E-03 0. -1.
         11   -1    0    0    0    0 -0.00000000000E+00 -0.00000000000E+00 -0.45593999997E+02  0.45594000000E+02  0.51100000000E-03 0.  1.
    9900012    2    1    2    0    0  0.28137177039E+00 -0.78037616826E+00  0.83958940852E+00  0.90007717232E+02  0.89999978300E+02 0.  0.
        -12    1    1    2    0    0 -0.28137177039E+00  0.78037616826E+00 -0.83958940852E+00  0.11802827678E+01  0.00000000000E+00 0.  1.
         11    1    3    3    0    0 -0.13157010198E+02 -0.34906470924E+02 -0.38049177624E+01  0.37497280291E+02  0.51100000000E-03 0. -1.
        -11    1    3    3    0    0  0.81899933538E+01 -0.67527368169E+01 -0.18883246359E+01  0.10781521963E+02  0.51100000000E-03 0.  1.
        -12    1    3    3    0    0  0.52483886150E+01  0.40878831573E+02  0.65328318068E+01  0.41728914978E+02  0.00000000000E+00 0.  1.
</event>
<event>
 7    1  0.3757412E-015  0.9000774E+02  0.7816164E-02  0.1186339E+00
        -11   -1    0    0    0    0  0.00000000000E+00  0.00000000000E+00  0.45593999997E+02  0.45594000000E+02  0.51100000000E-03 0.  1.
         11   -1    0    0    0    0 -0.00000000000E+00 -0.00000000000E+00 -0.45593999997E+02  0.45594000000E+02  0.51100000000E-03 0. -1.
    9900012    2    1    2    0    0 -0.46603715142E+00  0.99971663110E+00 -0.41999097200E+00  0.90007738849E+02  0.90000000201E+02 0.  0.
        -12    1    1    2    0    0  0.46603715142E+00 -0.99971663110E+00  0.41999097200E+00  0.11802611514E+01  0.00000000000E+00 0.  1.
         11    1    3    3    0    0 -0.36542816357E+01  0.35854750999E+02  0.15662600886E+02  0.39296742998E+02  0.51100000000E-03 0. -1.
        -11    1    3    3    0    0  0.90862304703E+01  0.16169403367E+01  0.22022637623E+01  0.94881002393E+01  0.51100000000E-03 0.  1.
        -12    1    3    3    0    0 -0.58979859860E+01 -0.36471974705E+02 -0.18284855620E+02  0.41222895611E+02  0.00000000000E+00 0.  1.
</event>
<event>
 7    1  0.3757412E-015  0.9000768E+02  0.7816164E-02  0.1186339E+00
        -11   -1    0    0    0    0  0.00000000000E+00  0.00000000000E+00  0.45593999997E+02  0.45594000000E+02  0.51100000000E-03 0.  1.
         11   -1    0    0    0    0 -0.00000000000E+00 -0.00000000000E+00 -0.45593999997E+02  0.45594000000E+02  0.51100000000E-03 0. -1.
    9900012    2    1    2    0    0  0.67109089374E+00 -0.63757813738E+00 -0.73231861397E+00  0.90007678255E+02  0.89999938808E+02 0.  0.
        -12    1    1    2    0    0 -0.67109089374E+00  0.63757813738E+00  0.73231861397E+00  0.11803217448E+01  0.00000000000E+00 0.  1.
         11    1    3    3    0    0 -0.17561502969E+02 -0.28771991450E+02 -0.20422693816E+02  0.39412184683E+02  0.51100000000E-03 0. -1.
        -11    1    3    3    0    0 -0.78398167136E+01  0.15271639655E+01 -0.88981516797E+00  0.80365867863E+01  0.51100000000E-03 0.  1.
        -12    1    3    3    0    0  0.26072410576E+02  0.26607249347E+02  0.20580190370E+02  0.42558906785E+02  0.00000000000E+00 0.  1.
</event>
<event>
 7    1  0.3757412E-015  0.9000778E+02  0.7816164E-02  0.1186339E+00
        -11   -1    0    0    0    0  0.00000000000E+00  0.00000000000E+00  0.45593999997E+02  0.45594000000E+02  0.51100000000E-03 0.  1.
         11   -1    0    0    0    0 -0.00000000000E+00 -0.00000000000E+00 -0.45593999997E+02  0.45594000000E+02  0.51100000000E-03 0. -1.
    9900012    2    1    2    0    0  0.25387565518E+00  0.41421975564E+00 -0.10755866644E+01  0.90007780729E+02  0.90000042635E+02 0.  0.
        -12    1    1    2    0    0 -0.25387565518E+00 -0.41421975564E+00  0.10755866644E+01  0.11802192707E+01  0.00000000000E+00 0.  1.
         11    1    3    3    0    0  0.49920755781E+01  0.76265320401E+01 -0.39552501283E+01  0.99362373852E+01  0.51100000000E-03 0. -1.
        -11    1    3    3    0    0 -0.13423251285E+02  0.34105157607E+02  0.80809590894E+01  0.37531951062E+02  0.51100000000E-03 0.  1.
         12    1    3    3    0    0  0.86850513626E+01 -0.41317469891E+02 -0.52012956255E+01  0.42539592282E+02  0.00000000000E+00 0. -1.
</event>
<event>
 7    1  0.3757412E-015  0.9000765E+02  0.7816164E-02  0.1186339E+00
        -11   -1    0    0    0    0  0.00000000000E+00  0.00000000000E+00  0.45593999997E+02  0.45594000000E+02  0.51100000000E-03 0. -1.
         11   -1    0    0    0    0 -0.00000000000E+00 -0.00000000000E+00 -0.45593999997E+02  0.45594000000E+02  0.51100000000E-03 0.  1.
    9900012    2    1    2    0    0  0.12277385798E+00 -0.10626896880E+01  0.49883475893E+00  0.90007653055E+02  0.89999913276E+02 0.  0.
        -12    1    1    2    0    0 -0.12277385798E+00  0.10626896880E+01 -0.49883475893E+00  0.11803469447E+01  0.00000000000E+00 0.  1.
         11    1    3    3    0    0  0.17233402860E+01  0.33096168351E+01 -0.10336483594E+02  0.10989374809E+02  0.51100000000E-03 0. -1.
        -11    1    3    3    0    0  0.97113629301E+01  0.30092808325E+02 -0.14485383176E+02  0.34780943186E+02  0.51100000000E-03 0.  1.
         12    1    3    3    0    0 -0.11311929358E+02 -0.34465114848E+02  0.25320701529E+02  0.44237335061E+02  0.00000000000E+00 0. -1.
</event>
<event>
 7    1  0.4981573E-015  0.9000769E+02  0.7816164E-02  0.1186339E+00
        -11   -1    0    0    0    0  0.00000000000E+00  0.00000000000E+00  0.45593999997E+02  0.45594000000E+02  0.51100000000E-03 0. -1.
         11   -1    0    0    0    0 -0.00000000000E+00 -0.00000000000E+00 -0.45593999997E+02  0.45594000000E+02  0.51100000000E-03 0.  1.
    9900012    2    1    2    0    0 -0.26560236350E+00 -0.70604339257E+00  0.90779538719E+00  0.90007688875E+02  0.89999949568E+02 0.  0.
        -12    1    1    2    0    0  0.26560236350E+00  0.70604339257E+00 -0.90779538719E+00  0.11803111254E+01  0.00000000000E+00 0.  1.
         11    1    3    3    0    0  0.14264659288E+02  0.14051355323E+02  0.37049490773E+02  0.42113962742E+02  0.51100000000E-03 0. -1.
        -11    1    3    3    0    0 -0.44489626546E+00 -0.94113307072E+01 -0.77721182921E+00  0.94538424387E+01  0.51100000000E-03 0.  1.
        -12    1    3    3    0    0 -0.14085365387E+02 -0.53460680088E+01 -0.35364483556E+02  0.38439883694E+02  0.00000000000E+00 0.  1.
</event>
<event>
 7    1  0.3757412E-015  0.9000781E+02  0.7816164E-02  0.1186339E+00
        -11   -1    0    0    0    0  0.00000000000E+00  0.00000000000E+00  0.45593999997E+02  0.45594000000E+02  0.51100000000E-03 0.  1.
         11   -1    0    0    0    0 -0.00000000000E+00 -0.00000000000E+00 -0.45593999997E+02  0.45594000000E+02  0.51100000000E-03 0. -1.
    9900012    2    1    2    0    0  0.50953193525E-01  0.11635116189E+01 -0.19102920293E+00  0.90007810324E+02  0.90000072620E+02 0.  0.
        -12    1    1    2    0    0 -0.50953193525E-01 -0.11635116189E+01  0.19102920293E+00  0.11801896762E+01  0.00000000000E+00 0.  1.
         11    1    3    3    0    0  0.12856463942E+02  0.35216522751E+02  0.10459959310E+02  0.38921753414E+02  0.51100000000E-03 0. -1.
        -11    1    3    3    0    0  0.59666860129E+01  0.11269232997E+00  0.62100496490E+01  0.86127091232E+01  0.51100000000E-03 0.  1.
        -12    1    3    3    0    0 -0.18772196761E+02 -0.34165703462E+02 -0.16861038162E+02  0.42473347787E+02  0.00000000000E+00 0.  1.
</event>
<event>
 7    1  0.3757412E-015  0.9000774E+02  0.7816164E-02  0.1186339E+00
        -11   -1    0    0    0    0  0.00000000000E+00  0.00000000000E+00  0.45593999997E+02  0.45594000000E+02  0.51100000000E-03 0. -1.
         11   -1    0    0    0    0 -0.00000000000E+00 -0.00000000000E+00 -0.45593999997E+02  0.45594000000E+02  0.51100000000E-03 0.  1.
    9900012    2    1    2    0    0  0.12661739858E+00  0.87207069963E+00  0.78516628716E+00  0.90007735043E+02  0.89999996345E+02 0.  0.
        -12    1    1    2    0    0 -0.12661739858E+00 -0.87207069963E+00 -0.78516628716E+00  0.11802649572E+01  0.00000000000E+00 0.  1.
         11    1    3    3    0    0  0.10251172334E+00 -0.70265572456E+01  0.64158515668E+01  0.95155749678E+01  0.51100000000E-03 0. -1.
        -11    1    3    3    0    0 -0.26445572713E+02 -0.24380971976E+02 -0.12715008452E+02  0.38150642862E+02  0.51100000000E-03 0.  1.
         12    1    3    3    0    0  0.26469678389E+02  0.32279599921E+02  0.70843231728E+01  0.42341517213E+02  0.00000000000E+00 0. -1.
</event>
<event>
 7    1  0.3757412E-015  0.9000778E+02  0.7816164E-02  0.1186339E+00
        -11   -1    0    0    0    0  0.00000000000E+00  0.00000000000E+00  0.45593999997E+02  0.45594000000E+02  0.51100000000E-03 0. -1.
         11   -1    0    0    0    0 -0.00000000000E+00 -0.00000000000E+00 -0.45593999997E+02  0.45594000000E+02  0.51100000000E-03 0.  1.
    9900012    2    1    2    0    0 -0.19809790577E+00  0.92751534890E+00  0.70241397111E+00  0.90007782694E+02  0.90000044625E+02 0.  0.
        -12    1    1    2    0    0  0.19809790577E+00 -0.92751534890E+00 -0.70241397111E+00  0.11802173061E+01  0.00000000000E+00 0.  1.
         11    1    3    3    0    0 -0.62155003567E+01  0.87310606578E+01 -0.11581727563E+01  0.10779852934E+02  0.51100000000E-03 0. -1.
        -11    1    3    3    0    0 -0.21610363213E+02 -0.32315743062E+02 -0.10519950214E+02  0.40273867465E+02  0.51100000000E-03 0.  1.
         12    1    3    3    0    0  0.27627765664E+02  0.24512197753E+02  0.12380536941E+02  0.38954062294E+02  0.00000000000E+00 0. -1.
</event>
<event>
 7    1  0.3757412E-015  0.9000763E+02  0.7816164E-02  0.1186339E+00
        -11   -1    0    0    0    0  0.00000000000E+00  0.00000000000E+00  0.45593999997E+02  0.45594000000E+02  0.51100000000E-03 0.  1.
         11   -1    0    0    0    0 -0.00000000000E+00 -0.00000000000E+00 -0.45593999997E+02  0.45594000000E+02  0.51100000000E-03 0. -1.
    9900012    2    1    2    0    0  0.23947472915E+00  0.66998750594E+00 -0.94183114680E+00  0.90007628316E+02  0.89999888209E+02 0.  0.
        -12    1    1    2    0    0 -0.23947472915E+00 -0.66998750594E+00  0.94183114680E+00  0.11803716843E+01  0.00000000000E+00 0.  1.
         11    1    3    3    0    0 -0.34502815283E+02 -0.88865531656E+01 -0.12379739073E+02  0.37718338105E+02  0.51100000000E-03 0. -1.
        -11    1    3    3    0    0 -0.72379772438E+01  0.45311910514E+01  0.20159999367E+00  0.85417006354E+01  0.51100000000E-03 0.  1.
        -12    1    3    3    0    0  0.41980267256E+02  0.50253496201E+01  0.11236307933E+02  0.43747589575E+02  0.00000000000E+00 0.  1.
</event>
<event>
 7    1  0.3757412E-015  0.9000780E+02  0.7816164E-02  0.1186339E+00
        -11   -1    0    0    0    0  0.00000000000E+00  0.00000000000E+00  0.45593999997E+02  0.45594000000E+02  0.51100000000E-03 0. -1.
         11   -1    0    0    0    0 -0.00000000000E+00 -0.00000000000E+00 -0.45593999997E+02  0.45594000000E+02  0.51100000000E-03 0.  1.
    9900012    2    1    2    0    0 -0.78747057643E+00  0.86599729866E+00 -0.15104332431E+00  0.90007798612E+02  0.90000060754E+02 0.  0.
        -12    1    1    2    0    0  0.78747057643E+00 -0.86599729866E+00  0.15104332431E+00  0.11802013878E+01  0.00000000000E+00 0.  1.
         11    1    3    3    0    0 -0.73239621117E+01  0.42950427259E+01 -0.57918724387E+01  0.10277820763E+02  0.51100000000E-03 0. -1.
        -11    1    3    3    0    0 -0.13223161703E+02 -0.35875380172E+02  0.14202939283E+02  0.40787478378E+02  0.51100000000E-03 0.  1.
         12    1    3    3    0    0  0.19759653239E+02  0.32446334745E+02 -0.85621101687E+01  0.38942499471E+02  0.00000000000E+00 0. -1.
</event>
<event>
 7    1  0.3757412E-015  0.9000757E+02  0.7816164E-02  0.1186339E+00
        -11   -1    0    0    0    0  0.00000000000E+00  0.00000000000E+00  0.45593999997E+02  0.45594000000E+02  0.51100000000E-03 0.  1.
         11   -1    0    0    0    0 -0.00000000000E+00 -0.00000000000E+00 -0.45593999997E+02  0.45594000000E+02  0.51100000000E-03 0. -1.
    9900012    2    1    2    0    0  0.10958515446E+01 -0.21808870630E+00  0.38073461665E+00  0.90007571205E+02  0.89999830345E+02 0.  0.
        -12    1    1    2    0    0 -0.10958515446E+01  0.21808870630E+00 -0.38073461665E+00  0.11804287949E+01  0.00000000000E+00 0.  1.
         11    1    3    3    0    0 -0.19574506937E+02 -0.87462321800E+01 -0.33599659696E+02  0.39857182930E+02  0.51100000000E-03 0. -1.
        -11    1    3    3    0    0 -0.75799775598E+01  0.25367310984E+01  0.68530661445E+01  0.10528797667E+02  0.51100000000E-03 0.  1.
        -12    1    3    3    0    0  0.28250336042E+02  0.59914123753E+01  0.27127328168E+02  0.39621590608E+02  0.00000000000E+00 0.  1.
</event>
<event>
 7    1  0.3757412E-015  0.9000800E+02  0.7816164E-02  0.1186339E+00
        -11   -1    0    0    0    0  0.00000000000E+00  0.00000000000E+00  0.45593999997E+02  0.45594000000E+02  0.51100000000E-03 0. -1.
         11   -1    0    0    0    0 -0.00000000000E+00 -0.00000000000E+00 -0.45593999997E+02  0.45594000000E+02  0.51100000000E-03 0.  1.
    9900012    2    1    2    0    0 -0.24397897711E+00 -0.18659015362E+00  0.11393244870E+01  0.90007999189E+02  0.90000263978E+02 0.  0.
        -12    1    1    2    0    0  0.24397897711E+00  0.18659015362E+00 -0.11393244870E+01  0.11800008107E+01  0.00000000000E+00 0.  1.
         11    1    3    3    0    0  0.26700615238E+02 -0.94246516802E+01 -0.21626045117E+02  0.35629099638E+02  0.51100000000E-03 0. -1.
        -11    1    3    3    0    0 -0.13319422926E+01  0.78001102907E+01 -0.10008760995E+02  0.12758961076E+02  0.51100000000E-03 0.  1.
        -12    1    3    3    0    0 -0.25612651922E+02  0.14379512358E+01  0.32774130598E+02  0.41619938476E+02  0.00000000000E+00 0.  1.
</event>
<event>
 7    1  0.3757412E-015  0.9000771E+02  0.7816164E-02  0.1186339E+00
        -11   -1    0    0    0    0  0.00000000000E+00  0.00000000000E+00  0.45593999997E+02  0.45594000000E+02  0.51100000000E-03 0. -1.
         11   -1    0    0    0    0 -0.00000000000E+00 -0.00000000000E+00 -0.45593999997E+02  0.45594000000E+02  0.51100000000E-03 0.  1.
    9900012    2    1    2    0    0  0.72585508392E+00  0.89165714192E+00  0.26675539834E+00  0.90007713381E+02  0.89999974397E+02 0.  0.
        -12    1    1    2    0    0 -0.72585508392E+00 -0.89165714192E+00 -0.26675539834E+00  0.11802866195E+01  0.00000000000E+00 0.  1.
         11    1    3    3    0    0  0.95614338393E+01  0.22025622078E+02  0.32588739012E+02  0.40479315157E+02  0.51100000000E-03 0. -1.
        -11    1    3    3    0    0  0.59465491866E+01  0.44919050895E+01 -0.35279178516E+01  0.82452933963E+01  0.51100000000E-03 0.  1.
        -12    1    3    3    0    0 -0.14782127942E+02 -0.25625870025E+02 -0.28794065762E+02  0.41283104827E+02  0.00000000000E+00 0.  1.
</event>
<event>
 7    1  0.3757412E-015  0.9000771E+02  0.7816164E-02  0.1186339E+00
        -11   -1    0    0    0    0  0.00000000000E+00  0.00000000000E+00  0.45593999997E+02  0.45594000000E+02  0.51100000000E-03 0.  1.
         11   -1    0    0    0    0 -0.00000000000E+00 -0.00000000000E+00 -0.45593999997E+02  0.45594000000E+02  0.51100000000E-03 0. -1.
    9900012    2    1    2    0    0  0.82199064687E+00 -0.55797555216E+00 -0.63723635959E+00  0.90007713798E+02  0.89999974820E+02 0.  0.
        -12    1    1    2    0    0 -0.82199064687E+00  0.55797555216E+00  0.63723635959E+00  0.11802862019E+01  0.00000000000E+00 0.  1.
         11    1    3    3    0    0  0.43176839393E+01  0.28348234187E+02 -0.13233663896E+02  0.31581555321E+02  0.51100000000E-03 0. -1.
        -11    1    3    3    0    0  0.43806862714E+01  0.98013079580E+01 -0.84555527129E+01  0.13665738979E+02  0.51100000000E-03 0.  1.
         12    1    3    3    0    0 -0.78763795639E+01 -0.38707517697E+02  0.21051980249E+02  0.44760419499E+02  0.00000000000E+00 0. -1.
</event>
<event>
 7    1  0.3757412E-015  0.9000776E+02  0.7816164E-02  0.1186339E+00
        -11   -1    0    0    0    0  0.00000000000E+00  0.00000000000E+00  0.45593999997E+02  0.45594000000E+02  0.51100000000E-03 0.  1.
         11   -1    0    0    0    0 -0.00000000000E+00 -0.00000000000E+00 -0.45593999997E+02  0.45594000000E+02  0.51100000000E-03 0. -1.
    9900012    2    1    2    0    0  0.69200783315E+00 -0.95320262422E+00  0.74199988756E-01  0.90007756075E+02  0.90000017655E+02 0.  0.
        -12    1    1    2    0    0 -0.69200783315E+00  0.95320262422E+00 -0.74199988756E-01  0.11802439249E+01  0.00000000000E+00 0.  1.
         11    1    3    3    0    0  0.30672422075E+02  0.17060131151E+02 -0.19172697438E+02  0.39992972860E+02  0.51100000000E-03 0. -1.
        -11    1    3    3    0    0  0.42289071694E+01 -0.67728734287E+01 -0.19648106258E+01  0.82228919113E+01  0.51100000000E-03 0.  1.
        -12    1    3    3    0    0 -0.34209321412E+02 -0.11240460346E+02  0.21211708053E+02  0.41791891304E+02  0.00000000000E+00 0.  1.
</event>
<event>
 7    1  0.3757412E-015  0.9000774E+02  0.7816164E-02  0.1186339E+00
        -11   -1    0    0    0    0  0.00000000000E+00  0.00000000000E+00  0.45593999997E+02  0.45594000000E+02  0.51100000000E-03 0.  1.
         11   -1    0    0    0    0 -0.00000000000E+00 -0.00000000000E+00 -0.45593999997E+02  0.45594000000E+02  0.51100000000E-03 0. -1.
    9900012    2    1    2    0    0 -0.14697737414E+00 -0.11041674929E+01  0.39017351873E+00  0.90007735803E+02  0.89999997115E+02 0.  0.
        -12    1    1    2    0    0  0.14697737414E+00  0.11041674929E+01 -0.39017351873E+00  0.11802641973E+01  0.00000000000E+00 0.  1.
         11    1    3    3    0    0 -0.28520415714E+01 -0.17578770528E+01  0.61853101555E+01  0.70343681194E+01  0.51100000000E-03 0. -1.
        -11    1    3    3    0    0 -0.22870199408E+02 -0.30746596771E+02 -0.15488708130E+02  0.41331577683E+02  0.51100000000E-03 0.  1.
         12    1    3    3    0    0  0.25575263605E+02  0.31400306331E+02  0.96935714935E+01  0.41641790000E+02  0.00000000000E+00 0. -1.
</event>
<event>
 7    1  0.3757412E-015  0.9000760E+02  0.7816164E-02  0.1186339E+00
        -11   -1    0    0    0    0  0.00000000000E+00  0.00000000000E+00  0.45593999997E+02  0.45594000000E+02  0.51100000000E-03 0.  1.
         11   -1    0    0    0    0 -0.00000000000E+00 -0.00000000000E+00 -0.45593999997E+02  0.45594000000E+02  0.51100000000E-03 0. -1.
    9900012    2    1    2    0    0  0.54850810366E+00 -0.37467727325E+00 -0.97575281932E+00  0.90007602710E+02  0.89999862265E+02 0.  0.
        -12    1    1    2    0    0 -0.54850810366E+00  0.37467727325E+00  0.97575281932E+00  0.11803972904E+01  0.00000000000E+00 0.  1.
         11    1    3    3    0    0  0.25239763487E+02  0.65655101783E+01  0.25346209247E+02  0.36367319234E+02  0.51100000000E-03 0. -1.
        -11    1    3    3    0    0  0.44211723285E+01 -0.38817387601E-01  0.73617947125E+01  0.85874497493E+01  0.51100000000E-03 0.  1.
        -12    1    3    3    0    0 -0.29112427712E+02 -0.69013700639E+01 -0.33683756779E+02  0.45052833726E+02  0.00000000000E+00 0.  1.
</event>
<event>
 7    1  0.3757412E-015  0.9000773E+02  0.7816164E-02  0.1186339E+00
        -11   -1    0    0    0    0  0.00000000000E+00  0.00000000000E+00  0.45593999997E+02  0.45594000000E+02  0.51100000000E-03 0.  1.
         11   -1    0    0    0    0 -0.00000000000E+00 -0.00000000000E+00 -0.45593999997E+02  0.45594000000E+02  0.51100000000E-03 0. -1.
    9900012    2    1    2    0    0  0.20457980844E+00 -0.20281602278E+00 -0.11445696685E+01  0.90007734368E+02  0.89999995661E+02 0.  0.
        -12    1    1    2    0    0 -0.20457980844E+00  0.20281602278E+00  0.11445696685E+01  0.11802656325E+01  0.00000000000E+00 0.  1.
         11    1    3    3    0    0 -0.34934080422E+02 -0.21016593675E+01  0.14131043844E+01  0.35025759253E+02  0.51100000000E-03 0. -1.
        -11    1    3    3    0    0 -0.32171491452E+01 -0.12320583359E+02  0.44309057208E+01  0.13482572036E+02  0.51100000000E-03 0.  1.
        -12    1    3    3    0    0  0.38355809375E+02  0.14219426704E+02 -0.69885797738E+01  0.41499403078E+02  0.00000000000E+00 0.  1.
</event>
<event>
 7    1  0.3757412E-015  0.9000711E+02  0.7816164E-02  0.1186340E+00
        -11   -1    0    0    0    0  0.00000000000E+00  0.00000000000E+00  0.45593999997E+02  0.45594000000E+02  0.51100000000E-03 0.  1.
         11   -1    0    0    0    0 -0.00000000000E+00 -0.00000000000E+00 -0.45593999997E+02  0.45594000000E+02  0.51100000000E-03 0. -1.
    9900012    2    1    2    0    0 -0.86923966252E+00 -0.13492504634E+00  0.78785152513E+00  0.90007113729E+02  0.89999366828E+02 0.  0.
        -12    1    1    2    0    0  0.86923966252E+00  0.13492504634E+00 -0.78785152513E+00  0.11808862709E+01  0.00000000000E+00 0.  1.
         11    1    3    3    0    0 -0.11726383985E+02  0.18232028910E+01 -0.18860259655E+01  0.12016207570E+02  0.51100000000E-03 0. -1.
        -11    1    3    3    0    0  0.18581511187E+02 -0.22941982637E+02  0.30396814395E+02  0.42374207378E+02  0.51100000000E-03 0.  1.
         12    1    3    3    0    0 -0.77243668638E+01  0.20983854700E+02 -0.27722936904E+02  0.35616698782E+02  0.00000000000E+00 0. -1.
</event>
<event>
 7    1  0.3757412E-015  0.9000766E+02  0.7816164E-02  0.1186339E+00
        -11   -1    0    0    0    0  0.00000000000E+00  0.00000000000E+00  0.45593999997E+02  0.45594000000E+02  0.51100000000E-03 0.  1.
         11   -1    0    0    0    0 -0.00000000000E+00 -0.00000000000E+00 -0.45593999997E+02  0.45594000000E+02  0.51100000000E-03 0. -1.
    9900012    2    1    2    0    0  0.46881850131E+00  0.86084198423E+00 -0.65754023844E+00  0.90007661543E+02  0.89999921875E+02 0.  0.
        -12    1    1    2    0    0 -0.46881850131E+00 -0.86084198423E+00  0.65754023844E+00  0.11803384575E+01  0.00000000000E+00 0.  1.
         11    1    3    3    0    0 -0.30802453256E+02  0.31445769302E+00 -0.18734441284E+02  0.36053700236E+02  0.51100000000E-03 0. -1.
        -11    1    3    3    0    0 -0.71879593985E+01 -0.15369211980E+01 -0.51516474866E+01  0.89759879217E+01  0.51100000000E-03 0.  1.
        -12    1    3    3    0    0  0.38459231156E+02  0.20833054892E+01  0.23228548532E+02  0.44977973385E+02  0.00000000000E+00 0.  1.
</event>
<event>
 7    1  0.3757412E-015  0.9000776E+02  0.7816164E-02  0.1186339E+00
        -11   -1    0    0    0    0  0.00000000000E+00  0.00000000000E+00  0.45593999997E+02  0.45594000000E+02  0.51100000000E-03 0.  1.
         11   -1    0    0    0    0 -0.00000000000E+00 -0.00000000000E+00 -0.45593999997E+02  0.45594000000E+02  0.51100000000E-03 0. -1.
    9900012    2    1    2    0    0  0.29307237472E+00 -0.79833644685E+00  0.81837827153E+00  0.90007756172E+02  0.90000017753E+02 0.  0.
        -12    1    1    2    0    0 -0.29307237472E+00  0.79833644685E+00 -0.81837827153E+00  0.11802438284E+01  0.00000000000E+00 0.  1.
         11    1    3    3    0    0 -0.74123021806E+01  0.11699124994E+01  0.13449286790E+02  0.15401111463E+02  0.51100000000E-03 0. -1.
        -11    1    3    3    0    0 -0.88425212053E+01  0.54411072450E+01  0.28135562931E+02  0.29990093882E+02  0.51100000000E-03 0.  1.
         12    1    3    3    0    0  0.16547895761E+02 -0.74093561913E+01 -0.40766471449E+02  0.44616550827E+02  0.00000000000E+00 0. -1.
</event>
<event>
 7    1  0.3757412E-015  0.9000818E+02  0.7816164E-02  0.1186338E+00
        -11   -1    0    0    0    0  0.00000000000E+00  0.00000000000E+00  0.45593999997E+02  0.45594000000E+02  0.51100000000E-03 0.  1.
         11   -1    0    0    0    0 -0.00000000000E+00 -0.00000000000E+00 -0.45593999997E+02  0.45594000000E+02  0.51100000000E-03 0. -1.
    9900012    2    1    2    0    0 -0.10580592425E+01 -0.11529837404E-01 -0.52187271370E+00  0.90008180765E+02  0.90000447950E+02 0.  0.
        -12    1    1    2    0    0  0.10580592425E+01  0.11529837404E-01  0.52187271370E+00  0.11798192349E+01  0.00000000000E+00 0.  1.
         11    1    3    3    0    0  0.38630430023E+01  0.85726873042E+01  0.35105443079E+01  0.10036831694E+02  0.51100000000E-03 0. -1.
        -11    1    3    3    0    0  0.51786261089E+01 -0.42558720588E+02  0.56128645029E+01  0.43238491124E+02  0.51100000000E-03 0.  1.
         12    1    3    3    0    0 -0.10099728354E+02  0.33974503447E+02 -0.96452815244E+01  0.36732857947E+02  0.00000000000E+00 0. -1.
</event>
<event>
 7    1  0.3757412E-015  0.9000775E+02  0.7816164E-02  0.1186339E+00
        -11   -1    0    0    0    0  0.00000000000E+00  0.00000000000E+00  0.45593999997E+02  0.45594000000E+02  0.51100000000E-03 0. -1.
         11   -1    0    0    0    0 -0.00000000000E+00 -0.00000000000E+00 -0.45593999997E+02  0.45594000000E+02  0.51100000000E-03 0.  1.
    9900012    2    1    2    0    0 -0.46285356585E+00  0.36659312895E+00  0.10219449713E+01  0.90007747709E+02  0.90000009179E+02 0.  0.
        -12    1    1    2    0    0  0.46285356585E+00 -0.36659312895E+00 -0.10219449713E+01  0.11802522908E+01  0.00000000000E+00 0.  1.
         11    1    3    3    0    0  0.10757377781E+01 -0.77767897155E+01 -0.13073131627E+01  0.79589407594E+01  0.51100000000E-03 0. -1.
        -11    1    3    3    0    0 -0.23037140448E+02 -0.16154812344E+01 -0.32562119397E+02  0.39920060615E+02  0.51100000000E-03 0.  1.
         12    1    3    3    0    0  0.21498549104E+02  0.97588640788E+01  0.34891377531E+02  0.42128746334E+02  0.00000000000E+00 0. -1.
</event>
<event>
 7    1  0.3757412E-015  0.9000766E+02  0.7816164E-02  0.1186339E+00
        -11   -1    0    0    0    0  0.00000000000E+00  0.00000000000E+00  0.45593999997E+02  0.45594000000E+02  0.51100000000E-03 0. -1.
         11   -1    0    0    0    0 -0.00000000000E+00 -0.00000000000E+00 -0.45593999997E+02  0.45594000000E+02  0.51100000000E-03 0.  1.
    9900012    2    1    2    0    0  0.77070170133E-01  0.41355601464E+00  0.11028249232E+01  0.90007664794E+02  0.89999925169E+02 0.  0.
        -12    1    1    2    0    0 -0.77070170133E-01 -0.41355601464E+00 -0.11028249232E+01  0.11803352064E+01  0.00000000000E+00 0.  1.
         11    1    3    3    0    0  0.14554143134E+01  0.24357003363E+01  0.10529929147E+02  0.10905515808E+02  0.51100000000E-03 0. -1.
        -11    1    3    3    0    0 -0.48957634493E+01  0.37451394388E+02 -0.11311372782E+02  0.39427434558E+02  0.51100000000E-03 0.  1.
         12    1    3    3    0    0  0.35174193061E+01 -0.39473538710E+02  0.18842685587E+01  0.39674714427E+02  0.00000000000E+00 0. -1.
</event>
<event>
 7    1  0.4620690E-015  0.9000755E+02  0.7816164E-02  0.1186339E+00
        -11   -1    0    0    0    0  0.00000000000E+00  0.00000000000E+00  0.45593999997E+02  0.45594000000E+02  0.51100000000E-03 0.  1.
         11   -1    0    0    0    0 -0.00000000000E+00 -0.00000000000E+00 -0.45593999997E+02  0.45594000000E+02  0.51100000000E-03 0. -1.
    9900012    2    1    2    0    0 -0.96785063180E+00  0.65924302582E+00  0.14876776203E+00  0.90007547519E+02  0.89999806346E+02 0.  0.
        -12    1    1    2    0    0  0.96785063180E+00 -0.65924302582E+00 -0.14876776203E+00  0.11804524809E+01  0.00000000000E+00 0.  1.
         11    1    3    3    0    0 -0.32079616250E+02 -0.15783009686E+02 -0.43327673715E+01  0.36013581422E+02  0.51100000000E-03 0. -1.
        -11    1    3    3    0    0 -0.83181357975E+01 -0.10826318943E+01 -0.50685830858E+01  0.98007147557E+01  0.51100000000E-03 0.  1.
        -12    1    3    3    0    0  0.39429901416E+02  0.17524884606E+02  0.95501182193E+01  0.44193251341E+02  0.00000000000E+00 0.  1.
</event>
<event>
 7    1  0.3757412E-015  0.9000758E+02  0.7816164E-02  0.1186339E+00
        -11   -1    0    0    0    0  0.00000000000E+00  0.00000000000E+00  0.45593999997E+02  0.45594000000E+02  0.51100000000E-03 0. -1.
         11   -1    0    0    0    0 -0.00000000000E+00 -0.00000000000E+00 -0.45593999997E+02  0.45594000000E+02  0.51100000000E-03 0.  1.
    9900012    2    1    2    0    0 -0.22943104007E-02  0.67287788361E+00  0.96985858161E+00  0.90007578220E+02  0.89999837452E+02 0.  0.
        -12    1    1    2    0    0  0.22943104007E-02 -0.67287788361E+00 -0.96985858161E+00  0.11804217799E+01  0.00000000000E+00 0.  1.
         11    1    3    3    0    0  0.13290751678E+02  0.38854331655E+02  0.12598406169E+02  0.42953731000E+02  0.51100000000E-03 0. -1.
        -11    1    3    3    0    0 -0.23368244903E+01  0.17901442810E+01 -0.39117348702E+01  0.48956138738E+01  0.51100000000E-03 0.  1.
        -12    1    3    3    0    0 -0.10956221498E+02 -0.39971598052E+02 -0.77168127176E+01  0.42158233347E+02  0.00000000000E+00 0.  1.
</event>
<event>
 7    1  0.3757412E-015  0.9000749E+02  0.7816164E-02  0.1186340E+00
        -11   -1    0    0    0    0  0.00000000000E+00  0.00000000000E+00  0.45593999997E+02  0.45594000000E+02  0.51100000000E-03 0.  1.
         11   -1    0    0    0    0 -0.00000000000E+00 -0.00000000000E+00 -0.45593999997E+02  0.45594000000E+02  0.51100000000E-03 0. -1.
    9900012    2    1    2    0    0 -0.35604811387E+00 -0.41785479308E+00 -0.10450984951E+01  0.90007490046E+02  0.89999748114E+02 0.  0.
        -12    1    1    2    0    0  0.35604811387E+00  0.41785479308E+00  0.10450984951E+01  0.11805099542E+01  0.00000000000E+00 0.  1.
         11    1    3    3    0    0 -0.26443957594E+01  0.84032029707E+01 -0.17166227327E+01  0.89751569884E+01  0.51100000000E-03 0. -1.
        -11    1    3    3    0    0  0.16319445433E+02  0.32938852063E+02 -0.26356525006E+01  0.36854293357E+02  0.51100000000E-03 0.  1.
         12    1    3    3    0    0 -0.14031097788E+02 -0.41759909826E+02  0.33071767382E+01  0.44178039701E+02  0.00000000000E+00 0. -1.
</event>
<event>
 7    1  0.3757412E-015  0.9000774E+02  0.7816164E-02  0.1186339E+00
        -11   -1    0    0    0    0  0.00000000000E+00  0.00000000000E+00  0.45593999997E+02  0.45594000000E+02  0.51100000000E-03 0. -1.
         11   -1    0    0    0    0 -0.00000000000E+00 -0.00000000000E+00 -0.45593999997E+02  0.45594000000E+02  0.51100000000E-03 0.  1.
    9900012    2    1    2    0    0 -0.10445954145E+01  0.18745549622E+00  0.51641815270E+00  0.90007742888E+02  0.90000004294E+02 0.  0.
        -12    1    1    2    0    0  0.10445954145E+01 -0.18745549622E+00 -0.51641815270E+00  0.11802571125E+01  0.00000000000E+00 0.  1.
         11    1    3    3    0    0 -0.27033727606E+02  0.30562977392E+02 -0.57695276810E+00  0.40807485711E+02  0.51100000000E-03 0. -1.
        -11    1    3    3    0    0 -0.51368863072E+01 -0.56581486681E+01 -0.47922779830E+01  0.90204310213E+01  0.51100000000E-03 0.  1.
        -12    1    3    3    0    0  0.31126018498E+02 -0.24717373228E+02  0.58856489038E+01  0.40179826155E+02  0.00000000000E+00 0.  1.
</event>
<event>
 7    1  0.3757412E-015  0.9000751E+02  0.7816164E-02  0.1186340E+00
        -11   -1    0    0    0    0  0.00000000000E+00  0.00000000000E+00  0.45593999997E+02  0.45594000000E+02  0.51100000000E-03 0.  1.
         11   -1    0    0    0    0 -0.00000000000E+00 -0.00000000000E+00 -0.45593999997E+02  0.45594000000E+02  0.51100000000E-03 0. -1.
    9900012    2    1    2    0    0 -0.38759388001E+00 -0.83155014094E+00 -0.74287257532E+00  0.90007506749E+02  0.89999765038E+02 0.  0.
        -12    1    1    2    0    0  0.38759388001E+00  0.83155014094E+00  0.74287257532E+00  0.11804932511E+01  0.00000000000E+00 0.  1.
         11    1    3    3    0    0  0.22133802874E+02 -0.69257222098E+01 -0.22599293261E+02  0.32382077049E+02  0.51100000000E-03 0. -1.
        -11    1    3    3    0    0  0.48789220188E+01 -0.17695410515E+01 -0.12173365998E+02  0.13233517884E+02  0.51100000000E-03 0.  1.
        -12    1    3    3    0    0 -0.27400318773E+02  0.78637131204E+01  0.34029786685E+02  0.44391911816E+02  0.00000000000E+00 0.  1.
</event>
<event>
 7    1  0.3757412E-015  0.9000771E+02  0.7816164E-02  0.1186339E+00
        -11   -1    0    0    0    0  0.00000000000E+00  0.00000000000E+00  0.45593999997E+02  0.45594000000E+02  0.51100000000E-03 0.  1.
         11   -1    0    0    0    0 -0.00000000000E+00 -0.00000000000E+00 -0.45593999997E+02  0.45594000000E+02  0.51100000000E-03 0. -1.
    9900012    2    1    2    0    0 -0.60052005909E-01  0.11549582340E+01 -0.23570596798E+00  0.90007706787E+02  0.89999967716E+02 0.  0.
        -12    1    1    2    0    0  0.60052005909E-01 -0.11549582340E+01  0.23570596798E+00  0.11802932132E+01  0.00000000000E+00 0.  1.
         11    1    3    3    0    0  0.14886755823E+02 -0.31467427867E+02  0.12836930864E+01  0.34834786977E+02  0.51100000000E-03 0. -1.
        -11    1    3    3    0    0  0.72070908029E+00 -0.90198434793E+01  0.47858384229E+01  0.10236271179E+02  0.51100000000E-03 0.  1.
        -12    1    3    3    0    0 -0.15667516910E+02  0.41642229581E+02 -0.63052374773E+01  0.44936648631E+02  0.00000000000E+00 0.  1.
</event>
<event>
 7    1  0.3757412E-015  0.9000773E+02  0.7816164E-02  0.1186339E+00
        -11   -1    0    0    0    0  0.00000000000E+00  0.00000000000E+00  0.45593999997E+02  0.45594000000E+02  0.51100000000E-03 0.  1.
         11   -1    0    0    0    0 -0.00000000000E+00 -0.00000000000E+00 -0.45593999997E+02  0.45594000000E+02  0.51100000000E-03 0. -1.
    9900012    2    1    2    0    0  0.21206196863E+00  0.10023414377E+01 -0.58598707401E+00  0.90007729062E+02  0.89999990286E+02 0.  0.
        -12    1    1    2    0    0 -0.21206196863E+00 -0.10023414377E+01  0.58598707401E+00  0.11802709380E+01  0.00000000000E+00 0.  1.
         11    1    3    3    0    0 -0.17059718223E+02  0.19444879829E+02 -0.30282619428E+02  0.39826804757E+02  0.51100000000E-03 0. -1.
        -11    1    3    3    0    0 -0.92422515223E+01 -0.66576500170E+01  0.94482553296E+01  0.14799089363E+02  0.51100000000E-03 0.  1.
        -12    1    3    3    0    0  0.26514031714E+02 -0.11784888374E+02  0.20248377025E+02  0.35381834942E+02  0.00000000000E+00 0.  1.
</event>
<event>
 7    1  0.3757412E-015  0.9000771E+02  0.7816164E-02  0.1186339E+00
        -11   -1    0    0    0    0  0.00000000000E+00  0.00000000000E+00  0.45593999997E+02  0.45594000000E+02  0.51100000000E-03 0.  1.
         11   -1    0    0    0    0 -0.00000000000E+00 -0.00000000000E+00 -0.45593999997E+02  0.45594000000E+02  0.51100000000E-03 0. -1.
    9900012    2    1    2    0    0  0.60925774184E+00  0.86659715465E+00  0.52046884194E+00  0.90007714679E+02  0.89999975712E+02 0.  0.
        -12    1    1    2    0    0 -0.60925774184E+00 -0.86659715465E+00 -0.52046884194E+00  0.11802853214E+01  0.00000000000E+00 0.  1.
         11    1    3    3    0    0  0.35315668030E+02 -0.12879982743E+02  0.88946765287E+01  0.38629077580E+02  0.51100000000E-03 0. -1.
        -11    1    3    3    0    0 -0.15219893566E+01 -0.80850448862E+00  0.10417928832E+02  0.10559515734E+02  0.51100000000E-03 0.  1.
        -12    1    3    3    0    0 -0.33184420932E+02  0.14555084387E+02 -0.18792136519E+02  0.40819121365E+02  0.00000000000E+00 0.  1.
</event>
<event>
 7    1  0.3757412E-015  0.9000773E+02  0.7816164E-02  0.1186339E+00
        -11   -1    0    0    0    0  0.00000000000E+00  0.00000000000E+00  0.45593999997E+02  0.45594000000E+02  0.51100000000E-03 0. -1.
         11   -1    0    0    0    0 -0.00000000000E+00 -0.00000000000E+00 -0.45593999997E+02  0.45594000000E+02  0.51100000000E-03 0.  1.
    9900012    2    1    2    0    0  0.63774363698E-01  0.48665793943E+00  0.10733768842E+01  0.90007728398E+02  0.89999989613E+02 0.  0.
        -12    1    1    2    0    0 -0.63774363698E-01 -0.48665793943E+00 -0.10733768842E+01  0.11802716023E+01  0.00000000000E+00 0.  1.
         11    1    3    3    0    0  0.23058248894E+01 -0.66470833755E+00 -0.89786923203E+01  0.92938464394E+01  0.51100000000E-03 0. -1.
        -11    1    3    3    0    0 -0.14916968825E+02  0.32218491578E+02 -0.15299244418E+02  0.38660238469E+02  0.51100000000E-03 0.  1.
         12    1    3    3    0    0  0.12674918299E+02 -0.31067125301E+02  0.25351313623E+02  0.42053643489E+02  0.00000000000E+00 0. -1.
</event>
<event>
 7    1  0.3757412E-015  0.9000773E+02  0.7816164E-02  0.1186339E+00
        -11   -1    0    0    0    0  0.00000000000E+00  0.00000000000E+00  0.45593999997E+02  0.45594000000E+02  0.51100000000E-03 0.  1.
         11   -1    0    0    0    0 -0.00000000000E+00 -0.00000000000E+00 -0.45593999997E+02  0.45594000000E+02  0.51100000000E-03 0. -1.
    9900012    2    1    2    0    0  0.81426771641E+00  0.52912155367E+00 -0.67085325022E+00  0.90007726466E+02  0.89999987655E+02 0.  0.
        -12    1    1    2    0    0 -0.81426771641E+00 -0.52912155367E+00  0.67085325022E+00  0.11802735343E+01  0.00000000000E+00 0.  1.
         11    1    3    3    0    0 -0.29467487831E+01 -0.23537109863E+01 -0.67209516490E+01  0.77067811132E+01  0.51100000000E-03 0. -1.
        -11    1    3    3    0    0 -0.33175857062E+02  0.19179030089E+02 -0.87406261632E+01  0.39304849993E+02  0.51100000000E-03 0.  1.
         12    1    3    3    0    0  0.36936873562E+02 -0.16296197549E+02  0.14790724562E+02  0.42996095359E+02  0.00000000000E+00 0. -1.
</event>
<event>
 7    1  0.3757412E-015  0.9000766E+02  0.7816164E-02  0.1186339E+00
        -11   -1    0    0    0    0  0.00000000000E+00  0.00000000000E+00  0.45593999997E+02  0.45594000000E+02  0.51100000000E-03 0. -1.
         11   -1    0    0    0    0 -0.00000000000E+00 -0.00000000000E+00 -0.45593999997E+02  0.45594000000E+02  0.51100000000E-03 0.  1.
    9900012    2    1    2    0    0  0.88317712403E+00  0.78087900013E+00  0.58460959671E-01  0.90007664654E+02  0.89999925027E+02 0.  0.
        -12    1    1    2    0    0 -0.88317712403E+00 -0.78087900013E+00 -0.58460959671E-01  0.11803353460E+01  0.00000000000E+00 0.  1.
         11    1    3    3    0    0  0.24230960370E+01  0.12069280315E+01  0.10267071839E+02  0.10617948676E+02  0.51100000000E-03 0. -1.
        -11    1    3    3    0    0  0.85106333642E+01  0.32848230963E+02 -0.24452501343E+02  0.41825374832E+02  0.51100000000E-03 0.  1.
         12    1    3    3    0    0 -0.10050552277E+02 -0.33274279994E+02  0.14243890463E+02  0.37564341146E+02  0.00000000000E+00 0. -1.
</event>
<event>
 7    1  0.3757412E-015  0.9000789E+02  0.7816164E-02  0.1186339E+00
        -11   -1    0    0    0    0  0.00000000000E+00  0.00000000000E+00  0.45593999997E+02  0.45594000000E+02  0.51100000000E-03 0.  1.
         11   -1    0    0    0    0 -0.00000000000E+00 -0.00000000000E+00 -0.45593999997E+02  0.45594000000E+02  0.51100000000E-03 0. -1.
    9900012    2    1    2    0    0 -0.19851365565E+00  0.11443780355E+01  0.20893528696E+00  0.90007888686E+02  0.90000152016E+02 0.  0.
        -12    1    1    2    0    0  0.19851365565E+00 -0.11443780355E+01 -0.20893528696E+00  0.11801113141E+01  0.00000000000E+00 0.  1.
         11    1    3    3    0    0  0.42370348323E+01  0.79836559593E+01  0.32189342067E+01  0.95944131834E+01  0.51100000000E-03 0. -1.
        -11    1    3    3    0    0  0.36987332356E+02 -0.76090268404E+01  0.53777602541E+01  0.38142893832E+02  0.51100000000E-03 0.  1.
         12    1    3    3    0    0 -0.41422880844E+02  0.76974891660E+00 -0.83877591738E+01  0.42270581670E+02  0.00000000000E+00 0. -1.
</event>
<event>
 7    1  0.3757412E-015  0.9000887E+02  0.7816164E-02  0.1186337E+00
        -11   -1    0    0    0    0  0.00000000000E+00  0.00000000000E+00  0.45593999997E+02  0.45594000000E+02  0.51100000000E-03 0.  1.
         11   -1    0    0    0    0 -0.00000000000E+00 -0.00000000000E+00 -0.45593999997E+02  0.45594000000E+02  0.51100000000E-03 0. -1.
    9900012    2    1    2    0    0 -0.76343925995E-01 -0.11069669279E+00 -0.11714398139E+01  0.90008867526E+02  0.90001143770E+02 0.  0.
        -12    1    1    2    0    0  0.76343925995E-01  0.11069669279E+00  0.11714398139E+01  0.11791324736E+01  0.00000000000E+00 0.  1.
         11    1    3    3    0    0  0.19749514583E+02  0.17257659861E+02 -0.30882184116E+02  0.40516409592E+02  0.51100000000E-03 0. -1.
        -11    1    3    3    0    0 -0.80432285572E+00  0.78798950635E+01  0.49785786586E+01  0.93555292308E+01  0.51100000000E-03 0.  1.
        -12    1    3    3    0    0 -0.19021535653E+02 -0.25248251617E+02  0.24732165644E+02  0.40136928704E+02  0.00000000000E+00 0.  1.
</event>
<event>
 7    1  0.3757412E-015  0.9000756E+02  0.7816164E-02  0.1186339E+00
        -11   -1    0    0    0    0  0.00000000000E+00  0.00000000000E+00  0.45593999997E+02  0.45594000000E+02  0.51100000000E-03 0.  1.
         11   -1    0    0    0    0 -0.00000000000E+00 -0.00000000000E+00 -0.45593999997E+02  0.45594000000E+02  0.51100000000E-03 0. -1.
    9900012    2    1    2    0    0  0.90270178420E+00  0.56018255529E+00  0.51454799243E+00  0.90007561673E+02  0.89999820687E+02 0.  0.
        -12    1    1    2    0    0 -0.90270178420E+00 -0.56018255529E+00 -0.51454799243E+00  0.11804383266E+01  0.00000000000E+00 0.  1.
         11    1    3    3    0    0 -0.76641361570E+01  0.17134291470E+01  0.36147015866E+01  0.86452813891E+01  0.51100000000E-03 0. -1.
        -11    1    3    3    0    0 -0.30924776835E+02 -0.80415016492E+01  0.17349820197E+02  0.36359645656E+02  0.51100000000E-03 0.  1.
         12    1    3    3    0    0  0.39491614777E+02  0.68882550575E+01 -0.20449973792E+02  0.45002634628E+02  0.00000000000E+00 0. -1.
</event>
<event>
 7    1  0.3757412E-015  0.9000777E+02  0.7816164E-02  0.1186339E+00
        -11   -1    0    0    0    0  0.00000000000E+00  0.00000000000E+00  0.45593999997E+02  0.45594000000E+02  0.51100000000E-03 0. -1.
         11   -1    0    0    0    0 -0.00000000000E+00 -0.00000000000E+00 -0.45593999997E+02  0.45594000000E+02  0.51100000000E-03 0.  1.
    9900012    2    1    2    0    0 -0.68824021784E+00 -0.21822226805E+00  0.93361504791E+00  0.90007774338E+02  0.90000036159E+02 0.  0.
        -12    1    1    2    0    0  0.68824021784E+00  0.21822226805E+00 -0.93361504791E+00  0.11802256621E+01  0.00000000000E+00 0.  1.
         11    1    3    3    0    0  0.64202040274E+01 -0.54851651910E+01  0.54791325662E+01  0.10066128892E+02  0.51100000000E-03 0. -1.
        -11    1    3    3    0    0 -0.19025559537E+02 -0.32079907538E+02  0.91724547644E+01  0.38408674932E+02  0.51100000000E-03 0.  1.
         12    1    3    3    0    0  0.11917115292E+02  0.37346850461E+02 -0.13717972283E+02  0.41532970515E+02  0.00000000000E+00 0. -1.
</event>
<event>
 7    1  0.3757412E-015  0.9000767E+02  0.7816164E-02  0.1186339E+00
        -11   -1    0    0    0    0  0.00000000000E+00  0.00000000000E+00  0.45593999997E+02  0.45594000000E+02  0.51100000000E-03 0.  1.
         11   -1    0    0    0    0 -0.00000000000E+00 -0.00000000000E+00 -0.45593999997E+02  0.45594000000E+02  0.51100000000E-03 0. -1.
    9900012    2    1    2    0    0  0.22891863371E+00  0.27978015073E+00 -0.11236113955E+01  0.90007668165E+02  0.89999928584E+02 0.  0.
        -12    1    1    2    0    0 -0.22891863371E+00 -0.27978015073E+00  0.11236113955E+01  0.11803318354E+01  0.00000000000E+00 0.  1.
         11    1    3    3    0    0 -0.94365581585E+01 -0.78928139134E+00 -0.46897348022E+01  0.10567175960E+02  0.51100000000E-03 0. -1.
        -11    1    3    3    0    0  0.19126902490E+02  0.34000800196E+02 -0.13344551617E+02  0.41230690886E+02  0.51100000000E-03 0.  1.
         12    1    3    3    0    0 -0.94614256975E+01 -0.32931738654E+02  0.16910675024E+02  0.38209801318E+02  0.00000000000E+00 0. -1.
</event>
<event>
 7    1  0.3757412E-015  0.9000767E+02  0.7816164E-02  0.1186339E+00
        -11   -1    0    0    0    0  0.00000000000E+00  0.00000000000E+00  0.45593999997E+02  0.45594000000E+02  0.51100000000E-03 0.  1.
         11   -1    0    0    0    0 -0.00000000000E+00 -0.00000000000E+00 -0.45593999997E+02  0.45594000000E+02  0.51100000000E-03 0. -1.
    9900012    2    1    2    0    0 -0.12121974428E+00 -0.86505045125E+00 -0.79383536627E+00  0.90007669073E+02  0.89999929504E+02 0.  0.
        -12    1    1    2    0    0  0.12121974428E+00  0.86505045125E+00  0.79383536627E+00  0.11803309275E+01  0.00000000000E+00 0.  1.
         11    1    3    3    0    0 -0.87911917176E+01 -0.19630869543E+00  0.83621192838E+01  0.12134604571E+02  0.51100000000E-03 0. -1.
        -11    1    3    3    0    0 -0.27898800153E+02  0.10764567739E+02  0.14091584614E+02  0.33057400469E+02  0.51100000000E-03 0.  1.
         12    1    3    3    0    0  0.36568772126E+02 -0.11433309495E+02 -0.23247539264E+02  0.44815664032E+02  0.00000000000E+00 0. -1.
</event>
<event>
 7    1  0.4107120E-015  0.9000774E+02  0.7816164E-02  0.1186339E+00
        -11   -1    0    0    0    0  0.00000000000E+00  0.00000000000E+00  0.45593999997E+02  0.45594000000E+02  0.51100000000E-03 0.  1.
         11   -1    0    0    0    0 -0.00000000000E+00 -0.00000000000E+00 -0.45593999997E+02  0.45594000000E+02  0.51100000000E-03 0. -1.
    9900012    2    1    2    0    0  0.41446603132E+00 -0.11019005930E+01  0.83928875906E-01  0.90007741103E+02  0.90000002485E+02 0.  0.
        -12    1    1    2    0    0 -0.41446603132E+00  0.11019005930E+01 -0.83928875906E-01  0.11802588971E+01  0.00000000000E+00 0.  1.
         11    1    3    3    0    0  0.12316308741E+02  0.22990755518E+02 -0.24889764112E+02  0.36052276739E+02  0.51100000000E-03 0. -1.
        -11    1    3    3    0    0  0.52224536581E+01  0.73258038371E+01 -0.19128060789E+01  0.91978394978E+01  0.51100000000E-03 0.  1.
        -12    1    3    3    0    0 -0.17124296367E+02 -0.31418459948E+02  0.26886499066E+02  0.44757624866E+02  0.00000000000E+00 0.  1.
</event>
<event>
 7    1  0.3757412E-015  0.9000775E+02  0.7816164E-02  0.1186339E+00
        -11   -1    0    0    0    0  0.00000000000E+00  0.00000000000E+00  0.45593999997E+02  0.45594000000E+02  0.51100000000E-03 0.  1.
         11   -1    0    0    0    0 -0.00000000000E+00 -0.00000000000E+00 -0.45593999997E+02  0.45594000000E+02  0.51100000000E-03 0. -1.
    9900012    2    1    2    0    0 -0.29693640808E+00 -0.11061673874E+01  0.28497011453E+00  0.90007751939E+02  0.90000013465E+02 0.  0.
        -12    1    1    2    0    0  0.29693640808E+00  0.11061673874E+01 -0.28497011453E+00  0.11802480610E+01  0.00000000000E+00 0.  1.
         11    1    3    3    0    0 -0.29971874260E+00  0.66155100944E+01  0.74337697416E+01  0.99556887239E+01  0.51100000000E-03 0. -1.
        -11    1    3    3    0    0 -0.95558511627E+01 -0.14500113350E+02  0.33507802171E+02  0.37740434354E+02  0.51100000000E-03 0.  1.
         12    1    3    3    0    0  0.95586334973E+01  0.67784358685E+01 -0.40656601798E+02  0.42311628862E+02  0.00000000000E+00 0. -1.
</event>
<event>
 7    1  0.3757412E-015  0.9000757E+02  0.7816164E-02  0.1186339E+00
        -11   -1    0    0    0    0  0.00000000000E+00  0.00000000000E+00  0.45593999997E+02  0.45594000000E+02  0.51100000000E-03 0.  1.
         11   -1    0    0    0    0 -0.00000000000E+00 -0.00000000000E+00 -0.45593999997E+02  0.45594000000E+02  0.51100000000E-03 0. -1.
    9900012    2    1    2    0    0 -0.82117021231E+00  0.62754991461E+00  0.57032369528E+00  0.90007572734E+02  0.89999831894E+02 0.  0.
        -12    1    1    2    0    0  0.82117021231E+00 -0.62754991461E+00 -0.57032369528E+00  0.11804272660E+01  0.00000000000E+00 0.  1.
         11    1    3    3    0    0  0.38494062419E+01  0.96051370730E-01 -0.67020059137E+01  0.77294267452E+01  0.51100000000E-03 0. -1.
        -11    1    3    3    0    0  0.18017238229E+01  0.38744245872E+02 -0.96800297961E+01  0.39975814864E+02  0.51100000000E-03 0.  1.
         12    1    3    3    0    0 -0.64723002771E+01 -0.38212747328E+02  0.16952359405E+02  0.42302331125E+02  0.00000000000E+00 0. -1.
</event>
<event>
 7    1  0.3757412E-015  0.9000772E+02  0.7816164E-02  0.1186339E+00
        -11   -1    0    0    0    0  0.00000000000E+00  0.00000000000E+00  0.45593999997E+02  0.45594000000E+02  0.51100000000E-03 0. -1.
         11   -1    0    0    0    0 -0.00000000000E+00 -0.00000000000E+00 -0.45593999997E+02  0.45594000000E+02  0.51100000000E-03 0.  1.
    9900012    2    1    2    0    0  0.11624055151E+01  0.18550621849E+00  0.86439100359E-01  0.90007715773E+02  0.89999976821E+02 0.  0.
        -12    1    1    2    0    0 -0.11624055151E+01 -0.18550621849E+00 -0.86439100359E-01  0.11802842270E+01  0.00000000000E+00 0.  1.
         11    1    3    3    0    0 -0.18824684604E+02  0.46878883005E+01  0.30667861437E+02  0.36288603894E+02  0.51100000000E-03 0. -1.
        -11    1    3    3    0    0 -0.10134817156E+02 -0.54633636997E+01 -0.11102961897E+01  0.11567005645E+02  0.51100000000E-03 0.  1.
        -12    1    3    3    0    0  0.30121907276E+02  0.96098161766E+00 -0.29471126147E+02  0.42152106234E+02  0.00000000000E+00 0.  1.
</event>
<event>
 7    1  0.3757412E-015  0.9000773E+02  0.7816164E-02  0.1186339E+00
        -11   -1    0    0    0    0  0.00000000000E+00  0.00000000000E+00  0.45593999997E+02  0.45594000000E+02  0.51100000000E-03 0.  1.
         11   -1    0    0    0    0 -0.00000000000E+00 -0.00000000000E+00 -0.45593999997E+02  0.45594000000E+02  0.51100000000E-03 0. -1.
    9900012    2    1    2    0    0 -0.53737932359E+00 -0.26309668514E+00 -0.10173668393E+01  0.90007732366E+02  0.89999993633E+02 0.  0.
        -12    1    1    2    0    0  0.53737932359E+00  0.26309668514E+00  0.10173668393E+01  0.11802676344E+01  0.00000000000E+00 0.  1.
         11    1    3    3    0    0  0.46910487922E+01 -0.77758572544E+01 -0.32711938846E+01  0.96524921395E+01  0.51100000000E-03 0. -1.
        -11    1    3    3    0    0  0.34993241071E+02  0.74518907424E+01  0.14052590101E+02  0.38438689951E+02  0.51100000000E-03 0.  1.
         12    1    3    3    0    0 -0.40221669187E+02  0.60869826859E-01 -0.11798763056E+02  0.41916550275E+02  0.00000000000E+00 0. -1.
</event>
<event>
 7    1  0.3757412E-015  0.9000777E+02  0.7816164E-02  0.1186339E+00
        -11   -1    0    0    0    0  0.00000000000E+00  0.00000000000E+00  0.45593999997E+02  0.45594000000E+02  0.51100000000E-03 0. -1.
         11   -1    0    0    0    0 -0.00000000000E+00 -0.00000000000E+00 -0.45593999997E+02  0.45594000000E+02  0.51100000000E-03 0.  1.
    9900012    2    1    2    0    0  0.75110674299E+00 -0.90769810523E+00 -0.69834637128E-01  0.90007765250E+02  0.90000026951E+02 0.  0.
        -12    1    1    2    0    0 -0.75110674299E+00  0.90769810523E+00  0.69834637128E-01  0.11802347504E+01  0.00000000000E+00 0.  1.
         11    1    3    3    0    0 -0.31488707381E+02 -0.76210530482E+01  0.20753686506E+02  0.38475117231E+02  0.51100000000E-03 0. -1.
        -11    1    3    3    0    0  0.27382314820E+00 -0.10440925653E+02 -0.19006691314E+01  0.10616046864E+02  0.51100000000E-03 0.  1.
        -12    1    3    3    0    0  0.31965990975E+02  0.17154280596E+02 -0.18922852012E+02  0.40916601155E+02  0.00000000000E+00 0.  1.
</event>
<event>
 7    1  0.3757412E-015  0.9000793E+02  0.7816164E-02  0.1186339E+00
        -11   -1    0    0    0    0  0.00000000000E+00  0.00000000000E+00  0.45593999997E+02  0.45594000000E+02  0.51100000000E-03 0. -1.
         11   -1    0    0    0    0 -0.00000000000E+00 -0.00000000000E+00 -0.45593999997E+02  0.45594000000E+02  0.51100000000E-03 0.  1.
    9900012    2    1    2    0    0 -0.72044013821E+00  0.76354753076E+00  0.53901370682E+00  0.90007926019E+02  0.90000189842E+02 0.  0.
        -12    1    1    2    0    0  0.72044013821E+00 -0.76354753076E+00 -0.53901370682E+00  0.11800739810E+01  0.00000000000E+00 0.  1.
         11    1    3    3    0    0 -0.17131853795E+01 -0.52112918686E+01 -0.85219755949E+01  0.10134921578E+02  0.51100000000E-03 0. -1.
        -11    1    3    3    0    0 -0.36733922683E+02  0.20049613958E+00 -0.87399118173E+01  0.37759864052E+02  0.51100000000E-03 0.  1.
         12    1    3    3    0    0  0.37726667925E+02  0.57743432598E+01  0.17800901119E+02  0.42113140389E+02  0.00000000000E+00 0. -1.
</event>
<event>
 7    1  0.3757412E-015  0.9000774E+02  0.7816164E-02  0.1186339E+00
        -11   -1    0    0    0    0  0.00000000000E+00  0.00000000000E+00  0.45593999997E+02  0.45594000000E+02  0.51100000000E-03 0. -1.
         11   -1    0    0    0    0 -0.00000000000E+00 -0.00000000000E+00 -0.45593999997E+02  0.45594000000E+02  0.51100000000E-03 0.  1.
    9900012    2    1    2    0    0 -0.96923786842E+00 -0.57153892103E+00  0.35628465494E+00  0.90007738360E+02  0.89999999706E+02 0.  0.
        -12    1    1    2    0    0  0.96923786842E+00  0.57153892103E+00 -0.35628465494E+00  0.11802616401E+01  0.00000000000E+00 0.  1.
         11    1    3    3    0    0 -0.46598890781E+00 -0.36983947396E+02  0.14036883985E+02  0.39560885012E+02  0.51100000000E-03 0. -1.
        -11    1    3    3    0    0 -0.22581862060E+01 -0.45376785464E+01 -0.74168974191E+01  0.89833345211E+01  0.51100000000E-03 0.  1.
        -12    1    3    3    0    0  0.17549372454E+01  0.40950087022E+02 -0.62637019114E+01  0.41463518826E+02  0.00000000000E+00 0.  1.
</event>
<event>
 7    1  0.3757412E-015  0.9000775E+02  0.7816164E-02  0.1186339E+00
        -11   -1    0    0    0    0  0.00000000000E+00  0.00000000000E+00  0.45593999997E+02  0.45594000000E+02  0.51100000000E-03 0.  1.
         11   -1    0    0    0    0 -0.00000000000E+00 -0.00000000000E+00 -0.45593999997E+02  0.45594000000E+02  0.51100000000E-03 0. -1.
    9900012    2    1    2    0    0  0.60936324524E+00 -0.20715197758E-01 -0.10105580602E+01  0.90007754146E+02  0.90000015700E+02 0.  0.
        -12    1    1    2    0    0 -0.60936324524E+00  0.20715197758E-01  0.10105580602E+01  0.11802458545E+01  0.00000000000E+00 0.  1.
         11    1    3    3    0    0  0.71176981806E+01  0.28553660274E+02 -0.27615525438E+02  0.40355797451E+02  0.51100000000E-03 0. -1.
        -11    1    3    3    0    0 -0.79652137929E+01 -0.32188673130E+01 -0.43352943760E+01  0.96229161450E+01  0.51100000000E-03 0.  1.
        -12    1    3    3    0    0  0.14568788575E+01 -0.25355508158E+02  0.30940261753E+02  0.40029040550E+02  0.00000000000E+00 0.  1.
</event>
<event>
 7    1  0.3757412E-015  0.9000781E+02  0.7816164E-02  0.1186339E+00
        -11   -1    0    0    0    0  0.00000000000E+00  0.00000000000E+00  0.45593999997E+02  0.45594000000E+02  0.51100000000E-03 0. -1.
         11   -1    0    0    0    0 -0.00000000000E+00 -0.00000000000E+00 -0.45593999997E+02  0.45594000000E+02  0.51100000000E-03 0.  1.
    9900012    2    1    2    0    0 -0.64246977745E+00 -0.66320832516E+00  0.73500125127E+00  0.90007813770E+02  0.90000076112E+02 0.  0.
        -12    1    1    2    0    0  0.64246977745E+00  0.66320832516E+00 -0.73500125127E+00  0.11801862297E+01  0.00000000000E+00 0.  1.
         11    1    3    3    0    0 -0.76905957766E+01  0.38354260329E+01 -0.98834288706E+00  0.86505825339E+01  0.51100000000E-03 0. -1.
        -11    1    3    3    0    0 -0.33991045473E+02 -0.14896728417E+02 -0.78947527605E+01  0.37942467122E+02  0.51100000000E-03 0.  1.
         12    1    3    3    0    0  0.41039171472E+02  0.10398094058E+02  0.96180968988E+01  0.43414764115E+02  0.00000000000E+00 0. -1.
</event>
<event>
 7    1  0.3757412E-015  0.9000771E+02  0.7816164E-02  0.1186339E+00
        -11   -1    0    0    0    0  0.00000000000E+00  0.00000000000E+00  0.45593999997E+02  0.45594000000E+02  0.51100000000E-03 0. -1.
         11   -1    0    0    0    0 -0.00000000000E+00 -0.00000000000E+00 -0.45593999997E+02  0.45594000000E+02  0.51100000000E-03 0.  1.
    9900012    2    1    2    0    0 -0.44413421888E+00 -0.83605584934E+00  0.70486521865E+00  0.90007712084E+02  0.89999973084E+02 0.  0.
        -12    1    1    2    0    0  0.44413421888E+00  0.83605584934E+00 -0.70486521865E+00  0.11802879158E+01  0.00000000000E+00 0.  1.
         11    1    3    3    0    0  0.79795180873E+00 -0.67788396446E+01 -0.62218520150E+01  0.92358452117E+01  0.51100000000E-03 0. -1.
        -11    1    3    3    0    0  0.38355391514E+02  0.53529476302E+01  0.12689102578E+02  0.40752956102E+02  0.51100000000E-03 0.  1.
         12    1    3    3    0    0 -0.39597477542E+02  0.58983616503E+00 -0.57623853446E+01  0.40018910770E+02  0.00000000000E+00 0. -1.
</event>
<event>
 7    1  0.3757412E-015  0.9000767E+02  0.7816164E-02  0.1186339E+00
        -11   -1    0    0    0    0  0.00000000000E+00  0.00000000000E+00  0.45593999997E+02  0.45594000000E+02  0.51100000000E-03 0.  1.
         11   -1    0    0    0    0 -0.00000000000E+00 -0.00000000000E+00 -0.45593999997E+02  0.45594000000E+02  0.51100000000E-03 0. -1.
    9900012    2    1    2    0    0 -0.33602643709E+00  0.76380127939E+00 -0.83479346980E+00  0.90007666870E+02  0.89999927273E+02 0.  0.
        -12    1    1    2    0    0  0.33602643709E+00 -0.76380127939E+00  0.83479346980E+00  0.11803331301E+01  0.00000000000E+00 0.  1.
         11    1    3    3    0    0  0.81923656664E+01  0.26004410687E+02 -0.24639386793E+02  0.36748382443E+02  0.51100000000E-03 0. -1.
        -11    1    3    3    0    0 -0.27108432586E+01 -0.55947898113E+00 -0.10353887894E+02  0.10717494235E+02  0.51100000000E-03 0.  1.
        -12    1    3    3    0    0 -0.58175488449E+01 -0.24681130427E+02  0.34158481217E+02  0.42541790192E+02  0.00000000000E+00 0.  1.
</event>
<event>
 7    1  0.3757412E-015  0.9000778E+02  0.7816164E-02  0.1186339E+00
        -11   -1    0    0    0    0  0.00000000000E+00  0.00000000000E+00  0.45593999997E+02  0.45594000000E+02  0.51100000000E-03 0.  1.
         11   -1    0    0    0    0 -0.00000000000E+00 -0.00000000000E+00 -0.45593999997E+02  0.45594000000E+02  0.51100000000E-03 0. -1.
    9900012    2    1    2    0    0  0.17745522199E+00 -0.40410337378E+00 -0.10945911144E+01  0.90007779851E+02  0.90000041745E+02 0.  0.
        -12    1    1    2    0    0 -0.17745522199E+00  0.40410337378E+00  0.10945911144E+01  0.11802201490E+01  0.00000000000E+00 0.  1.
         11    1    3    3    0    0  0.70805893122E+01  0.35776031964E+02 -0.19592824023E+02  0.41399733835E+02  0.51100000000E-03 0. -1.
        -11    1    3    3    0    0 -0.65360995043E+01  0.61884495756E+00  0.79799427794E+01  0.10333588575E+02  0.51100000000E-03 0.  1.
        -12    1    3    3    0    0 -0.36703458590E+00 -0.36798980296E+02  0.10518290129E+02  0.38274457441E+02  0.00000000000E+00 0.  1.
</event>
<event>
 7    1  0.3757412E-015  0.9000781E+02  0.7816164E-02  0.1186339E+00
        -11   -1    0    0    0    0  0.00000000000E+00  0.00000000000E+00  0.45593999997E+02  0.45594000000E+02  0.51100000000E-03 0.  1.
         11   -1    0    0    0    0 -0.00000000000E+00 -0.00000000000E+00 -0.45593999997E+02  0.45594000000E+02  0.51100000000E-03 0. -1.
    9900012    2    1    2    0    0 -0.89570892915E+00 -0.12909673839E+00  0.75755829612E+00  0.90007807208E+02  0.90000069463E+02 0.  0.
        -12    1    1    2    0    0  0.89570892915E+00  0.12909673839E+00 -0.75755829612E+00  0.11801927917E+01  0.00000000000E+00 0.  1.
         11    1    3    3    0    0  0.12106376695E+02  0.42551009235E+01  0.17811250489E+01  0.12955409961E+02  0.51100000000E-03 0. -1.
        -11    1    3    3    0    0  0.15706944743E+02  0.47209480186E+01  0.29763468739E+02  0.33983224318E+02  0.51100000000E-03 0.  1.
         12    1    3    3    0    0 -0.28709030367E+02 -0.91051456805E+01 -0.30787035492E+02  0.43069172930E+02  0.00000000000E+00 0. -1.
</event>
<event>
 7    1  0.3757412E-015  0.9000775E+02  0.7816164E-02  0.1186339E+00
        -11   -1    0    0    0    0  0.00000000000E+00  0.00000000000E+00  0.45593999997E+02  0.45594000000E+02  0.51100000000E-03 0. -1.
         11   -1    0    0    0    0 -0.00000000000E+00 -0.00000000000E+00 -0.45593999997E+02  0.45594000000E+02  0.51100000000E-03 0.  1.
    9900012    2    1    2    0    0  0.93919754564E+00  0.21102312365E+00  0.68291738407E+00  0.90007746238E+02  0.90000007689E+02 0.  0.
        -12    1    1    2    0    0 -0.93919754564E+00 -0.21102312365E+00 -0.68291738407E+00  0.11802537617E+01  0.00000000000E+00 0.  1.
         11    1    3    3    0    0  0.60403780009E+01  0.34593606315E+01  0.67140309568E+01  0.96711713005E+01  0.51100000000E-03 0. -1.
        -11    1    3    3    0    0  0.20516434805E+02 -0.16025495505E+02  0.26400787539E+02  0.37077515912E+02  0.51100000000E-03 0.  1.
         12    1    3    3    0    0 -0.25617615260E+02  0.12777157997E+02 -0.32431901112E+02  0.43259059026E+02  0.00000000000E+00 0. -1.
</event>
<event>
 7    1  0.3757412E-015  0.9000773E+02  0.7816164E-02  0.1186339E+00
        -11   -1    0    0    0    0  0.00000000000E+00  0.00000000000E+00  0.45593999997E+02  0.45594000000E+02  0.51100000000E-03 0.  1.
         11   -1    0    0    0    0 -0.00000000000E+00 -0.00000000000E+00 -0.45593999997E+02  0.45594000000E+02  0.51100000000E-03 0. -1.
    9900012    2    1    2    0    0 -0.54906575424E+00  0.67905009133E+00 -0.79401634066E+00  0.90007727075E+02  0.89999988272E+02 0.  0.
        -12    1    1    2    0    0  0.54906575424E+00 -0.67905009133E+00  0.79401634066E+00  0.11802729253E+01  0.00000000000E+00 0.  1.
         11    1    3    3    0    0 -0.79164240660E+01 -0.57721967833E+01  0.29029318712E+00  0.98016476214E+01  0.51100000000E-03 0. -1.
        -11    1    3    3    0    0  0.55769372067E+01 -0.19061392820E+02  0.32441976193E+02  0.38038411434E+02  0.51100000000E-03 0.  1.
         12    1    3    3    0    0  0.17904211051E+01  0.25512639695E+02 -0.33526285721E+02  0.42167668019E+02  0.00000000000E+00 0. -1.
</event>
<event>
 7    1  0.3757412E-015  0.9000773E+02  0.7816164E-02  0.1186339E+00
        -11   -1    0    0    0    0  0.00000000000E+00  0.00000000000E+00  0.45593999997E+02  0.45594000000E+02  0.51100000000E-03 0. -1.
         11   -1    0    0    0    0 -0.00000000000E+00 -0.00000000000E+00 -0.45593999997E+02  0.45594000000E+02  0.51100000000E-03 0.  1.
    9900012    2    1    2    0    0  0.56560043518E+00  0.91839169438E+00  0.47926820783E+00  0.90007726654E+02  0.89999987846E+02 0.  0.
        -12    1    1    2    0    0 -0.56560043518E+00 -0.91839169438E+00 -0.47926820783E+00  0.11802733461E+01  0.00000000000E+00 0.  1.
         11    1    3    3    0    0  0.30938974140E+02  0.19991160092E+02 -0.17370695378E+02  0.40726007180E+02  0.51100000000E-03 0. -1.
        -11    1    3    3    0    0 -0.11192087509E+02  0.23717148939E+01 -0.50537883873E+01  0.12507143226E+02  0.51100000000E-03 0.  1.
        -12    1    3    3    0    0 -0.19181286196E+02 -0.21444483291E+02  0.22903751973E+02  0.36774576248E+02  0.00000000000E+00 0.  1.
</event>
<event>
 7    1  0.3757412E-015  0.9000780E+02  0.7816164E-02  0.1186339E+00
        -11   -1    0    0    0    0  0.00000000000E+00  0.00000000000E+00  0.45593999997E+02  0.45594000000E+02  0.51100000000E-03 0.  1.
         11   -1    0    0    0    0 -0.00000000000E+00 -0.00000000000E+00 -0.45593999997E+02  0.45594000000E+02  0.51100000000E-03 0. -1.
    9900012    2    1    2    0    0 -0.28761319442E-01 -0.11349669589E+01 -0.32231768234E+00  0.90007802601E+02  0.90000064796E+02 0.  0.
        -12    1    1    2    0    0  0.28761319442E-01  0.11349669589E+01  0.32231768234E+00  0.11801973986E+01  0.00000000000E+00 0.  1.
         11    1    3    3    0    0 -0.37813584044E+02  0.11227917378E+02 -0.91777379017E+01  0.40498939988E+02  0.51100000000E-03 0. -1.
        -11    1    3    3    0    0 -0.56789276153E+00 -0.93207881269E+00  0.94219244535E+01  0.94849319329E+01  0.51100000000E-03 0.  1.
        -12    1    3    3    0    0  0.38352715486E+02 -0.11430805524E+02 -0.56650423416E+00  0.40023930681E+02  0.00000000000E+00 0.  1.
</event>
<event>
 7    1  0.3757412E-015  0.9000824E+02  0.7816164E-02  0.1186338E+00
        -11   -1    0    0    0    0  0.00000000000E+00  0.00000000000E+00  0.45593999997E+02  0.45594000000E+02  0.51100000000E-03 0.  1.
         11   -1    0    0    0    0 -0.00000000000E+00 -0.00000000000E+00 -0.45593999997E+02  0.45594000000E+02  0.51100000000E-03 0. -1.
    9900012    2    1    2    0    0  0.27364603181E+00  0.11020429999E+01  0.32007445942E+00  0.90008242150E+02  0.90000510145E+02 0.  0.
        -12    1    1    2    0    0 -0.27364603181E+00 -0.11020429999E+01 -0.32007445942E+00  0.11797578497E+01  0.00000000000E+00 0.  1.
         11    1    3    3    0    0  0.89486096821E+01  0.28231626745E+02 -0.20212545634E+02  0.35855952995E+02  0.51100000000E-03 0. -1.
        -11    1    3    3    0    0  0.76255969424E+01  0.68382209309E+01 -0.17333277745E+01  0.10388234675E+02  0.51100000000E-03 0.  1.
        -12    1    3    3    0    0 -0.16300560593E+02 -0.33967804676E+02  0.22265947868E+02  0.43764054481E+02  0.00000000000E+00 0.  1.
</event>
<event>
 7    1  0.3757412E-015  0.9000735E+02  0.7816164E-02  0.1186340E+00
        -11   -1    0    0    0    0  0.00000000000E+00  0.00000000000E+00  0.45593999997E+02  0.45594000000E+02  0.51100000000E-03 0. -1.
         11   -1    0    0    0    0 -0.00000000000E+00 -0.00000000000E+00 -0.45593999997E+02  0.45594000000E+02  0.51100000000E-03 0.  1.
    9900012    2    1    2    0    0 -0.92544189880E+00 -0.50490009012E+00  0.53156921127E+00  0.90007350757E+02  0.89999606986E+02 0.  0.
        -12    1    1    2    0    0  0.92544189880E+00  0.50490009012E+00 -0.53156921127E+00  0.11806492432E+01  0.00000000000E+00 0.  1.
         11    1    3    3    0    0  0.33864102491E+01 -0.38247062092E+02 -0.96015642002E+01  0.39578978870E+02  0.51100000000E-03 0. -1.
        -11    1    3    3    0    0 -0.49925112160E+01 -0.32670938082E+01  0.71394705287E+01  0.93043597246E+01  0.51100000000E-03 0.  1.
        -12    1    3    3    0    0  0.68065906814E+00  0.41009255810E+02  0.29936628828E+01  0.41124012162E+02  0.00000000000E+00 0.  1.
</event>
<event>
 7    1  0.3757412E-015  0.9000775E+02  0.7816164E-02  0.1186339E+00
        -11   -1    0    0    0    0  0.00000000000E+00  0.00000000000E+00  0.45593999997E+02  0.45594000000E+02  0.51100000000E-03 0.  1.
         11   -1    0    0    0    0 -0.00000000000E+00 -0.00000000000E+00 -0.45593999997E+02  0.45594000000E+02  0.51100000000E-03 0. -1.
    9900012    2    1    2    0    0 -0.70127481802E+00 -0.25901689746E+00  0.91330200099E+00  0.90007747201E+02  0.90000008664E+02 0.  0.
        -12    1    1    2    0    0  0.70127481802E+00  0.25901689746E+00 -0.91330200099E+00  0.11802527986E+01  0.00000000000E+00 0.  1.
         11    1    3    3    0    0 -0.12281764904E+02  0.25178995846E+02 -0.21106961713E+02  0.35076023349E+02  0.51100000000E-03 0. -1.
        -11    1    3    3    0    0 -0.38469481623E+01 -0.12523441577E+01 -0.10686536735E+02  0.11426698723E+02  0.51100000000E-03 0.  1.
        -12    1    3    3    0    0  0.15427438248E+02 -0.24185668586E+02  0.32706800449E+02  0.43505025129E+02  0.00000000000E+00 0.  1.
</event>
<event>
 7    1  0.3757412E-015  0.9000771E+02  0.7816164E-02  0.1186339E+00
        -11   -1    0    0    0    0  0.00000000000E+00  0.00000000000E+00  0.45593999997E+02  0.45594000000E+02  0.51100000000E-03 0.  1.
         11   -1    0    0    0    0 -0.00000000000E+00 -0.00000000000E+00 -0.45593999997E+02  0.45594000000E+02  0.51100000000E-03 0. -1.
    9900012    2    1    2    0    0 -0.40086805196E-01 -0.11794048360E+01 -0.22049895229E-01  0.90007708122E+02  0.89999969069E+02 0.  0.
        -12    1    1    2    0    0  0.40086805196E-01  0.11794048360E+01  0.22049895229E-01  0.11802918779E+01  0.00000000000E+00 0.  1.
         11    1    3    3    0    0  0.30108022500E+01 -0.40289919058E+01 -0.23758453494E+02  0.24285012223E+02  0.51100000000E-03 0. -1.
        -11    1    3    3    0    0 -0.45850995545E+01 -0.16043831619E+02 -0.15101913834E+02  0.22505454287E+02  0.51100000000E-03 0.  1.
        -12    1    3    3    0    0  0.15342104992E+01  0.18893418689E+02  0.38838317433E+02  0.43217241613E+02  0.00000000000E+00 0.  1.
</event>
<event>
 7    1  0.3757412E-015  0.9000776E+02  0.7816164E-02  0.1186339E+00
        -11   -1    0    0    0    0  0.00000000000E+00  0.00000000000E+00  0.45593999997E+02  0.45594000000E+02  0.51100000000E-03 0.  1.
         11   -1    0    0    0    0 -0.00000000000E+00 -0.00000000000E+00 -0.45593999997E+02  0.45594000000E+02  0.51100000000E-03 0. -1.
    9900012    2    1    2    0    0  0.28970803692E+00 -0.81071474308E+00 -0.80732865720E+00  0.90007759049E+02  0.90000020669E+02 0.  0.
        -12    1    1    2    0    0 -0.28970803692E+00  0.81071474308E+00  0.80732865720E+00  0.11802409508E+01  0.00000000000E+00 0.  1.
         11    1    3    3    0    0 -0.72810574649E+00 -0.80572896152E+01 -0.35261893813E+02  0.36178048724E+02  0.51100000000E-03 0. -1.
        -11    1    3    3    0    0 -0.51598233833E+01 -0.61073646049E+01 -0.65052237400E+01  0.10307357369E+02  0.51100000000E-03 0.  1.
        -12    1    3    3    0    0  0.61776371668E+01  0.13353939477E+02  0.40959788895E+02  0.43522352957E+02  0.00000000000E+00 0.  1.
</event>
<event>
 7    1  0.3757412E-015  0.9000775E+02  0.7816164E-02  0.1186339E+00
        -11   -1    0    0    0    0  0.00000000000E+00  0.00000000000E+00  0.45593999997E+02  0.45594000000E+02  0.51100000000E-03 0. -1.
         11   -1    0    0    0    0 -0.00000000000E+00 -0.00000000000E+00 -0.45593999997E+02  0.45594000000E+02  0.51100000000E-03 0.  1.
    9900012    2    1    2    0    0 -0.11180101104E+01  0.37666546184E+00 -0.33987208231E-01  0.90007754853E+02  0.90000016417E+02 0.  0.
        -12    1    1    2    0    0  0.11180101104E+01 -0.37666546184E+00  0.33987208231E-01  0.11802451472E+01  0.00000000000E+00 0.  1.
         11    1    3    3    0    0  0.35047104850E+02 -0.78631167694E+01 -0.37281339638E+01  0.36111316049E+02  0.51100000000E-03 0. -1.
        -11    1    3    3    0    0  0.55575376744E+01  0.83509130172E+01 -0.51056652560E+01  0.11255744808E+02  0.51100000000E-03 0.  1.
        -12    1    3    3    0    0 -0.41722652635E+02 -0.11113078597E+00  0.87998120116E+01  0.42640693995E+02  0.00000000000E+00 0.  1.
</event>
<event>
 7    1  0.3757412E-015  0.9000789E+02  0.7816164E-02  0.1186339E+00
        -11   -1    0    0    0    0  0.00000000000E+00  0.00000000000E+00  0.45593999997E+02  0.45594000000E+02  0.51100000000E-03 0.  1.
         11   -1    0    0    0    0 -0.00000000000E+00 -0.00000000000E+00 -0.45593999997E+02  0.45594000000E+02  0.51100000000E-03 0. -1.
    9900012    2    1    2    0    0  0.37086447186E+00  0.11042996760E+01 -0.18880967058E+00  0.90007886733E+02  0.90000150038E+02 0.  0.
        -12    1    1    2    0    0 -0.37086447186E+00 -0.11042996760E+01  0.18880967058E+00  0.11801132669E+01  0.00000000000E+00 0.  1.
         11    1    3    3    0    0  0.71090938116E+01  0.11691732992E+01 -0.74763536984E+01  0.10382776407E+02  0.51100000000E-03 0. -1.
        -11    1    3    3    0    0  0.32390602347E+02 -0.13643490903E+02 -0.69520341769E+01  0.35827737074E+02  0.51100000000E-03 0.  1.
         12    1    3    3    0    0 -0.39128831686E+02  0.13578617280E+02  0.14239578205E+02  0.43797373252E+02  0.00000000000E+00 0. -1.
</event>
<event>
 7    1  0.3757412E-015  0.9000779E+02  0.7816164E-02  0.1186339E+00
        -11   -1    0    0    0    0  0.00000000000E+00  0.00000000000E+00  0.45593999997E+02  0.45594000000E+02  0.51100000000E-03 0.  1.
         11   -1    0    0    0    0 -0.00000000000E+00 -0.00000000000E+00 -0.45593999997E+02  0.45594000000E+02  0.51100000000E-03 0. -1.
    9900012    2    1    2    0    0  0.11172728122E+01  0.21399554378E+00 -0.31431158864E+00  0.90007794762E+02  0.90000056853E+02 0.  0.
        -12    1    1    2    0    0 -0.11172728122E+01 -0.21399554378E+00  0.31431158864E+00  0.11802052382E+01  0.00000000000E+00 0.  1.
         11    1    3    3    0    0 -0.20322289474E+01  0.96028350908E+01 -0.57651373523E+01  0.11383374070E+02  0.51100000000E-03 0. -1.
        -11    1    3    3    0    0 -0.33822701395E+00  0.31671665649E+02  0.16838950592E+02  0.35871424000E+02  0.51100000000E-03 0.  1.
         12    1    3    3    0    0  0.34877287735E+01 -0.41060505196E+02 -0.11388124828E+02  0.42752996691E+02  0.00000000000E+00 0. -1.
</event>
<event>
 7    1  0.3810171E-015  0.9000765E+02  0.7816164E-02  0.1186339E+00
        -11   -1    0    0    0    0  0.00000000000E+00  0.00000000000E+00  0.45593999997E+02  0.45594000000E+02  0.51100000000E-03 0. -1.
         11   -1    0    0    0    0 -0.00000000000E+00 -0.00000000000E+00 -0.45593999997E+02  0.45594000000E+02  0.51100000000E-03 0.  1.
    9900012    2    1    2    0    0  0.10023322811E+01  0.62238713906E+00 -0.34537639606E-01  0.90007648950E+02  0.89999909116E+02 0.  0.
        -12    1    1    2    0    0 -0.10023322811E+01 -0.62238713906E+00  0.34537639606E-01  0.11803510500E+01  0.00000000000E+00 0.  1.
         11    1    3    3    0    0 -0.50375150578E+01  0.37066673449E+02 -0.44021607350E+01  0.37665552669E+02  0.51100000000E-03 0. -1.
        -11    1    3    3    0    0  0.50032612914E+01  0.48016628673E+01 -0.66810482122E+01  0.96293818761E+01  0.51100000000E-03 0.  1.
        -12    1    3    3    0    0  0.10365860475E+01 -0.41245949177E+02  0.11048671308E+02  0.42712714404E+02  0.00000000000E+00 0.  1.
</event>
<event>
 7    1  0.3757412E-015  0.9000768E+02  0.7816164E-02  0.1186339E+00
        -11   -1    0    0    0    0  0.00000000000E+00  0.00000000000E+00  0.45593999997E+02  0.45594000000E+02  0.51100000000E-03 0.  1.
         11   -1    0    0    0    0 -0.00000000000E+00 -0.00000000000E+00 -0.45593999997E+02  0.45594000000E+02  0.51100000000E-03 0. -1.
    9900012    2    1    2    0    0  0.18980718658E+00  0.89113001803E+00 -0.75035049502E+00  0.90007675747E+02  0.89999936267E+02 0.  0.
        -12    1    1    2    0    0 -0.18980718658E+00 -0.89113001803E+00  0.75035049502E+00  0.11803242531E+01  0.00000000000E+00 0.  1.
         11    1    3    3    0    0  0.10962639384E+02  0.34131418005E+02 -0.11260204033E+02  0.37575595171E+02  0.51100000000E-03 0. -1.
        -11    1    3    3    0    0  0.98230940993E+01  0.19773173231E+01  0.52029816070E+01  0.11290437518E+02  0.51100000000E-03 0.  1.
        -12    1    3    3    0    0 -0.20595926297E+02 -0.35217605310E+02  0.53068719305E+01  0.41141643058E+02  0.00000000000E+00 0.  1.
</event>
<event>
 7    1  0.3757412E-015  0.9000773E+02  0.7816164E-02  0.1186339E+00
        -11   -1    0    0    0    0  0.00000000000E+00  0.00000000000E+00  0.45593999997E+02  0.45594000000E+02  0.51100000000E-03 0. -1.
         11   -1    0    0    0    0 -0.00000000000E+00 -0.00000000000E+00 -0.45593999997E+02  0.45594000000E+02  0.51100000000E-03 0.  1.
    9900012    2    1    2    0    0 -0.10523332191E+01 -0.61342711510E-01 -0.53091085203E+00  0.90007731189E+02  0.89999992441E+02 0.  0.
        -12    1    1    2    0    0  0.10523332191E+01  0.61342711510E-01  0.53091085203E+00  0.11802688105E+01  0.00000000000E+00 0.  1.
         11    1    3    3    0    0 -0.21652135840E+02  0.31980489857E+02  0.11070268114E+02  0.40176081869E+02  0.51100000000E-03 0. -1.
        -11    1    3    3    0    0  0.20293901217E+01 -0.27433195597E+01  0.89044777200E+01  0.95359294355E+01  0.51100000000E-03 0.  1.
        -12    1    3    3    0    0  0.18570412499E+02 -0.29298513009E+02 -0.20505656686E+02  0.40295719885E+02  0.00000000000E+00 0.  1.
</event>
<event>
 7    1  0.3757412E-015  0.9000770E+02  0.7816164E-02  0.1186339E+00
        -11   -1    0    0    0    0  0.00000000000E+00  0.00000000000E+00  0.45593999997E+02  0.45594000000E+02  0.51100000000E-03 0. -1.
         11   -1    0    0    0    0 -0.00000000000E+00 -0.00000000000E+00 -0.45593999997E+02  0.45594000000E+02  0.51100000000E-03 0.  1.
    9900012    2    1    2    0    0  0.32691167498E+00  0.14102118790E+00  0.11253243053E+01  0.90007697915E+02  0.89999958728E+02 0.  0.
        -12    1    1    2    0    0 -0.32691167498E+00 -0.14102118790E+00 -0.11253243053E+01  0.11803020846E+01  0.00000000000E+00 0.  1.
         11    1    3    3    0    0  0.57129727899E+01 -0.12909131445E+01 -0.87040404987E+01  0.10491178967E+02  0.51100000000E-03 0. -1.
        -11    1    3    3    0    0  0.27062335977E+02  0.15273942942E+02  0.26180853482E+02  0.40633735379E+02  0.51100000000E-03 0.  1.
         12    1    3    3    0    0 -0.32448397092E+02 -0.13842008609E+02 -0.16351488678E+02  0.38882783570E+02  0.00000000000E+00 0. -1.
</event>
<event>
 7    1  0.3757412E-015  0.9000772E+02  0.7816164E-02  0.1186339E+00
        -11   -1    0    0    0    0  0.00000000000E+00  0.00000000000E+00  0.45593999997E+02  0.45594000000E+02  0.51100000000E-03 0.  1.
         11   -1    0    0    0    0 -0.00000000000E+00 -0.00000000000E+00 -0.45593999997E+02  0.45594000000E+02  0.51100000000E-03 0. -1.
    9900012    2    1    2    0    0 -0.10799253600E+01  0.47626660048E+00  0.34937673406E-03  0.90007716653E+02  0.89999977712E+02 0.  0.
        -12    1    1    2    0    0  0.10799253600E+01 -0.47626660048E+00 -0.34937673406E-03  0.11802833473E+01  0.00000000000E+00 0.  1.
         11    1    3    3    0    0 -0.25880075841E+02 -0.54834961521E+01 -0.27063537118E+02  0.37845502997E+02  0.51100000000E-03 0. -1.
        -11    1    3    3    0    0 -0.16642706920E+01 -0.10394453489E+02 -0.58274300644E+00  0.10542962105E+02  0.51100000000E-03 0.  1.
        -12    1    3    3    0    0  0.26464421172E+02  0.16354216242E+02  0.27646629501E+02  0.41619251550E+02  0.00000000000E+00 0.  1.
</event>
<event>
 7    1  0.3757412E-015  0.9000774E+02  0.7816164E-02  0.1186339E+00
        -11   -1    0    0    0    0  0.00000000000E+00  0.00000000000E+00  0.45593999997E+02  0.45594000000E+02  0.51100000000E-03 0. -1.
         11   -1    0    0    0    0 -0.00000000000E+00 -0.00000000000E+00 -0.45593999997E+02  0.45594000000E+02  0.51100000000E-03 0.  1.
    9900012    2    1    2    0    0  0.56177023482E+00  0.31150940627E+00  0.99014294600E+00  0.90007742841E+02  0.90000004247E+02 0.  0.
        -12    1    1    2    0    0 -0.56177023482E+00 -0.31150940627E+00 -0.99014294600E+00  0.11802571586E+01  0.00000000000E+00 0.  1.
         11    1    3    3    0    0  0.86268267301E+01  0.12780066975E+00  0.51428380502E+01  0.10044264827E+02  0.51100000000E-03 0. -1.
        -11    1    3    3    0    0  0.25212557368E+02  0.19278898691E+02 -0.21003505161E+02  0.38059114717E+02  0.51100000000E-03 0.  1.
         12    1    3    3    0    0 -0.33277613863E+02 -0.19095189954E+02  0.16850810056E+02  0.41904363297E+02  0.00000000000E+00 0. -1.
</event>
<event>
 7    1  0.3757412E-015  0.9000774E+02  0.7816164E-02  0.1186339E+00
        -11   -1    0    0    0    0  0.00000000000E+00  0.00000000000E+00  0.45593999997E+02  0.45594000000E+02  0.51100000000E-03 0. -1.
         11   -1    0    0    0    0 -0.00000000000E+00 -0.00000000000E+00 -0.45593999997E+02  0.45594000000E+02  0.51100000000E-03 0.  1.
    9900012    2    1    2    0    0  0.45058707164E+00 -0.10845437531E+01  0.11725145804E+00  0.90007740806E+02  0.90000002184E+02 0.  0.
        -12    1    1    2    0    0 -0.45058707164E+00  0.10845437531E+01 -0.11725145804E+00  0.11802591944E+01  0.00000000000E+00 0.  1.
         11    1    3    3    0    0 -0.99979835431E+01 -0.25833515367E+02  0.22474607463E+02  0.35671251338E+02  0.51100000000E-03 0. -1.
        -11    1    3    3    0    0 -0.31290416945E+01 -0.30782048040E+01  0.91582408925E+01  0.10155767979E+02  0.51100000000E-03 0.  1.
        -12    1    3    3    0    0  0.13577612309E+02  0.27827176418E+02 -0.31515596898E+02  0.44180721488E+02  0.00000000000E+00 0.  1.
</event>
<event>
 7    1  0.3757412E-015  0.9000784E+02  0.7816164E-02  0.1186339E+00
        -11   -1    0    0    0    0  0.00000000000E+00  0.00000000000E+00  0.45593999997E+02  0.45594000000E+02  0.51100000000E-03 0.  1.
         11   -1    0    0    0    0 -0.00000000000E+00 -0.00000000000E+00 -0.45593999997E+02  0.45594000000E+02  0.51100000000E-03 0. -1.
    9900012    2    1    2    0    0 -0.10518678861E+01  0.21845261616E+00 -0.48850399819E+00  0.90007837405E+02  0.90000100058E+02 0.  0.
        -12    1    1    2    0    0  0.10518678861E+01 -0.21845261616E+00  0.48850399819E+00  0.11801625954E+01  0.00000000000E+00 0.  1.
         11    1    3    3    0    0  0.40041774557E+01 -0.75538388057E+01 -0.33025513362E+02  0.34114197204E+02  0.51100000000E-03 0. -1.
        -11    1    3    3    0    0  0.27457831315E+01  0.23595838928E+02  0.68343321726E+01  0.24718637426E+02  0.51100000000E-03 0.  1.
        -12    1    3    3    0    0 -0.78018284733E+01 -0.15823547506E+02  0.25702677191E+02  0.31175002774E+02  0.00000000000E+00 0.  1.
</event>
<event>
 7    1  0.3757412E-015  0.9000771E+02  0.7816164E-02  0.1186339E+00
        -11   -1    0    0    0    0  0.00000000000E+00  0.00000000000E+00  0.45593999997E+02  0.45594000000E+02  0.51100000000E-03 0. -1.
         11   -1    0    0    0    0 -0.00000000000E+00 -0.00000000000E+00 -0.45593999997E+02  0.45594000000E+02  0.51100000000E-03 0.  1.
    9900012    2    1    2    0    0 -0.10504202540E+01  0.53419860182E+00  0.65744581874E-01  0.90007714778E+02  0.89999975813E+02 0.  0.
        -12    1    1    2    0    0  0.10504202540E+01 -0.53419860182E+00 -0.65744581874E-01  0.11802852224E+01  0.00000000000E+00 0.  1.
         11    1    3    3    0    0  0.22540219012E+02 -0.24626530333E+02 -0.24107477145E+02  0.41178852873E+02  0.51100000000E-03 0. -1.
        -11    1    3    3    0    0 -0.65682510329E+01 -0.46533445165E+01  0.37296436233E+01  0.88716277333E+01  0.51100000000E-03 0.  1.
        -12    1    3    3    0    0 -0.17022388234E+02  0.29814073451E+02  0.20443578104E+02  0.39957234171E+02  0.00000000000E+00 0.  1.
</event>
<event>
 7    1  0.3757412E-015  0.9000771E+02  0.7816164E-02  0.1186339E+00
        -11   -1    0    0    0    0  0.00000000000E+00  0.00000000000E+00  0.45593999997E+02  0.45594000000E+02  0.51100000000E-03 0. -1.
         11   -1    0    0    0    0 -0.00000000000E+00 -0.00000000000E+00 -0.45593999997E+02  0.45594000000E+02  0.51100000000E-03 0.  1.
    9900012    2    1    2    0    0 -0.12238081969E+00  0.42808446423E+00  0.10930977684E+01  0.90007705077E+02  0.89999965984E+02 0.  0.
        -12    1    1    2    0    0  0.12238081969E+00 -0.42808446423E+00 -0.10930977684E+01  0.11802949228E+01  0.00000000000E+00 0.  1.
         11    1    3    3    0    0  0.10965910191E+02  0.27345184094E+02 -0.26010270500E+02  0.39300692757E+02  0.51100000000E-03 0. -1.
        -11    1    3    3    0    0  0.88283765027E+01  0.30477890951E+00  0.33271738898E+01  0.94394495714E+01  0.51100000000E-03 0.  1.
        -12    1    3    3    0    0 -0.19916667514E+02 -0.27221878539E+02  0.23776194379E+02  0.41267562748E+02  0.00000000000E+00 0.  1.
</event>
<event>
 7    1  0.3757412E-015  0.9000867E+02  0.7816164E-02  0.1186337E+00
        -11   -1    0    0    0    0  0.00000000000E+00  0.00000000000E+00  0.45593999997E+02  0.45594000000E+02  0.51100000000E-03 0.  1.
         11   -1    0    0    0    0 -0.00000000000E+00 -0.00000000000E+00 -0.45593999997E+02  0.45594000000E+02  0.51100000000E-03 0. -1.
    9900012    2    1    2    0    0  0.48525955881E+00  0.75784866819E-01 -0.10721961412E+01  0.90008667667E+02  0.90000941276E+02 0.  0.
        -12    1    1    2    0    0 -0.48525955881E+00 -0.75784866819E-01  0.10721961412E+01  0.11793323326E+01  0.00000000000E+00 0.  1.
         11    1    3    3    0    0 -0.19610410247E+01 -0.60879422764E+01 -0.71433181191E+01  0.95883114818E+01  0.51100000000E-03 0. -1.
        -11    1    3    3    0    0  0.40639164511E+02 -0.32887387755E+01  0.48123115681E+01  0.41055034256E+02  0.51100000000E-03 0.  1.
         12    1    3    3    0    0 -0.38192863928E+02  0.94524659187E+01  0.12588104098E+01  0.39365321929E+02  0.00000000000E+00 0. -1.
</event>
<event>
 7    1  0.3757412E-015  0.9000693E+02  0.7816164E-02  0.1186341E+00
        -11   -1    0    0    0    0  0.00000000000E+00  0.00000000000E+00  0.45593999997E+02  0.45594000000E+02  0.51100000000E-03 0.  1.
         11   -1    0    0    0    0 -0.00000000000E+00 -0.00000000000E+00 -0.45593999997E+02  0.45594000000E+02  0.51100000000E-03 0. -1.
    9900012    2    1    2    0    0  0.19519006502E+00  0.11291638061E+01 -0.28601741864E+00  0.90006934368E+02  0.89999185098E+02 0.  0.
        -12    1    1    2    0    0 -0.19519006502E+00 -0.11291638061E+01  0.28601741864E+00  0.11810656317E+01  0.00000000000E+00 0.  1.
         11    1    3    3    0    0  0.85856736382E+01  0.19740569678E+02 -0.33033964647E+02  0.39429008402E+02  0.51100000000E-03 0. -1.
        -11    1    3    3    0    0  0.13790280750E+01 -0.36977773880E+01 -0.64240708132E+01  0.75394934921E+01  0.51100000000E-03 0.  1.
        -12    1    3    3    0    0 -0.97695116481E+01 -0.14913628484E+02  0.39172018041E+02  0.43038432474E+02  0.00000000000E+00 0.  1.
</event>
<event>
 7    1  0.3757412E-015  0.9000777E+02  0.7816164E-02  0.1186339E+00
        -11   -1    0    0    0    0  0.00000000000E+00  0.00000000000E+00  0.45593999997E+02  0.45594000000E+02  0.51100000000E-03 0.  1.
         11   -1    0    0    0    0 -0.00000000000E+00 -0.00000000000E+00 -0.45593999997E+02  0.45594000000E+02  0.51100000000E-03 0. -1.
    9900012    2    1    2    0    0  0.64809717904E+00  0.78603607783E+00  0.59587387490E+00  0.90007767674E+02  0.90000029407E+02 0.  0.
        -12    1    1    2    0    0 -0.64809717904E+00 -0.78603607783E+00 -0.59587387490E+00  0.11802323262E+01  0.00000000000E+00 0.  1.
         11    1    3    3    0    0  0.37361404217E+01  0.94169715974E+01  0.14868397475E+01  0.10239569913E+02  0.51100000000E-03 0. -1.
        -11    1    3    3    0    0 -0.25207671552E+02  0.27475069408E+02  0.18847403254E+01  0.37334412951E+02  0.51100000000E-03 0.  1.
         12    1    3    3    0    0  0.22119628309E+02 -0.36106004928E+02 -0.27757061979E+01  0.42433784809E+02  0.00000000000E+00 0. -1.
</event>
<event>
 7    1  0.3757412E-015  0.9000817E+02  0.7816164E-02  0.1186338E+00
        -11   -1    0    0    0    0  0.00000000000E+00  0.00000000000E+00  0.45593999997E+02  0.45594000000E+02  0.51100000000E-03 0.  1.
         11   -1    0    0    0    0 -0.00000000000E+00 -0.00000000000E+00 -0.45593999997E+02  0.45594000000E+02  0.51100000000E-03 0. -1.
    9900012    2    1    2    0    0  0.95840331184E+00  0.36003921991E+00 -0.58637317949E+00  0.90008170074E+02  0.90000437118E+02 0.  0.
        -12    1    1    2    0    0 -0.95840331184E+00 -0.36003921991E+00  0.58637317949E+00  0.11798299257E+01  0.00000000000E+00 0.  1.
         11    1    3    3    0    0 -0.26706427845E+01 -0.11951613660E+02 -0.11764728262E+02  0.16981820670E+02  0.51100000000E-03 0. -1.
        -11    1    3    3    0    0 -0.25208386429E+02  0.20765635687E+01  0.28304826610E+02  0.37959690098E+02  0.51100000000E-03 0.  1.
         12    1    3    3    0    0  0.28837432526E+02  0.10235089311E+02 -0.17126471528E+02  0.35066659306E+02  0.00000000000E+00 0. -1.
</event>
<event>
 7    1  0.3757412E-015  0.9000739E+02  0.7816164E-02  0.1186340E+00
        -11   -1    0    0    0    0  0.00000000000E+00  0.00000000000E+00  0.45593999997E+02  0.45594000000E+02  0.51100000000E-03 0.  1.
         11   -1    0    0    0    0 -0.00000000000E+00 -0.00000000000E+00 -0.45593999997E+02  0.45594000000E+02  0.51100000000E-03 0. -1.
    9900012    2    1    2    0    0 -0.55989281269E+00 -0.36033651250E+00 -0.97494886331E+00  0.90007386748E+02  0.89999643453E+02 0.  0.
        -12    1    1    2    0    0  0.55989281269E+00  0.36033651250E+00  0.97494886331E+00  0.11806132517E+01  0.00000000000E+00 0.  1.
         11    1    3    3    0    0  0.23606570203E+01 -0.38771795864E+02 -0.95038965054E+01  0.39989359899E+02  0.51100000000E-03 0. -1.
        -11    1    3    3    0    0  0.59266778753E+01  0.22963011679E+01 -0.72359099883E+01  0.96310385375E+01  0.51100000000E-03 0.  1.
        -12    1    3    3    0    0 -0.88472277083E+01  0.36115158184E+02  0.15764857630E+02  0.40386988312E+02  0.00000000000E+00 0.  1.
</event>
<event>
 7    1  0.3757412E-015  0.9000779E+02  0.7816164E-02  0.1186339E+00
        -11   -1    0    0    0    0  0.00000000000E+00  0.00000000000E+00  0.45593999997E+02  0.45594000000E+02  0.51100000000E-03 0. -1.
         11   -1    0    0    0    0 -0.00000000000E+00 -0.00000000000E+00 -0.45593999997E+02  0.45594000000E+02  0.51100000000E-03 0.  1.
    9900012    2    1    2    0    0 -0.29827859298E+00  0.90030616881E+00  0.70240348298E+00  0.90007791557E+02  0.90000053605E+02 0.  0.
        -12    1    1    2    0    0  0.29827859298E+00 -0.90030616881E+00 -0.70240348298E+00  0.11802084433E+01  0.00000000000E+00 0.  1.
         11    1    3    3    0    0 -0.12994816111E+02 -0.22674022163E+02  0.22650772777E+02  0.34583724994E+02  0.51100000000E-03 0. -1.
        -11    1    3    3    0    0 -0.26929022019E+01 -0.71529753891E+01  0.70956051555E+01  0.10429016827E+02  0.51100000000E-03 0.  1.
        -12    1    3    3    0    0  0.15389439720E+02  0.30727303721E+02 -0.29043974450E+02  0.44995049736E+02  0.00000000000E+00 0.  1.
</event>
<event>
 7    1  0.3757412E-015  0.9000772E+02  0.7816164E-02  0.1186339E+00
        -11   -1    0    0    0    0  0.00000000000E+00  0.00000000000E+00  0.45593999997E+02  0.45594000000E+02  0.51100000000E-03 0.  1.
         11   -1    0    0    0    0 -0.00000000000E+00 -0.00000000000E+00 -0.45593999997E+02  0.45594000000E+02  0.51100000000E-03 0. -1.
    9900012    2    1    2    0    0  0.91669160166E+00  0.42522052863E+00 -0.60986135953E+00  0.90007717462E+02  0.89999978533E+02 0.  0.
        -12    1    1    2    0    0 -0.91669160166E+00 -0.42522052863E+00  0.60986135953E+00  0.11802825375E+01  0.00000000000E+00 0.  1.
         11    1    3    3    0    0 -0.10319383761E+02 -0.15057120774E+02 -0.30433403997E+02  0.35488007077E+02  0.51100000000E-03 0. -1.
        -11    1    3    3    0    0  0.80800154151E+00 -0.19189903798E+01 -0.97925383716E+01  0.10011453370E+02  0.51100000000E-03 0.  1.
        -12    1    3    3    0    0  0.10428073821E+02  0.17401331682E+02  0.39616081009E+02  0.44508257015E+02  0.00000000000E+00 0.  1.
</event>
<event>
 7    1  0.3757412E-015  0.9000823E+02  0.7816164E-02  0.1186338E+00
        -11   -1    0    0    0    0  0.00000000000E+00  0.00000000000E+00  0.45593999997E+02  0.45594000000E+02  0.51100000000E-03 0.  1.
         11   -1    0    0    0    0 -0.00000000000E+00 -0.00000000000E+00 -0.45593999997E+02  0.45594000000E+02  0.51100000000E-03 0. -1.
    9900012    2    1    2    0    0 -0.11009486437E+01 -0.42300140488E+00 -0.28850636354E-01  0.90008232877E+02  0.90000500750E+02 0.  0.
        -12    1    1    2    0    0  0.11009486437E+01  0.42300140488E+00  0.28850636354E-01  0.11797671227E+01  0.00000000000E+00 0.  1.
         11    1    3    3    0    0  0.29823685589E+02 -0.92006292080E+00  0.20805462578E+02  0.36375348950E+02  0.51100000000E-03 0. -1.
        -11    1    3    3    0    0  0.43673967014E+01 -0.15036899010E+01  0.71744502180E+01  0.85327588421E+01  0.51100000000E-03 0.  1.
        -12    1    3    3    0    0 -0.35292030934E+02  0.20007514169E+01 -0.28008763432E+02  0.45100125085E+02  0.00000000000E+00 0.  1.
</event>
<event>
 7    1  0.3757412E-015  0.9000781E+02  0.7816164E-02  0.1186339E+00
        -11   -1    0    0    0    0  0.00000000000E+00  0.00000000000E+00  0.45593999997E+02  0.45594000000E+02  0.51100000000E-03 0. -1.
         11   -1    0    0    0    0 -0.00000000000E+00 -0.00000000000E+00 -0.45593999997E+02  0.45594000000E+02  0.51100000000E-03 0.  1.
    9900012    2    1    2    0    0 -0.10320665745E+01  0.13414801473E-01  0.57228485982E+00  0.90007808773E+02  0.90000071049E+02 0.  0.
        -12    1    1    2    0    0  0.10320665745E+01 -0.13414801473E-01 -0.57228485982E+00  0.11801912268E+01  0.00000000000E+00 0.  1.
         11    1    3    3    0    0 -0.14257924225E+02  0.33423059270E+02  0.28157055315E+01  0.36446090216E+02  0.51100000000E-03 0. -1.
        -11    1    3    3    0    0 -0.32144680611E+01  0.76748141335E+01  0.33259299911E+01  0.89608809537E+01  0.51100000000E-03 0.  1.
        -12    1    3    3    0    0  0.16440325711E+02 -0.41084458602E+02 -0.55693506628E+01  0.44600837603E+02  0.00000000000E+00 0.  1.
</event>
<event>
 7    1  0.3757412E-015  0.9000774E+02  0.7816164E-02  0.1186339E+00
        -11   -1    0    0    0    0  0.00000000000E+00  0.00000000000E+00  0.45593999997E+02  0.45594000000E+02  0.51100000000E-03 0.  1.
         11   -1    0    0    0    0 -0.00000000000E+00 -0.00000000000E+00 -0.45593999997E+02  0.45594000000E+02  0.51100000000E-03 0. -1.
    9900012    2    1    2    0    0 -0.42245880796E+00  0.58379042155E+00 -0.93473523281E+00  0.90007740428E+02  0.90000001802E+02 0.  0.
        -12    1    1    2    0    0  0.42245880796E+00 -0.58379042155E+00  0.93473523281E+00  0.11802595715E+01  0.00000000000E+00 0.  1.
         11    1    3    3    0    0 -0.17178354263E+02  0.19384567155E+02 -0.27856209625E+02  0.38037162274E+02  0.51100000000E-03 0. -1.
        -11    1    3    3    0    0 -0.66901127340E+01  0.32865772989E+01 -0.29728105153E+01  0.80247617632E+01  0.51100000000E-03 0.  1.
        -12    1    3    3    0    0  0.23446008189E+02 -0.22087354032E+02  0.29894284907E+02  0.43945816391E+02  0.00000000000E+00 0.  1.
</event>
<event>
 7    1  0.3757412E-015  0.9000770E+02  0.7816164E-02  0.1186339E+00
        -11   -1    0    0    0    0  0.00000000000E+00  0.00000000000E+00  0.45593999997E+02  0.45594000000E+02  0.51100000000E-03 0. -1.
         11   -1    0    0    0    0 -0.00000000000E+00 -0.00000000000E+00 -0.45593999997E+02  0.45594000000E+02  0.51100000000E-03 0.  1.
    9900012    2    1    2    0    0 -0.24901854516E+00 -0.43605287719E+00  0.10681585469E+01  0.90007697061E+02  0.89999957862E+02 0.  0.
        -12    1    1    2    0    0  0.24901854516E+00  0.43605287719E+00 -0.10681585469E+01  0.11803029394E+01  0.00000000000E+00 0.  1.
         11    1    3    3    0    0  0.77257620462E+01  0.48177193137E+00  0.61379371736E+01  0.98789562403E+01  0.51100000000E-03 0. -1.
        -11    1    3    3    0    0  0.32237558135E+02 -0.16385390746E+02  0.30300746930E+01  0.36289427349E+02  0.51100000000E-03 0.  1.
         12    1    3    3    0    0 -0.40212338726E+02  0.15467565937E+02 -0.80998533198E+01  0.43839313472E+02  0.00000000000E+00 0. -1.
</event>
<event>
 7    1  0.3757412E-015  0.9000796E+02  0.7816164E-02  0.1186339E+00
        -11   -1    0    0    0    0  0.00000000000E+00  0.00000000000E+00  0.45593999997E+02  0.45594000000E+02  0.51100000000E-03 0. -1.
         11   -1    0    0    0    0 -0.00000000000E+00 -0.00000000000E+00 -0.45593999997E+02  0.45594000000E+02  0.51100000000E-03 0.  1.
    9900012    2    1    2    0    0  0.84669819254E+00  0.97533789625E-01 -0.81614224658E+00  0.90007958121E+02  0.90000222368E+02 0.  0.
        -12    1    1    2    0    0 -0.84669819254E+00 -0.97533789625E-01  0.81614224658E+00  0.11800418789E+01  0.00000000000E+00 0.  1.
         11    1    3    3    0    0  0.87393547266E+01  0.30783939534E+02 -0.20910676589E+02  0.38226739986E+02  0.51100000000E-03 0. -1.
        -11    1    3    3    0    0 -0.27200118515E+01  0.80999840338E+01  0.45144575699E+01  0.96637742747E+01  0.51100000000E-03 0.  1.
        -12    1    3    3    0    0 -0.51726446826E+01 -0.38786389778E+02  0.15580076773E+02  0.42117443860E+02  0.00000000000E+00 0.  1.
</event>
<event>
 7    1  0.3757412E-015  0.9000775E+02  0.7816164E-02  0.1186339E+00
        -11   -1    0    0    0    0  0.00000000000E+00  0.00000000000E+00  0.45593999997E+02  0.45594000000E+02  0.51100000000E-03 0. -1.
         11   -1    0    0    0    0 -0.00000000000E+00 -0.00000000000E+00 -0.45593999997E+02  0.45594000000E+02  0.51100000000E-03 0.  1.
    9900012    2    1    2    0    0  0.73342733912E+00 -0.53611308664E+00  0.75342829580E+00  0.90007751255E+02  0.90000012771E+02 0.  0.
        -12    1    1    2    0    0 -0.73342733912E+00  0.53611308664E+00 -0.75342829580E+00  0.11802487451E+01  0.00000000000E+00 0.  1.
         11    1    3    3    0    0  0.49467397072E+01  0.11071193305E+01 -0.11552184960E+02  0.12615424074E+02  0.51100000000E-03 0. -1.
        -11    1    3    3    0    0 -0.96758278111E+01  0.36397483122E+02  0.25800355854E+01  0.37749900733E+02  0.51100000000E-03 0.  1.
         12    1    3    3    0    0  0.54625154430E+01 -0.38040715539E+02  0.97255776706E+01  0.39642426449E+02  0.00000000000E+00 0. -1.
</event>
<event>
 7    1  0.3757412E-015  0.9000708E+02  0.7816164E-02  0.1186340E+00
        -11   -1    0    0    0    0  0.00000000000E+00  0.00000000000E+00  0.45593999997E+02  0.45594000000E+02  0.51100000000E-03 0. -1.
         11   -1    0    0    0    0 -0.00000000000E+00 -0.00000000000E+00 -0.45593999997E+02  0.45594000000E+02  0.51100000000E-03 0.  1.
    9900012    2    1    2    0    0  0.12825653837E+00 -0.11711992773E+01 -0.80108906548E-01  0.90007078782E+02  0.89999331419E+02 0.  0.
        -12    1    1    2    0    0 -0.12825653837E+00  0.11711992773E+01  0.80108906548E-01  0.11809212182E+01  0.00000000000E+00 0.  1.
         11    1    3    3    0    0  0.89423180620E+01 -0.19468582488E+02  0.37935634593E+02  0.43567225395E+02  0.51100000000E-03 0. -1.
        -11    1    3    3    0    0  0.20890621849E+01  0.73315472704E+01 -0.30566305316E+01  0.82133279892E+01  0.51100000000E-03 0.  1.
        -12    1    3    3    0    0 -0.10903123709E+02  0.10965835940E+02 -0.34959112968E+02  0.38226525397E+02  0.00000000000E+00 0.  1.
</event>
<event>
 7    1  0.3757412E-015  0.9000799E+02  0.7816164E-02  0.1186339E+00
        -11   -1    0    0    0    0  0.00000000000E+00  0.00000000000E+00  0.45593999997E+02  0.45594000000E+02  0.51100000000E-03 0. -1.
         11   -1    0    0    0    0 -0.00000000000E+00 -0.00000000000E+00 -0.45593999997E+02  0.45594000000E+02  0.51100000000E-03 0.  1.
    9900012    2    1    2    0    0 -0.93652367459E+00 -0.37318030547E+00  0.61326024333E+00  0.90007988026E+02  0.90000252667E+02 0.  0.
        -12    1    1    2    0    0  0.93652367459E+00  0.37318030547E+00 -0.61326024333E+00  0.11800119743E+01  0.00000000000E+00 0.  1.
         11    1    3    3    0    0  0.49329497502E+01  0.27528003320E+02 -0.25695728052E+02  0.37978880979E+02  0.51100000000E-03 0. -1.
        -11    1    3    3    0    0  0.13097257866E+02 -0.32936387358E+01  0.52190307612E+01  0.14478415040E+02  0.51100000000E-03 0.  1.
        -12    1    3    3    0    0 -0.18966731290E+02 -0.24607544890E+02  0.21089957534E+02  0.37550692006E+02  0.00000000000E+00 0.  1.
</event>
<event>
 7    1  0.3757412E-015  0.9000777E+02  0.7816164E-02  0.1186339E+00
        -11   -1    0    0    0    0  0.00000000000E+00  0.00000000000E+00  0.45593999997E+02  0.45594000000E+02  0.51100000000E-03 0. -1.
         11   -1    0    0    0    0 -0.00000000000E+00 -0.00000000000E+00 -0.45593999997E+02  0.45594000000E+02  0.51100000000E-03 0.  1.
    9900012    2    1    2    0    0 -0.57045791001E+00 -0.37631230790E-01  0.10325230176E+01  0.90007770311E+02  0.90000032079E+02 0.  0.
        -12    1    1    2    0    0  0.57045791001E+00  0.37631230790E-01 -0.10325230176E+01  0.11802296888E+01  0.00000000000E+00 0.  1.
         11    1    3    3    0    0 -0.95618768668E+01  0.28447879042E+01  0.54345934280E+00  0.99908786277E+01  0.51100000000E-03 0. -1.
        -11    1    3    3    0    0 -0.18583759065E+02  0.77094688653E+01 -0.30926367391E+02  0.36894880559E+02  0.51100000000E-03 0.  1.
         12    1    3    3    0    0  0.27575178022E+02 -0.10591888000E+02  0.31415431066E+02  0.43122011124E+02  0.00000000000E+00 0. -1.
</event>
<event>
 7    1  0.3757412E-015  0.9000806E+02  0.7816164E-02  0.1186338E+00
        -11   -1    0    0    0    0  0.00000000000E+00  0.00000000000E+00  0.45593999997E+02  0.45594000000E+02  0.51100000000E-03 0.  1.
         11   -1    0    0    0    0 -0.00000000000E+00 -0.00000000000E+00 -0.45593999997E+02  0.45594000000E+02  0.51100000000E-03 0. -1.
    9900012    2    1    2    0    0  0.49683076879E+00 -0.99483571936E+00  0.39462739801E+00  0.90008055211E+02  0.90000320739E+02 0.  0.
        -12    1    1    2    0    0 -0.49683076879E+00  0.99483571936E+00 -0.39462739801E+00  0.11799447888E+01  0.00000000000E+00 0.  1.
         11    1    3    3    0    0 -0.43446925437E+01 -0.93983954839E+01 -0.26913404485E+00  0.10357539494E+02  0.51100000000E-03 0. -1.
        -11    1    3    3    0    0 -0.24896554804E+02 -0.22962056949E+02  0.10234619357E+02  0.35381378352E+02  0.51100000000E-03 0.  1.
         12    1    3    3    0    0  0.29738078116E+02  0.31365616714E+02 -0.95708579137E+01  0.44269137366E+02  0.00000000000E+00 0. -1.
</event>
<event>
 7    1  0.3757412E-015  0.9000777E+02  0.7816164E-02  0.1186339E+00
        -11   -1    0    0    0    0  0.00000000000E+00  0.00000000000E+00  0.45593999997E+02  0.45594000000E+02  0.51100000000E-03 0. -1.
         11   -1    0    0    0    0 -0.00000000000E+00 -0.00000000000E+00 -0.45593999997E+02  0.45594000000E+02  0.51100000000E-03 0.  1.
    9900012    2    1    2    0    0  0.72312280582E-01 -0.91578763509E+00  0.74098183249E+00  0.90007766915E+02  0.90000028638E+02 0.  0.
        -12    1    1    2    0    0 -0.72312280582E-01  0.91578763509E+00 -0.74098183249E+00  0.11802330849E+01  0.00000000000E+00 0.  1.
         11    1    3    3    0    0 -0.81624334051E+01 -0.52181973160E+01  0.71593053542E+00  0.97142914880E+01  0.51100000000E-03 0. -1.
        -11    1    3    3    0    0 -0.11799018976E+02  0.37564597500E+00 -0.36548650409E+02  0.38407835212E+02  0.51100000000E-03 0.  1.
         12    1    3    3    0    0  0.20033764661E+02  0.39267637059E+01  0.36573701706E+02  0.41885640215E+02  0.00000000000E+00 0. -1.
</event>
<event>
 7    1  0.3757412E-015  0.9000777E+02  0.7816164E-02  0.1186339E+00
        -11   -1    0    0    0    0  0.00000000000E+00  0.00000000000E+00  0.45593999997E+02  0.45594000000E+02  0.51100000000E-03 0. -1.
         11   -1    0    0    0    0 -0.00000000000E+00 -0.00000000000E+00 -0.45593999997E+02  0.45594000000E+02  0.51100000000E-03 0.  1.
    9900012    2    1    2    0    0  0.10281631900E+01 -0.54535401109E+00 -0.19598223688E+00  0.90007771387E+02  0.90000033169E+02 0.  0.
        -12    1    1    2    0    0 -0.10281631900E+01  0.54535401109E+00  0.19598223688E+00  0.11802286134E+01  0.00000000000E+00 0.  1.
         11    1    3    3    0    0 -0.69136349842E+01 -0.70682223224E+01  0.27445414102E-03  0.98872703933E+01  0.51100000000E-03 0. -1.
        -11    1    3    3    0    0 -0.10479685267E+02 -0.32170077464E+02  0.11437847810E+02  0.35715011552E+02  0.51100000000E-03 0.  1.
         12    1    3    3    0    0  0.18421483442E+02  0.38692945776E+02 -0.11634104501E+02  0.44405489441E+02  0.00000000000E+00 0. -1.
</event>
<event>
 7    1  0.3757412E-015  0.9000771E+02  0.7816164E-02  0.1186339E+00
        -11   -1    0    0    0    0  0.00000000000E+00  0.00000000000E+00  0.45593999997E+02  0.45594000000E+02  0.51100000000E-03 0.  1.
         11   -1    0    0    0    0 -0.00000000000E+00 -0.00000000000E+00 -0.45593999997E+02  0.45594000000E+02  0.51100000000E-03 0. -1.
    9900012    2    1    2    0    0  0.11665966037E+01 -0.12116087485E+00 -0.13214948356E+00  0.90007707206E+02  0.89999968141E+02 0.  0.
        -12    1    1    2    0    0 -0.11665966037E+01  0.12116087485E+00  0.13214948356E+00  0.11802927939E+01  0.00000000000E+00 0.  1.
         11    1    3    3    0    0  0.18459338232E+02  0.12136582714E+02 -0.29232155852E+02  0.36640998130E+02  0.51100000000E-03 0. -1.
        -11    1    3    3    0    0  0.73070932037E+01  0.91942242706E+01  0.10756646734E+02  0.15925853831E+02  0.51100000000E-03 0.  1.
        -12    1    3    3    0    0 -0.24599834832E+02 -0.21451967860E+02  0.18343359635E+02  0.37440855245E+02  0.00000000000E+00 0.  1.
</event>
<event>
 7    1  0.3757412E-015  0.9000770E+02  0.7816164E-02  0.1186339E+00
        -11   -1    0    0    0    0  0.00000000000E+00  0.00000000000E+00  0.45593999997E+02  0.45594000000E+02  0.51100000000E-03 0.  1.
         11   -1    0    0    0    0 -0.00000000000E+00 -0.00000000000E+00 -0.45593999997E+02  0.45594000000E+02  0.51100000000E-03 0. -1.
    9900012    2    1    2    0    0  0.98395237983E+00  0.64456272796E+00  0.97384933240E-01  0.90007700368E+02  0.89999961213E+02 0.  0.
        -12    1    1    2    0    0 -0.98395237983E+00 -0.64456272796E+00 -0.97384933240E-01  0.11802996320E+01  0.00000000000E+00 0.  1.
         11    1    3    3    0    0 -0.15197813648E+02 -0.20449510270E+02 -0.27276267569E+02  0.37324935133E+02  0.51100000000E-03 0. -1.
        -11    1    3    3    0    0  0.73291318461E+01 -0.39738755895E+01 -0.58108614211E+01  0.10162380210E+02  0.51100000000E-03 0.  1.
        -12    1    3    3    0    0  0.88526341814E+01  0.25067948587E+02  0.33184513923E+02  0.42520385025E+02  0.00000000000E+00 0.  1.
</event>
<event>
 7    1  0.3757412E-015  0.9000786E+02  0.7816164E-02  0.1186339E+00
        -11   -1    0    0    0    0  0.00000000000E+00  0.00000000000E+00  0.45593999997E+02  0.45594000000E+02  0.51100000000E-03 0. -1.
         11   -1    0    0    0    0 -0.00000000000E+00 -0.00000000000E+00 -0.45593999997E+02  0.45594000000E+02  0.51100000000E-03 0.  1.
    9900012    2    1    2    0    0 -0.70844010804E+00 -0.53366234799E+00  0.77849429392E+00  0.90007857528E+02  0.90000120447E+02 0.  0.
        -12    1    1    2    0    0  0.70844010804E+00  0.53366234799E+00 -0.77849429392E+00  0.11801424719E+01  0.00000000000E+00 0.  1.
         11    1    3    3    0    0 -0.20054025514E+02  0.32805006632E+02  0.12111468605E+02  0.40311537696E+02  0.51100000000E-03 0. -1.
        -11    1    3    3    0    0  0.54203627439E+01  0.36093885786E+01 -0.76401810222E+01  0.10038943396E+02  0.51100000000E-03 0.  1.
        -12    1    3    3    0    0  0.13925222662E+02 -0.36948057558E+02 -0.36927932893E+01  0.39657376436E+02  0.00000000000E+00 0.  1.
</event>
<event>
 7    1  0.3757412E-015  0.9000770E+02  0.7816164E-02  0.1186339E+00
        -11   -1    0    0    0    0  0.00000000000E+00  0.00000000000E+00  0.45593999997E+02  0.45594000000E+02  0.51100000000E-03 0.  1.
         11   -1    0    0    0    0 -0.00000000000E+00 -0.00000000000E+00 -0.45593999997E+02  0.45594000000E+02  0.51100000000E-03 0. -1.
    9900012    2    1    2    0    0 -0.82602817347E+00  0.78676401140E+00 -0.30296252645E+00  0.90007700697E+02  0.89999961546E+02 0.  0.
        -12    1    1    2    0    0  0.82602817347E+00 -0.78676401140E+00  0.30296252645E+00  0.11802993033E+01  0.00000000000E+00 0.  1.
         11    1    3    3    0    0  0.29443868540E+02  0.19641093390E+02 -0.25798658190E+02  0.43798227234E+02  0.51100000000E-03 0. -1.
        -11    1    3    3    0    0 -0.10063173377E+02  0.32619006402E-01  0.28407464488E+01  0.10456498605E+02  0.51100000000E-03 0.  1.
        -12    1    3    3    0    0 -0.20206723336E+02 -0.18886948385E+02  0.22654949215E+02  0.35752974858E+02  0.00000000000E+00 0.  1.
</event>
<event>
 7    1  0.3757412E-015  0.9000770E+02  0.7816164E-02  0.1186339E+00
        -11   -1    0    0    0    0  0.00000000000E+00  0.00000000000E+00  0.45593999997E+02  0.45594000000E+02  0.51100000000E-03 0.  1.
         11   -1    0    0    0    0 -0.00000000000E+00 -0.00000000000E+00 -0.45593999997E+02  0.45594000000E+02  0.51100000000E-03 0. -1.
    9900012    2    1    2    0    0  0.10962986405E+01  0.43226906277E+00 -0.66208993509E-01  0.90007698817E+02  0.89999959641E+02 0.  0.
        -12    1    1    2    0    0 -0.10962986405E+01 -0.43226906277E+00  0.66208993509E-01  0.11803011830E+01  0.00000000000E+00 0.  1.
         11    1    3    3    0    0  0.16249075305E+02  0.32369305672E+02  0.11059524638E+02  0.37869743641E+02  0.51100000000E-03 0. -1.
        -11    1    3    3    0    0 -0.39023940957E+01  0.77189594058E+01  0.20001761704E+01  0.88775964630E+01  0.51100000000E-03 0.  1.
        -12    1    3    3    0    0 -0.11250382569E+02 -0.39655996015E+02 -0.13125909802E+02  0.43260358713E+02  0.00000000000E+00 0.  1.
</event>
<event>
 7    1  0.3757412E-015  0.9000790E+02  0.7816164E-02  0.1186339E+00
        -11   -1    0    0    0    0  0.00000000000E+00  0.00000000000E+00  0.45593999997E+02  0.45594000000E+02  0.51100000000E-03 0. -1.
         11   -1    0    0    0    0 -0.00000000000E+00 -0.00000000000E+00 -0.45593999997E+02  0.45594000000E+02  0.51100000000E-03 0.  1.
    9900012    2    1    2    0    0  0.51615213158E+00  0.88169512309E+00  0.59062178873E+00  0.90007901101E+02  0.90000164596E+02 0.  0.
        -12    1    1    2    0    0 -0.51615213158E+00 -0.88169512309E+00 -0.59062178873E+00  0.11800988985E+01  0.00000000000E+00 0.  1.
         11    1    3    3    0    0 -0.74593945070E+01 -0.18158190476E+02 -0.34012284979E+02  0.39270828582E+02  0.51100000000E-03 0. -1.
        -11    1    3    3    0    0  0.57565619910E+01  0.27864870224E+01 -0.48389836846E+01  0.80198677822E+01  0.51100000000E-03 0.  1.
        -12    1    3    3    0    0  0.22189846475E+01  0.16253398576E+02  0.39441890452E+02  0.42717204737E+02  0.00000000000E+00 0.  1.
</event>
<event>
 7    1  0.3757412E-015  0.9000774E+02  0.7816164E-02  0.1186339E+00
        -11   -1    0    0    0    0  0.00000000000E+00  0.00000000000E+00  0.45593999997E+02  0.45594000000E+02  0.51100000000E-03 0.  1.
         11   -1    0    0    0    0 -0.00000000000E+00 -0.00000000000E+00 -0.45593999997E+02  0.45594000000E+02  0.51100000000E-03 0. -1.
    9900012    2    1    2    0    0  0.47052125601E+00  0.10754547444E+01 -0.12253912848E+00  0.90007741978E+02  0.90000003372E+02 0.  0.
        -12    1    1    2    0    0 -0.47052125601E+00 -0.10754547444E+01  0.12253912848E+00  0.11802580216E+01  0.00000000000E+00 0.  1.
         11    1    3    3    0    0  0.27980460059E+02 -0.27251296879E+02 -0.48053841933E+01  0.39352649773E+02  0.51100000000E-03 0. -1.
        -11    1    3    3    0    0  0.64266089671E+01  0.97031559365E+01  0.23554491381E+01  0.11874370672E+02  0.51100000000E-03 0.  1.
        -12    1    3    3    0    0 -0.33936547770E+02  0.18623595687E+02  0.23273959268E+01  0.38780721533E+02  0.00000000000E+00 0.  1.
</event>
<event>
 7    1  0.3757412E-015  0.9000780E+02  0.7816164E-02  0.1186339E+00
        -11   -1    0    0    0    0  0.00000000000E+00  0.00000000000E+00  0.45593999997E+02  0.45594000000E+02  0.51100000000E-03 0.  1.
         11   -1    0    0    0    0 -0.00000000000E+00 -0.00000000000E+00 -0.45593999997E+02  0.45594000000E+02  0.51100000000E-03 0. -1.
    9900012    2    1    2    0    0 -0.12643624933E+00 -0.95897787932E+00 -0.67620560710E+00  0.90007797169E+02  0.90000059292E+02 0.  0.
        -12    1    1    2    0    0  0.12643624933E+00  0.95897787932E+00  0.67620560710E+00  0.11802028305E+01  0.00000000000E+00 0.  1.
         11    1    3    3    0    0  0.47979587413E+01 -0.33740922482E+01  0.35303680854E+01  0.68460503695E+01  0.51100000000E-03 0. -1.
        -11    1    3    3    0    0 -0.14524859235E+00 -0.37848871825E+02 -0.15763033399E+02  0.41000383142E+02  0.51100000000E-03 0.  1.
         12    1    3    3    0    0 -0.47791463982E+01  0.40263986194E+02  0.11556459707E+02  0.42161363658E+02  0.00000000000E+00 0. -1.
</event>
<event>
 7    1  0.3757412E-015  0.9000778E+02  0.7816164E-02  0.1186339E+00
        -11   -1    0    0    0    0  0.00000000000E+00  0.00000000000E+00  0.45593999997E+02  0.45594000000E+02  0.51100000000E-03 0.  1.
         11   -1    0    0    0    0 -0.00000000000E+00 -0.00000000000E+00 -0.45593999997E+02  0.45594000000E+02  0.51100000000E-03 0. -1.
    9900012    2    1    2    0    0  0.42319630427E+00  0.91514202542E+00 -0.61346228949E+00  0.90007781368E+02  0.90000043282E+02 0.  0.
        -12    1    1    2    0    0 -0.42319630427E+00 -0.91514202542E+00  0.61346228949E+00  0.11802186320E+01  0.00000000000E+00 0.  1.
         11    1    3    3    0    0 -0.52832880586E+01  0.93190319995E+01  0.88814385358E+01  0.13915367075E+02  0.51100000000E-03 0. -1.
        -11    1    3    3    0    0  0.23343215775E+02 -0.25139350895E+02  0.18530353369E+02  0.38990597359E+02  0.51100000000E-03 0.  1.
         12    1    3    3    0    0 -0.17636731412E+02  0.16735460921E+02 -0.28025254194E+02  0.37101816934E+02  0.00000000000E+00 0. -1.
</event>
<event>
 7    1  0.3757412E-015  0.9000764E+02  0.7816164E-02  0.1186339E+00
        -11   -1    0    0    0    0  0.00000000000E+00  0.00000000000E+00  0.45593999997E+02  0.45594000000E+02  0.51100000000E-03 0.  1.
         11   -1    0    0    0    0 -0.00000000000E+00 -0.00000000000E+00 -0.45593999997E+02  0.45594000000E+02  0.51100000000E-03 0. -1.
    9900012    2    1    2    0    0  0.10758107386E+01 -0.12269587705E+00 -0.46990982252E+00  0.90007644856E+02  0.89999904969E+02 0.  0.
        -12    1    1    2    0    0 -0.10758107386E+01  0.12269587705E+00  0.46990982252E+00  0.11803551435E+01  0.00000000000E+00 0.  1.
         11    1    3    3    0    0 -0.66850813912E+01  0.33157713762E+02 -0.27275560882E+02  0.43452048477E+02  0.51100000000E-03 0. -1.
        -11    1    3    3    0    0  0.36100519196E+01 -0.84426539891E+01 -0.76691172081E+00  0.92140672393E+01  0.51100000000E-03 0.  1.
        -12    1    3    3    0    0  0.41508402102E+01 -0.24837755650E+02  0.27572562781E+02  0.37341529140E+02  0.00000000000E+00 0.  1.
</event>
<event>
 7    1  0.3757412E-015  0.9000774E+02  0.7816164E-02  0.1186339E+00
        -11   -1    0    0    0    0  0.00000000000E+00  0.00000000000E+00  0.45593999997E+02  0.45594000000E+02  0.51100000000E-03 0. -1.
         11   -1    0    0    0    0 -0.00000000000E+00 -0.00000000000E+00 -0.45593999997E+02  0.45594000000E+02  0.51100000000E-03 0.  1.
    9900012    2    1    2    0    0  0.61495825169E+00  0.74069224589E+00 -0.68280050013E+00  0.90007739360E+02  0.90000000720E+02 0.  0.
        -12    1    1    2    0    0 -0.61495825169E+00 -0.74069224589E+00  0.68280050013E+00  0.11802606396E+01  0.00000000000E+00 0.  1.
         11    1    3    3    0    0 -0.33456305685E+01  0.95032167815E+00 -0.93826187265E+01  0.10006492374E+02  0.51100000000E-03 0. -1.
        -11    1    3    3    0    0 -0.21249858169E+02  0.15587336627E+02 -0.24104926176E+02  0.35715108869E+02  0.51100000000E-03 0.  1.
         12    1    3    3    0    0  0.25210446990E+02 -0.15796966059E+02  0.32804744402E+02  0.44286138118E+02  0.00000000000E+00 0. -1.
</event>
<event>
 7    1  0.3757412E-015  0.9000855E+02  0.7816164E-02  0.1186337E+00
        -11   -1    0    0    0    0  0.00000000000E+00  0.00000000000E+00  0.45593999997E+02  0.45594000000E+02  0.51100000000E-03 0.  1.
         11   -1    0    0    0    0 -0.00000000000E+00 -0.00000000000E+00 -0.45593999997E+02  0.45594000000E+02  0.51100000000E-03 0. -1.
    9900012    2    1    2    0    0  0.86328688590E+00  0.80341070314E+00  0.18979199129E-01  0.90008553852E+02  0.90000825959E+02 0.  0.
        -12    1    1    2    0    0 -0.86328688590E+00 -0.80341070314E+00 -0.18979199128E-01  0.11794461477E+01  0.00000000000E+00 0.  1.
         11    1    3    3    0    0  0.62916278911E+01  0.17513588660E+02 -0.35203276838E+02  0.39819355465E+02  0.51100000000E-03 0. -1.
        -11    1    3    3    0    0 -0.60401730650E+01  0.60058446578E+01  0.29843546934E+00  0.85230818780E+01  0.51100000000E-03 0.  1.
        -12    1    3    3    0    0  0.61183205972E+00 -0.22716022615E+02  0.34923820568E+02  0.41666116509E+02  0.00000000000E+00 0.  1.
</event>
<event>
 7    1  0.3757412E-015  0.9000783E+02  0.7816164E-02  0.1186339E+00
        -11   -1    0    0    0    0  0.00000000000E+00  0.00000000000E+00  0.45593999997E+02  0.45594000000E+02  0.51100000000E-03 0.  1.
         11   -1    0    0    0    0 -0.00000000000E+00 -0.00000000000E+00 -0.45593999997E+02  0.45594000000E+02  0.51100000000E-03 0. -1.
    9900012    2    1    2    0    0 -0.30511408293E+00  0.11363493812E+01  0.91707792047E-01  0.90007832707E+02  0.90000095299E+02 0.  0.
        -12    1    1    2    0    0  0.30511408293E+00 -0.11363493812E+01 -0.91707792047E-01  0.11801672928E+01  0.00000000000E+00 0.  1.
         11    1    3    3    0    0 -0.32392597283E+02 -0.70100855268E+01 -0.18184607638E+02  0.37803460331E+02  0.51100000000E-03 0. -1.
        -11    1    3    3    0    0  0.43539510498E+01  0.40065903861E+01 -0.10482899261E+02  0.12037476207E+02  0.51100000000E-03 0.  1.
        -12    1    3    3    0    0  0.27733532150E+02  0.41398445219E+01  0.28759214691E+02  0.40166896169E+02  0.00000000000E+00 0.  1.
</event>
<event>
 7    1  0.3757412E-015  0.9000776E+02  0.7816164E-02  0.1186339E+00
        -11   -1    0    0    0    0  0.00000000000E+00  0.00000000000E+00  0.45593999997E+02  0.45594000000E+02  0.51100000000E-03 0.  1.
         11   -1    0    0    0    0 -0.00000000000E+00 -0.00000000000E+00 -0.45593999997E+02  0.45594000000E+02  0.51100000000E-03 0. -1.
    9900012    2    1    2    0    0 -0.36459671231E+00 -0.83750100188E+00  0.74741855821E+00  0.90007757147E+02  0.90000018741E+02 0.  0.
        -12    1    1    2    0    0  0.36459671231E+00  0.83750100188E+00 -0.74741855821E+00  0.11802428529E+01  0.00000000000E+00 0.  1.
         11    1    3    3    0    0  0.83302902963E+01  0.36789022581E+01 -0.56037881437E+01  0.10692544134E+02  0.51100000000E-03 0. -1.
        -11    1    3    3    0    0  0.33808038421E+02 -0.98444270350E+01  0.91712165942E+01  0.36386912752E+02  0.51100000000E-03 0.  1.
         12    1    3    3    0    0 -0.42502925430E+02  0.53280237750E+01 -0.28200098922E+01  0.42928300260E+02  0.00000000000E+00 0. -1.
</event>
<event>
 7    1  0.3757412E-015  0.9000767E+02  0.7816164E-02  0.1186339E+00
        -11   -1    0    0    0    0  0.00000000000E+00  0.00000000000E+00  0.45593999997E+02  0.45594000000E+02  0.51100000000E-03 0. -1.
         11   -1    0    0    0    0 -0.00000000000E+00 -0.00000000000E+00 -0.45593999997E+02  0.45594000000E+02  0.51100000000E-03 0.  1.
    9900012    2    1    2    0    0 -0.85127222967E+00 -0.54970657941E+00  0.60525069361E+00  0.90007673717E+02  0.89999934210E+02 0.  0.
        -12    1    1    2    0    0  0.85127222967E+00  0.54970657941E+00 -0.60525069361E+00  0.11803262831E+01  0.00000000000E+00 0.  1.
         11    1    3    3    0    0  0.80261842492E+01  0.40162043863E+01 -0.31718943394E+01  0.95189518980E+01  0.51100000000E-03 0. -1.
        -11    1    3    3    0    0  0.33354768900E+02  0.98978834219E+00 -0.11409931708E+02  0.35266227912E+02  0.51100000000E-03 0.  1.
         12    1    3    3    0    0 -0.42232225379E+02 -0.55556993079E+01  0.15187076741E+02  0.45222493907E+02  0.00000000000E+00 0. -1.
</event>
<event>
 7    1  0.3757412E-015  0.9000744E+02  0.7816164E-02  0.1186340E+00
        -11   -1    0    0    0    0  0.00000000000E+00  0.00000000000E+00  0.45593999997E+02  0.45594000000E+02  0.51100000000E-03 0. -1.
         11   -1    0    0    0    0 -0.00000000000E+00 -0.00000000000E+00 -0.45593999997E+02  0.45594000000E+02  0.51100000000E-03 0.  1.
    9900012    2    1    2    0    0 -0.26837483181E+00  0.10538334139E+01 -0.45949037627E+00  0.90007440251E+02  0.89999697662E+02 0.  0.
        -12    1    1    2    0    0  0.26837483181E+00 -0.10538334139E+01  0.45949037627E+00  0.11805597488E+01  0.00000000000E+00 0.  1.
         11    1    3    3    0    0 -0.34266477335E+02 -0.77154193646E+01  0.16504564340E+02  0.38808759440E+02  0.51100000000E-03 0. -1.
        -11    1    3    3    0    0 -0.52549488529E+01 -0.40626628217E+01 -0.24883110040E+00  0.66469266453E+01  0.51100000000E-03 0.  1.
        -12    1    3    3    0    0  0.39253051356E+02  0.12831915600E+02 -0.16715223616E+02  0.44551754166E+02  0.00000000000E+00 0.  1.
</event>
<event>
 7    1  0.3757412E-015  0.9000762E+02  0.7816164E-02  0.1186339E+00
        -11   -1    0    0    0    0  0.00000000000E+00  0.00000000000E+00  0.45593999997E+02  0.45594000000E+02  0.51100000000E-03 0.  1.
         11   -1    0    0    0    0 -0.00000000000E+00 -0.00000000000E+00 -0.45593999997E+02  0.45594000000E+02  0.51100000000E-03 0. -1.
    9900012    2    1    2    0    0 -0.29381272159E+00 -0.11343314873E+01 -0.14235701384E+00  0.90007618978E+02  0.89999878748E+02 0.  0.
        -12    1    1    2    0    0  0.29381272159E+00  0.11343314873E+01  0.14235701384E+00  0.11803810223E+01  0.00000000000E+00 0.  1.
         11    1    3    3    0    0  0.21758245088E+02  0.55216394982E+01 -0.25965264448E+02  0.34323529687E+02  0.51100000000E-03 0. -1.
        -11    1    3    3    0    0  0.53273871560E+01  0.14003266848E+02  0.90471924975E+01  0.17502120691E+02  0.51100000000E-03 0.  1.
        -12    1    3    3    0    0 -0.27379444966E+02 -0.20659237834E+02  0.16775714937E+02  0.38181968600E+02  0.00000000000E+00 0.  1.
</event>
<event>
 7    1  0.3757412E-015  0.9000776E+02  0.7816164E-02  0.1186339E+00
        -11   -1    0    0    0    0  0.00000000000E+00  0.00000000000E+00  0.45593999997E+02  0.45594000000E+02  0.51100000000E-03 0.  1.
         11   -1    0    0    0    0 -0.00000000000E+00 -0.00000000000E+00 -0.45593999997E+02  0.45594000000E+02  0.51100000000E-03 0. -1.
    9900012    2    1    2    0    0 -0.23112149294E+00  0.81595297812E+00 -0.82082958058E+00  0.90007763749E+02  0.90000025431E+02 0.  0.
        -12    1    1    2    0    0  0.23112149294E+00 -0.81595297812E+00  0.82082958058E+00  0.11802362507E+01  0.00000000000E+00 0.  1.
         11    1    3    3    0    0  0.33278340573E+02  0.31845078205E+01 -0.22821193233E+02  0.40477103431E+02  0.51100000000E-03 0. -1.
        -11    1    3    3    0    0  0.37503635701E+01 -0.58231678073E+01  0.27800230107E+01  0.74634468191E+01  0.51100000000E-03 0.  1.
        -12    1    3    3    0    0 -0.37259825636E+02  0.34546129650E+01  0.19220340642E+02  0.42067213499E+02  0.00000000000E+00 0.  1.
</event>
<event>
 7    1  0.3757412E-015  0.9000772E+02  0.7816164E-02  0.1186339E+00
        -11   -1    0    0    0    0  0.00000000000E+00  0.00000000000E+00  0.45593999997E+02  0.45594000000E+02  0.51100000000E-03 0.  1.
         11   -1    0    0    0    0 -0.00000000000E+00 -0.00000000000E+00 -0.45593999997E+02  0.45594000000E+02  0.51100000000E-03 0. -1.
    9900012    2    1    2    0    0 -0.97454298135E+00  0.55038458335E+00 -0.37469930035E+00  0.90007721737E+02  0.89999982864E+02 0.  0.
        -12    1    1    2    0    0  0.97454298135E+00 -0.55038458335E+00  0.37469930035E+00  0.11802782629E+01  0.00000000000E+00 0.  1.
         11    1    3    3    0    0 -0.20953046278E+01  0.95321013514E+01 -0.10192845167E+01  0.98127569440E+01  0.51100000000E-03 0. -1.
        -11    1    3    3    0    0 -0.34850097672E+02  0.11335991998E+02  0.96837572114E+01  0.37905265812E+02  0.51100000000E-03 0.  1.
         12    1    3    3    0    0  0.35970859318E+02 -0.20317708766E+02 -0.90391719950E+01  0.42289698981E+02  0.00000000000E+00 0. -1.
</event>
<event>
 7    1  0.3757412E-015  0.9000770E+02  0.7816164E-02  0.1186339E+00
        -11   -1    0    0    0    0  0.00000000000E+00  0.00000000000E+00  0.45593999997E+02  0.45594000000E+02  0.51100000000E-03 0. -1.
         11   -1    0    0    0    0 -0.00000000000E+00 -0.00000000000E+00 -0.45593999997E+02  0.45594000000E+02  0.51100000000E-03 0.  1.
    9900012    2    1    2    0    0 -0.38639562551E+00  0.17811651615E+00  0.11009492801E+01  0.90007696484E+02  0.89999957278E+02 0.  0.
        -12    1    1    2    0    0  0.38639562551E+00 -0.17811651615E+00 -0.11009492801E+01  0.11803035161E+01  0.00000000000E+00 0.  1.
         11    1    3    3    0    0  0.21600949740E+02 -0.26318739946E+02  0.26085039957E+02  0.42891798888E+02  0.51100000000E-03 0. -1.
        -11    1    3    3    0    0 -0.11346728650E+02  0.46201453050E+01 -0.95494614143E-02  0.12251289122E+02  0.51100000000E-03 0.  1.
        -12    1    3    3    0    0 -0.10640616716E+02  0.21876711158E+02 -0.24974541215E+02  0.34864608474E+02  0.00000000000E+00 0.  1.
</event>
<event>
 7    1  0.3757412E-015  0.9000763E+02  0.7816164E-02  0.1186339E+00
        -11   -1    0    0    0    0  0.00000000000E+00  0.00000000000E+00  0.45593999997E+02  0.45594000000E+02  0.51100000000E-03 0.  1.
         11   -1    0    0    0    0 -0.00000000000E+00 -0.00000000000E+00 -0.45593999997E+02  0.45594000000E+02  0.51100000000E-03 0. -1.
    9900012    2    1    2    0    0 -0.67252262015E+00 -0.60252348340E+00 -0.76022801830E+00  0.90007632319E+02  0.89999892265E+02 0.  0.
        -12    1    1    2    0    0  0.67252262015E+00  0.60252348340E+00  0.76022801830E+00  0.11803676810E+01  0.00000000000E+00 0.  1.
         11    1    3    3    0    0 -0.17666568802E+02  0.32190391631E+02 -0.81018541761E+01  0.37602779258E+02  0.51100000000E-03 0. -1.
        -11    1    3    3    0    0 -0.26563020273E+01  0.50921717683E+01 -0.53815436882E+01  0.78706522289E+01  0.51100000000E-03 0.  1.
        -12    1    3    3    0    0  0.19650348209E+02 -0.37885086882E+02  0.12723169846E+02  0.44534200832E+02  0.00000000000E+00 0.  1.
</event>
<event>
 7    1  0.3757412E-015  0.9000789E+02  0.7816164E-02  0.1186339E+00
        -11   -1    0    0    0    0  0.00000000000E+00  0.00000000000E+00  0.45593999997E+02  0.45594000000E+02  0.51100000000E-03 0. -1.
         11   -1    0    0    0    0 -0.00000000000E+00 -0.00000000000E+00 -0.45593999997E+02  0.45594000000E+02  0.51100000000E-03 0.  1.
    9900012    2    1    2    0    0 -0.62488745168E+00 -0.80609508165E+00  0.59362417970E+00  0.90007888448E+02  0.90000151776E+02 0.  0.
        -12    1    1    2    0    0  0.62488745168E+00  0.80609508165E+00 -0.59362417970E+00  0.11801115518E+01  0.00000000000E+00 0.  1.
         11    1    3    3    0    0  0.15932769870E+02  0.37395884635E+02 -0.78988760833E+01  0.41408907098E+02  0.51100000000E-03 0. -1.
        -11    1    3    3    0    0 -0.91973325522E+01 -0.21436206019E+01 -0.32208542121E+01  0.99779726136E+01  0.51100000000E-03 0.  1.
        -12    1    3    3    0    0 -0.73603247692E+01 -0.36058359115E+02  0.11713354475E+02  0.38621008737E+02  0.00000000000E+00 0.  1.
</event>
<event>
 7    1  0.3757412E-015  0.9000778E+02  0.7816164E-02  0.1186339E+00
        -11   -1    0    0    0    0  0.00000000000E+00  0.00000000000E+00  0.45593999997E+02  0.45594000000E+02  0.51100000000E-03 0.  1.
         11   -1    0    0    0    0 -0.00000000000E+00 -0.00000000000E+00 -0.45593999997E+02  0.45594000000E+02  0.51100000000E-03 0. -1.
    9900012    2    1    2    0    0  0.10121042393E+01  0.58938626577E+00 -0.14557173647E+00  0.90007778711E+02  0.90000040590E+02 0.  0.
        -12    1    1    2    0    0 -0.10121042393E+01 -0.58938626577E+00  0.14557173647E+00  0.11802212894E+01  0.00000000000E+00 0.  1.
         11    1    3    3    0    0 -0.39814656440E+02  0.16649951944E+01  0.18164676863E+02  0.43794229783E+02  0.51100000000E-03 0. -1.
        -11    1    3    3    0    0  0.37715783088E+01 -0.32798348871E+01 -0.41043631583E+01  0.64674505814E+01  0.51100000000E-03 0.  1.
        -12    1    3    3    0    0  0.37055182371E+02  0.22042259585E+01 -0.14205885441E+02  0.39746098347E+02  0.00000000000E+00 0.  1.
</event>
<event>
 7    1  0.3757412E-015  0.9000748E+02  0.7816164E-02  0.1186340E+00
        -11   -1    0    0    0    0  0.00000000000E+00  0.00000000000E+00  0.45593999997E+02  0.45594000000E+02  0.51100000000E-03 0.  1.
         11   -1    0    0    0    0 -0.00000000000E+00 -0.00000000000E+00 -0.45593999997E+02  0.45594000000E+02  0.51100000000E-03 0. -1.
    9900012    2    1    2    0    0 -0.21932058586E+00  0.85308396472E+00  0.78598453995E+00  0.90007480848E+02  0.89999738795E+02 0.  0.
        -12    1    1    2    0    0  0.21932058586E+00 -0.85308396472E+00 -0.78598453995E+00  0.11805191516E+01  0.00000000000E+00 0.  1.
         11    1    3    3    0    0  0.92332582583E+01  0.49684964834E+01 -0.38666634035E+02  0.40063045357E+02  0.51100000000E-03 0. -1.
        -11    1    3    3    0    0  0.78884103463E+01  0.32846075734E+01  0.32793603964E+01  0.91525881352E+01  0.51100000000E-03 0.  1.
        -12    1    3    3    0    0 -0.17340989190E+02 -0.74000200920E+01  0.36173258179E+02  0.40791847356E+02  0.00000000000E+00 0.  1.
</event>
<event>
 7    1  0.3757412E-015  0.9000773E+02  0.7816164E-02  0.1186339E+00
        -11   -1    0    0    0    0  0.00000000000E+00  0.00000000000E+00  0.45593999997E+02  0.45594000000E+02  0.51100000000E-03 0.  1.
         11   -1    0    0    0    0 -0.00000000000E+00 -0.00000000000E+00 -0.45593999997E+02  0.45594000000E+02  0.51100000000E-03 0. -1.
    9900012    2    1    2    0    0 -0.88896783033E+00 -0.31454627077E+00 -0.70980843426E+00  0.90007732584E+02  0.89999993854E+02 0.  0.
        -12    1    1    2    0    0  0.88896783033E+00  0.31454627077E+00  0.70980843426E+00  0.11802674160E+01  0.00000000000E+00 0.  1.
         11    1    3    3    0    0 -0.55336055482E+01  0.11504945265E+02  0.29920809824E+02  0.32530592013E+02  0.51100000000E-03 0. -1.
        -11    1    3    3    0    0 -0.12378542836E+02  0.53767998470E+01  0.50124595283E+01  0.14396633291E+02  0.51100000000E-03 0.  1.
        -12    1    3    3    0    0  0.17023180553E+02 -0.17196291382E+02 -0.35643077786E+02  0.43080507281E+02  0.00000000000E+00 0.  1.
</event>
<event>
 7    1  0.3757412E-015  0.9000774E+02  0.7816164E-02  0.1186339E+00
        -11   -1    0    0    0    0  0.00000000000E+00  0.00000000000E+00  0.45593999997E+02  0.45594000000E+02  0.51100000000E-03 0.  1.
         11   -1    0    0    0    0 -0.00000000000E+00 -0.00000000000E+00 -0.45593999997E+02  0.45594000000E+02  0.51100000000E-03 0. -1.
    9900012    2    1    2    0    0  0.67153349983E+00  0.53210893455E+00 -0.81173759514E+00  0.90007739400E+02  0.90000000760E+02 0.  0.
        -12    1    1    2    0    0 -0.67153349983E+00 -0.53210893455E+00  0.81173759514E+00  0.11802605996E+01  0.00000000000E+00 0.  1.
         11    1    3    3    0    0  0.72380087544E+01 -0.29044737195E+01  0.50504897247E+01  0.92915114506E+01  0.51100000000E-03 0. -1.
        -11    1    3    3    0    0  0.36879243583E+02  0.31836312308E+01 -0.39684262248E+01  0.37228517591E+02  0.51100000000E-03 0.  1.
         12    1    3    3    0    0 -0.43445718837E+02  0.25295142333E+00 -0.18938010951E+01  0.43487710359E+02  0.00000000000E+00 0. -1.
</event>
<event>
 7    1  0.3757412E-015  0.9000772E+02  0.7816164E-02  0.1186339E+00
        -11   -1    0    0    0    0  0.00000000000E+00  0.00000000000E+00  0.45593999997E+02  0.45594000000E+02  0.51100000000E-03 0.  1.
         11   -1    0    0    0    0 -0.00000000000E+00 -0.00000000000E+00 -0.45593999997E+02  0.45594000000E+02  0.51100000000E-03 0. -1.
    9900012    2    1    2    0    0  0.30867664129E+00 -0.15267573096E+00 -0.11289224989E+01  0.90007721577E+02  0.89999982702E+02 0.  0.
        -12    1    1    2    0    0 -0.30867664129E+00  0.15267573096E+00  0.11289224989E+01  0.11802784232E+01  0.00000000000E+00 0.  1.
         11    1    3    3    0    0  0.33063233088E+01 -0.55151199900E+01 -0.65076636554E+01  0.91486615873E+01  0.51100000000E-03 0. -1.
        -11    1    3    3    0    0 -0.20862314635E+02 -0.30078606998E+02 -0.10546207087E+02  0.38094373011E+02  0.51100000000E-03 0.  1.
         12    1    3    3    0    0  0.17864667968E+02  0.35441051258E+02  0.15924948244E+02  0.42764686979E+02  0.00000000000E+00 0. -1.
</event>
<event>
 7    1  0.3757412E-015  0.9000776E+02  0.7816164E-02  0.1186339E+00
        -11   -1    0    0    0    0  0.00000000000E+00  0.00000000000E+00  0.45593999997E+02  0.45594000000E+02  0.51100000000E-03 0. -1.
         11   -1    0    0    0    0 -0.00000000000E+00 -0.00000000000E+00 -0.45593999997E+02  0.45594000000E+02  0.51100000000E-03 0.  1.
    9900012    2    1    2    0    0 -0.48008091899E+00 -0.10387525344E+01  0.28894033963E+00  0.90007758060E+02  0.90000019667E+02 0.  0.
        -12    1    1    2    0    0  0.48008091899E+00  0.10387525344E+01 -0.28894033963E+00  0.11802419398E+01  0.00000000000E+00 0.  1.
         11    1    3    3    0    0 -0.33811121072E+01  0.24009756545E+01 -0.82763397888E+01  0.92571271859E+01  0.51100000000E-03 0. -1.
        -11    1    3    3    0    0 -0.88820161156E+01 -0.62219608031E+01 -0.34422574282E+02  0.36090395218E+02  0.51100000000E-03 0.  1.
         12    1    3    3    0    0  0.11783047304E+02  0.27822326142E+01  0.42987854410E+02  0.44660235657E+02  0.00000000000E+00 0. -1.
</event>
<event>
 7    1  0.3757412E-015  0.9000790E+02  0.7816164E-02  0.1186339E+00
        -11   -1    0    0    0    0  0.00000000000E+00  0.00000000000E+00  0.45593999997E+02  0.45594000000E+02  0.51100000000E-03 0.  1.
         11   -1    0    0    0    0 -0.00000000000E+00 -0.00000000000E+00 -0.45593999997E+02  0.45594000000E+02  0.51100000000E-03 0. -1.
    9900012    2    1    2    0    0 -0.10600536011E+01  0.46734650649E+00 -0.22476713447E+00  0.90007895488E+02  0.90000158908E+02 0.  0.
        -12    1    1    2    0    0  0.10600536011E+01 -0.46734650649E+00  0.22476713447E+00  0.11801045119E+01  0.00000000000E+00 0.  1.
         11    1    3    3    0    0 -0.17582116066E+02 -0.59203892732E+01  0.15143763477E+02  0.23948181288E+02  0.51100000000E-03 0. -1.
        -11    1    3    3    0    0  0.26743816239E+02 -0.72416686645E+01  0.14800852200E+02  0.31412397205E+02  0.51100000000E-03 0.  1.
         12    1    3    3    0    0 -0.10221753774E+02  0.13629404444E+02 -0.30169382811E+02  0.34647316995E+02  0.00000000000E+00 0. -1.
</event>
<event>
 7    1  0.3757412E-015  0.9000765E+02  0.7816164E-02  0.1186339E+00
        -11   -1    0    0    0    0  0.00000000000E+00  0.00000000000E+00  0.45593999997E+02  0.45594000000E+02  0.51100000000E-03 0. -1.
         11   -1    0    0    0    0 -0.00000000000E+00 -0.00000000000E+00 -0.45593999997E+02  0.45594000000E+02  0.51100000000E-03 0.  1.
    9900012    2    1    2    0    0 -0.41323525404E-01  0.97495780216E+00  0.66405264508E+00  0.90007654176E+02  0.89999914411E+02 0.  0.
        -12    1    1    2    0    0  0.41323525404E-01 -0.97495780216E+00 -0.66405264508E+00  0.11803458244E+01  0.00000000000E+00 0.  1.
         11    1    3    3    0    0 -0.22100605417E+02 -0.53719114825E+01  0.50710762333E+01  0.23302575119E+02  0.51100000000E-03 0. -1.
        -11    1    3    3    0    0 -0.21378324520E+02 -0.42648072801E+00  0.44959370924E+01  0.21850128047E+02  0.51100000000E-03 0.  1.
         12    1    3    3    0    0  0.43437606411E+02  0.67733500126E+01 -0.89029606807E+01  0.44854951009E+02  0.00000000000E+00 0. -1.
</event>
<event>
 7    1  0.3757412E-015  0.9000778E+02  0.7816164E-02  0.1186339E+00
        -11   -1    0    0    0    0  0.00000000000E+00  0.00000000000E+00  0.45593999997E+02  0.45594000000E+02  0.51100000000E-03 0.  1.
         11   -1    0    0    0    0 -0.00000000000E+00 -0.00000000000E+00 -0.45593999997E+02  0.45594000000E+02  0.51100000000E-03 0. -1.
    9900012    2    1    2    0    0  0.11025467952E+01  0.40278408243E+00  0.12278589921E+00  0.90007779330E+02  0.90000041217E+02 0.  0.
        -12    1    1    2    0    0 -0.11025467952E+01 -0.40278408243E+00 -0.12278589921E+00  0.11802206699E+01  0.00000000000E+00 0.  1.
         11    1    3    3    0    0  0.15361905169E+02 -0.26858669287E+02  0.18629069096E+02  0.36116733822E+02  0.51100000000E-03 0. -1.
        -11    1    3    3    0    0  0.11445579463E+02  0.36444557087E+01  0.36402561448E+01  0.12551287254E+02  0.51100000000E-03 0.  1.
        -12    1    3    3    0    0 -0.25704937838E+02  0.23616997661E+02 -0.22146539341E+02  0.41339758255E+02  0.00000000000E+00 0.  1.
</event>
<event>
 7    1  0.3757412E-015  0.9000764E+02  0.7816164E-02  0.1186339E+00
        -11   -1    0    0    0    0  0.00000000000E+00  0.00000000000E+00  0.45593999997E+02  0.45594000000E+02  0.51100000000E-03 0.  1.
         11   -1    0    0    0    0 -0.00000000000E+00 -0.00000000000E+00 -0.45593999997E+02  0.45594000000E+02  0.51100000000E-03 0. -1.
    9900012    2    1    2    0    0  0.37257839051E+00 -0.31384374363E-01 -0.11195713416E+01  0.90007644280E+02  0.89999904385E+02 0.  0.
        -12    1    1    2    0    0 -0.37257839051E+00  0.31384374363E-01  0.11195713416E+01  0.11803557197E+01  0.00000000000E+00 0.  1.
         11    1    3    3    0    0 -0.36899525868E+02 -0.50919628017E+01 -0.39805443491E+01  0.37461284389E+02  0.51100000000E-03 0. -1.
        -11    1    3    3    0    0 -0.61297835134E+00 -0.22307415671E+01 -0.11235642134E+02  0.11471338405E+02  0.51100000000E-03 0.  1.
        -12    1    3    3    0    0  0.37885082610E+02  0.72913199945E+01  0.14096615141E+02  0.41075021486E+02  0.00000000000E+00 0.  1.
</event>
<event>
 7    1  0.3844187E-015  0.9000776E+02  0.7816164E-02  0.1186339E+00
        -11   -1    0    0    0    0  0.00000000000E+00  0.00000000000E+00  0.45593999997E+02  0.45594000000E+02  0.51100000000E-03 0. -1.
         11   -1    0    0    0    0 -0.00000000000E+00 -0.00000000000E+00 -0.45593999997E+02  0.45594000000E+02  0.51100000000E-03 0.  1.
    9900012    2    1    2    0    0 -0.72069689965E+00  0.16814754252E+00  0.91939969765E+00  0.90007757050E+02  0.90000018643E+02 0.  0.
        -12    1    1    2    0    0  0.72069689965E+00 -0.16814754252E+00 -0.91939969765E+00  0.11802429501E+01  0.00000000000E+00 0.  1.
         11    1    3    3    0    0 -0.35278401398E+01 -0.18338201352E+02  0.37083480959E+02  0.41520113742E+02  0.51100000000E-03 0. -1.
        -11    1    3    3    0    0 -0.61920958313E+01 -0.44237881674E+01 -0.73565492401E+01  0.10584458867E+02  0.51100000000E-03 0.  1.
        -12    1    3    3    0    0  0.89992390714E+01  0.22930137062E+02 -0.28807532021E+02  0.37903184440E+02  0.00000000000E+00 0.  1.
</event>
<event>
 7    1  0.3757412E-015  0.9000769E+02  0.7816164E-02  0.1186339E+00
        -11   -1    0    0    0    0  0.00000000000E+00  0.00000000000E+00  0.45593999997E+02  0.45594000000E+02  0.51100000000E-03 0. -1.
         11   -1    0    0    0    0 -0.00000000000E+00 -0.00000000000E+00 -0.45593999997E+02  0.45594000000E+02  0.51100000000E-03 0.  1.
    9900012    2    1    2    0    0 -0.97446427047E+00 -0.33470560121E+00  0.57577149331E+00  0.90007694418E+02  0.89999955185E+02 0.  0.
        -12    1    1    2    0    0  0.97446427047E+00  0.33470560121E+00 -0.57577149331E+00  0.11803055818E+01  0.00000000000E+00 0.  1.
         11    1    3    3    0    0 -0.31331370131E+02  0.22707317532E+02  0.16059184038E+01  0.38727974359E+02  0.51100000000E-03 0. -1.
        -11    1    3    3    0    0 -0.37786816986E+01 -0.32450996179E+01 -0.96760954351E+01  0.10882827300E+02  0.51100000000E-03 0.  1.
        -12    1    3    3    0    0  0.34135587560E+02 -0.19796923515E+02  0.86459485246E+01  0.40396892759E+02  0.00000000000E+00 0.  1.
</event>
<event>
 7    1  0.3757412E-015  0.9000747E+02  0.7816164E-02  0.1186340E+00
        -11   -1    0    0    0    0  0.00000000000E+00  0.00000000000E+00  0.45593999997E+02  0.45594000000E+02  0.51100000000E-03 0.  1.
         11   -1    0    0    0    0 -0.00000000000E+00 -0.00000000000E+00 -0.45593999997E+02  0.45594000000E+02  0.51100000000E-03 0. -1.
    9900012    2    1    2    0    0 -0.10829513872E+01 -0.46723600425E+00  0.50612463750E-01  0.90007468420E+02  0.89999726202E+02 0.  0.
        -12    1    1    2    0    0  0.10829513872E+01  0.46723600425E+00 -0.50612463750E-01  0.11805315804E+01  0.00000000000E+00 0.  1.
         11    1    3    3    0    0  0.37118014108E+01  0.62249840976E+01 -0.29909633876E+01  0.78405203256E+01  0.51100000000E-03 0. -1.
        -11    1    3    3    0    0 -0.58376157461E+01 -0.43553010940E+02 -0.55844843364E+01  0.44295925152E+02  0.51100000000E-03 0.  1.
         12    1    3    3    0    0  0.10428629481E+01  0.36860790838E+02  0.86260601878E+01  0.37871022942E+02  0.00000000000E+00 0. -1.
</event>
<event>
 7    1  0.3757412E-015  0.9000765E+02  0.7816164E-02  0.1186339E+00
        -11   -1    0    0    0    0  0.00000000000E+00  0.00000000000E+00  0.45593999997E+02  0.45594000000E+02  0.51100000000E-03 0.  1.
         11   -1    0    0    0    0 -0.00000000000E+00 -0.00000000000E+00 -0.45593999997E+02  0.45594000000E+02  0.51100000000E-03 0. -1.
    9900012    2    1    2    0    0 -0.55498090720E+00  0.94413215074E+00  0.44026436530E+00  0.90007651731E+02  0.89999911934E+02 0.  0.
        -12    1    1    2    0    0  0.55498090720E+00 -0.94413215074E+00 -0.44026436530E+00  0.11803482693E+01  0.00000000000E+00 0.  1.
         11    1    3    3    0    0 -0.27961254183E+02  0.51929425937E+01 -0.25878507307E+02  0.38451209721E+02  0.51100000000E-03 0. -1.
        -11    1    3    3    0    0  0.44926367887E+01 -0.42119465692E+01 -0.81201912438E+01  0.10191260242E+02  0.51100000000E-03 0.  1.
        -12    1    3    3    0    0  0.22913636487E+02 -0.36863873758E-01  0.34438962916E+02  0.41365181769E+02  0.00000000000E+00 0.  1.
</event>
<event>
 7    1  0.3757412E-015  0.9000781E+02  0.7816164E-02  0.1186339E+00
        -11   -1    0    0    0    0  0.00000000000E+00  0.00000000000E+00  0.45593999997E+02  0.45594000000E+02  0.51100000000E-03 0. -1.
         11   -1    0    0    0    0 -0.00000000000E+00 -0.00000000000E+00 -0.45593999997E+02  0.45594000000E+02  0.51100000000E-03 0.  1.
    9900012    2    1    2    0    0  0.92469710409E+00  0.10168099158E+00 -0.72625556264E+00  0.90007808956E+02  0.90000071234E+02 0.  0.
        -12    1    1    2    0    0 -0.92469710409E+00 -0.10168099158E+00  0.72625556264E+00  0.11801910441E+01  0.00000000000E+00 0.  1.
         11    1    3    3    0    0 -0.27356462913E+02  0.86662084646E+01  0.28588890171E+02  0.40506837370E+02  0.51100000000E-03 0. -1.
        -11    1    3    3    0    0 -0.33043467562E+01  0.27415658562E+01 -0.97768142554E+01  0.10678061063E+02  0.51100000000E-03 0.  1.
        -12    1    3    3    0    0  0.31585506773E+02 -0.11306093329E+02 -0.19538331478E+02  0.38822910522E+02  0.00000000000E+00 0.  1.
</event>
<event>
 7    1  0.3757412E-015  0.9000769E+02  0.7816164E-02  0.1186339E+00
        -11   -1    0    0    0    0  0.00000000000E+00  0.00000000000E+00  0.45593999997E+02  0.45594000000E+02  0.51100000000E-03 0. -1.
         11   -1    0    0    0    0 -0.00000000000E+00 -0.00000000000E+00 -0.45593999997E+02  0.45594000000E+02  0.51100000000E-03 0.  1.
    9900012    2    1    2    0    0  0.81746907884E+00 -0.67455331507E+00 -0.51946509581E+00  0.90007694169E+02  0.89999954932E+02 0.  0.
        -12    1    1    2    0    0 -0.81746907884E+00  0.67455331507E+00  0.51946509581E+00  0.11803058313E+01  0.00000000000E+00 0.  1.
         11    1    3    3    0    0  0.18235046603E+01  0.98777482806E+01 -0.40650822729E+01  0.10836049764E+02  0.51100000000E-03 0. -1.
        -11    1    3    3    0    0  0.29167187616E+01 -0.39561134440E+02 -0.17257345673E+02  0.43259757125E+02  0.51100000000E-03 0.  1.
         12    1    3    3    0    0 -0.39227543431E+01  0.29008832845E+02  0.20802962850E+02  0.35911887280E+02  0.00000000000E+00 0. -1.
</event>
<event>
 8    1  0.3757412E-015  0.9000774E+02  0.7816164E-02  0.1186339E+00
        -11   -1    0    0    0    0  0.00000000000E+00  0.00000000000E+00  0.45593999997E+02  0.45594000000E+02  0.51100000000E-03 0. -1.
         11   -1    0    0    0    0 -0.00000000000E+00 -0.00000000000E+00 -0.45593999997E+02  0.45594000000E+02  0.51100000000E-03 0.  1.
    9900012    2    1    2    0    0  0.50655234564E+00 -0.10657027403E+01  0.26457796125E-01  0.90007738324E+02  0.89999999670E+02 0.  0.
         23    2    3    3    0    0  0.69716493941E+01 -0.24887838128E+01  0.22880954408E+02  0.66213817778E+02  0.61692249513E+02 0.  0.
        -12    1    1    2    0    0 -0.50655234564E+00  0.10657027403E+01 -0.26457796125E-01  0.11802616763E+01  0.00000000000E+00 0.  1.
         11    1    4    4    0    0  0.62499066728E+01  0.24214264183E+02  0.29519577582E+02  0.38688465777E+02  0.51100000000E-03 0. -1.
        -11    1    4    4    0    0  0.72174272130E+00 -0.26703047996E+02 -0.66386231741E+01  0.27525352000E+02  0.51100000000E-03 0.  1.
        -12    1    3    3    0    0 -0.64650970485E+01  0.14230810725E+01 -0.22854496612E+02  0.23793920546E+02  0.00000000000E+00 0.  1.
</event>
<event>
 7    1  0.3757412E-015  0.9000807E+02  0.7816164E-02  0.1186338E+00
        -11   -1    0    0    0    0  0.00000000000E+00  0.00000000000E+00  0.45593999997E+02  0.45594000000E+02  0.51100000000E-03 0.  1.
         11   -1    0    0    0    0 -0.00000000000E+00 -0.00000000000E+00 -0.45593999997E+02  0.45594000000E+02  0.51100000000E-03 0. -1.
    9900012    2    1    2    0    0  0.61697558250E+00  0.75018447840E+00 -0.66993315458E+00  0.90008065234E+02  0.90000330894E+02 0.  0.
        -12    1    1    2    0    0 -0.61697558250E+00 -0.75018447840E+00  0.66993315458E+00  0.11799347663E+01  0.00000000000E+00 0.  1.
         11    1    3    3    0    0 -0.21431802017E+02 -0.28203061049E+02  0.11578649769E+02  0.37266605976E+02  0.51100000000E-03 0. -1.
        -11    1    3    3    0    0 -0.94999701287E+01  0.18879593139E+01 -0.31986085526E+01  0.10200241161E+02  0.51100000000E-03 0.  1.
        -12    1    3    3    0    0  0.31548747728E+02  0.27065286213E+02 -0.90499743712E+01  0.42541218097E+02  0.00000000000E+00 0.  1.
</event>
<event>
 7    1  0.3757412E-015  0.9000773E+02  0.7816164E-02  0.1186339E+00
        -11   -1    0    0    0    0  0.00000000000E+00  0.00000000000E+00  0.45593999997E+02  0.45594000000E+02  0.51100000000E-03 0. -1.
         11   -1    0    0    0    0 -0.00000000000E+00 -0.00000000000E+00 -0.45593999997E+02  0.45594000000E+02  0.51100000000E-03 0.  1.
    9900012    2    1    2    0    0  0.95075308937E+00 -0.67425547441E+00 -0.18569559932E+00  0.90007731074E+02  0.89999992324E+02 0.  0.
        -12    1    1    2    0    0 -0.95075308937E+00  0.67425547441E+00  0.18569559932E+00  0.11802689258E+01  0.00000000000E+00 0.  1.
         11    1    3    3    0    0  0.90981714847E+01  0.57092163966E+01 -0.12549506444E+01  0.10814193341E+02  0.51100000000E-03 0. -1.
        -11    1    3    3    0    0  0.51974975832E+00 -0.42170705644E+02 -0.21687071399E+01  0.42229632312E+02  0.51100000000E-03 0.  1.
         12    1    3    3    0    0 -0.86671681537E+01  0.35787233773E+02  0.32379621850E+01  0.36963905421E+02  0.00000000000E+00 0. -1.
</event>
<event>
 7    1  0.3757412E-015  0.9000779E+02  0.7816164E-02  0.1186339E+00
        -11   -1    0    0    0    0  0.00000000000E+00  0.00000000000E+00  0.45593999997E+02  0.45594000000E+02  0.51100000000E-03 0. -1.
         11   -1    0    0    0    0 -0.00000000000E+00 -0.00000000000E+00 -0.45593999997E+02  0.45594000000E+02  0.51100000000E-03 0.  1.
    9900012    2    1    2    0    0  0.48913367254E+00  0.72684414248E+00  0.79078583108E+00  0.90007789685E+02  0.90000051709E+02 0.  0.
        -12    1    1    2    0    0 -0.48913367254E+00 -0.72684414248E+00 -0.79078583108E+00  0.11802103150E+01  0.00000000000E+00 0.  1.
         11    1    3    3    0    0 -0.21760148657E+02 -0.81431143768E-01 -0.77907605971E+01  0.23112910928E+02  0.51100000000E-03 0. -1.
        -11    1    3    3    0    0 -0.10023713507E+02 -0.54109992661E+00 -0.20885204845E+02  0.23172384497E+02  0.51100000000E-03 0.  1.
         12    1    3    3    0    0  0.32272995836E+02  0.13493752129E+01  0.29466751273E+02  0.43722494260E+02  0.00000000000E+00 0. -1.
</event>
<event>
 7    1  0.3757412E-015  0.9000771E+02  0.7816164E-02  0.1186339E+00
        -11   -1    0    0    0    0  0.00000000000E+00  0.00000000000E+00  0.45593999997E+02  0.45594000000E+02  0.51100000000E-03 0. -1.
         11   -1    0    0    0    0 -0.00000000000E+00 -0.00000000000E+00 -0.45593999997E+02  0.45594000000E+02  0.51100000000E-03 0.  1.
    9900012    2    1    2    0    0  0.11333728012E+01 -0.32381713604E-01 -0.32787345784E+00  0.90007710423E+02  0.89999971400E+02 0.  0.
        -12    1    1    2    0    0 -0.11333728012E+01  0.32381713604E-01  0.32787345784E+00  0.11802895773E+01  0.00000000000E+00 0.  1.
         11    1    3    3    0    0 -0.11909617702E+02  0.12558175632E+02  0.32879763368E+02  0.37156770694E+02  0.51100000000E-03 0. -1.
        -11    1    3    3    0    0 -0.80060870157E+01  0.12119899383E+01  0.31009500651E+01  0.86707693131E+01  0.51100000000E-03 0.  1.
        -12    1    3    3    0    0  0.21049077519E+02 -0.13802547284E+02 -0.36308586891E+02  0.44180170416E+02  0.00000000000E+00 0.  1.
</event>
<event>
 7    1  0.3757412E-015  0.9000777E+02  0.7816164E-02  0.1186339E+00
        -11   -1    0    0    0    0  0.00000000000E+00  0.00000000000E+00  0.45593999997E+02  0.45594000000E+02  0.51100000000E-03 0. -1.
         11   -1    0    0    0    0 -0.00000000000E+00 -0.00000000000E+00 -0.45593999997E+02  0.45594000000E+02  0.51100000000E-03 0.  1.
    9900012    2    1    2    0    0 -0.22925422077E+00 -0.10779279795E+01 -0.42244659011E+00  0.90007768096E+02  0.90000029834E+02 0.  0.
        -12    1    1    2    0    0  0.22925422077E+00  0.10779279795E+01  0.42244659011E+00  0.11802319044E+01  0.00000000000E+00 0.  1.
         11    1    3    3    0    0  0.20108131954E+02 -0.29831444384E+01  0.11480289523E+02  0.23345945456E+02  0.51100000000E-03 0. -1.
        -11    1    3    3    0    0  0.13958643154E+01 -0.26739567562E+02 -0.14791045610E+02  0.30589670497E+02  0.51100000000E-03 0.  1.
         12    1    3    3    0    0 -0.21733250490E+02  0.28644784021E+02  0.28883094968E+01  0.36072152143E+02  0.00000000000E+00 0. -1.
</event>
<event>
 7    1  0.3757412E-015  0.9000762E+02  0.7816164E-02  0.1186339E+00
        -11   -1    0    0    0    0  0.00000000000E+00  0.00000000000E+00  0.45593999997E+02  0.45594000000E+02  0.51100000000E-03 0.  1.
         11   -1    0    0    0    0 -0.00000000000E+00 -0.00000000000E+00 -0.45593999997E+02  0.45594000000E+02  0.51100000000E-03 0. -1.
    9900012    2    1    2    0    0  0.10244660539E+01  0.43882150217E+00 -0.38883851188E+00  0.90007622774E+02  0.89999882595E+02 0.  0.
        -12    1    1    2    0    0 -0.10244660539E+01 -0.43882150217E+00  0.38883851188E+00  0.11803772255E+01  0.00000000000E+00 0.  1.
         11    1    3    3    0    0  0.18492857273E+02  0.30153683093E+02 -0.10143077225E+02  0.36798266129E+02  0.51100000000E-03 0. -1.
        -11    1    3    3    0    0  0.11294875032E+02 -0.49602585277E+00  0.22496671104E+01  0.11527412806E+02  0.51100000000E-03 0.  1.
        -12    1    3    3    0    0 -0.28763266251E+02 -0.29218835738E+02  0.75045716028E+01  0.41681943840E+02  0.00000000000E+00 0.  1.
</event>
<event>
 7    1  0.3757412E-015  0.9000782E+02  0.7816164E-02  0.1186339E+00
        -11   -1    0    0    0    0  0.00000000000E+00  0.00000000000E+00  0.45593999997E+02  0.45594000000E+02  0.51100000000E-03 0.  1.
         11   -1    0    0    0    0 -0.00000000000E+00 -0.00000000000E+00 -0.45593999997E+02  0.45594000000E+02  0.51100000000E-03 0. -1.
    9900012    2    1    2    0    0 -0.95410295226E+00  0.58988682456E+00 -0.36679326756E+00  0.90007823653E+02  0.90000086125E+02 0.  0.
        -12    1    1    2    0    0  0.95410295226E+00 -0.58988682456E+00  0.36679326756E+00  0.11801763472E+01  0.00000000000E+00 0.  1.
         11    1    3    3    0    0 -0.27294743145E+02 -0.26199064851E+02 -0.45270018964E+01  0.38103644824E+02  0.51100000000E-03 0. -1.
        -11    1    3    3    0    0  0.17518010339E+01 -0.80922597569E+01 -0.26369328350E+01  0.86894700570E+01  0.51100000000E-03 0.  1.
        -12    1    3    3    0    0  0.24588839159E+02  0.34881211432E+02  0.67971414638E+01  0.43214708772E+02  0.00000000000E+00 0.  1.
</event>
<event>
 7    1  0.3757412E-015  0.9000773E+02  0.7816164E-02  0.1186339E+00
        -11   -1    0    0    0    0  0.00000000000E+00  0.00000000000E+00  0.45593999997E+02  0.45594000000E+02  0.51100000000E-03 0.  1.
         11   -1    0    0    0    0 -0.00000000000E+00 -0.00000000000E+00 -0.45593999997E+02  0.45594000000E+02  0.51100000000E-03 0. -1.
    9900012    2    1    2    0    0  0.10318036932E+01  0.45532969254E+00 -0.34799328715E+00  0.90007727439E+02  0.89999988641E+02 0.  0.
        -12    1    1    2    0    0 -0.10318036932E+01 -0.45532969254E+00  0.34799328715E+00  0.11802725609E+01  0.00000000000E+00 0.  1.
         11    1    3    3    0    0 -0.37612836243E+02  0.28734742077E+01 -0.15311687058E+02  0.40711547073E+02  0.51100000000E-03 0. -1.
        -11    1    3    3    0    0 -0.10240539547E+01 -0.12344951070E+01  0.90268338478E+01  0.91682274322E+01  0.51100000000E-03 0.  1.
        -12    1    3    3    0    0  0.39668693891E+02 -0.11836494081E+01  0.59368599229E+01  0.40127952934E+02  0.00000000000E+00 0.  1.
</event>
<event>
 7    1  0.3757412E-015  0.9000778E+02  0.7816164E-02  0.1186339E+00
        -11   -1    0    0    0    0  0.00000000000E+00  0.00000000000E+00  0.45593999997E+02  0.45594000000E+02  0.51100000000E-03 0.  1.
         11   -1    0    0    0    0 -0.00000000000E+00 -0.00000000000E+00 -0.45593999997E+02  0.45594000000E+02  0.51100000000E-03 0. -1.
    9900012    2    1    2    0    0 -0.90726159975E+00  0.75436375048E+00  0.27160334019E-01  0.90007777156E+02  0.90000039014E+02 0.  0.
        -12    1    1    2    0    0  0.90726159975E+00 -0.75436375048E+00 -0.27160334019E-01  0.11802228443E+01  0.00000000000E+00 0.  1.
         11    1    3    3    0    0  0.23302253148E+02 -0.21330879431E+02 -0.17241898376E+02  0.35990060835E+02  0.51100000000E-03 0. -1.
        -11    1    3    3    0    0  0.96993488222E+01  0.86469487270E+01 -0.13529326353E+01  0.13064360560E+02  0.51100000000E-03 0.  1.
        -12    1    3    3    0    0 -0.33908863569E+02  0.13438294454E+02  0.18621991345E+02  0.40953355761E+02  0.00000000000E+00 0.  1.
</event>
<event>
 7    1  0.3757412E-015  0.9000789E+02  0.7816164E-02  0.1186339E+00
        -11   -1    0    0    0    0  0.00000000000E+00  0.00000000000E+00  0.45593999997E+02  0.45594000000E+02  0.51100000000E-03 0.  1.
         11   -1    0    0    0    0 -0.00000000000E+00 -0.00000000000E+00 -0.45593999997E+02  0.45594000000E+02  0.51100000000E-03 0. -1.
    9900012    2    1    2    0    0 -0.11178059254E+01 -0.10482687093E+00  0.36357331843E+00  0.90007888006E+02  0.90000151328E+02 0.  0.
        -12    1    1    2    0    0  0.11178059254E+01  0.10482687093E+00 -0.36357331843E+00  0.11801119937E+01  0.00000000000E+00 0.  1.
         11    1    3    3    0    0  0.33550030758E+01 -0.62350389192E+01  0.74279922862E+01  0.10261911402E+02  0.51100000000E-03 0. -1.
        -11    1    3    3    0    0  0.17319657491E+02 -0.73709699716E+01  0.29558036091E+02  0.35042534608E+02  0.51100000000E-03 0.  1.
         12    1    3    3    0    0 -0.21792466492E+02  0.13501182020E+02 -0.36622455059E+02  0.44703441996E+02  0.00000000000E+00 0. -1.
</event>
<event>
 7    1  0.3757412E-015  0.9000768E+02  0.7816164E-02  0.1186339E+00
        -11   -1    0    0    0    0  0.00000000000E+00  0.00000000000E+00  0.45593999997E+02  0.45594000000E+02  0.51100000000E-03 0. -1.
         11   -1    0    0    0    0 -0.00000000000E+00 -0.00000000000E+00 -0.45593999997E+02  0.45594000000E+02  0.51100000000E-03 0.  1.
    9900012    2    1    2    0    0 -0.77925272761E+00 -0.32006163846E+00 -0.82673157132E+00  0.90007678282E+02  0.89999938836E+02 0.  0.
        -12    1    1    2    0    0  0.77925272761E+00  0.32006163846E+00  0.82673157132E+00  0.11803217176E+01  0.00000000000E+00 0.  1.
         11    1    3    3    0    0  0.44136619384E+01  0.77259604850E+01 -0.18366575142E+01  0.90853832175E+01  0.51100000000E-03 0. -1.
        -11    1    3    3    0    0  0.26300208314E+02  0.23447711499E+02 -0.62831496898E+01  0.35790698542E+02  0.51100000000E-03 0.  1.
         12    1    3    3    0    0 -0.31493122980E+02 -0.31493733622E+02  0.72930756327E+01  0.45131596522E+02  0.00000000000E+00 0. -1.
</event>
<event>
 7    1  0.3757412E-015  0.9000779E+02  0.7816164E-02  0.1186339E+00
        -11   -1    0    0    0    0  0.00000000000E+00  0.00000000000E+00  0.45593999997E+02  0.45594000000E+02  0.51100000000E-03 0. -1.
         11   -1    0    0    0    0 -0.00000000000E+00 -0.00000000000E+00 -0.45593999997E+02  0.45594000000E+02  0.51100000000E-03 0.  1.
    9900012    2    1    2    0    0  0.82645487742E+00  0.37186040859E+00  0.75603933852E+00  0.90007786753E+02  0.90000048738E+02 0.  0.
        -12    1    1    2    0    0 -0.82645487742E+00 -0.37186040859E+00 -0.75603933852E+00  0.11802132474E+01  0.00000000000E+00 0.  1.
         11    1    3    3    0    0  0.29180246720E+02 -0.10932008906E+02  0.30801526772E+01  0.31312664500E+02  0.51100000000E-03 0. -1.
        -11    1    3    3    0    0  0.13837201599E+02  0.87313170192E+01 -0.13025418458E+01  0.16413429273E+02  0.51100000000E-03 0.  1.
         12    1    3    3    0    0 -0.42190993441E+02  0.25725522950E+01 -0.10215714929E+01  0.42281692979E+02  0.00000000000E+00 0. -1.
</event>
<event>
 7    1  0.4565524E-015  0.9000787E+02  0.7816164E-02  0.1186339E+00
        -11   -1    0    0    0    0  0.00000000000E+00  0.00000000000E+00  0.45593999997E+02  0.45594000000E+02  0.51100000000E-03 0. -1.
         11   -1    0    0    0    0 -0.00000000000E+00 -0.00000000000E+00 -0.45593999997E+02  0.45594000000E+02  0.51100000000E-03 0.  1.
    9900012    2    1    2    0    0 -0.11326742393E+01 -0.23406441843E+00  0.23444322149E+00  0.90007872588E+02  0.90000135706E+02 0.  0.
        -12    1    1    2    0    0  0.11326742393E+01  0.23406441843E+00 -0.23444322149E+00  0.11801274119E+01  0.00000000000E+00 0.  1.
         11    1    3    3    0    0 -0.26493873505E+00 -0.13399979755E+02  0.37755353970E+02  0.40063654397E+02  0.51100000000E-03 0. -1.
        -11    1    3    3    0    0 -0.88474938182E+01 -0.27275802384E+01 -0.98600909411E+00  0.93107494335E+01  0.51100000000E-03 0.  1.
        -12    1    3    3    0    0  0.79797583139E+01  0.15893495575E+02 -0.36534901655E+02  0.40633468757E+02  0.00000000000E+00 0.  1.
</event>
<event>
 7    1  0.3757412E-015  0.9000785E+02  0.7816164E-02  0.1186339E+00
        -11   -1    0    0    0    0  0.00000000000E+00  0.00000000000E+00  0.45593999997E+02  0.45594000000E+02  0.51100000000E-03 0.  1.
         11   -1    0    0    0    0 -0.00000000000E+00 -0.00000000000E+00 -0.45593999997E+02  0.45594000000E+02  0.51100000000E-03 0. -1.
    9900012    2    1    2    0    0 -0.54926836540E+00  0.58287865398E+00 -0.86678824248E+00  0.90007845298E+02  0.90000108056E+02 0.  0.
        -12    1    1    2    0    0  0.54926836540E+00 -0.58287865398E+00  0.86678824248E+00  0.11801547016E+01  0.00000000000E+00 0.  1.
         11    1    3    3    0    0 -0.10785882014E+02  0.95808702081E+01 -0.11216219076E+02  0.18273803528E+02  0.51100000000E-03 0. -1.
        -11    1    3    3    0    0  0.14137010195E+02 -0.25926937668E+02 -0.20763439325E+02  0.36099606188E+02  0.51100000000E-03 0.  1.
         12    1    3    3    0    0 -0.39003965459E+01  0.16928946114E+02  0.31112870158E+02  0.35634435582E+02  0.00000000000E+00 0. -1.
</event>
<event>
 7    1  0.3757412E-015  0.9000769E+02  0.7816164E-02  0.1186339E+00
        -11   -1    0    0    0    0  0.00000000000E+00  0.00000000000E+00  0.45593999997E+02  0.45594000000E+02  0.51100000000E-03 0.  1.
         11   -1    0    0    0    0 -0.00000000000E+00 -0.00000000000E+00 -0.45593999997E+02  0.45594000000E+02  0.51100000000E-03 0. -1.
    9900012    2    1    2    0    0  0.29743523939E+00  0.22076797405E+00 -0.11206819153E+01  0.90007688950E+02  0.89999949644E+02 0.  0.
        -12    1    1    2    0    0 -0.29743523939E+00 -0.22076797405E+00  0.11206819153E+01  0.11803110502E+01  0.00000000000E+00 0.  1.
         11    1    3    3    0    0  0.26062659126E+02  0.16814583685E+01 -0.32236062399E+02  0.41487988891E+02  0.51100000000E-03 0. -1.
        -11    1    3    3    0    0  0.39340426798E+01  0.41067052203E+01  0.84585006802E+00  0.57495375616E+01  0.51100000000E-03 0.  1.
        -12    1    3    3    0    0 -0.29699266566E+02 -0.55673956148E+01  0.30269530415E+02  0.42770162498E+02  0.00000000000E+00 0.  1.
</event>
<event>
 7    1  0.3757412E-015  0.9000726E+02  0.7816164E-02  0.1186340E+00
        -11   -1    0    0    0    0  0.00000000000E+00  0.00000000000E+00  0.45593999997E+02  0.45594000000E+02  0.51100000000E-03 0.  1.
         11   -1    0    0    0    0 -0.00000000000E+00 -0.00000000000E+00 -0.45593999997E+02  0.45594000000E+02  0.51100000000E-03 0. -1.
    9900012    2    1    2    0    0 -0.59541998233E+00 -0.51356458744E+00 -0.88083940267E+00  0.90007258032E+02  0.89999513037E+02 0.  0.
        -12    1    1    2    0    0  0.59541998233E+00  0.51356458744E+00  0.88083940267E+00  0.11807419676E+01  0.00000000000E+00 0.  1.
         11    1    3    3    0    0  0.35834182348E+02 -0.15265604867E+02 -0.10086597177E+02  0.40235143337E+02  0.51100000000E-03 0. -1.
        -11    1    3    3    0    0 -0.14582996422E+02 -0.52921525620E+01 -0.57750664273E+01  0.16553611566E+02  0.51100000000E-03 0.  1.
        -12    1    3    3    0    0 -0.21846605908E+02  0.20044192841E+02  0.14980824201E+02  0.33218503129E+02  0.00000000000E+00 0.  1.
</event>
<event>
 7    1  0.3757412E-015  0.9000760E+02  0.7816164E-02  0.1186339E+00
        -11   -1    0    0    0    0  0.00000000000E+00  0.00000000000E+00  0.45593999997E+02  0.45594000000E+02  0.51100000000E-03 0.  1.
         11   -1    0    0    0    0 -0.00000000000E+00 -0.00000000000E+00 -0.45593999997E+02  0.45594000000E+02  0.51100000000E-03 0. -1.
    9900012    2    1    2    0    0 -0.10789081850E+01 -0.45672567959E+00 -0.14385753279E+00  0.90007603368E+02  0.89999862933E+02 0.  0.
        -12    1    1    2    0    0  0.10789081850E+01  0.45672567959E+00  0.14385753279E+00  0.11803966316E+01  0.00000000000E+00 0.  1.
         11    1    3    3    0    0 -0.81627986986E+01 -0.17445266299E+01 -0.31540120352E+02  0.32625968918E+02  0.51100000000E-03 0. -1.
        -11    1    3    3    0    0  0.24410984477E+00 -0.13105981510E+02 -0.76718398514E+01  0.15188267443E+02  0.51100000000E-03 0.  1.
        -12    1    3    3    0    0  0.68397806688E+01  0.14393782460E+02  0.39068102671E+02  0.42193367007E+02  0.00000000000E+00 0.  1.
</event>
<event>
 7    1  0.3757412E-015  0.9000774E+02  0.7816164E-02  0.1186339E+00
        -11   -1    0    0    0    0  0.00000000000E+00  0.00000000000E+00  0.45593999997E+02  0.45594000000E+02  0.51100000000E-03 0.  1.
         11   -1    0    0    0    0 -0.00000000000E+00 -0.00000000000E+00 -0.45593999997E+02  0.45594000000E+02  0.51100000000E-03 0. -1.
    9900012    2    1    2    0    0  0.22698537150E+00 -0.11543660223E+01 -0.94483410714E-01  0.90007741390E+02  0.90000002776E+02 0.  0.
        -12    1    1    2    0    0 -0.22698537150E+00  0.11543660223E+01  0.94483410714E-01  0.11802586103E+01  0.00000000000E+00 0.  1.
         11    1    3    3    0    0  0.38126114427E+02 -0.37297512624E+01  0.12470176954E+01  0.38328405905E+02  0.51100000000E-03 0. -1.
        -11    1    3    3    0    0  0.10108044976E+01 -0.67910800565E+01 -0.86004787406E+01  0.11004941113E+02  0.51100000000E-03 0.  1.
        -12    1    3    3    0    0 -0.38909933553E+02  0.93664652967E+01  0.72589776345E+01  0.40674394372E+02  0.00000000000E+00 0.  1.
</event>
<event>
 7    1  0.3757412E-015  0.9000774E+02  0.7816164E-02  0.1186339E+00
        -11   -1    0    0    0    0  0.00000000000E+00  0.00000000000E+00  0.45593999997E+02  0.45594000000E+02  0.51100000000E-03 0.  1.
         11   -1    0    0    0    0 -0.00000000000E+00 -0.00000000000E+00 -0.45593999997E+02  0.45594000000E+02  0.51100000000E-03 0. -1.
    9900012    2    1    2    0    0  0.36129913212E+00  0.55229716305E-01 -0.11222384126E+01  0.90007743062E+02  0.90000004471E+02 0.  0.
        -12    1    1    2    0    0 -0.36129913212E+00 -0.55229716305E-01  0.11222384126E+01  0.11802569378E+01  0.00000000000E+00 0.  1.
         11    1    3    3    0    0  0.22018010762E+02 -0.28861758216E+02 -0.26625367606E+01  0.36398942120E+02  0.51100000000E-03 0. -1.
        -11    1    3    3    0    0  0.42531980813E+01 -0.50737730065E+01  0.79992190211E+01  0.10383658876E+02  0.51100000000E-03 0.  1.
        -12    1    3    3    0    0 -0.25909909711E+02  0.33990760938E+02 -0.64589206731E+01  0.43225142066E+02  0.00000000000E+00 0.  1.
</event>
<event>
 7    1  0.3757412E-015  0.9000766E+02  0.7816164E-02  0.1186339E+00
        -11   -1    0    0    0    0  0.00000000000E+00  0.00000000000E+00  0.45593999997E+02  0.45594000000E+02  0.51100000000E-03 0.  1.
         11   -1    0    0    0    0 -0.00000000000E+00 -0.00000000000E+00 -0.45593999997E+02  0.45594000000E+02  0.51100000000E-03 0. -1.
    9900012    2    1    2    0    0  0.37107719616E+00  0.66068347016E+00 -0.90498218196E+00  0.90007663742E+02  0.89999924103E+02 0.  0.
        -12    1    1    2    0    0 -0.37107719616E+00 -0.66068347016E+00  0.90498218196E+00  0.11803362584E+01  0.00000000000E+00 0.  1.
         11    1    3    3    0    0 -0.21146632979E+02 -0.15537266450E+02 -0.32873828421E+02  0.42062754670E+02  0.51100000000E-03 0. -1.
        -11    1    3    3    0    0 -0.23467123813E+00 -0.41841015390E+01  0.10217426262E+02  0.11043440404E+02  0.51100000000E-03 0.  1.
        -12    1    3    3    0    0  0.21752381414E+02  0.20382051459E+02  0.21751419977E+02  0.36901468668E+02  0.00000000000E+00 0.  1.
</event>
<event>
 7    1  0.3757412E-015  0.9000766E+02  0.7816164E-02  0.1186339E+00
        -11   -1    0    0    0    0  0.00000000000E+00  0.00000000000E+00  0.45593999997E+02  0.45594000000E+02  0.51100000000E-03 0.  1.
         11   -1    0    0    0    0 -0.00000000000E+00 -0.00000000000E+00 -0.45593999997E+02  0.45594000000E+02  0.51100000000E-03 0. -1.
    9900012    2    1    2    0    0  0.47522514498E+00  0.38171183889E+00 -0.10107679872E+01  0.90007663272E+02  0.89999923628E+02 0.  0.
        -12    1    1    2    0    0 -0.47522514498E+00 -0.38171183889E+00  0.10107679872E+01  0.11803367275E+01  0.00000000000E+00 0.  1.
         11    1    3    3    0    0  0.25651409577E+02  0.19997182590E+02 -0.19509033660E+02  0.37927358456E+02  0.51100000000E-03 0. -1.
        -11    1    3    3    0    0 -0.42672893999E+01  0.67093616525E+01 -0.64318471101E+01  0.10227118368E+02  0.51100000000E-03 0.  1.
        -12    1    3    3    0    0 -0.20908895032E+02 -0.26324832404E+02  0.24930112783E+02  0.41853186449E+02  0.00000000000E+00 0.  1.
</event>
<event>
 7    1  0.3757412E-015  0.9000766E+02  0.7816164E-02  0.1186339E+00
        -11   -1    0    0    0    0  0.00000000000E+00  0.00000000000E+00  0.45593999997E+02  0.45594000000E+02  0.51100000000E-03 0.  1.
         11   -1    0    0    0    0 -0.00000000000E+00 -0.00000000000E+00 -0.45593999997E+02  0.45594000000E+02  0.51100000000E-03 0. -1.
    9900012    2    1    2    0    0 -0.11248453943E+01 -0.99319781929E-01  0.34361358176E+00  0.90007656036E+02  0.89999916296E+02 0.  0.
        -12    1    1    2    0    0  0.11248453943E+01  0.99319781929E-01 -0.34361358176E+00  0.11803439641E+01  0.00000000000E+00 0.  1.
         11    1    3    3    0    0  0.33737922541E+02  0.14897546796E+02 -0.37580669328E+01  0.37071652044E+02  0.51100000000E-03 0. -1.
        -11    1    3    3    0    0  0.35294102365E+01 -0.14647010702E+01  0.11003216701E+02  0.11647869499E+02  0.51100000000E-03 0.  1.
        -12    1    3    3    0    0 -0.38392178172E+02 -0.13532165508E+02 -0.69015361864E+01  0.41288134492E+02  0.00000000000E+00 0.  1.
</event>
<event>
 7    1  0.3757412E-015  0.9000773E+02  0.7816164E-02  0.1186339E+00
        -11   -1    0    0    0    0  0.00000000000E+00  0.00000000000E+00  0.45593999997E+02  0.45594000000E+02  0.51100000000E-03 0. -1.
         11   -1    0    0    0    0 -0.00000000000E+00 -0.00000000000E+00 -0.45593999997E+02  0.45594000000E+02  0.51100000000E-03 0.  1.
    9900012    2    1    2    0    0 -0.80458635319E+00  0.80973140632E+00  0.30004067694E+00  0.90007725219E+02  0.89999986392E+02 0.  0.
        -12    1    1    2    0    0  0.80458635319E+00 -0.80973140632E+00 -0.30004067694E+00  0.11802747807E+01  0.00000000000E+00 0.  1.
         11    1    3    3    0    0 -0.26354019512E+01 -0.22656469720E+01 -0.53900654290E+01  0.64133692577E+01  0.51100000000E-03 0. -1.
        -11    1    3    3    0    0 -0.14155870427E+02 -0.28007169807E+02 -0.22562929038E+02  0.38650692041E+02  0.51100000000E-03 0.  1.
         12    1    3    3    0    0  0.15986686025E+02  0.31082548186E+02  0.28253035144E+02  0.44943663921E+02  0.00000000000E+00 0. -1.
</event>
<event>
 7    1  0.3757412E-015  0.9000770E+02  0.7816164E-02  0.1186339E+00
        -11   -1    0    0    0    0  0.00000000000E+00  0.00000000000E+00  0.45593999997E+02  0.45594000000E+02  0.51100000000E-03 0. -1.
         11   -1    0    0    0    0 -0.00000000000E+00 -0.00000000000E+00 -0.45593999997E+02  0.45594000000E+02  0.51100000000E-03 0.  1.
    9900012    2    1    2    0    0  0.39239453943E+00 -0.10868070125E+01  0.24081613945E+00  0.90007696916E+02  0.89999957715E+02 0.  0.
        -12    1    1    2    0    0 -0.39239453943E+00  0.10868070125E+01 -0.24081613945E+00  0.11803030840E+01  0.00000000000E+00 0.  1.
         11    1    3    3    0    0  0.43703604565E+01 -0.26968905277E+01  0.77892076010E+01  0.93297922994E+01  0.51100000000E-03 0. -1.
        -11    1    3    3    0    0  0.36841607646E+01 -0.21121101277E+02 -0.36957652336E+02  0.42726362191E+02  0.51100000000E-03 0.  1.
         12    1    3    3    0    0 -0.76621266817E+01  0.22731184792E+02  0.29409260874E+02  0.37951542426E+02  0.00000000000E+00 0. -1.
</event>
<event>
 7    1  0.3757412E-015  0.9000765E+02  0.7816164E-02  0.1186339E+00
        -11   -1    0    0    0    0  0.00000000000E+00  0.00000000000E+00  0.45593999997E+02  0.45594000000E+02  0.51100000000E-03 0. -1.
         11   -1    0    0    0    0 -0.00000000000E+00 -0.00000000000E+00 -0.45593999997E+02  0.45594000000E+02  0.51100000000E-03 0.  1.
    9900012    2    1    2    0    0  0.46730913516E+00 -0.23507964481E+00  0.10581019238E+01  0.90007652615E+02  0.89999912830E+02 0.  0.
        -12    1    1    2    0    0 -0.46730913516E+00  0.23507964481E+00 -0.10581019238E+01  0.11803473846E+01  0.00000000000E+00 0.  1.
         11    1    3    3    0    0 -0.16340739686E+01 -0.18387655208E+01  0.81957369388E+01  0.85569480895E+01  0.51100000000E-03 0. -1.
        -11    1    3    3    0    0 -0.47577725508E+01 -0.39323066695E+02 -0.45921298958E+01  0.39875150548E+02  0.51100000000E-03 0.  1.
         12    1    3    3    0    0  0.68591556546E+01  0.40926752571E+02 -0.25455051191E+01  0.41575553978E+02  0.00000000000E+00 0. -1.
</event>
<event>
 7    1  0.3757412E-015  0.9000774E+02  0.7816164E-02  0.1186339E+00
        -11   -1    0    0    0    0  0.00000000000E+00  0.00000000000E+00  0.45593999997E+02  0.45594000000E+02  0.51100000000E-03 0. -1.
         11   -1    0    0    0    0 -0.00000000000E+00 -0.00000000000E+00 -0.45593999997E+02  0.45594000000E+02  0.51100000000E-03 0.  1.
    9900012    2    1    2    0    0 -0.24422490062E+00 -0.79687000463E+00  0.83568338000E+00  0.90007739724E+02  0.90000001089E+02 0.  0.
        -12    1    1    2    0    0  0.24422490062E+00  0.79687000463E+00 -0.83568338000E+00  0.11802602755E+01  0.00000000000E+00 0.  1.
         11    1    3    3    0    0  0.92220795360E+00 -0.97940745100E+01  0.35224075729E+01  0.10449005617E+02  0.51100000000E-03 0. -1.
        -11    1    3    3    0    0  0.29540953404E+02 -0.86696921347E+01 -0.23265124351E+02  0.38588826117E+02  0.51100000000E-03 0.  1.
         12    1    3    3    0    0 -0.30707386259E+02  0.17666896640E+02  0.20578400158E+02  0.40969907991E+02  0.00000000000E+00 0. -1.
</event>
<event>
 7    1  0.3757412E-015  0.9000778E+02  0.7816164E-02  0.1186339E+00
        -11   -1    0    0    0    0  0.00000000000E+00  0.00000000000E+00  0.45593999997E+02  0.45594000000E+02  0.51100000000E-03 0.  1.
         11   -1    0    0    0    0 -0.00000000000E+00 -0.00000000000E+00 -0.45593999997E+02  0.45594000000E+02  0.51100000000E-03 0. -1.
    9900012    2    1    2    0    0  0.17878858303E+00  0.36365934131E+00 -0.11084658843E+01  0.90007783880E+02  0.90000045827E+02 0.  0.
        -12    1    1    2    0    0 -0.17878858303E+00 -0.36365934131E+00  0.11084658843E+01  0.11802161203E+01  0.00000000000E+00 0.  1.
         11    1    3    3    0    0  0.35731555761E+01 -0.75256620676E+01  0.80589552704E+01  0.11590935710E+02  0.51100000000E-03 0. -1.
        -11    1    3    3    0    0  0.21961972910E+02 -0.25993169914E+02  0.35851832500E+01  0.34217344658E+02  0.51100000000E-03 0.  1.
         12    1    3    3    0    0 -0.25356339903E+02  0.33882491323E+02 -0.12752604405E+02  0.44199503511E+02  0.00000000000E+00 0. -1.
</event>
<event>
 7    1  0.3757412E-015  0.9000765E+02  0.7816164E-02  0.1186339E+00
        -11   -1    0    0    0    0  0.00000000000E+00  0.00000000000E+00  0.45593999997E+02  0.45594000000E+02  0.51100000000E-03 0. -1.
         11   -1    0    0    0    0 -0.00000000000E+00 -0.00000000000E+00 -0.45593999997E+02  0.45594000000E+02  0.51100000000E-03 0.  1.
    9900012    2    1    2    0    0  0.21601417916E+00 -0.32745031597E+00  0.11132613024E+01  0.90007645578E+02  0.89999905699E+02 0.  0.
        -12    1    1    2    0    0 -0.21601417916E+00  0.32745031597E+00 -0.11132613024E+01  0.11803544224E+01  0.00000000000E+00 0.  1.
         11    1    3    3    0    0  0.57720866178E+01  0.77416785512E+01 -0.65044737877E+00  0.96785150083E+01  0.51100000000E-03 0. -1.
        -11    1    3    3    0    0 -0.41381049933E+01  0.40783515809E+00 -0.38720257157E+02  0.38942888401E+02  0.51100000000E-03 0.  1.
         12    1    3    3    0    0 -0.14179674453E+01 -0.84769640253E+01  0.40483965839E+02  0.41386242168E+02  0.00000000000E+00 0. -1.
</event>
<event>
 7    1  0.3757412E-015  0.9000776E+02  0.7816164E-02  0.1186339E+00
        -11   -1    0    0    0    0  0.00000000000E+00  0.00000000000E+00  0.45593999997E+02  0.45594000000E+02  0.51100000000E-03 0.  1.
         11   -1    0    0    0    0 -0.00000000000E+00 -0.00000000000E+00 -0.45593999997E+02  0.45594000000E+02  0.51100000000E-03 0. -1.
    9900012    2    1    2    0    0  0.51069246709E+00  0.33622451850E-01 -0.10635013848E+01  0.90007757457E+02  0.90000019055E+02 0.  0.
        -12    1    1    2    0    0 -0.51069246709E+00 -0.33622451850E-01  0.10635013848E+01  0.11802425431E+01  0.00000000000E+00 0.  1.
         11    1    3    3    0    0 -0.58551759733E+01 -0.54559915722E+01 -0.38740609370E+02  0.39558636786E+02  0.51100000000E-03 0. -1.
        -11    1    3    3    0    0  0.99687446741E+01 -0.29659824539E+01 -0.12281805465E+01  0.10472886422E+02  0.51100000000E-03 0.  1.
        -12    1    3    3    0    0 -0.36028762337E+01  0.84555964779E+01  0.38905288532E+02  0.39976234249E+02  0.00000000000E+00 0.  1.
</event>
<event>
 7    1  0.3757412E-015  0.9000768E+02  0.7816164E-02  0.1186339E+00
        -11   -1    0    0    0    0  0.00000000000E+00  0.00000000000E+00  0.45593999997E+02  0.45594000000E+02  0.51100000000E-03 0. -1.
         11   -1    0    0    0    0 -0.00000000000E+00 -0.00000000000E+00 -0.45593999997E+02  0.45594000000E+02  0.51100000000E-03 0.  1.
    9900012    2    1    2    0    0  0.32469819292E+00  0.59882162585E+00  0.96391875714E+00  0.90007679863E+02  0.89999940437E+02 0.  0.
        -12    1    1    2    0    0 -0.32469819292E+00 -0.59882162585E+00 -0.96391875714E+00  0.11803201373E+01  0.00000000000E+00 0.  1.
         11    1    3    3    0    0  0.77444726496E+01  0.52877266847E+01 -0.17299996790E+01  0.95357123102E+01  0.51100000000E-03 0. -1.
        -11    1    3    3    0    0 -0.48051985307E+01  0.28665451822E+02 -0.23982242411E+02  0.37682171015E+02  0.51100000000E-03 0.  1.
         12    1    3    3    0    0 -0.26145759259E+01 -0.33354356881E+02  0.26676160847E+02  0.42789796538E+02  0.00000000000E+00 0. -1.
</event>
<event>
 7    1  0.3757412E-015  0.9000778E+02  0.7816164E-02  0.1186339E+00
        -11   -1    0    0    0    0  0.00000000000E+00  0.00000000000E+00  0.45593999997E+02  0.45594000000E+02  0.51100000000E-03 0. -1.
         11   -1    0    0    0    0 -0.00000000000E+00 -0.00000000000E+00 -0.45593999997E+02  0.45594000000E+02  0.51100000000E-03 0.  1.
    9900012    2    1    2    0    0  0.10479276957E+01  0.34334125164E+00  0.42056334198E+00  0.90007784259E+02  0.90000046211E+02 0.  0.
        -12    1    1    2    0    0 -0.10479276957E+01 -0.34334125164E+00 -0.42056334198E+00  0.11802157409E+01  0.00000000000E+00 0.  1.
         11    1    3    3    0    0 -0.20457375042E+02  0.10255031937E+02  0.27271273139E+02  0.35600452420E+02  0.51100000000E-03 0. -1.
        -11    1    3    3    0    0 -0.43155562856E+01  0.30861374620E+01  0.77047121150E+01  0.93547239149E+01  0.51100000000E-03 0.  1.
        -12    1    3    3    0    0  0.25820859024E+02 -0.12997828147E+02 -0.34555421912E+02  0.45052607924E+02  0.00000000000E+00 0.  1.
</event>
<event>
 7    1  0.3757412E-015  0.9000778E+02  0.7816164E-02  0.1186339E+00
        -11   -1    0    0    0    0  0.00000000000E+00  0.00000000000E+00  0.45593999997E+02  0.45594000000E+02  0.51100000000E-03 0.  1.
         11   -1    0    0    0    0 -0.00000000000E+00 -0.00000000000E+00 -0.45593999997E+02  0.45594000000E+02  0.51100000000E-03 0. -1.
    9900012    2    1    2    0    0 -0.40353054421E+00  0.90063815622E+00 -0.64725800409E+00  0.90007775906E+02  0.90000037748E+02 0.  0.
        -12    1    1    2    0    0  0.40353054421E+00 -0.90063815622E+00  0.64725800409E+00  0.11802240942E+01  0.00000000000E+00 0.  1.
         11    1    3    3    0    0 -0.20751539519E+02 -0.23660740221E+02 -0.29684063624E+02  0.43262000112E+02  0.51100000000E-03 0. -1.
        -11    1    3    3    0    0 -0.24025565378E+01  0.25510541984E+01  0.80114833970E+01  0.87443708706E+01  0.51100000000E-03 0.  1.
        -12    1    3    3    0    0  0.22750565513E+02  0.22010324178E+02  0.21025322223E+02  0.38001404923E+02  0.00000000000E+00 0.  1.
</event>
<event>
 7    1  0.3757412E-015  0.9000885E+02  0.7816164E-02  0.1186337E+00
        -11   -1    0    0    0    0  0.00000000000E+00  0.00000000000E+00  0.45593999997E+02  0.45594000000E+02  0.51100000000E-03 0. -1.
         11   -1    0    0    0    0 -0.00000000000E+00 -0.00000000000E+00 -0.45593999997E+02  0.45594000000E+02  0.51100000000E-03 0.  1.
    9900012    2    1    2    0    0  0.51791157085E+00 -0.10084399966E+01  0.32436063441E+00  0.90008850543E+02  0.90001126563E+02 0.  0.
        -12    1    1    2    0    0 -0.51791157085E+00  0.10084399966E+01 -0.32436063441E+00  0.11791494575E+01  0.00000000000E+00 0.  1.
         11    1    3    3    0    0 -0.14751633082E+02 -0.32067772272E+02 -0.12959502492E+02  0.37601880302E+02  0.51100000000E-03 0. -1.
        -11    1    3    3    0    0  0.90642156982E+01  0.11631386785E+02 -0.12640025945E+02  0.19422137393E+02  0.51100000000E-03 0.  1.
        -12    1    3    3    0    0  0.62053289551E+01  0.19427945491E+02  0.25923889071E+02  0.32984832848E+02  0.00000000000E+00 0.  1.
</event>
<event>
 7    1  0.3757412E-015  0.9000775E+02  0.7816164E-02  0.1186339E+00
        -11   -1    0    0    0    0  0.00000000000E+00  0.00000000000E+00  0.45593999997E+02  0.45594000000E+02  0.51100000000E-03 0.  1.
         11   -1    0    0    0    0 -0.00000000000E+00 -0.00000000000E+00 -0.45593999997E+02  0.45594000000E+02  0.51100000000E-03 0. -1.
    9900012    2    1    2    0    0 -0.60897612148E+00 -0.28219782878E+00 -0.97082875150E+00  0.90007747486E+02  0.90000008953E+02 0.  0.
        -12    1    1    2    0    0  0.60897612148E+00  0.28219782878E+00  0.97082875150E+00  0.11802525136E+01  0.00000000000E+00 0.  1.
         11    1    3    3    0    0  0.62305174375E+01  0.11063259229E+01 -0.35390793343E+01  0.72504060149E+01  0.51100000000E-03 0. -1.
        -11    1    3    3    0    0  0.35085768090E+02 -0.41889435370E+01  0.15797141624E+02  0.38705400839E+02  0.51100000000E-03 0.  1.
         12    1    3    3    0    0 -0.41925261649E+02  0.28004197853E+01 -0.13228891041E+02  0.44051940632E+02  0.00000000000E+00 0. -1.
</event>
<event>
 7    1  0.4583524E-015  0.9000766E+02  0.7816164E-02  0.1186339E+00
        -11   -1    0    0    0    0  0.00000000000E+00  0.00000000000E+00  0.45593999997E+02  0.45594000000E+02  0.51100000000E-03 0.  1.
         11   -1    0    0    0    0 -0.00000000000E+00 -0.00000000000E+00 -0.45593999997E+02  0.45594000000E+02  0.51100000000E-03 0. -1.
    9900012    2    1    2    0    0 -0.80093095944E+00 -0.45967558532E+00  0.73512686807E+00  0.90007659559E+02  0.89999919865E+02 0.  0.
        -12    1    1    2    0    0  0.80093095944E+00  0.45967558532E+00 -0.73512686807E+00  0.11803404414E+01  0.00000000000E+00 0.  1.
         11    1    3    3    0    0  0.27786401006E+01  0.31668437854E+02  0.23344099030E+02  0.39440559792E+02  0.51100000000E-03 0. -1.
        -11    1    3    3    0    0  0.84554379874E+01  0.21235440288E+01 -0.25190519407E+01  0.90746621834E+01  0.51100000000E-03 0.  1.
        -12    1    3    3    0    0 -0.12035009047E+02 -0.34251657468E+02 -0.20089920221E+02  0.41492437583E+02  0.00000000000E+00 0.  1.
</event>
<event>
 7    1  0.3757412E-015  0.9000770E+02  0.7816164E-02  0.1186339E+00
        -11   -1    0    0    0    0  0.00000000000E+00  0.00000000000E+00  0.45593999997E+02  0.45594000000E+02  0.51100000000E-03 0. -1.
         11   -1    0    0    0    0 -0.00000000000E+00 -0.00000000000E+00 -0.45593999997E+02  0.45594000000E+02  0.51100000000E-03 0.  1.
    9900012    2    1    2    0    0 -0.99939964420E+00  0.32843865279E-01  0.62707918965E+00  0.90007700598E+02  0.89999961446E+02 0.  0.
        -12    1    1    2    0    0  0.99939964420E+00 -0.32843865279E-01 -0.62707918965E+00  0.11802994020E+01  0.00000000000E+00 0.  1.
         11    1    3    3    0    0  0.18080040089E+01 -0.10320906510E+02  0.95204230606E+01  0.14157275345E+02  0.51100000000E-03 0. -1.
        -11    1    3    3    0    0 -0.42332895119E+01 -0.10301010745E+02 -0.38300081278E+02  0.39886436148E+02  0.51100000000E-03 0.  1.
         12    1    3    3    0    0  0.14258858588E+01  0.20654761120E+02  0.29406737407E+02  0.35963989105E+02  0.00000000000E+00 0. -1.
</event>
<event>
 7    1  0.3757412E-015  0.9000768E+02  0.7816164E-02  0.1186339E+00
        -11   -1    0    0    0    0  0.00000000000E+00  0.00000000000E+00  0.45593999997E+02  0.45594000000E+02  0.51100000000E-03 0.  1.
         11   -1    0    0    0    0 -0.00000000000E+00 -0.00000000000E+00 -0.45593999997E+02  0.45594000000E+02  0.51100000000E-03 0. -1.
    9900012    2    1    2    0    0  0.91334644118E+00  0.52717797197E+00 -0.53012711829E+00  0.90007680934E+02  0.89999941522E+02 0.  0.
        -12    1    1    2    0    0 -0.91334644118E+00 -0.52717797197E+00  0.53012711829E+00  0.11803190659E+01  0.00000000000E+00 0.  1.
         11    1    3    3    0    0 -0.35052478137E+02  0.11132641403E+02  0.24720993241E+00  0.36778703636E+02  0.51100000000E-03 0. -1.
        -11    1    3    3    0    0 -0.78311195271E+01 -0.42975774430E+01 -0.91807196252E+00  0.89798920548E+01  0.51100000000E-03 0.  1.
        -12    1    3    3    0    0  0.43796944105E+02 -0.63078859879E+01  0.14073491182E+00  0.44249085243E+02  0.00000000000E+00 0.  1.
</event>
<event>
 7    1  0.3757412E-015  0.9000778E+02  0.7816164E-02  0.1186339E+00
        -11   -1    0    0    0    0  0.00000000000E+00  0.00000000000E+00  0.45593999997E+02  0.45594000000E+02  0.51100000000E-03 0.  1.
         11   -1    0    0    0    0 -0.00000000000E+00 -0.00000000000E+00 -0.45593999997E+02  0.45594000000E+02  0.51100000000E-03 0. -1.
    9900012    2    1    2    0    0  0.11233436098E+01 -0.33970072597E+00 -0.12502575966E+00  0.90007775916E+02  0.90000037758E+02 0.  0.
        -12    1    1    2    0    0 -0.11233436098E+01  0.33970072597E+00  0.12502575966E+00  0.11802240844E+01  0.00000000000E+00 0.  1.
         11    1    3    3    0    0 -0.25289526205E+02 -0.17910391824E+02 -0.23314851718E+02  0.38780466499E+02  0.51100000000E-03 0. -1.
        -11    1    3    3    0    0  0.49449862608E+01 -0.85868643011E+01 -0.49748279434E+00  0.99214221277E+01  0.51100000000E-03 0.  1.
        -12    1    3    3    0    0  0.21467883554E+02  0.26157555399E+02  0.23687308753E+02  0.41305887289E+02  0.00000000000E+00 0.  1.
</event>
<event>
 7    1  0.3757412E-015  0.9000772E+02  0.7816164E-02  0.1186339E+00
        -11   -1    0    0    0    0  0.00000000000E+00  0.00000000000E+00  0.45593999997E+02  0.45594000000E+02  0.51100000000E-03 0.  1.
         11   -1    0    0    0    0 -0.00000000000E+00 -0.00000000000E+00 -0.45593999997E+02  0.45594000000E+02  0.51100000000E-03 0. -1.
    9900012    2    1    2    0    0 -0.97418170387E-01 -0.88468068424E+00 -0.77518609134E+00  0.90007718809E+02  0.89999979898E+02 0.  0.
        -12    1    1    2    0    0  0.97418170387E-01  0.88468068424E+00  0.77518609134E+00  0.11802811907E+01  0.00000000000E+00 0.  1.
         11    1    3    3    0    0  0.30096787379E+01 -0.85419092077E+01  0.79313417412E+01  0.12038627874E+02  0.51100000000E-03 0. -1.
        -11    1    3    3    0    0  0.74963180985E+01 -0.31608734767E+02  0.88496828309E+01  0.33669330036E+02  0.51100000000E-03 0.  1.
         12    1    3    3    0    0 -0.10603415007E+02  0.39265963290E+02 -0.17556210663E+02  0.44299760899E+02  0.00000000000E+00 0. -1.
</event>
<event>
 7    1  0.3757412E-015  0.9000776E+02  0.7816164E-02  0.1186339E+00
        -11   -1    0    0    0    0  0.00000000000E+00  0.00000000000E+00  0.45593999997E+02  0.45594000000E+02  0.51100000000E-03 0.  1.
         11   -1    0    0    0    0 -0.00000000000E+00 -0.00000000000E+00 -0.45593999997E+02  0.45594000000E+02  0.51100000000E-03 0. -1.
    9900012    2    1    2    0    0  0.23766965288E+00 -0.80415446336E+00 -0.83054790368E+00  0.90007762276E+02  0.90000023938E+02 0.  0.
        -12    1    1    2    0    0 -0.23766965288E+00  0.80415446336E+00  0.83054790368E+00  0.11802377240E+01  0.00000000000E+00 0.  1.
         11    1    3    3    0    0  0.10230420312E+01  0.84455858586E+01  0.48247030818E+01  0.97801991586E+01  0.51100000000E-03 0. -1.
        -11    1    3    3    0    0  0.19986273275E+02 -0.17028110510E+02  0.28975782457E+02  0.39102476088E+02  0.51100000000E-03 0.  1.
         12    1    3    3    0    0 -0.20771645653E+02  0.77783701877E+01 -0.34631033442E+02  0.41125087030E+02  0.00000000000E+00 0. -1.
</event>
<event>
 7    1  0.3757412E-015  0.9000770E+02  0.7816164E-02  0.1186339E+00
        -11   -1    0    0    0    0  0.00000000000E+00  0.00000000000E+00  0.45593999997E+02  0.45594000000E+02  0.51100000000E-03 0. -1.
         11   -1    0    0    0    0 -0.00000000000E+00 -0.00000000000E+00 -0.45593999997E+02  0.45594000000E+02  0.51100000000E-03 0.  1.
    9900012    2    1    2    0    0  0.51363089256E+00  0.41218249639E+00 -0.97948589457E+00  0.90007701850E+02  0.89999962715E+02 0.  0.
        -12    1    1    2    0    0 -0.51363089256E+00 -0.41218249639E+00  0.97948589457E+00  0.11802981495E+01  0.00000000000E+00 0.  1.
         11    1    3    3    0    0 -0.16440500836E+01  0.28816876182E+01  0.85641332188E+01  0.91843019472E+01  0.51100000000E-03 0. -1.
        -11    1    3    3    0    0  0.33529797598E+02  0.13920384753E+02 -0.22976790732E+02  0.42964605797E+02  0.51100000000E-03 0.  1.
         12    1    3    3    0    0 -0.31372116622E+02 -0.16389889874E+02  0.13433171619E+02  0.37858794107E+02  0.00000000000E+00 0. -1.
</event>
<event>
 7    1  0.3757412E-015  0.9000769E+02  0.7816164E-02  0.1186339E+00
        -11   -1    0    0    0    0  0.00000000000E+00  0.00000000000E+00  0.45593999997E+02  0.45594000000E+02  0.51100000000E-03 0.  1.
         11   -1    0    0    0    0 -0.00000000000E+00 -0.00000000000E+00 -0.45593999997E+02  0.45594000000E+02  0.51100000000E-03 0. -1.
    9900012    2    1    2    0    0  0.10956568280E+00  0.57635254058E+00 -0.10241849729E+01  0.90007685742E+02  0.89999946393E+02 0.  0.
        -12    1    1    2    0    0 -0.10956568280E+00 -0.57635254058E+00  0.10241849729E+01  0.11803142584E+01  0.00000000000E+00 0.  1.
         11    1    3    3    0    0  0.24368608208E+02 -0.33346116004E+02 -0.17545765797E+02  0.44873671749E+02  0.51100000000E-03 0. -1.
        -11    1    3    3    0    0 -0.37664296277E+01  0.75058952051E+01  0.17269897049E+01  0.85736193450E+01  0.51100000000E-03 0.  1.
        -12    1    3    3    0    0 -0.20492612898E+02  0.26416573340E+02  0.14794591119E+02  0.36560394647E+02  0.00000000000E+00 0.  1.
</event>
<event>
 7    1  0.3757412E-015  0.9000780E+02  0.7816164E-02  0.1186339E+00
        -11   -1    0    0    0    0  0.00000000000E+00  0.00000000000E+00  0.45593999997E+02  0.45594000000E+02  0.51100000000E-03 0.  1.
         11   -1    0    0    0    0 -0.00000000000E+00 -0.00000000000E+00 -0.45593999997E+02  0.45594000000E+02  0.51100000000E-03 0. -1.
    9900012    2    1    2    0    0 -0.11376146762E+00  0.10336728973E+01 -0.55806857137E+00  0.90007804313E+02  0.90000066530E+02 0.  0.
        -12    1    1    2    0    0  0.11376146762E+00 -0.10336728973E+01  0.55806857137E+00  0.11801956873E+01  0.00000000000E+00 0.  1.
         11    1    3    3    0    0 -0.86302321560E+01  0.14491610147E+00  0.68366960048E+01  0.11011009049E+02  0.51100000000E-03 0. -1.
        -11    1    3    3    0    0  0.35136539361E+01 -0.21094165612E+02  0.29092326754E+02  0.36106413046E+02  0.51100000000E-03 0.  1.
         12    1    3    3    0    0  0.50028167523E+01  0.21982922408E+02 -0.36487091330E+02  0.42890382218E+02  0.00000000000E+00 0. -1.
</event>
<event>
 7    1  0.3757412E-015  0.9000773E+02  0.7816164E-02  0.1186339E+00
        -11   -1    0    0    0    0  0.00000000000E+00  0.00000000000E+00  0.45593999997E+02  0.45594000000E+02  0.51100000000E-03 0.  1.
         11   -1    0    0    0    0 -0.00000000000E+00 -0.00000000000E+00 -0.45593999997E+02  0.45594000000E+02  0.51100000000E-03 0. -1.
    9900012    2    1    2    0    0 -0.11666626996E+01 -0.17791837816E+00  0.16601010129E-01  0.90007732065E+02  0.89999993329E+02 0.  0.
        -12    1    1    2    0    0  0.11666626996E+01  0.17791837816E+00 -0.16601010129E-01  0.11802679346E+01  0.00000000000E+00 0.  1.
         11    1    3    3    0    0  0.47934421301E+01  0.39077566875E+02 -0.59003492849E+01  0.39810142455E+02  0.51100000000E-03 0. -1.
        -11    1    3    3    0    0  0.29871133601E+01  0.40585928674E-01  0.92865064964E+01  0.97551881894E+01  0.51100000000E-03 0.  1.
        -12    1    3    3    0    0 -0.89472181898E+01 -0.39296071182E+02 -0.33695562013E+01  0.40442401421E+02  0.00000000000E+00 0.  1.
</event>
<event>
 7    1  0.3757412E-015  0.9000774E+02  0.7816164E-02  0.1186339E+00
        -11   -1    0    0    0    0  0.00000000000E+00  0.00000000000E+00  0.45593999997E+02  0.45594000000E+02  0.51100000000E-03 0.  1.
         11   -1    0    0    0    0 -0.00000000000E+00 -0.00000000000E+00 -0.45593999997E+02  0.45594000000E+02  0.51100000000E-03 0. -1.
    9900012    2    1    2    0    0  0.63926717013E+00  0.47969043856E+00 -0.86847177758E+00  0.90007742121E+02  0.90000003517E+02 0.  0.
        -12    1    1    2    0    0 -0.63926717013E+00 -0.47969043856E+00  0.86847177758E+00  0.11802578786E+01  0.00000000000E+00 0.  1.
         11    1    3    3    0    0  0.26921360305E+02 -0.30857233341E+02 -0.99990834979E+01  0.42153412213E+02  0.51100000000E-03 0. -1.
        -11    1    3    3    0    0 -0.69871622780E+01 -0.68411261044E+00  0.77311057486E+01  0.10443105052E+02  0.51100000000E-03 0.  1.
        -12    1    3    3    0    0 -0.19294930857E+02  0.32021036390E+02  0.13995059718E+01  0.37411224856E+02  0.00000000000E+00 0.  1.
</event>
<event>
 7    1  0.3757412E-015  0.9000769E+02  0.7816164E-02  0.1186339E+00
        -11   -1    0    0    0    0  0.00000000000E+00  0.00000000000E+00  0.45593999997E+02  0.45594000000E+02  0.51100000000E-03 0.  1.
         11   -1    0    0    0    0 -0.00000000000E+00 -0.00000000000E+00 -0.45593999997E+02  0.45594000000E+02  0.51100000000E-03 0. -1.
    9900012    2    1    2    0    0 -0.67300551309E+00 -0.51234164852E+00 -0.82321996292E+00  0.90007694322E+02  0.89999955087E+02 0.  0.
        -12    1    1    2    0    0  0.67300551309E+00  0.51234164852E+00  0.82321996292E+00  0.11803056777E+01  0.00000000000E+00 0.  1.
         11    1    3    3    0    0  0.10087111619E+02 -0.16558574545E+01  0.23434726308E+01  0.10487304180E+02  0.51100000000E-03 0. -1.
        -11    1    3    3    0    0 -0.33578035133E+02 -0.25952050049E+02 -0.96175829451E+01  0.43514264869E+02  0.51100000000E-03 0.  1.
         12    1    3    3    0    0  0.22817918001E+02  0.27095565855E+02  0.64508903513E+01  0.36006125273E+02  0.00000000000E+00 0. -1.
</event>
<event>
 7    1  0.3757412E-015  0.9000778E+02  0.7816164E-02  0.1186339E+00
        -11   -1    0    0    0    0  0.00000000000E+00  0.00000000000E+00  0.45593999997E+02  0.45594000000E+02  0.51100000000E-03 0.  1.
         11   -1    0    0    0    0 -0.00000000000E+00 -0.00000000000E+00 -0.45593999997E+02  0.45594000000E+02  0.51100000000E-03 0. -1.
    9900012    2    1    2    0    0  0.10914779306E+01  0.62282169765E-01 -0.44466596467E+00  0.90007775038E+02  0.90000036868E+02 0.  0.
        -12    1    1    2    0    0 -0.10914779306E+01 -0.62282169765E-01  0.44466596467E+00  0.11802249624E+01  0.00000000000E+00 0.  1.
         11    1    3    3    0    0 -0.21560598739E+01 -0.38515350379E+02 -0.10577784020E+02  0.39999629048E+02  0.51100000000E-03 0. -1.
        -11    1    3    3    0    0 -0.18664138033E+01 -0.96596454827E+00  0.99143508093E+01  0.10134640607E+02  0.51100000000E-03 0.  1.
        -12    1    3    3    0    0  0.51139516078E+01  0.39543597097E+02  0.21876724655E+00  0.39873505383E+02  0.00000000000E+00 0.  1.
</event>
<event>
 7    1  0.3757412E-015  0.9000773E+02  0.7816164E-02  0.1186339E+00
        -11   -1    0    0    0    0  0.00000000000E+00  0.00000000000E+00  0.45593999997E+02  0.45594000000E+02  0.51100000000E-03 0.  1.
         11   -1    0    0    0    0 -0.00000000000E+00 -0.00000000000E+00 -0.45593999997E+02  0.45594000000E+02  0.51100000000E-03 0. -1.
    9900012    2    1    2    0    0  0.63769503175E-01 -0.11682446585E+01 -0.15547868292E+00  0.90007730644E+02  0.89999991889E+02 0.  0.
        -12    1    1    2    0    0 -0.63769503175E-01  0.11682446585E+01  0.15547868292E+00  0.11802693559E+01  0.00000000000E+00 0.  1.
         11    1    3    3    0    0 -0.80521154653E+01  0.88804528152E+01  0.23711124445E+01  0.12219704585E+02  0.51100000000E-03 0. -1.
        -11    1    3    3    0    0 -0.29566294546E+02  0.31587318483E+01  0.16004069168E+02  0.33767937312E+02  0.51100000000E-03 0.  1.
         12    1    3    3    0    0  0.37682179515E+02 -0.13207429322E+02 -0.18530660296E+02  0.44020088747E+02  0.00000000000E+00 0. -1.
</event>
<event>
 7    1  0.3757412E-015  0.9000764E+02  0.7816164E-02  0.1186339E+00
        -11   -1    0    0    0    0  0.00000000000E+00  0.00000000000E+00  0.45593999997E+02  0.45594000000E+02  0.51100000000E-03 0.  1.
         11   -1    0    0    0    0 -0.00000000000E+00 -0.00000000000E+00 -0.45593999997E+02  0.45594000000E+02  0.51100000000E-03 0. -1.
    9900012    2    1    2    0    0 -0.94919946095E+00  0.62014998712E+00  0.32815113247E+00  0.90007640398E+02  0.89999900452E+02 0.  0.
        -12    1    1    2    0    0  0.94919946095E+00 -0.62014998712E+00 -0.32815113247E+00  0.11803596015E+01  0.00000000000E+00 0.  1.
         11    1    3    3    0    0 -0.37054158157E+02  0.30568922498E+01 -0.22220871336E+01  0.37246381011E+02  0.51100000000E-03 0. -1.
        -11    1    3    3    0    0  0.35146822852E+01  0.14913016504E+02  0.39200972912E+01  0.15815126173E+02  0.51100000000E-03 0.  1.
        -12    1    3    3    0    0  0.32590276410E+02 -0.17349758767E+02 -0.13698590252E+01  0.36946133215E+02  0.00000000000E+00 0.  1.
</event>
<event>
 7    1  0.3757412E-015  0.9000776E+02  0.7816164E-02  0.1186339E+00
        -11   -1    0    0    0    0  0.00000000000E+00  0.00000000000E+00  0.45593999997E+02  0.45594000000E+02  0.51100000000E-03 0. -1.
         11   -1    0    0    0    0 -0.00000000000E+00 -0.00000000000E+00 -0.45593999997E+02  0.45594000000E+02  0.51100000000E-03 0.  1.
    9900012    2    1    2    0    0 -0.42505534033E+00 -0.24251459212E+00  0.10739971209E+01  0.90007764775E+02  0.90000026470E+02 0.  0.
        -12    1    1    2    0    0  0.42505534033E+00  0.24251459212E+00 -0.10739971209E+01  0.11802352246E+01  0.00000000000E+00 0.  1.
         11    1    3    3    0    0  0.23323709332E+02 -0.25673618556E+01  0.21843156921E+02  0.32057920526E+02  0.51100000000E-03 0. -1.
        -11    1    3    3    0    0  0.12529127995E+02  0.10650138549E+02 -0.98153052720E+01  0.19150580077E+02  0.51100000000E-03 0.  1.
        -12    1    3    3    0    0 -0.36277892667E+02 -0.83252912856E+01 -0.10953854528E+02  0.38799264173E+02  0.00000000000E+00 0.  1.
</event>
<event>
 7    1  0.3757412E-015  0.9000775E+02  0.7816164E-02  0.1186339E+00
        -11   -1    0    0    0    0  0.00000000000E+00  0.00000000000E+00  0.45593999997E+02  0.45594000000E+02  0.51100000000E-03 0. -1.
         11   -1    0    0    0    0 -0.00000000000E+00 -0.00000000000E+00 -0.45593999997E+02  0.45594000000E+02  0.51100000000E-03 0.  1.
    9900012    2    1    2    0    0  0.73975823852E+00 -0.69986308302E-01  0.91697723767E+00  0.90007751048E+02  0.90000012562E+02 0.  0.
        -12    1    1    2    0    0 -0.73975823852E+00  0.69986308302E-01 -0.91697723767E+00  0.11802489522E+01  0.00000000000E+00 0.  1.
         11    1    3    3    0    0 -0.62649396464E+01 -0.55499617214E+01 -0.44576757804E+01  0.94827431424E+01  0.51100000000E-03 0. -1.
        -11    1    3    3    0    0  0.12644062683E+02 -0.25923862846E+02 -0.23721032461E+02  0.37344428865E+02  0.51100000000E-03 0.  1.
         12    1    3    3    0    0 -0.56393647985E+01  0.31403838259E+02  0.29095685480E+02  0.43180579040E+02  0.00000000000E+00 0. -1.
</event>
<event>
 7    1  0.3757412E-015  0.9000773E+02  0.7816164E-02  0.1186339E+00
        -11   -1    0    0    0    0  0.00000000000E+00  0.00000000000E+00  0.45593999997E+02  0.45594000000E+02  0.51100000000E-03 0.  1.
         11   -1    0    0    0    0 -0.00000000000E+00 -0.00000000000E+00 -0.45593999997E+02  0.45594000000E+02  0.51100000000E-03 0. -1.
    9900012    2    1    2    0    0 -0.11672966742E+00 -0.45372461825E+00 -0.10833027618E+01  0.90007730235E+02  0.89999991474E+02 0.  0.
        -12    1    1    2    0    0  0.11672966742E+00  0.45372461825E+00  0.10833027618E+01  0.11802697650E+01  0.00000000000E+00 0.  1.
         11    1    3    3    0    0 -0.14195186144E+01  0.11181061299E+02 -0.14752519438E+01  0.11366949170E+02  0.51100000000E-03 0. -1.
        -11    1    3    3    0    0 -0.16753452136E+02  0.12744283758E+02  0.29736796389E+02  0.36433116621E+02  0.51100000000E-03 0.  1.
         12    1    3    3    0    0  0.18056241083E+02 -0.24379069675E+02 -0.29344847207E+02  0.42207664445E+02  0.00000000000E+00 0. -1.
</event>
<event>
 7    1  0.3757412E-015  0.9000773E+02  0.7816164E-02  0.1186339E+00
        -11   -1    0    0    0    0  0.00000000000E+00  0.00000000000E+00  0.45593999997E+02  0.45594000000E+02  0.51100000000E-03 0.  1.
         11   -1    0    0    0    0 -0.00000000000E+00 -0.00000000000E+00 -0.45593999997E+02  0.45594000000E+02  0.51100000000E-03 0. -1.
    9900012    2    1    2    0    0 -0.51631502490E+00  0.80928324958E+00  0.68666516641E+00  0.90007733236E+02  0.89999994515E+02 0.  0.
        -12    1    1    2    0    0  0.51631502490E+00 -0.80928324958E+00 -0.68666516641E+00  0.11802667638E+01  0.00000000000E+00 0.  1.
         11    1    3    3    0    0  0.39371528596E+00  0.86373609636E+01 -0.62408463360E+01  0.10663356854E+02  0.51100000000E-03 0. -1.
        -11    1    3    3    0    0  0.18306360755E+02  0.14225478420E+02  0.32885600376E+02  0.40236175175E+02  0.51100000000E-03 0.  1.
         12    1    3    3    0    0 -0.19216391066E+02 -0.22053556134E+02 -0.25958088873E+02  0.39108201208E+02  0.00000000000E+00 0. -1.
</event>
<event>
 7    1  0.3757412E-015  0.9000775E+02  0.7816164E-02  0.1186339E+00
        -11   -1    0    0    0    0  0.00000000000E+00  0.00000000000E+00  0.45593999997E+02  0.45594000000E+02  0.51100000000E-03 0. -1.
         11   -1    0    0    0    0 -0.00000000000E+00 -0.00000000000E+00 -0.45593999997E+02  0.45594000000E+02  0.51100000000E-03 0.  1.
    9900012    2    1    2    0    0  0.65495563564E+00  0.54562981525E+00  0.81628279531E+00  0.90007747323E+02  0.90000008788E+02 0.  0.
        -12    1    1    2    0    0 -0.65495563564E+00 -0.54562981525E+00 -0.81628279531E+00  0.11802526771E+01  0.00000000000E+00 0.  1.
         11    1    3    3    0    0 -0.65700679452E+01  0.28471767088E+01 -0.99524352083E+00  0.72292958123E+01  0.51100000000E-03 0. -1.
        -11    1    3    3    0    0 -0.34929241828E+02 -0.15020326943E+02 -0.45381546081E+01  0.38291735449E+02  0.51100000000E-03 0.  1.
         12    1    3    3    0    0  0.42154265409E+02  0.12718780049E+02  0.63496809243E+01  0.44486716062E+02  0.00000000000E+00 0. -1.
</event>
<event>
 7    1  0.3757412E-015  0.9000765E+02  0.7816164E-02  0.1186339E+00
        -11   -1    0    0    0    0  0.00000000000E+00  0.00000000000E+00  0.45593999997E+02  0.45594000000E+02  0.51100000000E-03 0.  1.
         11   -1    0    0    0    0 -0.00000000000E+00 -0.00000000000E+00 -0.45593999997E+02  0.45594000000E+02  0.51100000000E-03 0. -1.
    9900012    2    1    2    0    0 -0.10539130161E+01  0.33660530627E+00  0.41131757032E+00  0.90007653474E+02  0.89999913700E+02 0.  0.
        -12    1    1    2    0    0  0.10539130161E+01 -0.33660530627E+00 -0.41131757032E+00  0.11803465259E+01  0.00000000000E+00 0.  1.
         11    1    3    3    0    0  0.14666296767E+02 -0.82124896844E+01 -0.34275522392E+02  0.38175341298E+02  0.51100000000E-03 0. -1.
        -11    1    3    3    0    0  0.29540767314E+01 -0.10876224305E+02  0.73950715398E+01  0.13479833375E+02  0.51100000000E-03 0.  1.
        -12    1    3    3    0    0 -0.18674286515E+02  0.19425319296E+02  0.27291768423E+02  0.38352478802E+02  0.00000000000E+00 0.  1.
</event>
<event>
 7    1  0.3757412E-015  0.9000786E+02  0.7816164E-02  0.1186339E+00
        -11   -1    0    0    0    0  0.00000000000E+00  0.00000000000E+00  0.45593999997E+02  0.45594000000E+02  0.51100000000E-03 0. -1.
         11   -1    0    0    0    0 -0.00000000000E+00 -0.00000000000E+00 -0.45593999997E+02  0.45594000000E+02  0.51100000000E-03 0.  1.
    9900012    2    1    2    0    0  0.72293060054E+00 -0.67267689411E+00 -0.64622254489E+00  0.90007861688E+02  0.90000124663E+02 0.  0.
        -12    1    1    2    0    0 -0.72293060054E+00  0.67267689411E+00  0.64622254489E+00  0.11801383116E+01  0.00000000000E+00 0.  1.
         11    1    3    3    0    0 -0.26636991956E+02  0.22689138186E+02  0.17400233897E+02  0.39078056144E+02  0.51100000000E-03 0. -1.
        -11    1    3    3    0    0 -0.50339749377E+01 -0.80335186027E+01  0.22503871255E+01  0.97438476634E+01  0.51100000000E-03 0.  1.
        -12    1    3    3    0    0  0.32393897494E+02 -0.15328296477E+02 -0.20296843568E+02  0.41185957881E+02  0.00000000000E+00 0.  1.
</event>
<event>
 7    1  0.3757412E-015  0.9000777E+02  0.7816164E-02  0.1186339E+00
        -11   -1    0    0    0    0  0.00000000000E+00  0.00000000000E+00  0.45593999997E+02  0.45594000000E+02  0.51100000000E-03 0.  1.
         11   -1    0    0    0    0 -0.00000000000E+00 -0.00000000000E+00 -0.45593999997E+02  0.45594000000E+02  0.51100000000E-03 0. -1.
    9900012    2    1    2    0    0 -0.31686009205E+00 -0.45701533922E+00 -0.10410015413E+01  0.90007768011E+02  0.90000029749E+02 0.  0.
        -12    1    1    2    0    0  0.31686009205E+00  0.45701533922E+00  0.10410015413E+01  0.11802319887E+01  0.00000000000E+00 0.  1.
         11    1    3    3    0    0  0.30423232329E+02  0.13319794126E+02 -0.13633114661E+01  0.33239262918E+02  0.51100000000E-03 0. -1.
        -11    1    3    3    0    0  0.10784933516E+02 -0.47418752979E+01  0.70694985705E+01  0.13739650017E+02  0.51100000000E-03 0.  1.
        -12    1    3    3    0    0 -0.41525025938E+02 -0.90349341674E+01 -0.67471886457E+01  0.43028855076E+02  0.00000000000E+00 0.  1.
</event>
<event>
 7    1  0.3757412E-015  0.9000773E+02  0.7816164E-02  0.1186339E+00
        -11   -1    0    0    0    0  0.00000000000E+00  0.00000000000E+00  0.45593999997E+02  0.45594000000E+02  0.51100000000E-03 0.  1.
         11   -1    0    0    0    0 -0.00000000000E+00 -0.00000000000E+00 -0.45593999997E+02  0.45594000000E+02  0.51100000000E-03 0. -1.
    9900012    2    1    2    0    0  0.82548827547E+00 -0.80720977090E+00 -0.24499863113E+00  0.90007727643E+02  0.89999988848E+02 0.  0.
        -12    1    1    2    0    0 -0.82548827547E+00  0.80720977090E+00  0.24499863113E+00  0.11802723569E+01  0.00000000000E+00 0.  1.
         11    1    3    3    0    0 -0.21374149743E+02  0.27931973055E+02 -0.10026084457E+02  0.36572828244E+02  0.51100000000E-03 0. -1.
        -11    1    3    3    0    0  0.12926601445E+02  0.65288704653E+01  0.88183590942E+01  0.16955430748E+02  0.51100000000E-03 0.  1.
        -12    1    3    3    0    0  0.92730365729E+01 -0.35268053292E+02  0.96272673189E+00  0.36479468651E+02  0.00000000000E+00 0.  1.
</event>
<event>
 7    1  0.3757412E-015  0.9000770E+02  0.7816164E-02  0.1186339E+00
        -11   -1    0    0    0    0  0.00000000000E+00  0.00000000000E+00  0.45593999997E+02  0.45594000000E+02  0.51100000000E-03 0. -1.
         11   -1    0    0    0    0 -0.00000000000E+00 -0.00000000000E+00 -0.45593999997E+02  0.45594000000E+02  0.51100000000E-03 0.  1.
    9900012    2    1    2    0    0 -0.79466578317E+00  0.20526200228E+00  0.84822363317E+00  0.90007699391E+02  0.89999960223E+02 0.  0.
        -12    1    1    2    0    0  0.79466578317E+00 -0.20526200228E+00 -0.84822363317E+00  0.11803006093E+01  0.00000000000E+00 0.  1.
         11    1    3    3    0    0  0.45415775590E+00 -0.10402373714E+02  0.42777070012E+01  0.11256749780E+02  0.51100000000E-03 0. -1.
        -11    1    3    3    0    0  0.29237694355E+02  0.72617976174E+01  0.23286749693E+02  0.38076885211E+02  0.51100000000E-03 0.  1.
         12    1    3    3    0    0 -0.30486517894E+02  0.33458380987E+01 -0.26716233061E+02  0.40674064400E+02  0.00000000000E+00 0. -1.
</event>
<event>
 7    1  0.3757412E-015  0.9000776E+02  0.7816164E-02  0.1186339E+00
        -11   -1    0    0    0    0  0.00000000000E+00  0.00000000000E+00  0.45593999997E+02  0.45594000000E+02  0.51100000000E-03 0.  1.
         11   -1    0    0    0    0 -0.00000000000E+00 -0.00000000000E+00 -0.45593999997E+02  0.45594000000E+02  0.51100000000E-03 0. -1.
    9900012    2    1    2    0    0 -0.76421856311E-01  0.96189303260E+00 -0.67962367032E+00  0.90007759838E+02  0.90000021468E+02 0.  0.
        -12    1    1    2    0    0  0.76421856311E-01 -0.96189303260E+00  0.67962367032E+00  0.11802401618E+01  0.00000000000E+00 0.  1.
         11    1    3    3    0    0  0.87441281943E+01  0.32585147683E+02 -0.34055003540E+01  0.33909424359E+02  0.51100000000E-03 0. -1.
        -11    1    3    3    0    0 -0.76818765103E+01  0.10788859119E+02  0.33690647394E+01  0.13666064002E+02  0.51100000000E-03 0.  1.
        -12    1    3    3    0    0 -0.11386735402E+01 -0.42412113770E+02 -0.64318805573E+00  0.42432271478E+02  0.00000000000E+00 0.  1.
</event>
<event>
 7    1  0.3757412E-015  0.9000782E+02  0.7816164E-02  0.1186339E+00
        -11   -1    0    0    0    0  0.00000000000E+00  0.00000000000E+00  0.45593999997E+02  0.45594000000E+02  0.51100000000E-03 0.  1.
         11   -1    0    0    0    0 -0.00000000000E+00 -0.00000000000E+00 -0.45593999997E+02  0.45594000000E+02  0.51100000000E-03 0. -1.
    9900012    2    1    2    0    0 -0.45844272952E-01 -0.29329179320E+00 -0.11422396998E+01  0.90007816410E+02  0.90000078787E+02 0.  0.
        -12    1    1    2    0    0  0.45844272952E-01  0.29329179320E+00  0.11422396998E+01  0.11801835896E+01  0.00000000000E+00 0.  1.
         11    1    3    3    0    0  0.39076569380E+01 -0.13852839331E+01  0.81009685859E+01  0.91002465138E+01  0.51100000000E-03 0. -1.
        -11    1    3    3    0    0  0.94367623857E+01 -0.21814637919E+02  0.27012073257E+02  0.35980314254E+02  0.51100000000E-03 0.  1.
         12    1    3    3    0    0 -0.13390263597E+02  0.22906630059E+02 -0.36255281543E+02  0.44927255643E+02  0.00000000000E+00 0. -1.
</event>
<event>
 7    1  0.3757412E-015  0.9000772E+02  0.7816164E-02  0.1186339E+00
        -11   -1    0    0    0    0  0.00000000000E+00  0.00000000000E+00  0.45593999997E+02  0.45594000000E+02  0.51100000000E-03 0.  1.
         11   -1    0    0    0    0 -0.00000000000E+00 -0.00000000000E+00 -0.45593999997E+02  0.45594000000E+02  0.51100000000E-03 0. -1.
    9900012    2    1    2    0    0  0.12884924840E+00 -0.64730792241E+00  0.97849400163E+00  0.90007720293E+02  0.89999981401E+02 0.  0.
        -12    1    1    2    0    0 -0.12884924840E+00  0.64730792241E+00 -0.97849400163E+00  0.11802797069E+01  0.00000000000E+00 0.  1.
         11    1    3    3    0    0  0.61243550764E+01  0.76256795709E+01 -0.37503813675E+02  0.38758157264E+02  0.51100000000E-03 0. -1.
        -11    1    3    3    0    0 -0.16078528242E+02 -0.46530982999E+01  0.72682575063E+01  0.18248231741E+02  0.51100000000E-03 0.  1.
        -12    1    3    3    0    0  0.10083022414E+02 -0.36198891935E+01  0.31214050171E+02  0.33001331289E+02  0.00000000000E+00 0.  1.
</event>
<event>
 7    1  0.3757412E-015  0.9000768E+02  0.7816164E-02  0.1186339E+00
        -11   -1    0    0    0    0  0.00000000000E+00  0.00000000000E+00  0.45593999997E+02  0.45594000000E+02  0.51100000000E-03 0. -1.
         11   -1    0    0    0    0 -0.00000000000E+00 -0.00000000000E+00 -0.45593999997E+02  0.45594000000E+02  0.51100000000E-03 0.  1.
    9900012    2    1    2    0    0 -0.94165196637E+00 -0.19696796549E+00  0.68385141079E+00  0.90007679045E+02  0.89999939608E+02 0.  0.
        -12    1    1    2    0    0  0.94165196637E+00  0.19696796549E+00 -0.68385141079E+00  0.11803209552E+01  0.00000000000E+00 0.  1.
         11    1    3    3    0    0 -0.16605102917E+01  0.42950012587E+01 -0.43545230609E+01  0.63376810894E+01  0.51100000000E-03 0. -1.
        -11    1    3    3    0    0 -0.14845416952E+02  0.35512519583E+02 -0.69247934397E+01  0.39108544028E+02  0.51100000000E-03 0.  1.
         12    1    3    3    0    0  0.15564275277E+02 -0.40004488807E+02  0.11963167911E+02  0.44561453927E+02  0.00000000000E+00 0. -1.
</event>
<event>
 7    1  0.3757412E-015  0.9000782E+02  0.7816164E-02  0.1186339E+00
        -11   -1    0    0    0    0  0.00000000000E+00  0.00000000000E+00  0.45593999997E+02  0.45594000000E+02  0.51100000000E-03 0. -1.
         11   -1    0    0    0    0 -0.00000000000E+00 -0.00000000000E+00 -0.45593999997E+02  0.45594000000E+02  0.51100000000E-03 0.  1.
    9900012    2    1    2    0    0 -0.76099103240E+00  0.89193604118E+00 -0.13480513476E+00  0.90007817947E+02  0.90000080344E+02 0.  0.
        -12    1    1    2    0    0  0.76099103240E+00 -0.89193604118E+00  0.13480513476E+00  0.11801820526E+01  0.00000000000E+00 0.  1.
         11    1    3    3    0    0  0.19985865125E+01 -0.30991707212E+01 -0.81941843926E+01  0.89857590290E+01  0.51100000000E-03 0. -1.
        -11    1    3    3    0    0  0.17293569023E+02 -0.11236040755E+02  0.37185243534E+02  0.42521270893E+02  0.51100000000E-03 0.  1.
         12    1    3    3    0    0 -0.20053146568E+02  0.15227147518E+02 -0.29125864276E+02  0.38500788026E+02  0.00000000000E+00 0. -1.
</event>
<event>
 7    1  0.3757412E-015  0.9000787E+02  0.7816164E-02  0.1186339E+00
        -11   -1    0    0    0    0  0.00000000000E+00  0.00000000000E+00  0.45593999997E+02  0.45594000000E+02  0.51100000000E-03 0.  1.
         11   -1    0    0    0    0 -0.00000000000E+00 -0.00000000000E+00 -0.45593999997E+02  0.45594000000E+02  0.51100000000E-03 0. -1.
    9900012    2    1    2    0    0  0.97791840419E+00 -0.54632832529E+00  0.37135146675E+00  0.90007872483E+02  0.90000135600E+02 0.  0.
        -12    1    1    2    0    0 -0.97791840419E+00  0.54632832529E+00 -0.37135146675E+00  0.11801275169E+01  0.00000000000E+00 0.  1.
         11    1    3    3    0    0 -0.12800915786E+02  0.22012156915E+01  0.71276591233E+01  0.14815948175E+02  0.51100000000E-03 0. -1.
        -11    1    3    3    0    0  0.14808862508E+02 -0.10517680430E+02  0.31380360004E+02  0.36258116397E+02  0.51100000000E-03 0.  1.
         12    1    3    3    0    0 -0.10300283183E+01  0.77701364132E+01 -0.38136667661E+02  0.38933807911E+02  0.00000000000E+00 0. -1.
</event>
<event>
 7    1  0.3757412E-015  0.9000812E+02  0.7816164E-02  0.1186338E+00
        -11   -1    0    0    0    0  0.00000000000E+00  0.00000000000E+00  0.45593999997E+02  0.45594000000E+02  0.51100000000E-03 0.  1.
         11   -1    0    0    0    0 -0.00000000000E+00 -0.00000000000E+00 -0.45593999997E+02  0.45594000000E+02  0.51100000000E-03 0. -1.
    9900012    2    1    2    0    0 -0.57958202938E+00  0.36670809774E+00 -0.96007062052E+00  0.90008116212E+02  0.90000382545E+02 0.  0.
        -12    1    1    2    0    0  0.57958202938E+00 -0.36670809774E+00  0.96007062052E+00  0.11798837884E+01  0.00000000000E+00 0.  1.
         11    1    3    3    0    0  0.23526386131E+01  0.70376022585E+01 -0.68569005036E+01  0.10103456773E+02  0.51100000000E-03 0. -1.
        -11    1    3    3    0    0  0.12008439620E+02 -0.34564709789E+02  0.23701027250E+02  0.43596564978E+02  0.51100000000E-03 0.  1.
         12    1    3    3    0    0 -0.14940660263E+02  0.27893815629E+02 -0.17804197367E+02  0.36308094460E+02  0.00000000000E+00 0. -1.
</event>
<event>
 7    1  0.3757412E-015  0.9000778E+02  0.7816164E-02  0.1186339E+00
        -11   -1    0    0    0    0  0.00000000000E+00  0.00000000000E+00  0.45593999997E+02  0.45594000000E+02  0.51100000000E-03 0. -1.
         11   -1    0    0    0    0 -0.00000000000E+00 -0.00000000000E+00 -0.45593999997E+02  0.45594000000E+02  0.51100000000E-03 0.  1.
    9900012    2    1    2    0    0  0.68611521169E+00 -0.51939871468E+00  0.80770184847E+00  0.90007783332E+02  0.90000045271E+02 0.  0.
        -12    1    1    2    0    0 -0.68611521169E+00  0.51939871468E+00 -0.80770184847E+00  0.11802166685E+01  0.00000000000E+00 0.  1.
         11    1    3    3    0    0 -0.17992353661E+02  0.16432847344E+02  0.34595146409E+02  0.42315333124E+02  0.51100000000E-03 0. -1.
        -11    1    3    3    0    0 -0.47286316513E+00 -0.99099566411E+01 -0.23210799844E+01  0.10189124239E+02  0.51100000000E-03 0.  1.
        -12    1    3    3    0    0  0.19151332038E+02 -0.70422894173E+01 -0.31466364576E+02  0.37503325968E+02  0.00000000000E+00 0.  1.
</event>
<event>
 7    1  0.3757412E-015  0.9000722E+02  0.7816164E-02  0.1186340E+00
        -11   -1    0    0    0    0  0.00000000000E+00  0.00000000000E+00  0.45593999997E+02  0.45594000000E+02  0.51100000000E-03 0.  1.
         11   -1    0    0    0    0 -0.00000000000E+00 -0.00000000000E+00 -0.45593999997E+02  0.45594000000E+02  0.51100000000E-03 0. -1.
    9900012    2    1    2    0    0 -0.10439984939E+01  0.55145873856E+00 -0.14497111938E-01  0.90007216463E+02  0.89999470918E+02 0.  0.
        -12    1    1    2    0    0  0.10439984939E+01 -0.55145873856E+00  0.14497111938E-01  0.11807835373E+01  0.00000000000E+00 0.  1.
         11    1    3    3    0    0  0.24680719785E+01 -0.20979606443E+01  0.81241287702E+01  0.87461012281E+01  0.51100000000E-03 0. -1.
        -11    1    3    3    0    0  0.32109036840E+02  0.10412020455E+02  0.16184966712E+02  0.37434657264E+02  0.51100000000E-03 0.  1.
         12    1    3    3    0    0 -0.35621107312E+02 -0.77626010721E+01 -0.24323592594E+02  0.43826457971E+02  0.00000000000E+00 0. -1.
</event>
<event>
 7    1  0.3757412E-015  0.9000775E+02  0.7816164E-02  0.1186339E+00
        -11   -1    0    0    0    0  0.00000000000E+00  0.00000000000E+00  0.45593999997E+02  0.45594000000E+02  0.51100000000E-03 0. -1.
         11   -1    0    0    0    0 -0.00000000000E+00 -0.00000000000E+00 -0.45593999997E+02  0.45594000000E+02  0.51100000000E-03 0.  1.
    9900012    2    1    2    0    0  0.76254196214E+00 -0.53769045725E+00  0.72278050748E+00  0.90007748784E+02  0.90000010268E+02 0.  0.
        -12    1    1    2    0    0 -0.76254196214E+00  0.53769045725E+00 -0.72278050748E+00  0.11802512164E+01  0.00000000000E+00 0.  1.
         11    1    3    3    0    0 -0.12234436859E+02  0.53497675323E+01  0.48535477178E+01  0.14207687483E+02  0.51100000000E-03 0. -1.
        -11    1    3    3    0    0 -0.78923279535E+00 -0.49724536536E+01 -0.38463444063E+02  0.38791554663E+02  0.51100000000E-03 0.  1.
         12    1    3    3    0    0  0.13786211616E+02 -0.91500433590E+00  0.34332676853E+02  0.37008506637E+02  0.00000000000E+00 0. -1.
</event>
<event>
 7    1  0.3960308E-015  0.9000810E+02  0.7816164E-02  0.1186338E+00
        -11   -1    0    0    0    0  0.00000000000E+00  0.00000000000E+00  0.45593999997E+02  0.45594000000E+02  0.51100000000E-03 0. -1.
         11   -1    0    0    0    0 -0.00000000000E+00 -0.00000000000E+00 -0.45593999997E+02  0.45594000000E+02  0.51100000000E-03 0.  1.
    9900012    2    1    2    0    0  0.52532719795E+00  0.81177852744E+00  0.67617477683E+00  0.90008099423E+02  0.90000365535E+02 0.  0.
        -12    1    1    2    0    0 -0.52532719795E+00 -0.81177852744E+00 -0.67617477683E+00  0.11799005769E+01  0.00000000000E+00 0.  1.
         11    1    3    3    0    0  0.22490550855E+02  0.57060454895E+01  0.29025586454E+02  0.37160039049E+02  0.51100000000E-03 0. -1.
        -11    1    3    3    0    0  0.32762937605E+01  0.54069543193E+01  0.61884207241E+01  0.88467964335E+01  0.51100000000E-03 0.  1.
        -12    1    3    3    0    0 -0.25241517417E+02 -0.10301221281E+02 -0.34537832401E+02  0.44001263941E+02  0.00000000000E+00 0.  1.
</event>
<event>
 7    1  0.3757412E-015  0.9000774E+02  0.7816164E-02  0.1186339E+00
        -11   -1    0    0    0    0  0.00000000000E+00  0.00000000000E+00  0.45593999997E+02  0.45594000000E+02  0.51100000000E-03 0.  1.
         11   -1    0    0    0    0 -0.00000000000E+00 -0.00000000000E+00 -0.45593999997E+02  0.45594000000E+02  0.51100000000E-03 0. -1.
    9900012    2    1    2    0    0 -0.53551908200E+00  0.46490349728E+00 -0.94344407494E+00  0.90007744658E+02  0.90000006088E+02 0.  0.
        -12    1    1    2    0    0  0.53551908200E+00 -0.46490349728E+00  0.94344407494E+00  0.11802553417E+01  0.00000000000E+00 0.  1.
         11    1    3    3    0    0  0.28519924972E+02  0.22625095673E+02  0.89264394048E+01  0.37482828006E+02  0.51100000000E-03 0. -1.
        -11    1    3    3    0    0  0.84406221067E+01 -0.16658467894E+01 -0.36399605349E+01  0.93417589367E+01  0.51100000000E-03 0.  1.
        -12    1    3    3    0    0 -0.37496066161E+02 -0.20494345387E+02 -0.62299229448E+01  0.43183157715E+02  0.00000000000E+00 0.  1.
</event>
<event>
 7    1  0.3757412E-015  0.9000852E+02  0.7816164E-02  0.1186337E+00
        -11   -1    0    0    0    0  0.00000000000E+00  0.00000000000E+00  0.45593999997E+02  0.45594000000E+02  0.51100000000E-03 0.  1.
         11   -1    0    0    0    0 -0.00000000000E+00 -0.00000000000E+00 -0.45593999997E+02  0.45594000000E+02  0.51100000000E-03 0. -1.
    9900012    2    1    2    0    0 -0.60999361663E+00 -0.10035795471E+01  0.10914279127E+00  0.90008518644E+02  0.90000790287E+02 0.  0.
        -12    1    1    2    0    0  0.60999361663E+00  0.10035795471E+01 -0.10914279127E+00  0.11794813557E+01  0.00000000000E+00 0.  1.
         11    1    3    3    0    0 -0.22186508197E+01  0.16110134333E+02 -0.37574022075E+02  0.40942227282E+02  0.51100000000E-03 0. -1.
        -11    1    3    3    0    0 -0.74210873148E+01  0.36175869971E+01  0.62992742245E+01  0.10384619812E+02  0.51100000000E-03 0.  1.
        -12    1    3    3    0    0  0.90297445179E+01 -0.20731300877E+02  0.31383890642E+02  0.38681671550E+02  0.00000000000E+00 0.  1.
</event>
<event>
 7    1  0.3757412E-015  0.9000766E+02  0.7816164E-02  0.1186339E+00
        -11   -1    0    0    0    0  0.00000000000E+00  0.00000000000E+00  0.45593999997E+02  0.45594000000E+02  0.51100000000E-03 0.  1.
         11   -1    0    0    0    0 -0.00000000000E+00 -0.00000000000E+00 -0.45593999997E+02  0.45594000000E+02  0.51100000000E-03 0. -1.
    9900012    2    1    2    0    0 -0.11455462518E+01 -0.16659228223E+00  0.23057378641E+00  0.90007663830E+02  0.89999924192E+02 0.  0.
        -12    1    1    2    0    0  0.11455462518E+01  0.16659228223E+00 -0.23057378641E+00  0.11803361701E+01  0.00000000000E+00 0.  1.
         11    1    3    3    0    0 -0.18867261573E+02 -0.21332528940E+02 -0.13991036014E+02  0.31730103045E+02  0.51100000000E-03 0. -1.
        -11    1    3    3    0    0 -0.55568139198E+01 -0.93317258050E+01 -0.84073156215E+01  0.13734709449E+02  0.51100000000E-03 0.  1.
        -12    1    3    3    0    0  0.23278529241E+02  0.30497662463E+02  0.22628925422E+02  0.44542851335E+02  0.00000000000E+00 0.  1.
</event>
<event>
 7    1  0.3757412E-015  0.9000772E+02  0.7816164E-02  0.1186339E+00
        -11   -1    0    0    0    0  0.00000000000E+00  0.00000000000E+00  0.45593999997E+02  0.45594000000E+02  0.51100000000E-03 0.  1.
         11   -1    0    0    0    0 -0.00000000000E+00 -0.00000000000E+00 -0.45593999997E+02  0.45594000000E+02  0.51100000000E-03 0. -1.
    9900012    2    1    2    0    0  0.12746508194E+00 -0.30176470863E+00 -0.11339079385E+01  0.90007721855E+02  0.89999982984E+02 0.  0.
        -12    1    1    2    0    0 -0.12746508194E+00  0.30176470863E+00  0.11339079385E+01  0.11802781450E+01  0.00000000000E+00 0.  1.
         11    1    3    3    0    0  0.36523517447E+02 -0.61590292196E+01 -0.24053907574E+02  0.44164368415E+02  0.51100000000E-03 0. -1.
        -11    1    3    3    0    0 -0.79841790837E+00 -0.34081894647E+00  0.57910308768E+01  0.58557380054E+01  0.51100000000E-03 0.  1.
        -12    1    3    3    0    0 -0.35597634457E+02  0.61980834575E+01  0.17128968759E+02  0.39987615435E+02  0.00000000000E+00 0.  1.
</event>
<event>
 7    1  0.3757412E-015  0.9000764E+02  0.7816164E-02  0.1186339E+00
        -11   -1    0    0    0    0  0.00000000000E+00  0.00000000000E+00  0.45593999997E+02  0.45594000000E+02  0.51100000000E-03 0.  1.
         11   -1    0    0    0    0 -0.00000000000E+00 -0.00000000000E+00 -0.45593999997E+02  0.45594000000E+02  0.51100000000E-03 0. -1.
    9900012    2    1    2    0    0  0.10025495668E+01 -0.54501764806E-01 -0.62062694916E+00  0.90007638239E+02  0.89999898264E+02 0.  0.
        -12    1    1    2    0    0 -0.10025495668E+01  0.54501764806E-01  0.62062694916E+00  0.11803617608E+01  0.00000000000E+00 0.  1.
         11    1    3    3    0    0  0.23524585607E+01 -0.44499050366E+01 -0.37136921485E+02  0.37476481342E+02  0.51100000000E-03 0. -1.
        -11    1    3    3    0    0  0.99376192209E+01  0.32924844407E+01 -0.34218810809E+01  0.11013900307E+02  0.51100000000E-03 0.  1.
        -12    1    3    3    0    0 -0.11287528215E+02  0.11029188311E+01  0.39938175617E+02  0.41517256590E+02  0.00000000000E+00 0.  1.
</event>
<event>
 7    1  0.3757412E-015  0.9000782E+02  0.7816164E-02  0.1186339E+00
        -11   -1    0    0    0    0  0.00000000000E+00  0.00000000000E+00  0.45593999997E+02  0.45594000000E+02  0.51100000000E-03 0.  1.
         11   -1    0    0    0    0 -0.00000000000E+00 -0.00000000000E+00 -0.45593999997E+02  0.45594000000E+02  0.51100000000E-03 0. -1.
    9900012    2    1    2    0    0  0.55360883319E+00  0.14460836351E+00 -0.10321919249E+01  0.90007824382E+02  0.90000086864E+02 0.  0.
        -12    1    1    2    0    0 -0.55360883319E+00 -0.14460836351E+00  0.10321919249E+01  0.11801756178E+01  0.00000000000E+00 0.  1.
         11    1    3    3    0    0  0.23327390220E+02 -0.34292194858E+02 -0.25329087119E+01  0.41551623187E+02  0.51100000000E-03 0. -1.
        -11    1    3    3    0    0  0.26992119105E+01  0.46067043406E+01  0.70453164723E+01  0.88399069155E+01  0.51100000000E-03 0.  1.
        -12    1    3    3    0    0 -0.25472993297E+02  0.29830098881E+02 -0.55445996853E+01  0.39616294280E+02  0.00000000000E+00 0.  1.
</event>
<event>
 7    1  0.3757412E-015  0.9000772E+02  0.7816164E-02  0.1186339E+00
        -11   -1    0    0    0    0  0.00000000000E+00  0.00000000000E+00  0.45593999997E+02  0.45594000000E+02  0.51100000000E-03 0. -1.
         11   -1    0    0    0    0 -0.00000000000E+00 -0.00000000000E+00 -0.45593999997E+02  0.45594000000E+02  0.51100000000E-03 0.  1.
    9900012    2    1    2    0    0 -0.11760796982E+01 -0.99098078614E-01 -0.85320882380E-02  0.90007721778E+02  0.89999982905E+02 0.  0.
        -12    1    1    2    0    0  0.11760796982E+01  0.99098078614E-01  0.85320882380E-02  0.11802782224E+01  0.00000000000E+00 0.  1.
         11    1    3    3    0    0 -0.78750318832E-01 -0.61049589997E+01  0.83390749138E+01  0.10335226010E+02  0.51100000000E-03 0. -1.
        -11    1    3    3    0    0  0.20151304251E+02 -0.17537020713E+02 -0.30833328331E+02  0.40796032831E+02  0.51100000000E-03 0.  1.
         12    1    3    3    0    0 -0.21248633630E+02  0.23542881634E+02  0.22485721329E+02  0.38876462937E+02  0.00000000000E+00 0. -1.
</event>
<event>
 7    1  0.3757412E-015  0.9000775E+02  0.7816164E-02  0.1186339E+00
        -11   -1    0    0    0    0  0.00000000000E+00  0.00000000000E+00  0.45593999997E+02  0.45594000000E+02  0.51100000000E-03 0.  1.
         11   -1    0    0    0    0 -0.00000000000E+00 -0.00000000000E+00 -0.45593999997E+02  0.45594000000E+02  0.51100000000E-03 0. -1.
    9900012    2    1    2    0    0 -0.88406760205E+00  0.77448994451E+00 -0.10763730608E+00  0.90007747489E+02  0.90000008956E+02 0.  0.
        -12    1    1    2    0    0  0.88406760205E+00 -0.77448994451E+00  0.10763730608E+00  0.11802525106E+01  0.00000000000E+00 0.  1.
         11    1    3    3    0    0 -0.91576389250E+00  0.44473573826E+01  0.76930110496E+01  0.89330862788E+01  0.51100000000E-03 0. -1.
        -11    1    3    3    0    0  0.54547609276E+01  0.28103389353E+02  0.22822771695E+02  0.36611935458E+02  0.51100000000E-03 0.  1.
         12    1    3    3    0    0 -0.54230646372E+01 -0.31776256791E+02 -0.30623420051E+02  0.44462725752E+02  0.00000000000E+00 0. -1.
</event>
<event>
 7    1  0.3757412E-015  0.9000775E+02  0.7816164E-02  0.1186339E+00
        -11   -1    0    0    0    0  0.00000000000E+00  0.00000000000E+00  0.45593999997E+02  0.45594000000E+02  0.51100000000E-03 0.  1.
         11   -1    0    0    0    0 -0.00000000000E+00 -0.00000000000E+00 -0.45593999997E+02  0.45594000000E+02  0.51100000000E-03 0. -1.
    9900012    2    1    2    0    0 -0.23752664066E+00 -0.10604697969E+00 -0.11512238454E+01  0.90007753751E+02  0.90000015300E+02 0.  0.
        -12    1    1    2    0    0  0.23752664066E+00  0.10604697969E+00  0.11512238454E+01  0.11802462494E+01  0.00000000000E+00 0.  1.
         11    1    3    3    0    0  0.47535143362E+01 -0.38636589064E+02 -0.12123229085E+02  0.40771982987E+02  0.51100000000E-03 0. -1.
        -11    1    3    3    0    0 -0.76056629993E+01  0.10943521398E+01 -0.42006177463E+01  0.87572202198E+01  0.51100000000E-03 0.  1.
        -12    1    3    3    0    0  0.26146220224E+01  0.37436189944E+02  0.15172622986E+02  0.40478550544E+02  0.00000000000E+00 0.  1.
</event>
<event>
 7    1  0.3757412E-015  0.9000855E+02  0.7816164E-02  0.1186337E+00
        -11   -1    0    0    0    0  0.00000000000E+00  0.00000000000E+00  0.45593999997E+02  0.45594000000E+02  0.51100000000E-03 0. -1.
         11   -1    0    0    0    0 -0.00000000000E+00 -0.00000000000E+00 -0.45593999997E+02  0.45594000000E+02  0.51100000000E-03 0.  1.
    9900012    2    1    2    0    0 -0.43373244381E+00  0.10944062094E+01 -0.72553944245E-01  0.90008545525E+02  0.90000817522E+02 0.  0.
        -12    1    1    2    0    0  0.43373244381E+00 -0.10944062094E+01  0.72553944245E-01  0.11794544751E+01  0.00000000000E+00 0.  1.
         11    1    3    3    0    0  0.22077434031E+02 -0.25851338473E+02  0.12355560094E+02  0.36171323721E+02  0.51100000000E-03 0. -1.
        -11    1    3    3    0    0  0.12928641954E+01  0.28387098431E+01  0.11787847783E+02  0.12193569084E+02  0.51100000000E-03 0.  1.
        -12    1    3    3    0    0 -0.23804030670E+02  0.24107034839E+02 -0.24215961822E+02  0.41643652719E+02  0.00000000000E+00 0.  1.
</event>
<event>
 7    1  0.3757412E-015  0.9000776E+02  0.7816164E-02  0.1186339E+00
        -11   -1    0    0    0    0  0.00000000000E+00  0.00000000000E+00  0.45593999997E+02  0.45594000000E+02  0.51100000000E-03 0.  1.
         11   -1    0    0    0    0 -0.00000000000E+00 -0.00000000000E+00 -0.45593999997E+02  0.45594000000E+02  0.51100000000E-03 0. -1.
    9900012    2    1    2    0    0  0.29608122699E+00  0.56294663404E+00 -0.99417575134E+00  0.90007763401E+02  0.90000025078E+02 0.  0.
        -12    1    1    2    0    0 -0.29608122699E+00 -0.56294663404E+00  0.99417575134E+00  0.11802365993E+01  0.00000000000E+00 0.  1.
         11    1    3    3    0    0 -0.10428932885E+02 -0.55337154128E+00  0.34053779775E+01  0.10984783139E+02  0.51100000000E-03 0. -1.
        -11    1    3    3    0    0 -0.67557042000E-01 -0.36472832648E+02  0.92046951825E+01  0.37616465796E+02  0.51100000000E-03 0.  1.
         12    1    3    3    0    0  0.10792571154E+02  0.37589150823E+02 -0.13604248911E+02  0.41406514465E+02  0.00000000000E+00 0. -1.
</event>
<event>
 7    1  0.3757412E-015  0.9000784E+02  0.7816164E-02  0.1186339E+00
        -11   -1    0    0    0    0  0.00000000000E+00  0.00000000000E+00  0.45593999997E+02  0.45594000000E+02  0.51100000000E-03 0. -1.
         11   -1    0    0    0    0 -0.00000000000E+00 -0.00000000000E+00 -0.45593999997E+02  0.45594000000E+02  0.51100000000E-03 0.  1.
    9900012    2    1    2    0    0 -0.67041343322E+00  0.89417477692E+00 -0.37916314089E+00  0.90007844336E+02  0.90000107081E+02 0.  0.
        -12    1    1    2    0    0  0.67041343322E+00 -0.89417477692E+00  0.37916314089E+00  0.11801556637E+01  0.00000000000E+00 0.  1.
         11    1    3    3    0    0  0.29759221947E+01  0.86769459275E+01 -0.21240291082E+00  0.91755446049E+01  0.51100000000E-03 0. -1.
        -11    1    3    3    0    0  0.12599176514E+02  0.32450018827E+02 -0.10248795428E+02  0.36287474130E+02  0.51100000000E-03 0.  1.
         12    1    3    3    0    0 -0.16245512142E+02 -0.40232789978E+02  0.10082035198E+02  0.44544825602E+02  0.00000000000E+00 0. -1.
</event>
<event>
 7    1  0.3757412E-015  0.9000759E+02  0.7816164E-02  0.1186339E+00
        -11   -1    0    0    0    0  0.00000000000E+00  0.00000000000E+00  0.45593999997E+02  0.45594000000E+02  0.51100000000E-03 0.  1.
         11   -1    0    0    0    0 -0.00000000000E+00 -0.00000000000E+00 -0.45593999997E+02  0.45594000000E+02  0.51100000000E-03 0. -1.
    9900012    2    1    2    0    0 -0.82024968797E+00 -0.80967397208E+00 -0.25494161985E+00  0.90007586208E+02  0.89999845545E+02 0.  0.
        -12    1    1    2    0    0  0.82024968797E+00  0.80967397208E+00  0.25494161985E+00  0.11804137924E+01  0.00000000000E+00 0.  1.
         11    1    3    3    0    0 -0.15128415011E+02 -0.42590041168E+01 -0.28314892904E+01  0.15969514353E+02  0.51100000000E-03 0. -1.
        -11    1    3    3    0    0 -0.29639599566E+02  0.91055307259E+00  0.44055584022E+01  0.29979057931E+02  0.51100000000E-03 0.  1.
         12    1    3    3    0    0  0.43947764888E+02  0.25387770721E+01 -0.18290107316E+01  0.44059013924E+02  0.00000000000E+00 0. -1.
</event>
<event>
 7    1  0.3757412E-015  0.9000778E+02  0.7816164E-02  0.1186339E+00
        -11   -1    0    0    0    0  0.00000000000E+00  0.00000000000E+00  0.45593999997E+02  0.45594000000E+02  0.51100000000E-03 0. -1.
         11   -1    0    0    0    0 -0.00000000000E+00 -0.00000000000E+00 -0.45593999997E+02  0.45594000000E+02  0.51100000000E-03 0.  1.
    9900012    2    1    2    0    0  0.11402441927E+01  0.96354136331E-01  0.28893543554E+00  0.90007777722E+02  0.90000039588E+02 0.  0.
        -12    1    1    2    0    0 -0.11402441927E+01 -0.96354136331E-01 -0.28893543554E+00  0.11802222776E+01  0.00000000000E+00 0.  1.
         11    1    3    3    0    0 -0.11739175824E+02 -0.35544733901E+02  0.13776124684E+02  0.39887566593E+02  0.51100000000E-03 0. -1.
        -11    1    3    3    0    0 -0.61087325113E+01  0.44634262838E+00 -0.75015639675E+01  0.96844874338E+01  0.51100000000E-03 0.  1.
        -12    1    3    3    0    0  0.18988152528E+02  0.35194745409E+02 -0.59856252814E+01  0.40435723696E+02  0.00000000000E+00 0.  1.
</event>
<event>
 7    1  0.3757412E-015  0.9000769E+02  0.7816164E-02  0.1186339E+00
        -11   -1    0    0    0    0  0.00000000000E+00  0.00000000000E+00  0.45593999997E+02  0.45594000000E+02  0.51100000000E-03 0.  1.
         11   -1    0    0    0    0 -0.00000000000E+00 -0.00000000000E+00 -0.45593999997E+02  0.45594000000E+02  0.51100000000E-03 0. -1.
    9900012    2    1    2    0    0 -0.87080267716E+00 -0.37859045638E+00 -0.70107320094E+00  0.90007690011E+02  0.89999950719E+02 0.  0.
        -12    1    1    2    0    0  0.87080267716E+00  0.37859045638E+00  0.70107320094E+00  0.11803099886E+01  0.00000000000E+00 0.  1.
         11    1    3    3    0    0  0.68590169775E+01 -0.44017749544E+01  0.15251357109E+00  0.81513800854E+01  0.51100000000E-03 0. -1.
        -11    1    3    3    0    0  0.10278119204E+02 -0.36276001935E+02  0.18564376313E+00  0.37704409750E+02  0.51100000000E-03 0.  1.
         12    1    3    3    0    0 -0.18007938858E+02  0.40299186433E+02 -0.10392305352E+01  0.44151900176E+02  0.00000000000E+00 0. -1.
</event>
<event>
 7    1  0.5142261E-015  0.9000781E+02  0.7816164E-02  0.1186339E+00
        -11   -1    0    0    0    0  0.00000000000E+00  0.00000000000E+00  0.45593999997E+02  0.45594000000E+02  0.51100000000E-03 0. -1.
         11   -1    0    0    0    0 -0.00000000000E+00 -0.00000000000E+00 -0.45593999997E+02  0.45594000000E+02  0.51100000000E-03 0.  1.
    9900012    2    1    2    0    0  0.40942932330E-01  0.10712510970E+01  0.49354694377E+00  0.90007811955E+02  0.90000074273E+02 0.  0.
        -12    1    1    2    0    0 -0.40942932330E-01 -0.10712510970E+01 -0.49354694377E+00  0.11801880453E+01  0.00000000000E+00 0.  1.
         11    1    3    3    0    0  0.30901841660E+02  0.17707474420E+02  0.87288462062E+01  0.36669758994E+02  0.51100000000E-03 0. -1.
        -11    1    3    3    0    0  0.77963244280E+01  0.40396457139E+01 -0.24691742415E+01  0.91213065827E+01  0.51100000000E-03 0.  1.
        -12    1    3    3    0    0 -0.38657223156E+02 -0.20675869037E+02 -0.57661250209E+01  0.44216746378E+02  0.00000000000E+00 0.  1.
</event>
<event>
 7    1  0.3757412E-015  0.9000735E+02  0.7816164E-02  0.1186340E+00
        -11   -1    0    0    0    0  0.00000000000E+00  0.00000000000E+00  0.45593999997E+02  0.45594000000E+02  0.51100000000E-03 0. -1.
         11   -1    0    0    0    0 -0.00000000000E+00 -0.00000000000E+00 -0.45593999997E+02  0.45594000000E+02  0.51100000000E-03 0.  1.
    9900012    2    1    2    0    0 -0.11140677030E+01  0.38801064763E+00  0.47369340648E-01  0.90007346383E+02  0.89999602554E+02 0.  0.
        -12    1    1    2    0    0  0.11140677030E+01 -0.38801064763E+00 -0.47369340648E-01  0.11806536173E+01  0.00000000000E+00 0.  1.
         11    1    3    3    0    0  0.23373054225E+02  0.37526020133E+01  0.32781350580E+02  0.40435116320E+02  0.51100000000E-03 0. -1.
        -11    1    3    3    0    0 -0.69399188538E+01 -0.42890329186E+01  0.38244127942E+01  0.90102392064E+01  0.51100000000E-03 0.  1.
        -12    1    3    3    0    0 -0.17547203074E+02  0.92444155298E+00 -0.36558394034E+02  0.40561990856E+02  0.00000000000E+00 0.  1.
</event>
<event>
 7    1  0.3757412E-015  0.9000843E+02  0.7816164E-02  0.1186338E+00
        -11   -1    0    0    0    0  0.00000000000E+00  0.00000000000E+00  0.45593999997E+02  0.45594000000E+02  0.51100000000E-03 0.  1.
         11   -1    0    0    0    0 -0.00000000000E+00 -0.00000000000E+00 -0.45593999997E+02  0.45594000000E+02  0.51100000000E-03 0. -1.
    9900012    2    1    2    0    0 -0.80912486493E+00  0.63932727103E+00 -0.57268297525E+00  0.90008428808E+02  0.90000699266E+02 0.  0.
        -12    1    1    2    0    0  0.80912486493E+00 -0.63932727103E+00  0.57268297525E+00  0.11795711919E+01  0.00000000000E+00 0.  1.
         11    1    3    3    0    0 -0.36936954609E+01 -0.55228693182E+01 -0.67620643363E+01  0.94800309079E+01  0.51100000000E-03 0. -1.
        -11    1    3    3    0    0 -0.37685613408E+02 -0.54814998282E+01  0.29534783191E+01  0.38196535611E+02  0.51100000000E-03 0.  1.
         12    1    3    3    0    0  0.40570184004E+02  0.11643696417E+02  0.32359030420E+01  0.42331862289E+02  0.00000000000E+00 0. -1.
</event>
<event>
 7    1  0.3757412E-015  0.9000786E+02  0.7816164E-02  0.1186339E+00
        -11   -1    0    0    0    0  0.00000000000E+00  0.00000000000E+00  0.45593999997E+02  0.45594000000E+02  0.51100000000E-03 0. -1.
         11   -1    0    0    0    0 -0.00000000000E+00 -0.00000000000E+00 -0.45593999997E+02  0.45594000000E+02  0.51100000000E-03 0.  1.
    9900012    2    1    2    0    0  0.95549862012E+00  0.13422256883E+00 -0.67951940847E+00  0.90007855967E+02  0.90000118866E+02 0.  0.
        -12    1    1    2    0    0 -0.95549862012E+00 -0.13422256883E+00  0.67951940847E+00  0.11801440325E+01  0.00000000000E+00 0.  1.
         11    1    3    3    0    0  0.36062452046E+01  0.74925029256E+01  0.37910512735E+02  0.38811719630E+02  0.51100000000E-03 0. -1.
        -11    1    3    3    0    0 -0.77202279134E+01 -0.61950293396E+01  0.21467812412E+01  0.10128621699E+02  0.51100000000E-03 0.  1.
        -12    1    3    3    0    0  0.50694813289E+01 -0.11632510171E+01 -0.40736813385E+02  0.41067514639E+02  0.00000000000E+00 0.  1.
</event>
<event>
 7    1  0.3757412E-015  0.9000772E+02  0.7816164E-02  0.1186339E+00
        -11   -1    0    0    0    0  0.00000000000E+00  0.00000000000E+00  0.45593999997E+02  0.45594000000E+02  0.51100000000E-03 0. -1.
         11   -1    0    0    0    0 -0.00000000000E+00 -0.00000000000E+00 -0.45593999997E+02  0.45594000000E+02  0.51100000000E-03 0.  1.
    9900012    2    1    2    0    0 -0.13876147270E+00 -0.36603539578E+00  0.11134701890E+01  0.90007723541E+02  0.89999984692E+02 0.  0.
        -12    1    1    2    0    0  0.13876147270E+00  0.36603539578E+00 -0.11134701890E+01  0.11802764588E+01  0.00000000000E+00 0.  1.
         11    1    3    3    0    0  0.11753433694E+02  0.21361878932E+01  0.65023650903E+01  0.13601001961E+02  0.51100000000E-03 0. -1.
        -11    1    3    3    0    0 -0.10325910005E+02 -0.37670601455E+02  0.57546865304E+01  0.39481831882E+02  0.51100000000E-03 0.  1.
         12    1    3    3    0    0 -0.15662851623E+01  0.35168378166E+02 -0.11143581432E+02  0.36924889698E+02  0.00000000000E+00 0. -1.
</event>
<event>
 7    1  0.3757412E-015  0.9000769E+02  0.7816164E-02  0.1186339E+00
        -11   -1    0    0    0    0  0.00000000000E+00  0.00000000000E+00  0.45593999997E+02  0.45594000000E+02  0.51100000000E-03 0.  1.
         11   -1    0    0    0    0 -0.00000000000E+00 -0.00000000000E+00 -0.45593999997E+02  0.45594000000E+02  0.51100000000E-03 0. -1.
    9900012    2    1    2    0    0 -0.85019775736E+00 -0.20922864065E+00 -0.79153390883E+00  0.90007686999E+02  0.89999947668E+02 0.  0.
        -12    1    1    2    0    0  0.85019775736E+00  0.20922864065E+00  0.79153390883E+00  0.11803130007E+01  0.00000000000E+00 0.  1.
         11    1    3    3    0    0 -0.28813978170E+02 -0.25143289921E+02 -0.20502638999E+02  0.43391111672E+02  0.51100000000E-03 0. -1.
        -11    1    3    3    0    0 -0.95402693257E-01  0.88705087305E+01  0.23993563564E+00  0.88742659517E+01  0.51100000000E-03 0.  1.
        -12    1    3    3    0    0  0.28059183106E+02  0.16063552550E+02  0.19471169454E+02  0.37742309375E+02  0.00000000000E+00 0.  1.
</event>
<event>
 7    1  0.3757412E-015  0.9000782E+02  0.7816164E-02  0.1186339E+00
        -11   -1    0    0    0    0  0.00000000000E+00  0.00000000000E+00  0.45593999997E+02  0.45594000000E+02  0.51100000000E-03 0.  1.
         11   -1    0    0    0    0 -0.00000000000E+00 -0.00000000000E+00 -0.45593999997E+02  0.45594000000E+02  0.51100000000E-03 0. -1.
    9900012    2    1    2    0    0 -0.28281619208E+00  0.16012923710E+00 -0.11345440931E+01  0.90007823458E+02  0.90000085928E+02 0.  0.
        -12    1    1    2    0    0  0.28281619208E+00 -0.16012923710E+00  0.11345440931E+01  0.11801765420E+01  0.00000000000E+00 0.  1.
         11    1    3    3    0    0 -0.28377861808E+01  0.12905822151E+01  0.99095752348E+01  0.10388374004E+02  0.51100000000E-03 0. -1.
        -11    1    3    3    0    0 -0.22080427448E+02 -0.28699581459E+01  0.26542536105E+02  0.34645175121E+02  0.51100000000E-03 0.  1.
         12    1    3    3    0    0  0.24635397436E+02  0.17395051679E+01 -0.37586655433E+02  0.44974274332E+02  0.00000000000E+00 0. -1.
</event>
<event>
 8    1  0.3757412E-015  0.9000779E+02  0.7816164E-02  0.1186339E+00
        -11   -1    0    0    0    0  0.00000000000E+00  0.00000000000E+00  0.45593999997E+02  0.45594000000E+02  0.51100000000E-03 0.  1.
         11   -1    0    0    0    0 -0.00000000000E+00 -0.00000000000E+00 -0.45593999997E+02  0.45594000000E+02  0.51100000000E-03 0. -1.
    9900012    2    1    2    0    0  0.90183167561E+00  0.50922990677E+00  0.56592865647E+00  0.90007792089E+02  0.90000054145E+02 0.  0.
         23    2    3    3    0    0 -0.12748489546E+02 -0.56139489593E+01 -0.21885474672E+02  0.63028353617E+02  0.57441787484E+02 0.  0.
        -12    1    1    2    0    0 -0.90183167561E+00 -0.50922990677E+00 -0.56592865647E+00  0.11802079110E+01  0.00000000000E+00 0.  1.
         11    1    4    4    0    0 -0.27675694227E+01  0.17316365401E+02 -0.31648307821E+02  0.36181920063E+02  0.51100000000E-03 0. -1.
        -11    1    4    4    0    0 -0.99809201231E+01 -0.22930314361E+02  0.97628331493E+01  0.26846433554E+02  0.51100000000E-03 0.  1.
        -12    1    3    3    0    0  0.13650321221E+02  0.61231788661E+01  0.22451403328E+02  0.26979438472E+02  0.00000000000E+00 0.  1.
</event>
<event>
 7    1  0.3757412E-015  0.9000777E+02  0.7816164E-02  0.1186339E+00
        -11   -1    0    0    0    0  0.00000000000E+00  0.00000000000E+00  0.45593999997E+02  0.45594000000E+02  0.51100000000E-03 0. -1.
         11   -1    0    0    0    0 -0.00000000000E+00 -0.00000000000E+00 -0.45593999997E+02  0.45594000000E+02  0.51100000000E-03 0.  1.
    9900012    2    1    2    0    0  0.60425405588E+00  0.96833887941E+00 -0.30022353844E+00  0.90007772343E+02  0.90000034138E+02 0.  0.
        -12    1    1    2    0    0 -0.60425405588E+00 -0.96833887941E+00  0.30022353844E+00  0.11802276570E+01  0.00000000000E+00 0.  1.
         11    1    3    3    0    0  0.35895006598E+02 -0.58254316887E+01  0.11080865619E+02  0.38015427607E+02  0.51100000000E-03 0. -1.
        -11    1    3    3    0    0  0.49851852587E+01 -0.25729038832E+01  0.50003044725E+01  0.75149818053E+01  0.51100000000E-03 0.  1.
        -12    1    3    3    0    0 -0.40275937801E+02  0.93666744513E+01 -0.16381393630E+02  0.44477362931E+02  0.00000000000E+00 0.  1.
</event>
<event>
 7    1  0.3757412E-015  0.9000770E+02  0.7816164E-02  0.1186339E+00
        -11   -1    0    0    0    0  0.00000000000E+00  0.00000000000E+00  0.45593999997E+02  0.45594000000E+02  0.51100000000E-03 0.  1.
         11   -1    0    0    0    0 -0.00000000000E+00 -0.00000000000E+00 -0.45593999997E+02  0.45594000000E+02  0.51100000000E-03 0. -1.
    9900012    2    1    2    0    0 -0.16892337343E+00 -0.84941987317E-01 -0.11650553677E+01  0.90007701624E+02  0.89999962485E+02 0.  0.
        -12    1    1    2    0    0  0.16892337343E+00  0.84941987317E-01  0.11650553677E+01  0.11802983763E+01  0.00000000000E+00 0.  1.
         11    1    3    3    0    0  0.50186694585E+01  0.39027908509E+01  0.70118219105E+01  0.94649070954E+01  0.51100000000E-03 0. -1.
        -11    1    3    3    0    0  0.30833459266E+02  0.16881955971E+01  0.17918559277E+02  0.35701918457E+02  0.51100000000E-03 0.  1.
         12    1    3    3    0    0 -0.36021052098E+02 -0.56759284353E+01 -0.26095436555E+02  0.44840876071E+02  0.00000000000E+00 0. -1.
</event>
<event>
 7    1  0.3757412E-015  0.9000747E+02  0.7816164E-02  0.1186340E+00
        -11   -1    0    0    0    0  0.00000000000E+00  0.00000000000E+00  0.45593999997E+02  0.45594000000E+02  0.51100000000E-03 0. -1.
         11   -1    0    0    0    0 -0.00000000000E+00 -0.00000000000E+00 -0.45593999997E+02  0.45594000000E+02  0.51100000000E-03 0.  1.
    9900012    2    1    2    0    0 -0.61120334853E+00 -0.99637221960E+00  0.16527070608E+00  0.90007474041E+02  0.89999731898E+02 0.  0.
        -12    1    1    2    0    0  0.61120334853E+00  0.99637221960E+00 -0.16527070608E+00  0.11805259589E+01  0.00000000000E+00 0.  1.
         11    1    3    3    0    0  0.77431419527E+01 -0.34815966451E+02  0.11531283619E+02  0.37484373669E+02  0.51100000000E-03 0. -1.
        -11    1    3    3    0    0  0.20727809021E+01 -0.36510018355E+01  0.80295886055E+01  0.90609341961E+01  0.51100000000E-03 0.  1.
        -12    1    3    3    0    0 -0.10427126203E+02  0.37470596067E+02 -0.19395601518E+02  0.43462166176E+02  0.00000000000E+00 0.  1.
</event>
<event>
 7    1  0.3757412E-015  0.9000769E+02  0.7816164E-02  0.1186339E+00
        -11   -1    0    0    0    0  0.00000000000E+00  0.00000000000E+00  0.45593999997E+02  0.45594000000E+02  0.51100000000E-03 0.  1.
         11   -1    0    0    0    0 -0.00000000000E+00 -0.00000000000E+00 -0.45593999997E+02  0.45594000000E+02  0.51100000000E-03 0. -1.
    9900012    2    1    2    0    0  0.10831856113E+01 -0.13953851203E+00 -0.44762021612E+00  0.90007692446E+02  0.89999953186E+02 0.  0.
        -12    1    1    2    0    0 -0.10831856113E+01  0.13953851203E+00  0.44762021612E+00  0.11803075543E+01  0.00000000000E+00 0.  1.
         11    1    3    3    0    0  0.34526511254E+02  0.74593106441E+01 -0.28288900402E+02  0.45254648169E+02  0.51100000000E-03 0. -1.
        -11    1    3    3    0    0 -0.46982026110E+01 -0.36643357910E+01  0.37358591277E+01  0.70325747949E+01  0.51100000000E-03 0.  1.
        -12    1    3    3    0    0 -0.28745123032E+02 -0.39345133651E+01  0.24105421059E+02  0.37720469482E+02  0.00000000000E+00 0.  1.
</event>
<event>
 7    1  0.3757412E-015  0.9000772E+02  0.7816164E-02  0.1186339E+00
        -11   -1    0    0    0    0  0.00000000000E+00  0.00000000000E+00  0.45593999997E+02  0.45594000000E+02  0.51100000000E-03 0. -1.
         11   -1    0    0    0    0 -0.00000000000E+00 -0.00000000000E+00 -0.45593999997E+02  0.45594000000E+02  0.51100000000E-03 0.  1.
    9900012    2    1    2    0    0 -0.33629419598E+00  0.71442933792E+00 -0.87725003385E+00  0.90007715845E+02  0.89999976894E+02 0.  0.
        -12    1    1    2    0    0  0.33629419598E+00 -0.71442933792E+00  0.87725003385E+00  0.11802841552E+01  0.00000000000E+00 0.  1.
         11    1    3    3    0    0 -0.13859685113E+01 -0.18783140068E+02  0.32014619142E+02  0.37143816425E+02  0.51100000000E-03 0. -1.
        -11    1    3    3    0    0 -0.70336497899E+01  0.19489384793E+01  0.59927856314E+01  0.94437318073E+01  0.51100000000E-03 0.  1.
        -12    1    3    3    0    0  0.80833241053E+01  0.17548630926E+02 -0.38884654808E+02  0.43420167612E+02  0.00000000000E+00 0.  1.
</event>
<event>
 7    1  0.3757412E-015  0.9000765E+02  0.7816164E-02  0.1186339E+00
        -11   -1    0    0    0    0  0.00000000000E+00  0.00000000000E+00  0.45593999997E+02  0.45594000000E+02  0.51100000000E-03 0.  1.
         11   -1    0    0    0    0 -0.00000000000E+00 -0.00000000000E+00 -0.45593999997E+02  0.45594000000E+02  0.51100000000E-03 0. -1.
    9900012    2    1    2    0    0  0.91675661125E-04 -0.11544385869E+01  0.24595175794E+00  0.90007652286E+02  0.89999912496E+02 0.  0.
        -12    1    1    2    0    0 -0.91675661126E-04  0.11544385869E+01 -0.24595175794E+00  0.11803477142E+01  0.00000000000E+00 0.  1.
         11    1    3    3    0    0 -0.11750974014E+01 -0.50163355618E+01  0.12149471758E+02  0.13196747350E+02  0.51100000000E-03 0. -1.
        -11    1    3    3    0    0 -0.14656084331E+02  0.36497432695E+02 -0.28966949191E+01  0.39436711868E+02  0.51100000000E-03 0.  1.
         12    1    3    3    0    0  0.15831273408E+02 -0.32635535720E+02 -0.90068250806E+01  0.37374193068E+02  0.00000000000E+00 0. -1.
</event>
<event>
 7    1  0.3757412E-015  0.9000772E+02  0.7816164E-02  0.1186339E+00
        -11   -1    0    0    0    0  0.00000000000E+00  0.00000000000E+00  0.45593999997E+02  0.45594000000E+02  0.51100000000E-03 0. -1.
         11   -1    0    0    0    0 -0.00000000000E+00 -0.00000000000E+00 -0.45593999997E+02  0.45594000000E+02  0.51100000000E-03 0.  1.
    9900012    2    1    2    0    0 -0.89462603353E+00 -0.48991271110E+00  0.59388491673E+00  0.90007716348E+02  0.89999977404E+02 0.  0.
        -12    1    1    2    0    0  0.89462603353E+00  0.48991271110E+00 -0.59388491673E+00  0.11802836518E+01  0.00000000000E+00 0.  1.
         11    1    3    3    0    0 -0.62114017388E+01  0.24561417923E+01  0.76834035843E+01  0.10180807186E+02  0.51100000000E-03 0. -1.
        -11    1    3    3    0    0  0.18595014109E+02  0.22560781436E+02 -0.30865928439E+02  0.42514338139E+02  0.51100000000E-03 0.  1.
         12    1    3    3    0    0 -0.13278238404E+02 -0.25506835939E+02  0.23776409771E+02  0.37312571023E+02  0.00000000000E+00 0. -1.
</event>
<event>
 7    1  0.3757412E-015  0.9000770E+02  0.7816164E-02  0.1186339E+00
        -11   -1    0    0    0    0  0.00000000000E+00  0.00000000000E+00  0.45593999997E+02  0.45594000000E+02  0.51100000000E-03 0. -1.
         11   -1    0    0    0    0 -0.00000000000E+00 -0.00000000000E+00 -0.45593999997E+02  0.45594000000E+02  0.51100000000E-03 0.  1.
    9900012    2    1    2    0    0 -0.99906122838E+00 -0.60368902092E+00  0.17473708531E+00  0.90007704774E+02  0.89999965677E+02 0.  0.
        -12    1    1    2    0    0  0.99906122838E+00  0.60368902092E+00 -0.17473708531E+00  0.11802952262E+01  0.00000000000E+00 0.  1.
         11    1    3    3    0    0  0.24144703125E+02 -0.24891938476E+02  0.16152478728E+02  0.38255429150E+02  0.51100000000E-03 0. -1.
        -11    1    3    3    0    0 -0.48664894413E+01 -0.28177021200E+01  0.83493376626E+01  0.10066459377E+02  0.51100000000E-03 0.  1.
        -12    1    3    3    0    0 -0.20277274912E+02  0.27105951575E+02 -0.24327079306E+02  0.41685816247E+02  0.00000000000E+00 0.  1.
</event>
<event>
 7    1  0.3757412E-015  0.9000775E+02  0.7816164E-02  0.1186339E+00
        -11   -1    0    0    0    0  0.00000000000E+00  0.00000000000E+00  0.45593999997E+02  0.45594000000E+02  0.51100000000E-03 0. -1.
         11   -1    0    0    0    0 -0.00000000000E+00 -0.00000000000E+00 -0.45593999997E+02  0.45594000000E+02  0.51100000000E-03 0.  1.
    9900012    2    1    2    0    0  0.97182806068E+00  0.37962191979E+00  0.55174959350E+00  0.90007749944E+02  0.90000011443E+02 0.  0.
        -12    1    1    2    0    0 -0.97182806068E+00 -0.37962191979E+00 -0.55174959350E+00  0.11802500563E+01  0.00000000000E+00 0.  1.
         11    1    3    3    0    0  0.24318462349E+02  0.20574826329E+02  0.16454620699E+02  0.35853390803E+02  0.51100000000E-03 0. -1.
        -11    1    3    3    0    0  0.50667520881E+01  0.40322095931E+01  0.76376214759E+01  0.10013188952E+02  0.51100000000E-03 0.  1.
        -12    1    3    3    0    0 -0.28413386376E+02 -0.24227414002E+02 -0.23540492581E+02  0.44141170188E+02  0.00000000000E+00 0.  1.
</event>
<event>
 7    1  0.3757412E-015  0.9000763E+02  0.7816164E-02  0.1186339E+00
        -11   -1    0    0    0    0  0.00000000000E+00  0.00000000000E+00  0.45593999997E+02  0.45594000000E+02  0.51100000000E-03 0. -1.
         11   -1    0    0    0    0 -0.00000000000E+00 -0.00000000000E+00 -0.45593999997E+02  0.45594000000E+02  0.51100000000E-03 0.  1.
    9900012    2    1    2    0    0  0.74224839240E+00 -0.90019848901E+00  0.17880937945E+00  0.90007634468E+02  0.89999894443E+02 0.  0.
        -12    1    1    2    0    0 -0.74224839240E+00  0.90019848901E+00 -0.17880937945E+00  0.11803655323E+01  0.00000000000E+00 0.  1.
         11    1    3    3    0    0 -0.32866691111E+00  0.70024895791E+01  0.74561214920E+01  0.10234091567E+02  0.51100000000E-03 0. -1.
        -11    1    3    3    0    0 -0.11715616203E+02 -0.35870584131E+02  0.16218210138E+02  0.41072920632E+02  0.51100000000E-03 0.  1.
         12    1    3    3    0    0  0.12786531506E+02  0.27967896063E+02 -0.23495522250E+02  0.38700622268E+02  0.00000000000E+00 0. -1.
</event>
<event>
 7    1  0.3757412E-015  0.9000770E+02  0.7816164E-02  0.1186339E+00
        -11   -1    0    0    0    0  0.00000000000E+00  0.00000000000E+00  0.45593999997E+02  0.45594000000E+02  0.51100000000E-03 0.  1.
         11   -1    0    0    0    0 -0.00000000000E+00 -0.00000000000E+00 -0.45593999997E+02  0.45594000000E+02  0.51100000000E-03 0. -1.
    9900012    2    1    2    0    0  0.31590668824E+00 -0.74499332808E+00 -0.85923913611E+00  0.90007701738E+02  0.89999962601E+02 0.  0.
        -12    1    1    2    0    0 -0.31590668824E+00  0.74499332808E+00  0.85923913611E+00  0.11802982621E+01  0.00000000000E+00 0.  1.
         11    1    3    3    0    0  0.90545940389E+01  0.18499656051E+01  0.24336254261E+01  0.95567033502E+01  0.51100000000E-03 0. -1.
        -11    1    3    3    0    0 -0.58125019128E+01 -0.12342373677E+02 -0.40050596531E+02  0.42310396467E+02  0.51100000000E-03 0.  1.
         12    1    3    3    0    0 -0.29261854378E+01  0.97474147436E+01  0.36757731969E+02  0.38140601921E+02  0.00000000000E+00 0. -1.
</event>
<event>
 7    1  0.3757412E-015  0.9000777E+02  0.7816164E-02  0.1186339E+00
        -11   -1    0    0    0    0  0.00000000000E+00  0.00000000000E+00  0.45593999997E+02  0.45594000000E+02  0.51100000000E-03 0.  1.
         11   -1    0    0    0    0 -0.00000000000E+00 -0.00000000000E+00 -0.45593999997E+02  0.45594000000E+02  0.51100000000E-03 0. -1.
    9900012    2    1    2    0    0  0.62075274883E+00 -0.13327265281E+00 -0.99491003983E+00  0.90007770547E+02  0.90000032318E+02 0.  0.
        -12    1    1    2    0    0 -0.62075274883E+00  0.13327265281E+00  0.99491003983E+00  0.11802294533E+01  0.00000000000E+00 0.  1.
         11    1    3    3    0    0 -0.30801452982E+02  0.79562156154E+01 -0.25873618864E+02  0.41005792592E+02  0.51100000000E-03 0. -1.
        -11    1    3    3    0    0  0.34643095843E+01  0.85693432584E+01  0.27386841877E+01  0.96403047730E+01  0.51100000000E-03 0.  1.
        -12    1    3    3    0    0  0.27957896146E+02 -0.16658831527E+02  0.22140024637E+02  0.39361673182E+02  0.00000000000E+00 0.  1.
</event>
<event>
 7    1  0.3757412E-015  0.9000781E+02  0.7816164E-02  0.1186339E+00
        -11   -1    0    0    0    0  0.00000000000E+00  0.00000000000E+00  0.45593999997E+02  0.45594000000E+02  0.51100000000E-03 0. -1.
         11   -1    0    0    0    0 -0.00000000000E+00 -0.00000000000E+00 -0.45593999997E+02  0.45594000000E+02  0.51100000000E-03 0.  1.
    9900012    2    1    2    0    0 -0.45250390609E+00 -0.77749403279E+00  0.76393871850E+00  0.90007805473E+02  0.90000067705E+02 0.  0.
        -12    1    1    2    0    0  0.45250390609E+00  0.77749403279E+00 -0.76393871850E+00  0.11801945270E+01  0.00000000000E+00 0.  1.
         11    1    3    3    0    0  0.17796284910E+02 -0.23446995944E+02  0.31858455395E+02  0.43375460295E+02  0.51100000000E-03 0. -1.
        -11    1    3    3    0    0 -0.93092929323E+01  0.44228674754E+01 -0.10468868636E+01  0.10359568716E+02  0.51100000000E-03 0.  1.
        -12    1    3    3    0    0 -0.89394958833E+01  0.18246634436E+02 -0.30047629813E+02  0.36272776462E+02  0.00000000000E+00 0.  1.
</event>
<event>
 7    1  0.3757412E-015  0.9000772E+02  0.7816164E-02  0.1186339E+00
        -11   -1    0    0    0    0  0.00000000000E+00  0.00000000000E+00  0.45593999997E+02  0.45594000000E+02  0.51100000000E-03 0. -1.
         11   -1    0    0    0    0 -0.00000000000E+00 -0.00000000000E+00 -0.45593999997E+02  0.45594000000E+02  0.51100000000E-03 0.  1.
    9900012    2    1    2    0    0  0.24503774592E+00  0.47295666859E+00  0.10532506752E+01  0.90007716775E+02  0.89999977836E+02 0.  0.
        -12    1    1    2    0    0 -0.24503774592E+00 -0.47295666859E+00 -0.10532506752E+01  0.11802832254E+01  0.00000000000E+00 0.  1.
         11    1    3    3    0    0 -0.45881480748E+01  0.10451404515E+02  0.38669805053E+02  0.40319186279E+02  0.51100000000E-03 0. -1.
        -11    1    3    3    0    0 -0.10793671375E+02  0.17121939112E+01 -0.58232835026E+01  0.12383278272E+02  0.51100000000E-03 0.  1.
        -12    1    3    3    0    0  0.15626857196E+02 -0.11690641758E+02 -0.31793270875E+02  0.37305252224E+02  0.00000000000E+00 0.  1.
</event>
<event>
 7    1  0.3757412E-015  0.9000777E+02  0.7816164E-02  0.1186339E+00
        -11   -1    0    0    0    0  0.00000000000E+00  0.00000000000E+00  0.45593999997E+02  0.45594000000E+02  0.51100000000E-03 0. -1.
         11   -1    0    0    0    0 -0.00000000000E+00 -0.00000000000E+00 -0.45593999997E+02  0.45594000000E+02  0.51100000000E-03 0.  1.
    9900012    2    1    2    0    0  0.49372039117E+00 -0.79421048990E+00  0.72001433433E+00  0.90007766647E+02  0.90000028366E+02 0.  0.
        -12    1    1    2    0    0 -0.49372039117E+00  0.79421048990E+00 -0.72001433433E+00  0.11802333534E+01  0.00000000000E+00 0.  1.
         11    1    3    3    0    0  0.84967846405E+01 -0.89736614997E+01  0.26599093247E+02  0.29329741079E+02  0.51100000000E-03 0. -1.
        -11    1    3    3    0    0  0.17707683355E+02  0.95521142637E+00  0.63370971079E+01  0.18831709394E+02  0.51100000000E-03 0.  1.
        -12    1    3    3    0    0 -0.25710747605E+02  0.72242395835E+01 -0.32216176020E+02  0.41846316174E+02  0.00000000000E+00 0.  1.
</event>
<event>
 7    1  0.3757412E-015  0.9000777E+02  0.7816164E-02  0.1186339E+00
        -11   -1    0    0    0    0  0.00000000000E+00  0.00000000000E+00  0.45593999997E+02  0.45594000000E+02  0.51100000000E-03 0.  1.
         11   -1    0    0    0    0 -0.00000000000E+00 -0.00000000000E+00 -0.45593999997E+02  0.45594000000E+02  0.51100000000E-03 0. -1.
    9900012    2    1    2    0    0  0.51462870424E+00 -0.77086934640E+00 -0.73066393756E+00  0.90007766107E+02  0.90000027820E+02 0.  0.
        -12    1    1    2    0    0 -0.51462870424E+00  0.77086934640E+00  0.73066393756E+00  0.11802338930E+01  0.00000000000E+00 0.  1.
         11    1    3    3    0    0 -0.59666817901E+01  0.25761841248E+02  0.23515414356E+02  0.35387122921E+02  0.51100000000E-03 0. -1.
        -11    1    3    3    0    0 -0.98832837538E+01  0.61380990122E+01 -0.18975704114E+01  0.11787973998E+02  0.51100000000E-03 0.  1.
        -12    1    3    3    0    0  0.16364594248E+02 -0.32670809606E+02 -0.22348507882E+02  0.42832669188E+02  0.00000000000E+00 0.  1.
</event>
<event>
 7    1  0.3757412E-015  0.9000708E+02  0.7816164E-02  0.1186340E+00
        -11   -1    0    0    0    0  0.00000000000E+00  0.00000000000E+00  0.45593999997E+02  0.45594000000E+02  0.51100000000E-03 0.  1.
         11   -1    0    0    0    0 -0.00000000000E+00 -0.00000000000E+00 -0.45593999997E+02  0.45594000000E+02  0.51100000000E-03 0. -1.
    9900012    2    1    2    0    0 -0.24608597563E+00  0.45418941882E+00 -0.10619495944E+01  0.90007075245E+02  0.89999327836E+02 0.  0.
        -12    1    1    2    0    0  0.24608597563E+00 -0.45418941882E+00  0.10619495944E+01  0.11809247548E+01  0.00000000000E+00 0.  1.
         11    1    3    3    0    0 -0.22639481692E+02 -0.61645463908E+01 -0.29050381763E+02  0.37342635744E+02  0.51100000000E-03 0. -1.
        -11    1    3    3    0    0 -0.67418031698E+01  0.57391610707E+01 -0.37115398300E+01  0.96002816598E+01  0.51100000000E-03 0.  1.
        -12    1    3    3    0    0  0.29135198886E+02  0.87957473894E+00  0.31699971999E+02  0.43064157841E+02  0.00000000000E+00 0.  1.
</event>
<event>
 7    1  0.3757412E-015  0.9000783E+02  0.7816164E-02  0.1186339E+00
        -11   -1    0    0    0    0  0.00000000000E+00  0.00000000000E+00  0.45593999997E+02  0.45594000000E+02  0.51100000000E-03 0. -1.
         11   -1    0    0    0    0 -0.00000000000E+00 -0.00000000000E+00 -0.45593999997E+02  0.45594000000E+02  0.51100000000E-03 0.  1.
    9900012    2    1    2    0    0  0.65288325331E+00  0.64592216523E-01  0.98100575134E+00  0.90007830105E+02  0.90000092662E+02 0.  0.
        -12    1    1    2    0    0 -0.65288325331E+00 -0.64592216523E-01 -0.98100575134E+00  0.11801698950E+01  0.00000000000E+00 0.  1.
         11    1    3    3    0    0 -0.94488845002E+01  0.18229943319E+01  0.49221366903E+00  0.96357148769E+01  0.51100000000E-03 0. -1.
        -11    1    3    3    0    0  0.25114803210E+02  0.16115142194E+02 -0.29773552767E+02  0.42153476640E+02  0.51100000000E-03 0.  1.
         12    1    3    3    0    0 -0.15013035457E+02 -0.17873544309E+02  0.30262344849E+02  0.38218638588E+02  0.00000000000E+00 0. -1.
</event>
<event>
 7    1  0.3757412E-015  0.9000773E+02  0.7816164E-02  0.1186339E+00
        -11   -1    0    0    0    0  0.00000000000E+00  0.00000000000E+00  0.45593999997E+02  0.45594000000E+02  0.51100000000E-03 0.  1.
         11   -1    0    0    0    0 -0.00000000000E+00 -0.00000000000E+00 -0.45593999997E+02  0.45594000000E+02  0.51100000000E-03 0. -1.
    9900012    2    1    2    0    0  0.28332823489E+00 -0.96034460744E+00 -0.62490848396E+00  0.90007725766E+02  0.89999986946E+02 0.  0.
        -12    1    1    2    0    0 -0.28332823489E+00  0.96034460744E+00  0.62490848396E+00  0.11802742338E+01  0.00000000000E+00 0.  1.
         11    1    3    3    0    0 -0.10367830578E+02 -0.17105122949E+01  0.32457511447E+01  0.10997848151E+02  0.51100000000E-03 0. -1.
        -11    1    3    3    0    0 -0.28569743983E+02 -0.16113948805E+02 -0.13118672269E+02  0.35326890320E+02  0.51100000000E-03 0.  1.
         12    1    3    3    0    0  0.39220902796E+02  0.16864116492E+02  0.92480126404E+01  0.43682987295E+02  0.00000000000E+00 0. -1.
</event>
<event>
 7    1  0.3757412E-015  0.9000750E+02  0.7816164E-02  0.1186340E+00
        -11   -1    0    0    0    0  0.00000000000E+00  0.00000000000E+00  0.45593999997E+02  0.45594000000E+02  0.51100000000E-03 0. -1.
         11   -1    0    0    0    0 -0.00000000000E+00 -0.00000000000E+00 -0.45593999997E+02  0.45594000000E+02  0.51100000000E-03 0.  1.
    9900012    2    1    2    0    0  0.84987755318E+00 -0.32351398709E+00  0.75274298402E+00  0.90007502158E+02  0.89999760386E+02 0.  0.
        -12    1    1    2    0    0 -0.84987755318E+00  0.32351398709E+00 -0.75274298402E+00  0.11804978421E+01  0.00000000000E+00 0.  1.
         11    1    3    3    0    0 -0.85160757709E+01  0.24477859854E+01  0.42170832821E+01  0.98132051051E+01  0.51100000000E-03 0. -1.
        -11    1    3    3    0    0 -0.14224726636E+02  0.11202740976E+02 -0.34389188490E+02  0.38864643811E+02  0.51100000000E-03 0.  1.
         12    1    3    3    0    0  0.23590679960E+02 -0.13974040948E+02  0.30924848192E+02  0.41329653242E+02  0.00000000000E+00 0. -1.
</event>
<event>
 7    1  0.3757412E-015  0.9000770E+02  0.7816164E-02  0.1186339E+00
        -11   -1    0    0    0    0  0.00000000000E+00  0.00000000000E+00  0.45593999997E+02  0.45594000000E+02  0.51100000000E-03 0.  1.
         11   -1    0    0    0    0 -0.00000000000E+00 -0.00000000000E+00 -0.45593999997E+02  0.45594000000E+02  0.51100000000E-03 0. -1.
    9900012    2    1    2    0    0  0.68439449601E+00  0.70432799394E+00 -0.65470611199E+00  0.90007697563E+02  0.89999958371E+02 0.  0.
        -12    1    1    2    0    0 -0.68439449601E+00 -0.70432799394E+00  0.65470611199E+00  0.11803024368E+01  0.00000000000E+00 0.  1.
         11    1    3    3    0    0 -0.21691079584E+01  0.39663536140E+02 -0.13175214741E+02  0.41850775526E+02  0.51100000000E-03 0. -1.
        -11    1    3    3    0    0 -0.16772221863E+01 -0.47463202163E+01 -0.69117322404E+01  0.85505948730E+01  0.51100000000E-03 0.  1.
        -12    1    3    3    0    0  0.45307246407E+01 -0.34212887929E+02  0.19432240869E+02  0.39606327164E+02  0.00000000000E+00 0.  1.
</event>
<event>
 7    1  0.3757412E-015  0.9000771E+02  0.7816164E-02  0.1186339E+00
        -11   -1    0    0    0    0  0.00000000000E+00  0.00000000000E+00  0.45593999997E+02  0.45594000000E+02  0.51100000000E-03 0.  1.
         11   -1    0    0    0    0 -0.00000000000E+00 -0.00000000000E+00 -0.45593999997E+02  0.45594000000E+02  0.51100000000E-03 0. -1.
    9900012    2    1    2    0    0 -0.56096754519E+00  0.17214357027E+00 -0.10240956493E+01  0.90007707708E+02  0.89999968650E+02 0.  0.
        -12    1    1    2    0    0  0.56096754519E+00 -0.17214357027E+00  0.10240956493E+01  0.11802922919E+01  0.00000000000E+00 0.  1.
         11    1    3    3    0    0  0.36097481942E+01  0.64972012850E+01  0.48745769007E+01  0.88884985676E+01  0.51100000000E-03 0. -1.
        -11    1    3    3    0    0 -0.26299182531E+02  0.26611157672E+02 -0.15167613766E+02  0.40371490213E+02  0.51100000000E-03 0.  1.
         12    1    3    3    0    0  0.22128466791E+02 -0.32936215386E+02  0.92689412161E+01  0.40747718927E+02  0.00000000000E+00 0. -1.
</event>
<event>
 7    1  0.3757412E-015  0.9000767E+02  0.7816164E-02  0.1186339E+00
        -11   -1    0    0    0    0  0.00000000000E+00  0.00000000000E+00  0.45593999997E+02  0.45594000000E+02  0.51100000000E-03 0.  1.
         11   -1    0    0    0    0 -0.00000000000E+00 -0.00000000000E+00 -0.45593999997E+02  0.45594000000E+02  0.51100000000E-03 0. -1.
    9900012    2    1    2    0    0  0.83806854770E+00 -0.55527563770E+00 -0.61846620905E+00  0.90007665142E+02  0.89999925522E+02 0.  0.
        -12    1    1    2    0    0 -0.83806854770E+00  0.55527563770E+00  0.61846620905E+00  0.11803348577E+01  0.00000000000E+00 0.  1.
         11    1    3    3    0    0 -0.28785994243E+02 -0.30246083265E+02  0.69322073288E+01  0.42326286350E+02  0.51100000000E-03 0. -1.
        -11    1    3    3    0    0 -0.41679309721E+00  0.74036188700E+01 -0.71100610638E+01  0.10273278807E+02  0.51100000000E-03 0.  1.
        -12    1    3    3    0    0  0.30040855888E+02  0.22287188757E+02 -0.44061247406E+00  0.37408099986E+02  0.00000000000E+00 0.  1.
</event>
<event>
 7    1  0.3757412E-015  0.9000772E+02  0.7816164E-02  0.1186339E+00
        -11   -1    0    0    0    0  0.00000000000E+00  0.00000000000E+00  0.45593999997E+02  0.45594000000E+02  0.51100000000E-03 0.  1.
         11   -1    0    0    0    0 -0.00000000000E+00 -0.00000000000E+00 -0.45593999997E+02  0.45594000000E+02  0.51100000000E-03 0. -1.
    9900012    2    1    2    0    0  0.74089164932E+00  0.28999423362E+00 -0.87180129373E+00  0.90007722665E+02  0.89999983804E+02 0.  0.
        -12    1    1    2    0    0 -0.74089164932E+00 -0.28999423362E+00  0.87180129373E+00  0.11802773349E+01  0.00000000000E+00 0.  1.
         11    1    3    3    0    0  0.24392035573E+02 -0.51864403084E+01 -0.36242302877E+02  0.43992898070E+02  0.51100000000E-03 0. -1.
        -11    1    3    3    0    0  0.26915153229E+00 -0.30728740390E+01  0.84787450853E+01  0.90224229500E+01  0.51100000000E-03 0.  1.
        -12    1    3    3    0    0 -0.23920295456E+02  0.85493085809E+01  0.26891756498E+02  0.36992401645E+02  0.00000000000E+00 0.  1.
</event>
<event>
 7    1  0.3757412E-015  0.9000776E+02  0.7816164E-02  0.1186339E+00
        -11   -1    0    0    0    0  0.00000000000E+00  0.00000000000E+00  0.45593999997E+02  0.45594000000E+02  0.51100000000E-03 0. -1.
         11   -1    0    0    0    0 -0.00000000000E+00 -0.00000000000E+00 -0.45593999997E+02  0.45594000000E+02  0.51100000000E-03 0.  1.
    9900012    2    1    2    0    0 -0.11269441046E+01  0.30653320549E+00 -0.17027776970E+00  0.90007762676E+02  0.90000024344E+02 0.  0.
        -12    1    1    2    0    0  0.11269441046E+01 -0.30653320549E+00  0.17027776970E+00  0.11802373235E+01  0.00000000000E+00 0.  1.
         11    1    3    3    0    0  0.51588625809E+01  0.51723969081E+01 -0.55640087810E+01  0.91829051438E+01  0.51100000000E-03 0. -1.
        -11    1    3    3    0    0 -0.35450071027E+01 -0.38013959919E+02 -0.15871811771E+02  0.41346615741E+02  0.51100000000E-03 0.  1.
         12    1    3    3    0    0 -0.27407995829E+01  0.33148096217E+02  0.21265542782E+02  0.39478241792E+02  0.00000000000E+00 0. -1.
</event>
<event>
 7    1  0.3757412E-015  0.9000766E+02  0.7816164E-02  0.1186339E+00
        -11   -1    0    0    0    0  0.00000000000E+00  0.00000000000E+00  0.45593999997E+02  0.45594000000E+02  0.51100000000E-03 0. -1.
         11   -1    0    0    0    0 -0.00000000000E+00 -0.00000000000E+00 -0.45593999997E+02  0.45594000000E+02  0.51100000000E-03 0.  1.
    9900012    2    1    2    0    0  0.89603780451E+00  0.72302914323E+00 -0.25987960971E+00  0.90007664327E+02  0.89999924696E+02 0.  0.
        -12    1    1    2    0    0 -0.89603780451E+00 -0.72302914323E+00  0.25987960971E+00  0.11803356729E+01  0.00000000000E+00 0.  1.
         11    1    3    3    0    0 -0.79057608720E+01  0.20117196825E+01  0.42071739665E+01  0.91786918508E+01  0.51100000000E-03 0. -1.
        -11    1    3    3    0    0 -0.25335327740E+02 -0.14579794556E+02 -0.25323482754E+02  0.38674643114E+02  0.51100000000E-03 0.  1.
         12    1    3    3    0    0  0.34137126416E+02  0.13291104017E+02  0.20856429178E+02  0.42154329362E+02  0.00000000000E+00 0. -1.
</event>
<event>
 7    1  0.3757412E-015  0.9000805E+02  0.7816164E-02  0.1186338E+00
        -11   -1    0    0    0    0  0.00000000000E+00  0.00000000000E+00  0.45593999997E+02  0.45594000000E+02  0.51100000000E-03 0. -1.
         11   -1    0    0    0    0 -0.00000000000E+00 -0.00000000000E+00 -0.45593999997E+02  0.45594000000E+02  0.51100000000E-03 0.  1.
    9900012    2    1    2    0    0  0.52315153762E+00 -0.10191057913E+01 -0.28288719229E+00  0.90008046904E+02  0.90000312323E+02 0.  0.
        -12    1    1    2    0    0 -0.52315153762E+00  0.10191057913E+01  0.28288719229E+00  0.11799530960E+01  0.00000000000E+00 0.  1.
         11    1    3    3    0    0 -0.46567603084E+01  0.23674557266E+01 -0.10247740971E+02  0.11502454454E+02  0.51100000000E-03 0. -1.
        -11    1    3    3    0    0  0.20113818890E+02 -0.36145962483E+02  0.88215453827E+00  0.41374805269E+02  0.51100000000E-03 0.  1.
         12    1    3    3    0    0 -0.14933907044E+02  0.32759400965E+02  0.90826992407E+01  0.37130787181E+02  0.00000000000E+00 0. -1.
</event>
<event>
 7    1  0.3757412E-015  0.9000777E+02  0.7816164E-02  0.1186339E+00
        -11   -1    0    0    0    0  0.00000000000E+00  0.00000000000E+00  0.45593999997E+02  0.45594000000E+02  0.51100000000E-03 0. -1.
         11   -1    0    0    0    0 -0.00000000000E+00 -0.00000000000E+00 -0.45593999997E+02  0.45594000000E+02  0.51100000000E-03 0.  1.
    9900012    2    1    2    0    0 -0.96224016943E+00  0.64812307469E+00 -0.21674614411E+00  0.90007767585E+02  0.90000029317E+02 0.  0.
        -12    1    1    2    0    0  0.96224016943E+00 -0.64812307469E+00  0.21674614411E+00  0.11802324155E+01  0.00000000000E+00 0.  1.
         11    1    3    3    0    0  0.29474394012E+01  0.70062156792E+01  0.23566876884E+00  0.76046036844E+01  0.51100000000E-03 0. -1.
        -11    1    3    3    0    0  0.29827436790E+02  0.82702263308E+00 -0.25921316123E+02  0.39525619309E+02  0.51100000000E-03 0.  1.
         12    1    3    3    0    0 -0.33737116361E+02 -0.71851152376E+01  0.25468901210E+02  0.42877544591E+02  0.00000000000E+00 0. -1.
</event>
<event>
 7    1  0.3757412E-015  0.9000758E+02  0.7816164E-02  0.1186339E+00
        -11   -1    0    0    0    0  0.00000000000E+00  0.00000000000E+00  0.45593999997E+02  0.45594000000E+02  0.51100000000E-03 0.  1.
         11   -1    0    0    0    0 -0.00000000000E+00 -0.00000000000E+00 -0.45593999997E+02  0.45594000000E+02  0.51100000000E-03 0. -1.
    9900012    2    1    2    0    0  0.10715735601E+01 -0.35110244366E+00 -0.34907451407E+00  0.90007578111E+02  0.89999837342E+02 0.  0.
        -12    1    1    2    0    0 -0.10715735601E+01  0.35110244366E+00  0.34907451407E+00  0.11804218894E+01  0.00000000000E+00 0.  1.
         11    1    3    3    0    0  0.12574404704E+02 -0.31484565629E+02  0.13830188465E+02  0.36615128564E+02  0.51100000000E-03 0. -1.
        -11    1    3    3    0    0  0.50027134615E+01 -0.75479332803E+01 -0.14364895269E+00  0.90564382659E+01  0.51100000000E-03 0.  1.
        -12    1    3    3    0    0 -0.16505544605E+02  0.38681396465E+02 -0.14035614026E+02  0.44336011281E+02  0.00000000000E+00 0.  1.
</event>
<event>
 7    1  0.3757412E-015  0.9000775E+02  0.7816164E-02  0.1186339E+00
        -11   -1    0    0    0    0  0.00000000000E+00  0.00000000000E+00  0.45593999997E+02  0.45594000000E+02  0.51100000000E-03 0.  1.
         11   -1    0    0    0    0 -0.00000000000E+00 -0.00000000000E+00 -0.45593999997E+02  0.45594000000E+02  0.51100000000E-03 0. -1.
    9900012    2    1    2    0    0  0.60757871534E+00 -0.10101500321E+01  0.58572988833E-01  0.90007751815E+02  0.90000013339E+02 0.  0.
        -12    1    1    2    0    0 -0.60757871534E+00  0.10101500321E+01 -0.58572988833E-01  0.11802481848E+01  0.00000000000E+00 0.  1.
         11    1    3    3    0    0 -0.10512440547E+02  0.96373333749E+00  0.42212823160E+00  0.10564960043E+02  0.51100000000E-03 0. -1.
        -11    1    3    3    0    0  0.11802166306E+02 -0.38581396148E+02  0.96502410012E+01  0.41484242911E+02  0.51100000000E-03 0.  1.
         12    1    3    3    0    0 -0.68214704362E+00  0.36607512779E+02 -0.10013796244E+02  0.37958548861E+02  0.00000000000E+00 0. -1.
</event>
<event>
 7    1  0.3757412E-015  0.9000775E+02  0.7816164E-02  0.1186339E+00
        -11   -1    0    0    0    0  0.00000000000E+00  0.00000000000E+00  0.45593999997E+02  0.45594000000E+02  0.51100000000E-03 0. -1.
         11   -1    0    0    0    0 -0.00000000000E+00 -0.00000000000E+00 -0.45593999997E+02  0.45594000000E+02  0.51100000000E-03 0.  1.
    9900012    2    1    2    0    0 -0.23744214919E+00  0.50266218658E+00  0.10411234683E+01  0.90007751668E+02  0.90000013190E+02 0.  0.
        -12    1    1    2    0    0  0.23744214919E+00 -0.50266218658E+00 -0.10411234683E+01  0.11802483316E+01  0.00000000000E+00 0.  1.
         11    1    3    3    0    0 -0.34395251941E+02  0.20022124678E+01  0.18855796339E+02  0.39275733815E+02  0.51100000000E-03 0. -1.
        -11    1    3    3    0    0  0.50410506145E+01  0.65816561194E+01  0.76008224549E+01  0.11247350391E+02  0.51100000000E-03 0.  1.
        -12    1    3    3    0    0  0.29116759178E+02 -0.80812064006E+01 -0.25415495326E+02  0.39484667462E+02  0.00000000000E+00 0.  1.
</event>
<event>
 7    1  0.3757412E-015  0.9000777E+02  0.7816164E-02  0.1186339E+00
        -11   -1    0    0    0    0  0.00000000000E+00  0.00000000000E+00  0.45593999997E+02  0.45594000000E+02  0.51100000000E-03 0.  1.
         11   -1    0    0    0    0 -0.00000000000E+00 -0.00000000000E+00 -0.45593999997E+02  0.45594000000E+02  0.51100000000E-03 0. -1.
    9900012    2    1    2    0    0  0.36003516627E+00 -0.11234940000E+01  0.32830241690E-01  0.90007770398E+02  0.90000032167E+02 0.  0.
        -12    1    1    2    0    0 -0.36003516627E+00  0.11234940000E+01 -0.32830241690E-01  0.11802296021E+01  0.00000000000E+00 0.  1.
         11    1    3    3    0    0  0.14253368632E+01  0.25990054086E+01 -0.90021887957E+01  0.94776483192E+01  0.51100000000E-03 0. -1.
        -11    1    3    3    0    0  0.16299886114E+02  0.15476058205E+02  0.36451026894E+02  0.42823732051E+02  0.51100000000E-03 0.  1.
         12    1    3    3    0    0 -0.17365187811E+02 -0.19198557614E+02 -0.27416007856E+02  0.37706390028E+02  0.00000000000E+00 0. -1.
</event>
<event>
 7    1  0.3757412E-015  0.9000777E+02  0.7816164E-02  0.1186339E+00
        -11   -1    0    0    0    0  0.00000000000E+00  0.00000000000E+00  0.45593999997E+02  0.45594000000E+02  0.51100000000E-03 0. -1.
         11   -1    0    0    0    0 -0.00000000000E+00 -0.00000000000E+00 -0.45593999997E+02  0.45594000000E+02  0.51100000000E-03 0.  1.
    9900012    2    1    2    0    0 -0.88469551111E+00 -0.65656084038E+00 -0.42330571020E+00  0.90007768663E+02  0.90000030409E+02 0.  0.
        -12    1    1    2    0    0  0.88469551111E+00  0.65656084038E+00  0.42330571020E+00  0.11802313370E+01  0.00000000000E+00 0.  1.
         11    1    3    3    0    0  0.30625641617E+02 -0.15834774144E+02 -0.13737060186E+02  0.37113027625E+02  0.51100000000E-03 0. -1.
        -11    1    3    3    0    0  0.84497661602E+01  0.42917198819E+01  0.47549152335E+01  0.10603142310E+02  0.51100000000E-03 0.  1.
        -12    1    3    3    0    0 -0.39960103288E+02  0.10886493422E+02  0.85588392425E+01  0.42291598728E+02  0.00000000000E+00 0.  1.
</event>
<event>
 7    1  0.3757412E-015  0.9000721E+02  0.7816164E-02  0.1186340E+00
        -11   -1    0    0    0    0  0.00000000000E+00  0.00000000000E+00  0.45593999997E+02  0.45594000000E+02  0.51100000000E-03 0.  1.
         11   -1    0    0    0    0 -0.00000000000E+00 -0.00000000000E+00 -0.45593999997E+02  0.45594000000E+02  0.51100000000E-03 0. -1.
    9900012    2    1    2    0    0 -0.99142541837E+00 -0.44520335308E+00 -0.46167478326E+00  0.90007206203E+02  0.89999460523E+02 0.  0.
        -12    1    1    2    0    0  0.99142541837E+00  0.44520335308E+00  0.46167478326E+00  0.11807937971E+01  0.00000000000E+00 0.  1.
         11    1    3    3    0    0  0.74844099312E+01 -0.47333973062E+01 -0.38000152552E+01  0.96364702188E+01  0.51100000000E-03 0. -1.
        -11    1    3    3    0    0 -0.17226981413E+02 -0.29106490052E+02 -0.19439707611E+02  0.39011009780E+02  0.51100000000E-03 0.  1.
         12    1    3    3    0    0  0.87511460638E+01  0.33394684005E+02  0.22778048083E+02  0.41359726204E+02  0.00000000000E+00 0. -1.
</event>
<event>
 7    1  0.3757412E-015  0.9000808E+02  0.7816164E-02  0.1186338E+00
        -11   -1    0    0    0    0  0.00000000000E+00  0.00000000000E+00  0.45593999997E+02  0.45594000000E+02  0.51100000000E-03 0.  1.
         11   -1    0    0    0    0 -0.00000000000E+00 -0.00000000000E+00 -0.45593999997E+02  0.45594000000E+02  0.51100000000E-03 0. -1.
    9900012    2    1    2    0    0 -0.55906622596E+00  0.63773663808E+00 -0.82033306725E+00  0.90008080763E+02  0.90000346628E+02 0.  0.
        -12    1    1    2    0    0  0.55906622596E+00 -0.63773663808E+00  0.82033306725E+00  0.11799192370E+01  0.00000000000E+00 0.  1.
         11    1    3    3    0    0  0.46558226276E+01  0.74097938098E+01  0.39758232732E+01  0.96119144610E+01  0.51100000000E-03 0. -1.
        -11    1    3    3    0    0  0.30363521589E+02  0.14313454857E+02  0.12153333033E+02  0.35700447299E+02  0.51100000000E-03 0.  1.
         12    1    3    3    0    0 -0.35578410443E+02 -0.21085512029E+02 -0.16949489374E+02  0.44695719003E+02  0.00000000000E+00 0. -1.
</event>
<event>
 7    1  0.3757412E-015  0.9000768E+02  0.7816164E-02  0.1186339E+00
        -11   -1    0    0    0    0  0.00000000000E+00  0.00000000000E+00  0.45593999997E+02  0.45594000000E+02  0.51100000000E-03 0.  1.
         11   -1    0    0    0    0 -0.00000000000E+00 -0.00000000000E+00 -0.45593999997E+02  0.45594000000E+02  0.51100000000E-03 0. -1.
    9900012    2    1    2    0    0 -0.10459075841E+00 -0.11731037535E+01 -0.77778449110E-01  0.90007677531E+02  0.89999938075E+02 0.  0.
        -12    1    1    2    0    0  0.10459075841E+00  0.11731037535E+01  0.77778449110E-01  0.11803224688E+01  0.00000000000E+00 0.  1.
         11    1    3    3    0    0 -0.50628434718E+01  0.12213024867E+01  0.17445164229E+00  0.52109881424E+01  0.51100000000E-03 0. -1.
        -11    1    3    3    0    0 -0.10345723217E+02  0.33958677481E+02  0.19694511782E+02  0.40596792481E+02  0.51100000000E-03 0.  1.
         12    1    3    3    0    0  0.15303975931E+02 -0.36353083721E+02 -0.19946741873E+02  0.44199896908E+02  0.00000000000E+00 0. -1.
</event>
<event>
 7    1  0.3757412E-015  0.9000764E+02  0.7816164E-02  0.1186339E+00
        -11   -1    0    0    0    0  0.00000000000E+00  0.00000000000E+00  0.45593999997E+02  0.45594000000E+02  0.51100000000E-03 0. -1.
         11   -1    0    0    0    0 -0.00000000000E+00 -0.00000000000E+00 -0.45593999997E+02  0.45594000000E+02  0.51100000000E-03 0.  1.
    9900012    2    1    2    0    0  0.33566900129E+00 -0.72042506531E+00  0.87267690683E+00  0.90007639489E+02  0.89999899530E+02 0.  0.
        -12    1    1    2    0    0 -0.33566900129E+00  0.72042506531E+00 -0.87267690683E+00  0.11803605114E+01  0.00000000000E+00 0.  1.
         11    1    3    3    0    0 -0.55535267484E+01 -0.28620198633E+00  0.72557653147E+01  0.91416465412E+01  0.51100000000E-03 0. -1.
        -11    1    3    3    0    0 -0.21505729573E+02 -0.13573705537E+02 -0.32175012456E+02  0.41011867956E+02  0.51100000000E-03 0.  1.
         12    1    3    3    0    0  0.27394925323E+02  0.13139482458E+02  0.25791924048E+02  0.39854124991E+02  0.00000000000E+00 0. -1.
</event>
<event>
 7    1  0.3780869E-015  0.9000784E+02  0.7816164E-02  0.1186339E+00
        -11   -1    0    0    0    0  0.00000000000E+00  0.00000000000E+00  0.45593999997E+02  0.45594000000E+02  0.51100000000E-03 0.  1.
         11   -1    0    0    0    0 -0.00000000000E+00 -0.00000000000E+00 -0.45593999997E+02  0.45594000000E+02  0.51100000000E-03 0. -1.
    9900012    2    1    2    0    0 -0.32420164068E+00  0.45878236984E+00 -0.10378786806E+01  0.90007838942E+02  0.90000101616E+02 0.  0.
        -12    1    1    2    0    0  0.32420164068E+00 -0.45878236984E+00  0.10378786806E+01  0.11801610578E+01  0.00000000000E+00 0.  1.
         11    1    3    3    0    0 -0.12502306277E+02  0.10541281806E+02 -0.31985647974E+02  0.35923640697E+02  0.51100000000E-03 0. -1.
        -11    1    3    3    0    0 -0.39308524127E+01 -0.11492077808E+01 -0.91132943149E+01  0.99912167800E+01  0.51100000000E-03 0.  1.
        -12    1    3    3    0    0  0.16108957049E+02 -0.89332916557E+01  0.40061063608E+02  0.44092981465E+02  0.00000000000E+00 0.  1.
</event>
<event>
 7    1  0.3757412E-015  0.9000780E+02  0.7816164E-02  0.1186339E+00
        -11   -1    0    0    0    0  0.00000000000E+00  0.00000000000E+00  0.45593999997E+02  0.45594000000E+02  0.51100000000E-03 0.  1.
         11   -1    0    0    0    0 -0.00000000000E+00 -0.00000000000E+00 -0.45593999997E+02  0.45594000000E+02  0.51100000000E-03 0. -1.
    9900012    2    1    2    0    0  0.11327184171E+01 -0.29726914461E+00 -0.14645016835E+00  0.90007801877E+02  0.90000064062E+02 0.  0.
        -12    1    1    2    0    0 -0.11327184171E+01  0.29726914461E+00  0.14645016835E+00  0.11801981226E+01  0.00000000000E+00 0.  1.
         11    1    3    3    0    0  0.15045297300E+02 -0.24725637885E+02  0.30954086085E+02  0.42377748705E+02  0.51100000000E-03 0. -1.
        -11    1    3    3    0    0 -0.10197305417E+02  0.43933399450E+00 -0.33094311873E+01  0.10729882906E+02  0.51100000000E-03 0.  1.
        -12    1    3    3    0    0 -0.37152734659E+01  0.23989034746E+02 -0.27791105066E+02  0.36900170267E+02  0.00000000000E+00 0.  1.
</event>
<event>
 7    1  0.3757412E-015  0.9000794E+02  0.7816164E-02  0.1186339E+00
        -11   -1    0    0    0    0  0.00000000000E+00  0.00000000000E+00  0.45593999997E+02  0.45594000000E+02  0.51100000000E-03 0. -1.
         11   -1    0    0    0    0 -0.00000000000E+00 -0.00000000000E+00 -0.45593999997E+02  0.45594000000E+02  0.51100000000E-03 0.  1.
    9900012    2    1    2    0    0  0.23253677022E+00 -0.99665192439E+00  0.58749142277E+00  0.90007942976E+02  0.90000207023E+02 0.  0.
        -12    1    1    2    0    0 -0.23253677022E+00  0.99665192439E+00 -0.58749142277E+00  0.11800570239E+01  0.00000000000E+00 0.  1.
         11    1    3    3    0    0  0.21160163640E+01 -0.84049414402E+01 -0.25913793278E+01  0.90463148822E+01  0.51100000000E-03 0. -1.
        -11    1    3    3    0    0  0.35003821722E+02 -0.89145210747E+01  0.14720500001E+02  0.39005503992E+02  0.51100000000E-03 0.  1.
         12    1    3    3    0    0 -0.36887301316E+02  0.16322810591E+02 -0.11541629250E+02  0.41956124102E+02  0.00000000000E+00 0. -1.
</event>
<event>
 7    1  0.3757412E-015  0.9000777E+02  0.7816164E-02  0.1186339E+00
        -11   -1    0    0    0    0  0.00000000000E+00  0.00000000000E+00  0.45593999997E+02  0.45594000000E+02  0.51100000000E-03 0. -1.
         11   -1    0    0    0    0 -0.00000000000E+00 -0.00000000000E+00 -0.45593999997E+02  0.45594000000E+02  0.51100000000E-03 0.  1.
    9900012    2    1    2    0    0 -0.41213260951E+00 -0.53992687450E+00 -0.96518268732E+00  0.90007766151E+02  0.90000027865E+02 0.  0.
        -12    1    1    2    0    0  0.41213260951E+00  0.53992687450E+00  0.96518268732E+00  0.11802338487E+01  0.00000000000E+00 0.  1.
         11    1    3    3    0    0  0.15010709708E+02  0.12536993095E+02  0.29377739685E+02  0.35292338985E+02  0.51100000000E-03 0. -1.
        -11    1    3    3    0    0  0.33870118536E+01  0.10831143731E+02  0.54647784473E+00  0.11361521118E+02  0.51100000000E-03 0.  1.
        -12    1    3    3    0    0 -0.18809854171E+02 -0.23908063701E+02 -0.30889400217E+02  0.43353906048E+02  0.00000000000E+00 0.  1.
</event>
<event>
 7    1  0.3757412E-015  0.9000775E+02  0.7816164E-02  0.1186339E+00
        -11   -1    0    0    0    0  0.00000000000E+00  0.00000000000E+00  0.45593999997E+02  0.45594000000E+02  0.51100000000E-03 0. -1.
         11   -1    0    0    0    0 -0.00000000000E+00 -0.00000000000E+00 -0.45593999997E+02  0.45594000000E+02  0.51100000000E-03 0.  1.
    9900012    2    1    2    0    0  0.74114381397E+00 -0.64156905141E-01 -0.91628081594E+00  0.90007753926E+02  0.90000015478E+02 0.  0.
        -12    1    1    2    0    0 -0.74114381397E+00  0.64156905141E-01  0.91628081594E+00  0.11802460740E+01  0.00000000000E+00 0.  1.
         11    1    3    3    0    0 -0.12303753756E+01  0.22660666144E+02  0.26255439839E+02  0.34704001715E+02  0.51100000000E-03 0. -1.
        -11    1    3    3    0    0  0.39272965836E+01 -0.27205432680E+01  0.11094762829E+02  0.12079684459E+02  0.51100000000E-03 0.  1.
        -12    1    3    3    0    0 -0.19557773941E+01 -0.20004279781E+02 -0.38266483484E+02  0.43224067752E+02  0.00000000000E+00 0.  1.
</event>
<event>
 7    1  0.3757412E-015  0.9000777E+02  0.7816164E-02  0.1186339E+00
        -11   -1    0    0    0    0  0.00000000000E+00  0.00000000000E+00  0.45593999997E+02  0.45594000000E+02  0.51100000000E-03 0.  1.
         11   -1    0    0    0    0 -0.00000000000E+00 -0.00000000000E+00 -0.45593999997E+02  0.45594000000E+02  0.51100000000E-03 0. -1.
    9900012    2    1    2    0    0 -0.91566379679E+00  0.74464933839E+00 -0.14447976813E-02  0.90007769127E+02  0.90000030880E+02 0.  0.
        -12    1    1    2    0    0  0.91566379679E+00 -0.74464933839E+00  0.14447976813E-02  0.11802308729E+01  0.00000000000E+00 0.  1.
         11    1    3    3    0    0  0.31285198388E+01 -0.70659014412E+01  0.69833262147E+01  0.10415442614E+02  0.51100000000E-03 0. -1.
        -11    1    3    3    0    0 -0.14627350384E+02 -0.13698491938E+02  0.29664615594E+02  0.35799406130E+02  0.51100000000E-03 0.  1.
         12    1    3    3    0    0  0.10583166749E+02  0.21509042717E+02 -0.36649386607E+02  0.43792920383E+02  0.00000000000E+00 0. -1.
</event>
<event>
 7    1  0.3757412E-015  0.9000781E+02  0.7816164E-02  0.1186339E+00
        -11   -1    0    0    0    0  0.00000000000E+00  0.00000000000E+00  0.45593999997E+02  0.45594000000E+02  0.51100000000E-03 0. -1.
         11   -1    0    0    0    0 -0.00000000000E+00 -0.00000000000E+00 -0.45593999997E+02  0.45594000000E+02  0.51100000000E-03 0.  1.
    9900012    2    1    2    0    0 -0.47930331351E+00  0.10727038316E+01  0.11141549184E+00  0.90007814172E+02  0.90000076519E+02 0.  0.
        -12    1    1    2    0    0  0.47930331351E+00 -0.10727038316E+01 -0.11141549184E+00  0.11801858280E+01  0.00000000000E+00 0.  1.
         11    1    3    3    0    0  0.35946909234E+02  0.98332836899E+01  0.16424411970E+02  0.40726343568E+02  0.51100000000E-03 0. -1.
        -11    1    3    3    0    0 -0.34590723033E+00  0.63102656698E+01 -0.62887818770E+01  0.89155977025E+01  0.51100000000E-03 0.  1.
        -12    1    3    3    0    0 -0.36080305317E+02 -0.15070845528E+02 -0.10024214601E+02  0.40365872901E+02  0.00000000000E+00 0.  1.
</event>
<event>
 7    1  0.3757412E-015  0.9000785E+02  0.7816164E-02  0.1186339E+00
        -11   -1    0    0    0    0  0.00000000000E+00  0.00000000000E+00  0.45593999997E+02  0.45594000000E+02  0.51100000000E-03 0.  1.
         11   -1    0    0    0    0 -0.00000000000E+00 -0.00000000000E+00 -0.45593999997E+02  0.45594000000E+02  0.51100000000E-03 0. -1.
    9900012    2    1    2    0    0 -0.43982841421E+00  0.10032167432E+01 -0.43915035164E+00  0.90007853442E+02  0.90000116307E+02 0.  0.
        -12    1    1    2    0    0  0.43982841421E+00 -0.10032167432E+01  0.43915035164E+00  0.11801465583E+01  0.00000000000E+00 0.  1.
         11    1    3    3    0    0  0.33606253072E+02  0.51132886272E+01 -0.25494574551E+02  0.42491167293E+02  0.51100000000E-03 0. -1.
        -11    1    3    3    0    0 -0.14869920377E+01  0.57294178165E+01  0.64218496776E+01  0.87337006692E+01  0.51100000000E-03 0.  1.
        -12    1    3    3    0    0 -0.32559089448E+02 -0.98394897005E+01  0.18633574521E+02  0.38782985480E+02  0.00000000000E+00 0.  1.
</event>
<event>
 7    1  0.3757412E-015  0.9000768E+02  0.7816164E-02  0.1186339E+00
        -11   -1    0    0    0    0  0.00000000000E+00  0.00000000000E+00  0.45593999997E+02  0.45594000000E+02  0.51100000000E-03 0.  1.
         11   -1    0    0    0    0 -0.00000000000E+00 -0.00000000000E+00 -0.45593999997E+02  0.45594000000E+02  0.51100000000E-03 0. -1.
    9900012    2    1    2    0    0  0.12488217516E-01  0.11264386269E+01 -0.35231407592E+00  0.90007684303E+02  0.89999944936E+02 0.  0.
        -12    1    1    2    0    0 -0.12488217516E-01 -0.11264386269E+01  0.35231407592E+00  0.11803156967E+01  0.00000000000E+00 0.  1.
         11    1    3    3    0    0 -0.13631236530E+01  0.17187526269E+02  0.30530121245E+01  0.17509712980E+02  0.51100000000E-03 0. -1.
        -11    1    3    3    0    0  0.15325675127E+02 -0.10199765997E+02  0.30355303076E+02  0.35501492498E+02  0.51100000000E-03 0.  1.
         12    1    3    3    0    0 -0.13950063257E+02 -0.58613216451E+01 -0.33760629277E+02  0.36996478825E+02  0.00000000000E+00 0. -1.
</event>
<event>
 7    1  0.3757412E-015  0.9000797E+02  0.7816164E-02  0.1186339E+00
        -11   -1    0    0    0    0  0.00000000000E+00  0.00000000000E+00  0.45593999997E+02  0.45594000000E+02  0.51100000000E-03 0. -1.
         11   -1    0    0    0    0 -0.00000000000E+00 -0.00000000000E+00 -0.45593999997E+02  0.45594000000E+02  0.51100000000E-03 0.  1.
    9900012    2    1    2    0    0 -0.97079083890E+00  0.66979928449E+00 -0.37400456571E-01  0.90007972573E+02  0.90000237011E+02 0.  0.
        -12    1    1    2    0    0  0.97079083890E+00 -0.66979928449E+00  0.37400456571E-01  0.11800274270E+01  0.00000000000E+00 0.  1.
         11    1    3    3    0    0  0.10774518042E+02  0.30408331776E+02 -0.18712420919E+02  0.37294926965E+02  0.51100000000E-03 0. -1.
        -11    1    3    3    0    0  0.39191150218E+01  0.23836965263E+00 -0.84755965274E+01  0.93408789416E+01  0.51100000000E-03 0.  1.
        -12    1    3    3    0    0 -0.15664423903E+02 -0.29976902144E+02  0.27150616990E+02  0.43372166666E+02  0.00000000000E+00 0.  1.
</event>
<event>
 7    1  0.3757412E-015  0.9000792E+02  0.7816164E-02  0.1186339E+00
        -11   -1    0    0    0    0  0.00000000000E+00  0.00000000000E+00  0.45593999997E+02  0.45594000000E+02  0.51100000000E-03 0. -1.
         11   -1    0    0    0    0 -0.00000000000E+00 -0.00000000000E+00 -0.45593999997E+02  0.45594000000E+02  0.51100000000E-03 0.  1.
    9900012    2    1    2    0    0 -0.31160211898E+00  0.11150336603E+01  0.22847051571E+00  0.90007917494E+02  0.90000181205E+02 0.  0.
        -12    1    1    2    0    0  0.31160211898E+00 -0.11150336603E+01 -0.22847051571E+00  0.11800825058E+01  0.00000000000E+00 0.  1.
         11    1    3    3    0    0  0.35635201189E+02  0.64190671671E+01  0.16021439736E+01  0.36244156117E+02  0.51100000000E-03 0. -1.
        -11    1    3    3    0    0  0.72688661648E+01  0.27513001360E+01 -0.56316810781E+01  0.95980154088E+01  0.51100000000E-03 0.  1.
        -12    1    3    3    0    0 -0.43215669473E+02 -0.80553336428E+01  0.42580076203E+01  0.44165745968E+02  0.00000000000E+00 0.  1.
</event>
<event>
 7    1  0.3757412E-015  0.9000815E+02  0.7816164E-02  0.1186338E+00
        -11   -1    0    0    0    0  0.00000000000E+00  0.00000000000E+00  0.45593999997E+02  0.45594000000E+02  0.51100000000E-03 0.  1.
         11   -1    0    0    0    0 -0.00000000000E+00 -0.00000000000E+00 -0.45593999997E+02  0.45594000000E+02  0.51100000000E-03 0. -1.
    9900012    2    1    2    0    0 -0.12724274311E+00  0.10033785235E+01 -0.60752930174E+00  0.90008147878E+02  0.90000414629E+02 0.  0.
        -12    1    1    2    0    0  0.12724274311E+00 -0.10033785235E+01  0.60752930174E+00  0.11798521219E+01  0.00000000000E+00 0.  1.
         11    1    3    3    0    0  0.30893964036E+01  0.34072851869E+01  0.82778733620E+01  0.94698020117E+01  0.51100000000E-03 0. -1.
        -11    1    3    3    0    0 -0.25327401539E+02 -0.76279512647E+01  0.27171623599E+02  0.37920443543E+02  0.51100000000E-03 0.  1.
         12    1    3    3    0    0  0.22110762392E+02  0.52240446013E+01 -0.36057026263E+02  0.42617902324E+02  0.00000000000E+00 0. -1.
</event>
<event>
 7    1  0.3757412E-015  0.9000772E+02  0.7816164E-02  0.1186339E+00
        -11   -1    0    0    0    0  0.00000000000E+00  0.00000000000E+00  0.45593999997E+02  0.45594000000E+02  0.51100000000E-03 0. -1.
         11   -1    0    0    0    0 -0.00000000000E+00 -0.00000000000E+00 -0.45593999997E+02  0.45594000000E+02  0.51100000000E-03 0.  1.
    9900012    2    1    2    0    0 -0.11680350555E+01  0.10295387649E+00 -0.13470325246E+00  0.90007724457E+02  0.89999985620E+02 0.  0.
        -12    1    1    2    0    0  0.11680350555E+01 -0.10295387649E+00  0.13470325246E+00  0.11802755432E+01  0.00000000000E+00 0.  1.
         11    1    3    3    0    0  0.36421253451E+01  0.23951161296E+01 -0.85588421061E+01  0.96049693785E+01  0.51100000000E-03 0. -1.
        -11    1    3    3    0    0  0.25005851497E+02  0.71868501485E+01 -0.23963064455E+02  0.35371908098E+02  0.51100000000E-03 0.  1.
         12    1    3    3    0    0 -0.29816011898E+02 -0.94790124016E+01  0.32387203309E+02  0.45030846980E+02  0.00000000000E+00 0. -1.
</event>
<event>
 7    1  0.3757412E-015  0.9000774E+02  0.7816164E-02  0.1186339E+00
        -11   -1    0    0    0    0  0.00000000000E+00  0.00000000000E+00  0.45593999997E+02  0.45594000000E+02  0.51100000000E-03 0. -1.
         11   -1    0    0    0    0 -0.00000000000E+00 -0.00000000000E+00 -0.45593999997E+02  0.45594000000E+02  0.51100000000E-03 0.  1.
    9900012    2    1    2    0    0 -0.80482434927E+00  0.67080905654E+00  0.54341154940E+00  0.90007735989E+02  0.89999997304E+02 0.  0.
        -12    1    1    2    0    0  0.80482434927E+00 -0.67080905654E+00 -0.54341154940E+00  0.11802640109E+01  0.00000000000E+00 0.  1.
         11    1    3    3    0    0 -0.79454546024E+00 -0.26837151524E+01  0.10390451614E+02  0.10760813841E+02  0.51100000000E-03 0. -1.
        -11    1    3    3    0    0  0.35933972219E+02 -0.80767538280E+01  0.77320846373E+01  0.37633355483E+02  0.51100000000E-03 0.  1.
         12    1    3    3    0    0 -0.35944251108E+02  0.11431278037E+02 -0.17579124702E+02  0.41613566665E+02  0.00000000000E+00 0. -1.
</event>
<event>
 7    1  0.3757412E-015  0.9000778E+02  0.7816164E-02  0.1186339E+00
        -11   -1    0    0    0    0  0.00000000000E+00  0.00000000000E+00  0.45593999997E+02  0.45594000000E+02  0.51100000000E-03 0.  1.
         11   -1    0    0    0    0 -0.00000000000E+00 -0.00000000000E+00 -0.45593999997E+02  0.45594000000E+02  0.51100000000E-03 0. -1.
    9900012    2    1    2    0    0 -0.10414750043E+01 -0.37776730275E+00 -0.40687943338E+00  0.90007775787E+02  0.90000037627E+02 0.  0.
        -12    1    1    2    0    0  0.10414750043E+01  0.37776730275E+00  0.40687943338E+00  0.11802242130E+01  0.00000000000E+00 0.  1.
         11    1    3    3    0    0 -0.32054075627E+02  0.45506454576E+01 -0.24334872025E+02  0.40501334979E+02  0.51100000000E-03 0. -1.
        -11    1    3    3    0    0 -0.14191409361E+01  0.80048776464E+01  0.68853813134E+01  0.10653661494E+02  0.51100000000E-03 0.  1.
        -12    1    3    3    0    0  0.32431741559E+02 -0.12933290407E+02  0.17042611278E+02  0.38852779314E+02  0.00000000000E+00 0.  1.
</event>
<event>
 7    1  0.3757412E-015  0.9000793E+02  0.7816164E-02  0.1186339E+00
        -11   -1    0    0    0    0  0.00000000000E+00  0.00000000000E+00  0.45593999997E+02  0.45594000000E+02  0.51100000000E-03 0.  1.
         11   -1    0    0    0    0 -0.00000000000E+00 -0.00000000000E+00 -0.45593999997E+02  0.45594000000E+02  0.51100000000E-03 0. -1.
    9900012    2    1    2    0    0 -0.10421118330E+01  0.51795695589E+00  0.19567218311E+00  0.90007930475E+02  0.90000194357E+02 0.  0.
        -12    1    1    2    0    0  0.10421118330E+01 -0.51795695589E+00 -0.19567218311E+00  0.11800695250E+01  0.00000000000E+00 0.  1.
         11    1    3    3    0    0  0.53397757938E+00 -0.39794120290E+01  0.59930327058E+01  0.72136879213E+01  0.51100000000E-03 0. -1.
        -11    1    3    3    0    0  0.20352004717E+02  0.30471251145E+02  0.18463906946E+02  0.41031903469E+02  0.51100000000E-03 0.  1.
         12    1    3    3    0    0 -0.21928094129E+02 -0.25973882160E+02 -0.24261267468E+02  0.41762339084E+02  0.00000000000E+00 0. -1.
</event>
<event>
 7    1  0.3757412E-015  0.9000782E+02  0.7816164E-02  0.1186339E+00
        -11   -1    0    0    0    0  0.00000000000E+00  0.00000000000E+00  0.45593999997E+02  0.45594000000E+02  0.51100000000E-03 0. -1.
         11   -1    0    0    0    0 -0.00000000000E+00 -0.00000000000E+00 -0.45593999997E+02  0.45594000000E+02  0.51100000000E-03 0.  1.
    9900012    2    1    2    0    0  0.56601834587E+00  0.16321380853E+00  0.10226438718E+01  0.90007823740E+02  0.90000086214E+02 0.  0.
        -12    1    1    2    0    0 -0.56601834587E+00 -0.16321380853E+00 -0.10226438718E+01  0.11801762596E+01  0.00000000000E+00 0.  1.
         11    1    3    3    0    0  0.23748853181E+02  0.34457419839E+01  0.28861046018E+02  0.37534532670E+02  0.51100000000E-03 0. -1.
        -11    1    3    3    0    0 -0.17846320073E+01  0.14602136809E+02 -0.27595415576E+01  0.14967377213E+02  0.51100000000E-03 0.  1.
        -12    1    3    3    0    0 -0.21398202828E+02 -0.17884664984E+02 -0.25078860588E+02  0.37505913857E+02  0.00000000000E+00 0.  1.
</event>
<event>
 7    1  0.3757412E-015  0.9000775E+02  0.7816164E-02  0.1186339E+00
        -11   -1    0    0    0    0  0.00000000000E+00  0.00000000000E+00  0.45593999997E+02  0.45594000000E+02  0.51100000000E-03 0. -1.
         11   -1    0    0    0    0 -0.00000000000E+00 -0.00000000000E+00 -0.45593999997E+02  0.45594000000E+02  0.51100000000E-03 0.  1.
    9900012    2    1    2    0    0  0.46538284488E+00 -0.97614335525E+00  0.47280852712E+00  0.90007752168E+02  0.90000013696E+02 0.  0.
        -12    1    1    2    0    0 -0.46538284488E+00  0.97614335525E+00 -0.47280852712E+00  0.11802478323E+01  0.00000000000E+00 0.  1.
         11    1    3    3    0    0 -0.11412070734E+02 -0.16813062077E+02  0.33951932962E+02  0.39568272226E+02  0.51100000000E-03 0. -1.
        -11    1    3    3    0    0 -0.61464667657E+01 -0.36546081005E+01  0.67324039359E+00  0.71825111875E+01  0.51100000000E-03 0.  1.
        -12    1    3    3    0    0  0.18023920344E+02  0.19491526823E+02 -0.34152364828E+02  0.43256968754E+02  0.00000000000E+00 0.  1.
</event>
<event>
 7    1  0.3757412E-015  0.9000775E+02  0.7816164E-02  0.1186339E+00
        -11   -1    0    0    0    0  0.00000000000E+00  0.00000000000E+00  0.45593999997E+02  0.45594000000E+02  0.51100000000E-03 0. -1.
         11   -1    0    0    0    0 -0.00000000000E+00 -0.00000000000E+00 -0.45593999997E+02  0.45594000000E+02  0.51100000000E-03 0.  1.
    9900012    2    1    2    0    0  0.88801026395E-01  0.17061589707E+00  0.11644739488E+01  0.90007747915E+02  0.90000009388E+02 0.  0.
        -12    1    1    2    0    0 -0.88801026395E-01 -0.17061589707E+00 -0.11644739488E+01  0.11802520850E+01  0.00000000000E+00 0.  1.
         11    1    3    3    0    0  0.82825533992E+01  0.15023920850E+02  0.26289500736E+02  0.31391985247E+02  0.51100000000E-03 0. -1.
        -11    1    3    3    0    0  0.32539293041E+01  0.10751624382E+02  0.90355099926E+01  0.14416168834E+02  0.51100000000E-03 0.  1.
        -12    1    3    3    0    0 -0.11447681677E+02 -0.25604929334E+02 -0.34160536780E+02  0.44199593834E+02  0.00000000000E+00 0.  1.
</event>
<event>
 7    1  0.3757412E-015  0.9000767E+02  0.7816164E-02  0.1186339E+00
        -11   -1    0    0    0    0  0.00000000000E+00  0.00000000000E+00  0.45593999997E+02  0.45594000000E+02  0.51100000000E-03 0.  1.
         11   -1    0    0    0    0 -0.00000000000E+00 -0.00000000000E+00 -0.45593999997E+02  0.45594000000E+02  0.51100000000E-03 0. -1.
    9900012    2    1    2    0    0  0.52755899875E+00  0.74842952115E+00 -0.74478723295E+00  0.90007672390E+02  0.89999932865E+02 0.  0.
        -12    1    1    2    0    0 -0.52755899875E+00 -0.74842952115E+00  0.74478723295E+00  0.11803276103E+01  0.00000000000E+00 0.  1.
         11    1    3    3    0    0  0.13322185494E+01  0.73240596895E+01  0.21203895562E+01  0.77403300143E+01  0.51100000000E-03 0. -1.
        -11    1    3    3    0    0 -0.57238060042E+01 -0.24624815521E+02  0.33145950650E+02  0.41686898894E+02  0.51100000000E-03 0.  1.
         12    1    3    3    0    0  0.49191464535E+01  0.18049185353E+02 -0.36011127439E+02  0.40580443482E+02  0.00000000000E+00 0. -1.
</event>
<event>
 7    1  0.3757412E-015  0.9000765E+02  0.7816164E-02  0.1186339E+00
        -11   -1    0    0    0    0  0.00000000000E+00  0.00000000000E+00  0.45593999997E+02  0.45594000000E+02  0.51100000000E-03 0. -1.
         11   -1    0    0    0    0 -0.00000000000E+00 -0.00000000000E+00 -0.45593999997E+02  0.45594000000E+02  0.51100000000E-03 0.  1.
    9900012    2    1    2    0    0 -0.38613397041E+00  0.39776499897E+00  0.10420718862E+01  0.90007648250E+02  0.89999908407E+02 0.  0.
        -12    1    1    2    0    0  0.38613397041E+00 -0.39776499897E+00 -0.10420718862E+01  0.11803517499E+01  0.00000000000E+00 0.  1.
         11    1    3    3    0    0 -0.38851901930E+02  0.10891582240E+02 -0.35552132955E+01  0.40506004358E+02  0.51100000000E-03 0. -1.
        -11    1    3    3    0    0  0.10343212059E+01 -0.91068266469E+01 -0.55237708369E+01  0.10701222194E+02  0.51100000000E-03 0.  1.
        -12    1    3    3    0    0  0.37431446753E+02 -0.13869905937E+01  0.10121056019E+02  0.38800421697E+02  0.00000000000E+00 0.  1.
</event>
<event>
 7    1  0.3757412E-015  0.9000778E+02  0.7816164E-02  0.1186339E+00
        -11   -1    0    0    0    0  0.00000000000E+00  0.00000000000E+00  0.45593999997E+02  0.45594000000E+02  0.51100000000E-03 0.  1.
         11   -1    0    0    0    0 -0.00000000000E+00 -0.00000000000E+00 -0.45593999997E+02  0.45594000000E+02  0.51100000000E-03 0. -1.
    9900012    2    1    2    0    0 -0.10110173109E+01 -0.52739196675E+00 -0.30435316187E+00  0.90007775811E+02  0.90000037652E+02 0.  0.
        -12    1    1    2    0    0  0.10110173109E+01  0.52739196675E+00  0.30435316187E+00  0.11802241891E+01  0.00000000000E+00 0.  1.
         11    1    3    3    0    0  0.43912122536E+01  0.36372176605E+01  0.10081523993E+02  0.11582280589E+02  0.51100000000E-03 0. -1.
        -11    1    3    3    0    0  0.17828950009E+02  0.47017186737E+01  0.27499442692E+02  0.33108865362E+02  0.51100000000E-03 0.  1.
         12    1    3    3    0    0 -0.23231179574E+02 -0.88663283009E+01 -0.37885319847E+02  0.45316629860E+02  0.00000000000E+00 0. -1.
</event>
<event>
 7    1  0.4083252E-015  0.9000776E+02  0.7816164E-02  0.1186339E+00
        -11   -1    0    0    0    0  0.00000000000E+00  0.00000000000E+00  0.45593999997E+02  0.45594000000E+02  0.51100000000E-03 0. -1.
         11   -1    0    0    0    0 -0.00000000000E+00 -0.00000000000E+00 -0.45593999997E+02  0.45594000000E+02  0.51100000000E-03 0.  1.
    9900012    2    1    2    0    0  0.31424969113E+00 -0.76164824631E+00  0.84504643466E+00  0.90007760873E+02  0.90000022517E+02 0.  0.
        -12    1    1    2    0    0 -0.31424969113E+00  0.76164824631E+00 -0.84504643466E+00  0.11802391267E+01  0.00000000000E+00 0.  1.
         11    1    3    3    0    0  0.23372949564E+02  0.12552243849E+02  0.28110483032E+02  0.38652979879E+02  0.51100000000E-03 0. -1.
        -11    1    3    3    0    0  0.83176477134E+01  0.15108715794E+01 -0.28388331946E+01  0.89176774208E+01  0.51100000000E-03 0.  1.
        -12    1    3    3    0    0 -0.31376347586E+02 -0.14824763675E+02 -0.24426603403E+02  0.42437103573E+02  0.00000000000E+00 0.  1.
</event>
<event>
 7    1  0.3757412E-015  0.9000775E+02  0.7816164E-02  0.1186339E+00
        -11   -1    0    0    0    0  0.00000000000E+00  0.00000000000E+00  0.45593999997E+02  0.45594000000E+02  0.51100000000E-03 0.  1.
         11   -1    0    0    0    0 -0.00000000000E+00 -0.00000000000E+00 -0.45593999997E+02  0.45594000000E+02  0.51100000000E-03 0. -1.
    9900012    2    1    2    0    0 -0.38535614164E+00  0.15818356898E+00 -0.11042981334E+01  0.90007747584E+02  0.90000009052E+02 0.  0.
        -12    1    1    2    0    0  0.38535614164E+00 -0.15818356898E+00  0.11042981334E+01  0.11802524157E+01  0.00000000000E+00 0.  1.
         11    1    3    3    0    0  0.71455871460E+01 -0.58498146653E+01 -0.73013035129E+01  0.11772373615E+02  0.51100000000E-03 0. -1.
        -11    1    3    3    0    0 -0.14078873969E+02 -0.29071748244E+02 -0.16166719361E+02  0.36121241027E+02  0.51100000000E-03 0.  1.
         12    1    3    3    0    0  0.65479306812E+01  0.35079746478E+02  0.22363724741E+02  0.42114132942E+02  0.00000000000E+00 0. -1.
</event>
<event>
 7    1  0.3757412E-015  0.9000764E+02  0.7816164E-02  0.1186339E+00
        -11   -1    0    0    0    0  0.00000000000E+00  0.00000000000E+00  0.45593999997E+02  0.45594000000E+02  0.51100000000E-03 0.  1.
         11   -1    0    0    0    0 -0.00000000000E+00 -0.00000000000E+00 -0.45593999997E+02  0.45594000000E+02  0.51100000000E-03 0. -1.
    9900012    2    1    2    0    0 -0.92719003582E+00  0.27859410077E+00 -0.67523837025E+00  0.90007642896E+02  0.89999902983E+02 0.  0.
        -12    1    1    2    0    0  0.92719003582E+00 -0.27859410077E+00  0.67523837025E+00  0.11803571037E+01  0.00000000000E+00 0.  1.
         11    1    3    3    0    0 -0.99727643760E+01 -0.42209392856E+01 -0.40094494626E+02  0.41531203417E+02  0.51100000000E-03 0. -1.
        -11    1    3    3    0    0  0.58574806686E+01  0.90779240985E+01  0.24361722660E+01  0.11074914053E+02  0.51100000000E-03 0.  1.
        -12    1    3    3    0    0  0.31880936716E+01 -0.45783907122E+01  0.36983083989E+02  0.37401525425E+02  0.00000000000E+00 0.  1.
</event>
<event>
 7    1  0.3757412E-015  0.9000771E+02  0.7816164E-02  0.1186339E+00
        -11   -1    0    0    0    0  0.00000000000E+00  0.00000000000E+00  0.45593999997E+02  0.45594000000E+02  0.51100000000E-03 0.  1.
         11   -1    0    0    0    0 -0.00000000000E+00 -0.00000000000E+00 -0.45593999997E+02  0.45594000000E+02  0.51100000000E-03 0. -1.
    9900012    2    1    2    0    0 -0.15413335320E+00 -0.10259661436E+01  0.56278232476E+00  0.90007708696E+02  0.89999969650E+02 0.  0.
        -12    1    1    2    0    0  0.15413335320E+00  0.10259661436E+01 -0.56278232476E+00  0.11802913045E+01  0.00000000000E+00 0.  1.
         11    1    3    3    0    0 -0.32381554853E+01 -0.59991855066E+01 -0.89189258169E+00  0.68754163749E+01  0.51100000000E-03 0. -1.
        -11    1    3    3    0    0 -0.13382000357E+02 -0.31943797932E+02  0.18497440332E+02  0.39263716826E+02  0.51100000000E-03 0.  1.
         12    1    3    3    0    0  0.16466022490E+02  0.36917017295E+02 -0.17042765425E+02  0.43868575495E+02  0.00000000000E+00 0. -1.
</event>
<event>
 7    1  0.3757412E-015  0.9000772E+02  0.7816164E-02  0.1186339E+00
        -11   -1    0    0    0    0  0.00000000000E+00  0.00000000000E+00  0.45593999997E+02  0.45594000000E+02  0.51100000000E-03 0.  1.
         11   -1    0    0    0    0 -0.00000000000E+00 -0.00000000000E+00 -0.45593999997E+02  0.45594000000E+02  0.51100000000E-03 0. -1.
    9900012    2    1    2    0    0  0.49498050251E-02  0.91047202018E+00 -0.75104515902E+00  0.90007723494E+02  0.89999984644E+02 0.  0.
        -12    1    1    2    0    0 -0.49498050251E-02 -0.91047202018E+00  0.75104515902E+00  0.11802765062E+01  0.00000000000E+00 0.  1.
         11    1    3    3    0    0 -0.16867561614E+02  0.24992165712E+02  0.14689949458E+02  0.33539791250E+02  0.51100000000E-03 0. -1.
        -11    1    3    3    0    0 -0.48519708272E+01  0.76906815630E+01  0.73890990847E+01  0.11716953075E+02  0.51100000000E-03 0.  1.
        -12    1    3    3    0    0  0.21724482246E+02 -0.31772375254E+02 -0.22830093702E+02  0.44750979169E+02  0.00000000000E+00 0.  1.
</event>
<event>
 7    1  0.3757412E-015  0.9000773E+02  0.7816164E-02  0.1186339E+00
        -11   -1    0    0    0    0  0.00000000000E+00  0.00000000000E+00  0.45593999997E+02  0.45594000000E+02  0.51100000000E-03 0.  1.
         11   -1    0    0    0    0 -0.00000000000E+00 -0.00000000000E+00 -0.45593999997E+02  0.45594000000E+02  0.51100000000E-03 0. -1.
    9900012    2    1    2    0    0  0.42688444910E+00 -0.79764552147E+00 -0.75799895367E+00  0.90007732605E+02  0.89999993875E+02 0.  0.
        -12    1    1    2    0    0 -0.42688444910E+00  0.79764552147E+00  0.75799895367E+00  0.11802673954E+01  0.00000000000E+00 0.  1.
         11    1    3    3    0    0  0.97238629691E+01  0.48923356425E+01  0.14853628251E+02  0.18415176664E+02  0.51100000000E-03 0. -1.
        -11    1    3    3    0    0  0.10319386376E+02 -0.18221875090E+01  0.24569999544E+02  0.26711326818E+02  0.51100000000E-03 0.  1.
         12    1    3    3    0    0 -0.19616364896E+02 -0.38677936550E+01 -0.40181626749E+02  0.44881229124E+02  0.00000000000E+00 0. -1.
</event>
<event>
 7    1  0.3757412E-015  0.9000776E+02  0.7816164E-02  0.1186339E+00
        -11   -1    0    0    0    0  0.00000000000E+00  0.00000000000E+00  0.45593999997E+02  0.45594000000E+02  0.51100000000E-03 0. -1.
         11   -1    0    0    0    0 -0.00000000000E+00 -0.00000000000E+00 -0.45593999997E+02  0.45594000000E+02  0.51100000000E-03 0.  1.
    9900012    2    1    2    0    0 -0.75501330412E+00 -0.85014128600E+00 -0.31653242584E+00  0.90007755080E+02  0.90000016647E+02 0.  0.
        -12    1    1    2    0    0  0.75501330412E+00  0.85014128600E+00  0.31653242584E+00  0.11802449204E+01  0.00000000000E+00 0.  1.
         11    1    3    3    0    0  0.16215399817E+01  0.29178723249E+01 -0.65808274287E+01  0.73790690960E+01  0.51100000000E-03 0. -1.
        -11    1    3    3    0    0 -0.39982958709E+02 -0.15489726731E+02  0.10237819967E+01  0.42890753679E+02  0.51100000000E-03 0.  1.
         12    1    3    3    0    0  0.37606405423E+02  0.11721713120E+02  0.52405130062E+01  0.39737932305E+02  0.00000000000E+00 0. -1.
</event>
<event>
 7    1  0.3757412E-015  0.9000782E+02  0.7816164E-02  0.1186339E+00
        -11   -1    0    0    0    0  0.00000000000E+00  0.00000000000E+00  0.45593999997E+02  0.45594000000E+02  0.51100000000E-03 0.  1.
         11   -1    0    0    0    0 -0.00000000000E+00 -0.00000000000E+00 -0.45593999997E+02  0.45594000000E+02  0.51100000000E-03 0. -1.
    9900012    2    1    2    0    0  0.62934999065E+00  0.84504015590E+00 -0.53165181133E+00  0.90007818690E+02  0.90000081097E+02 0.  0.
        -12    1    1    2    0    0 -0.62934999065E+00 -0.84504015590E+00  0.53165181133E+00  0.11801813099E+01  0.00000000000E+00 0.  1.
         11    1    3    3    0    0  0.48491554150E+01 -0.25580919664E+02 -0.19780650080E+02  0.32698193787E+02  0.51100000000E-03 0. -1.
        -11    1    3    3    0    0 -0.24255922733E+01 -0.13131193987E+00 -0.14288154145E+02  0.14493173904E+02  0.51100000000E-03 0.  1.
        -12    1    3    3    0    0 -0.17942131510E+01  0.26557271760E+02  0.33537152413E+02  0.42816450999E+02  0.00000000000E+00 0.  1.
</event>
<event>
 7    1  0.3757412E-015  0.9000780E+02  0.7816164E-02  0.1186339E+00
        -11   -1    0    0    0    0  0.00000000000E+00  0.00000000000E+00  0.45593999997E+02  0.45594000000E+02  0.51100000000E-03 0.  1.
         11   -1    0    0    0    0 -0.00000000000E+00 -0.00000000000E+00 -0.45593999997E+02  0.45594000000E+02  0.51100000000E-03 0. -1.
    9900012    2    1    2    0    0 -0.54332282377E+00 -0.50522155627E+00 -0.91784137901E+00  0.90007796073E+02  0.90000058181E+02 0.  0.
        -12    1    1    2    0    0  0.54332282377E+00  0.50522155627E+00  0.91784137901E+00  0.11802039268E+01  0.00000000000E+00 0.  1.
         11    1    3    3    0    0 -0.27090204564E+01 -0.14318918416E+02 -0.21048463849E+02  0.25600938403E+02  0.51100000000E-03 0. -1.
        -11    1    3    3    0    0  0.12786086665E+02 -0.90436830477E+01 -0.14655953397E+02  0.21449223425E+02  0.51100000000E-03 0.  1.
        -12    1    3    3    0    0 -0.10620389033E+02  0.22857379907E+02  0.34786575868E+02  0.42957634246E+02  0.00000000000E+00 0.  1.
</event>
<event>
 7    1  0.3757412E-015  0.9000783E+02  0.7816164E-02  0.1186339E+00
        -11   -1    0    0    0    0  0.00000000000E+00  0.00000000000E+00  0.45593999997E+02  0.45594000000E+02  0.51100000000E-03 0.  1.
         11   -1    0    0    0    0 -0.00000000000E+00 -0.00000000000E+00 -0.45593999997E+02  0.45594000000E+02  0.51100000000E-03 0. -1.
    9900012    2    1    2    0    0 -0.10505520695E+00 -0.32284226465E+00 -0.11302814464E+01  0.90007830575E+02  0.90000093138E+02 0.  0.
        -12    1    1    2    0    0  0.10505520695E+00  0.32284226465E+00  0.11302814464E+01  0.11801694254E+01  0.00000000000E+00 0.  1.
         11    1    3    3    0    0 -0.34924542396E+02 -0.43697964069E+01 -0.57866643055E+01  0.35669374346E+02  0.51100000000E-03 0. -1.
        -11    1    3    3    0    0 -0.95348904109E+01 -0.52009432429E+00  0.92128718191E+00  0.95934041710E+01  0.51100000000E-03 0.  1.
        -12    1    3    3    0    0  0.44354377600E+02  0.45670484666E+01  0.37350956771E+01  0.44745052058E+02  0.00000000000E+00 0.  1.
</event>
<event>
 7    1  0.3757412E-015  0.9000819E+02  0.7816164E-02  0.1186338E+00
        -11   -1    0    0    0    0  0.00000000000E+00  0.00000000000E+00  0.45593999997E+02  0.45594000000E+02  0.51100000000E-03 0.  1.
         11   -1    0    0    0    0 -0.00000000000E+00 -0.00000000000E+00 -0.45593999997E+02  0.45594000000E+02  0.51100000000E-03 0. -1.
    9900012    2    1    2    0    0  0.45615500071E+00  0.10865568977E+01  0.57167939245E-01  0.90008190079E+02  0.90000457387E+02 0.  0.
        -12    1    1    2    0    0 -0.45615500071E+00 -0.10865568977E+01 -0.57167939245E-01  0.11798099211E+01  0.00000000000E+00 0.  1.
         11    1    3    3    0    0  0.84446773245E+01  0.33228834637E+00  0.19925040485E+01  0.86829179027E+01  0.51100000000E-03 0. -1.
        -11    1    3    3    0    0  0.22903008910E+02  0.26999846680E+02 -0.15403544506E+02  0.38610992237E+02  0.51100000000E-03 0.  1.
         12    1    3    3    0    0 -0.30891531234E+02 -0.26245578129E+02  0.13468208397E+02  0.42714279939E+02  0.00000000000E+00 0. -1.
</event>
<event>
 7    1  0.3792872E-015  0.9000805E+02  0.7816164E-02  0.1186338E+00
        -11   -1    0    0    0    0  0.00000000000E+00  0.00000000000E+00  0.45593999997E+02  0.45594000000E+02  0.51100000000E-03 0.  1.
         11   -1    0    0    0    0 -0.00000000000E+00 -0.00000000000E+00 -0.45593999997E+02  0.45594000000E+02  0.51100000000E-03 0. -1.
    9900012    2    1    2    0    0  0.61826107509E+00  0.99406915597E+00 -0.14785697104E+00  0.90008050032E+02  0.90000315492E+02 0.  0.
        -12    1    1    2    0    0 -0.61826107509E+00 -0.99406915597E+00  0.14785697104E+00  0.11799499683E+01  0.00000000000E+00 0.  1.
         11    1    3    3    0    0 -0.32779382224E+02  0.14765071768E+02 -0.18822918030E+02  0.40580752663E+02  0.51100000000E-03 0. -1.
        -11    1    3    3    0    0 -0.32737922961E+01 -0.24941788800E+01  0.89452306427E+01  0.98466134176E+01  0.51100000000E-03 0.  1.
        -12    1    3    3    0    0  0.36671435595E+02 -0.11276823732E+02  0.97298304165E+01  0.39580683951E+02  0.00000000000E+00 0.  1.
</event>
<event>
 7    1  0.3757412E-015  0.9000769E+02  0.7816164E-02  0.1186339E+00
        -11   -1    0    0    0    0  0.00000000000E+00  0.00000000000E+00  0.45593999997E+02  0.45594000000E+02  0.51100000000E-03 0.  1.
         11   -1    0    0    0    0 -0.00000000000E+00 -0.00000000000E+00 -0.45593999997E+02  0.45594000000E+02  0.51100000000E-03 0. -1.
    9900012    2    1    2    0    0 -0.83636166065E+00 -0.56596168984E+00 -0.61099476662E+00  0.90007691538E+02  0.89999952266E+02 0.  0.
        -12    1    1    2    0    0  0.83636166065E+00  0.56596168984E+00  0.61099476662E+00  0.11803084625E+01  0.00000000000E+00 0.  1.
         11    1    3    3    0    0  0.30768029835E+02 -0.22159761878E+01 -0.29457942217E+02  0.42653869348E+02  0.51100000000E-03 0. -1.
        -11    1    3    3    0    0  0.67926511477E+00 -0.29374731889E+01  0.82545992322E+01  0.87879780710E+01  0.51100000000E-03 0.  1.
        -12    1    3    3    0    0 -0.32283656611E+02  0.45874876869E+01  0.20592348218E+02  0.38565844119E+02  0.00000000000E+00 0.  1.
</event>
<event>
 7    1  0.4569221E-015  0.9000774E+02  0.7816164E-02  0.1186339E+00
        -11   -1    0    0    0    0  0.00000000000E+00  0.00000000000E+00  0.45593999997E+02  0.45594000000E+02  0.51100000000E-03 0.  1.
         11   -1    0    0    0    0 -0.00000000000E+00 -0.00000000000E+00 -0.45593999997E+02  0.45594000000E+02  0.51100000000E-03 0. -1.
    9900012    2    1    2    0    0  0.55506446598E+00 -0.78310599318E+00 -0.68677735688E+00  0.90007739564E+02  0.90000000927E+02 0.  0.
        -12    1    1    2    0    0 -0.55506446598E+00  0.78310599318E+00  0.68677735688E+00  0.11802604356E+01  0.00000000000E+00 0.  1.
         11    1    3    3    0    0  0.32618657384E+02 -0.10364449854E+02 -0.27018969461E+02  0.43605313224E+02  0.51100000000E-03 0. -1.
        -11    1    3    3    0    0 -0.66313606604E+01 -0.54027918309E+01  0.43352932074E+01  0.95895709618E+01  0.51100000000E-03 0.  1.
        -12    1    3    3    0    0 -0.25432232258E+02  0.14984135692E+02  0.21996898897E+02  0.36812855379E+02  0.00000000000E+00 0.  1.
</event>
<event>
 7    1  0.3757412E-015  0.9000774E+02  0.7816164E-02  0.1186339E+00
        -11   -1    0    0    0    0  0.00000000000E+00  0.00000000000E+00  0.45593999997E+02  0.45594000000E+02  0.51100000000E-03 0.  1.
         11   -1    0    0    0    0 -0.00000000000E+00 -0.00000000000E+00 -0.45593999997E+02  0.45594000000E+02  0.51100000000E-03 0. -1.
    9900012    2    1    2    0    0 -0.84533457423E+00  0.71953439832E-01 -0.82051358921E+00  0.90007741389E+02  0.90000002775E+02 0.  0.
        -12    1    1    2    0    0  0.84533457423E+00 -0.71953439832E-01  0.82051358921E+00  0.11802586115E+01  0.00000000000E+00 0.  1.
         11    1    3    3    0    0 -0.35570391478E+01  0.10062770902E+02 -0.56358923547E+01  0.12069596871E+02  0.51100000000E-03 0. -1.
        -11    1    3    3    0    0 -0.17492884291E+02  0.28060579148E+02 -0.57887761501E+01  0.33569435987E+02  0.51100000000E-03 0.  1.
         12    1    3    3    0    0  0.20204588864E+02 -0.38051396610E+02  0.10604154916E+02  0.44368708530E+02  0.00000000000E+00 0. -1.
</event>
<event>
 7    1  0.3757412E-015  0.9000777E+02  0.7816164E-02  0.1186339E+00
        -11   -1    0    0    0    0  0.00000000000E+00  0.00000000000E+00  0.45593999997E+02  0.45594000000E+02  0.51100000000E-03 0.  1.
         11   -1    0    0    0    0 -0.00000000000E+00 -0.00000000000E+00 -0.45593999997E+02  0.45594000000E+02  0.51100000000E-03 0. -1.
    9900012    2    1    2    0    0 -0.12994176256E+00  0.17612061720E+00 -0.11597626744E+01  0.90007765788E+02  0.90000027497E+02 0.  0.
        -12    1    1    2    0    0  0.12994176256E+00 -0.17612061720E+00  0.11597626744E+01  0.11802342116E+01  0.00000000000E+00 0.  1.
         11    1    3    3    0    0  0.66547205936E+01  0.62490712491E+01 -0.55164003273E+00  0.91455182817E+01  0.51100000000E-03 0. -1.
        -11    1    3    3    0    0  0.27932758831E+02  0.22265658101E+02  0.33224424078E+01  0.35875300284E+02  0.51100000000E-03 0.  1.
         12    1    3    3    0    0 -0.34717421188E+02 -0.28338608733E+02 -0.39305650495E+01  0.44986947223E+02  0.00000000000E+00 0. -1.
</event>
<event>
 7    1  0.3757412E-015  0.9000773E+02  0.7816164E-02  0.1186339E+00
        -11   -1    0    0    0    0  0.00000000000E+00  0.00000000000E+00  0.45593999997E+02  0.45594000000E+02  0.51100000000E-03 0.  1.
         11   -1    0    0    0    0 -0.00000000000E+00 -0.00000000000E+00 -0.45593999997E+02  0.45594000000E+02  0.51100000000E-03 0. -1.
    9900012    2    1    2    0    0  0.99878457037E-01  0.10657967009E+01 -0.49712451724E+00  0.90007732615E+02  0.89999993886E+02 0.  0.
        -12    1    1    2    0    0 -0.99878457037E-01 -0.10657967009E+01  0.49712451724E+00  0.11802673847E+01  0.00000000000E+00 0.  1.
         11    1    3    3    0    0  0.10787386190E+02 -0.22064503021E+02  0.28951968824E+02  0.37966122971E+02  0.51100000000E-03 0. -1.
        -11    1    3    3    0    0 -0.80687109959E+01 -0.81299444059E+01 -0.64637722313E+01  0.13152203044E+02  0.51100000000E-03 0.  1.
        -12    1    3    3    0    0 -0.26187967367E+01  0.31260244127E+02 -0.22985321110E+02  0.38889406601E+02  0.00000000000E+00 0.  1.
</event>
<event>
 7    1  0.3928960E-015  0.9000766E+02  0.7816164E-02  0.1186339E+00
        -11   -1    0    0    0    0  0.00000000000E+00  0.00000000000E+00  0.45593999997E+02  0.45594000000E+02  0.51100000000E-03 0. -1.
         11   -1    0    0    0    0 -0.00000000000E+00 -0.00000000000E+00 -0.45593999997E+02  0.45594000000E+02  0.51100000000E-03 0.  1.
    9900012    2    1    2    0    0 -0.46561690268E+00  0.74898506293E+00  0.78448603756E+00  0.90007662731E+02  0.89999923079E+02 0.  0.
        -12    1    1    2    0    0  0.46561690268E+00 -0.74898506293E+00 -0.78448603756E+00  0.11803372686E+01  0.00000000000E+00 0.  1.
         11    1    3    3    0    0 -0.73937494709E+01  0.36605624608E+02  0.62088449932E+01  0.37857483284E+02  0.51100000000E-03 0. -1.
        -11    1    3    3    0    0 -0.81467556032E+01  0.22339258227E+01  0.50831308527E+01  0.98589183467E+01  0.51100000000E-03 0.  1.
        -12    1    3    3    0    0  0.15074888171E+02 -0.38090565368E+02 -0.10507489808E+02  0.42291261101E+02  0.00000000000E+00 0.  1.
</event>
<event>
 7    1  0.3757412E-015  0.9000776E+02  0.7816164E-02  0.1186339E+00
        -11   -1    0    0    0    0  0.00000000000E+00  0.00000000000E+00  0.45593999997E+02  0.45594000000E+02  0.51100000000E-03 0. -1.
         11   -1    0    0    0    0 -0.00000000000E+00 -0.00000000000E+00 -0.45593999997E+02  0.45594000000E+02  0.51100000000E-03 0.  1.
    9900012    2    1    2    0    0  0.53466772170E-01  0.11787831849E+01 -0.24237636505E-01  0.90007755976E+02  0.90000017555E+02 0.  0.
        -12    1    1    2    0    0 -0.53466772170E-01 -0.11787831849E+01  0.24237636505E-01  0.11802440238E+01  0.00000000000E+00 0.  1.
         11    1    3    3    0    0  0.12325664860E+02  0.17030264888E+02  0.33576746356E+02  0.39615020289E+02  0.51100000000E-03 0. -1.
        -11    1    3    3    0    0  0.53881356430E+01 -0.46781931256E+01  0.33951783635E+01  0.79021979860E+01  0.51100000000E-03 0.  1.
        -12    1    3    3    0    0 -0.17660333731E+02 -0.11173288577E+02 -0.36996162356E+02  0.42490537701E+02  0.00000000000E+00 0.  1.
</event>
<event>
 7    1  0.3757412E-015  0.9000775E+02  0.7816164E-02  0.1186339E+00
        -11   -1    0    0    0    0  0.00000000000E+00  0.00000000000E+00  0.45593999997E+02  0.45594000000E+02  0.51100000000E-03 0.  1.
         11   -1    0    0    0    0 -0.00000000000E+00 -0.00000000000E+00 -0.45593999997E+02  0.45594000000E+02  0.51100000000E-03 0. -1.
    9900012    2    1    2    0    0  0.94903486309E+00 -0.15300835074E-01 -0.70148705733E+00  0.90007751984E+02  0.90000013511E+02 0.  0.
        -12    1    1    2    0    0 -0.94903486309E+00  0.15300835074E-01  0.70148705733E+00  0.11802480157E+01  0.00000000000E+00 0.  1.
         11    1    3    3    0    0  0.38183547277E+02 -0.40530357964E+00 -0.11873168486E+02  0.39988994534E+02  0.51100000000E-03 0. -1.
        -11    1    3    3    0    0  0.12271106495E+01 -0.23184540321E+01 -0.69404876000E+01  0.74196629325E+01  0.51100000000E-03 0.  1.
        -12    1    3    3    0    0 -0.38461623064E+02  0.27084567767E+01  0.18112169029E+02  0.42599094518E+02  0.00000000000E+00 0.  1.
</event>
<event>
 7    1  0.3757412E-015  0.9000777E+02  0.7816164E-02  0.1186339E+00
        -11   -1    0    0    0    0  0.00000000000E+00  0.00000000000E+00  0.45593999997E+02  0.45594000000E+02  0.51100000000E-03 0.  1.
         11   -1    0    0    0    0 -0.00000000000E+00 -0.00000000000E+00 -0.45593999997E+02  0.45594000000E+02  0.51100000000E-03 0. -1.
    9900012    2    1    2    0    0 -0.19081048118E+00  0.31576185556E+00 -0.11210851624E+01  0.90007768611E+02  0.90000030357E+02 0.  0.
        -12    1    1    2    0    0  0.19081048118E+00 -0.31576185556E+00  0.11210851624E+01  0.11802313885E+01  0.00000000000E+00 0.  1.
         11    1    3    3    0    0  0.24352941929E+01  0.11888707898E+02  0.30892209072E+01  0.12522592358E+02  0.51100000000E-03 0. -1.
        -11    1    3    3    0    0  0.77322306418E+01  0.29041842793E+02  0.12249793913E+02  0.32454174997E+02  0.51100000000E-03 0.  1.
         12    1    3    3    0    0 -0.10358335316E+02 -0.40614788836E+02 -0.16460099983E+02  0.45031001257E+02  0.00000000000E+00 0. -1.
</event>
<event>
 7    1  0.3757412E-015  0.9000773E+02  0.7816164E-02  0.1186339E+00
        -11   -1    0    0    0    0  0.00000000000E+00  0.00000000000E+00  0.45593999997E+02  0.45594000000E+02  0.51100000000E-03 0.  1.
         11   -1    0    0    0    0 -0.00000000000E+00 -0.00000000000E+00 -0.45593999997E+02  0.45594000000E+02  0.51100000000E-03 0. -1.
    9900012    2    1    2    0    0 -0.75996756561E+00  0.44828256833E+00 -0.78392138367E+00  0.90007728549E+02  0.89999989766E+02 0.  0.
        -12    1    1    2    0    0  0.75996756561E+00 -0.44828256833E+00  0.78392138367E+00  0.11802714508E+01  0.00000000000E+00 0.  1.
         11    1    3    3    0    0 -0.74667113753E+01 -0.44585431651E+01 -0.98530569825E+00  0.87522119203E+01  0.51100000000E-03 0. -1.
        -11    1    3    3    0    0  0.17243492923E+02 -0.28024500458E+02  0.22726088735E+02  0.39989820999E+02  0.51100000000E-03 0.  1.
         12    1    3    3    0    0 -0.10536749113E+02  0.32931326191E+02 -0.22524704420E+02  0.41265695630E+02  0.00000000000E+00 0. -1.
</event>
<event>
 7    1  0.3757412E-015  0.9000769E+02  0.7816164E-02  0.1186339E+00
        -11   -1    0    0    0    0  0.00000000000E+00  0.00000000000E+00  0.45593999997E+02  0.45594000000E+02  0.51100000000E-03 0. -1.
         11   -1    0    0    0    0 -0.00000000000E+00 -0.00000000000E+00 -0.45593999997E+02  0.45594000000E+02  0.51100000000E-03 0.  1.
    9900012    2    1    2    0    0  0.90031227253E+00 -0.75522501431E+00  0.11046280249E+00  0.90007691125E+02  0.89999951848E+02 0.  0.
        -12    1    1    2    0    0 -0.90031227253E+00  0.75522501431E+00 -0.11046280249E+00  0.11803088753E+01  0.00000000000E+00 0.  1.
         11    1    3    3    0    0 -0.18133926735E+02  0.32204114760E+02  0.18266325498E+02  0.41226241082E+02  0.51100000000E-03 0. -1.
        -11    1    3    3    0    0 -0.47682721851E+01 -0.81832857480E+01  0.86493252545E+00  0.95105569658E+01  0.51100000000E-03 0.  1.
        -12    1    3    3    0    0  0.23802511193E+02 -0.24776054026E+02 -0.19020795221E+02  0.39270893077E+02  0.00000000000E+00 0.  1.
</event>
<event>
 7    1  0.3757412E-015  0.9000775E+02  0.7816164E-02  0.1186339E+00
        -11   -1    0    0    0    0  0.00000000000E+00  0.00000000000E+00  0.45593999997E+02  0.45594000000E+02  0.51100000000E-03 0. -1.
         11   -1    0    0    0    0 -0.00000000000E+00 -0.00000000000E+00 -0.45593999997E+02  0.45594000000E+02  0.51100000000E-03 0.  1.
    9900012    2    1    2    0    0  0.78340970763E+00 -0.14257368332E+00  0.87117119772E+00  0.90007746942E+02  0.90000008402E+02 0.  0.
        -12    1    1    2    0    0 -0.78340970763E+00  0.14257368332E+00 -0.87117119772E+00  0.11802530580E+01  0.00000000000E+00 0.  1.
         11    1    3    3    0    0  0.15173725187E+02 -0.33222706317E+02  0.19580895145E+02  0.41441544446E+02  0.51100000000E-03 0. -1.
        -11    1    3    3    0    0 -0.51179384556E+01  0.38422925890E+01  0.63068758470E+01  0.89851649727E+01  0.51100000000E-03 0.  1.
        -12    1    3    3    0    0 -0.92723770234E+01  0.29237840045E+02 -0.25016599795E+02  0.39581037524E+02  0.00000000000E+00 0.  1.
</event>
<event>
 7    1  0.3757412E-015  0.9000773E+02  0.7816164E-02  0.1186339E+00
        -11   -1    0    0    0    0  0.00000000000E+00  0.00000000000E+00  0.45593999997E+02  0.45594000000E+02  0.51100000000E-03 0. -1.
         11   -1    0    0    0    0 -0.00000000000E+00 -0.00000000000E+00 -0.45593999997E+02  0.45594000000E+02  0.51100000000E-03 0.  1.
    9900012    2    1    2    0    0  0.78495177684E+00 -0.26005287825E-01  0.88102975392E+00  0.90007729271E+02  0.89999990497E+02 0.  0.
        -12    1    1    2    0    0 -0.78495177684E+00  0.26005287825E-01 -0.88102975392E+00  0.11802707292E+01  0.00000000000E+00 0.  1.
         11    1    3    3    0    0  0.47008443087E+01 -0.31246491729E+01 -0.56836997679E+01  0.80103566076E+01  0.51100000000E-03 0. -1.
        -11    1    3    3    0    0 -0.33152829616E+02  0.19555794566E+02 -0.15873205670E+02  0.41635295978E+02  0.51100000000E-03 0.  1.
         12    1    3    3    0    0  0.29236937085E+02 -0.16457150681E+02  0.22437935192E+02  0.40362076685E+02  0.00000000000E+00 0. -1.
</event>
<event>
 7    1  0.3757412E-015  0.9000772E+02  0.7816164E-02  0.1186339E+00
        -11   -1    0    0    0    0  0.00000000000E+00  0.00000000000E+00  0.45593999997E+02  0.45594000000E+02  0.51100000000E-03 0.  1.
         11   -1    0    0    0    0 -0.00000000000E+00 -0.00000000000E+00 -0.45593999997E+02  0.45594000000E+02  0.51100000000E-03 0. -1.
    9900012    2    1    2    0    0  0.24230762770E+00  0.19025766871E+00 -0.11393599780E+01  0.90007723708E+02  0.89999984861E+02 0.  0.
        -12    1    1    2    0    0 -0.24230762770E+00 -0.19025766871E+00  0.11393599780E+01  0.11802762924E+01  0.00000000000E+00 0.  1.
         11    1    3    3    0    0 -0.46948863471E+01 -0.51524889551E+01 -0.17808513506E+01  0.71945487724E+01  0.51100000000E-03 0. -1.
        -11    1    3    3    0    0 -0.65562935564E+01 -0.92954492872E+01  0.38759576871E+02  0.40394246646E+02  0.51100000000E-03 0.  1.
         12    1    3    3    0    0  0.11493487531E+02  0.14638195911E+02 -0.38118085498E+02  0.42418928289E+02  0.00000000000E+00 0. -1.
</event>
<event>
 7    1  0.3757412E-015  0.9000775E+02  0.7816164E-02  0.1186339E+00
        -11   -1    0    0    0    0  0.00000000000E+00  0.00000000000E+00  0.45593999997E+02  0.45594000000E+02  0.51100000000E-03 0. -1.
         11   -1    0    0    0    0 -0.00000000000E+00 -0.00000000000E+00 -0.45593999997E+02  0.45594000000E+02  0.51100000000E-03 0.  1.
    9900012    2    1    2    0    0  0.84228946407E+00 -0.80893327271E+00  0.17080759600E+00  0.90007745868E+02  0.90000007314E+02 0.  0.
        -12    1    1    2    0    0 -0.84228946407E+00  0.80893327271E+00 -0.17080759600E+00  0.11802541319E+01  0.00000000000E+00 0.  1.
         11    1    3    3    0    0  0.88704694617E+01 -0.27855725073E+01 -0.22994299236E+01  0.95776834829E+01  0.51100000000E-03 0. -1.
        -11    1    3    3    0    0 -0.27448940993E+02 -0.19067854525E+02  0.26810837240E+02  0.42846801883E+02  0.51100000000E-03 0.  1.
         12    1    3    3    0    0  0.19420760996E+02  0.21044493760E+02 -0.24340599720E+02  0.37583260502E+02  0.00000000000E+00 0. -1.
</event>
<event>
 7    1  0.3792725E-015  0.9000785E+02  0.7816164E-02  0.1186339E+00
        -11   -1    0    0    0    0  0.00000000000E+00  0.00000000000E+00  0.45593999997E+02  0.45594000000E+02  0.51100000000E-03 0. -1.
         11   -1    0    0    0    0 -0.00000000000E+00 -0.00000000000E+00 -0.45593999997E+02  0.45594000000E+02  0.51100000000E-03 0.  1.
    9900012    2    1    2    0    0  0.73362536667E-01 -0.95416987247E+00  0.69059750047E+00  0.90007852927E+02  0.90000115785E+02 0.  0.
        -12    1    1    2    0    0 -0.73362536667E-01  0.95416987247E+00 -0.69059750047E+00  0.11801470734E+01  0.00000000000E+00 0.  1.
         11    1    3    3    0    0 -0.16706383536E+02  0.31824971912E+02  0.56703204992E+01  0.36387973602E+02  0.51100000000E-03 0. -1.
        -11    1    3    3    0    0 -0.46575022017E+01  0.40493335018E+01  0.70220561145E+01  0.93487272344E+01  0.51100000000E-03 0.  1.
        -12    1    3    3    0    0  0.21437248274E+02 -0.36828475286E+02 -0.12001779113E+02  0.44271152090E+02  0.00000000000E+00 0.  1.
</event>
<event>
 7    1  0.3757412E-015  0.9000764E+02  0.7816164E-02  0.1186339E+00
        -11   -1    0    0    0    0  0.00000000000E+00  0.00000000000E+00  0.45593999997E+02  0.45594000000E+02  0.51100000000E-03 0.  1.
         11   -1    0    0    0    0 -0.00000000000E+00 -0.00000000000E+00 -0.45593999997E+02  0.45594000000E+02  0.51100000000E-03 0. -1.
    9900012    2    1    2    0    0  0.36066136554E+00 -0.46081960686E+00 -0.10250919927E+01  0.90007642036E+02  0.89999902110E+02 0.  0.
        -12    1    1    2    0    0 -0.36066136554E+00  0.46081960686E+00  0.10250919927E+01  0.11803579644E+01  0.00000000000E+00 0.  1.
         11    1    3    3    0    0 -0.97955282920E+01 -0.32812665081E+02  0.24065407695E-01  0.34243597118E+02  0.51100000000E-03 0. -1.
        -11    1    3    3    0    0  0.10440914739E+02 -0.83797928685E+01 -0.61138056579E+01  0.14717752851E+02  0.51100000000E-03 0.  1.
        -12    1    3    3    0    0 -0.28472508117E+00  0.40731638342E+02  0.50646482575E+01  0.41046292066E+02  0.00000000000E+00 0.  1.
</event>
<event>
 7    1  0.3757412E-015  0.9000778E+02  0.7816164E-02  0.1186339E+00
        -11   -1    0    0    0    0  0.00000000000E+00  0.00000000000E+00  0.45593999997E+02  0.45594000000E+02  0.51100000000E-03 0.  1.
         11   -1    0    0    0    0 -0.00000000000E+00 -0.00000000000E+00 -0.45593999997E+02  0.45594000000E+02  0.51100000000E-03 0. -1.
    9900012    2    1    2    0    0  0.11783439173E+01 -0.51730483925E-01  0.41947584610E-01  0.90007775432E+02  0.90000037268E+02 0.  0.
        -12    1    1    2    0    0 -0.11783439173E+01  0.51730483925E-01 -0.41947584610E-01  0.11802245677E+01  0.00000000000E+00 0.  1.
         11    1    3    3    0    0  0.31948119594E+02 -0.25740191882E+02 -0.54516164513E+01  0.41387920290E+02  0.51100000000E-03 0. -1.
        -11    1    3    3    0    0 -0.61787559034E+01 -0.40461706198E+01  0.67613348225E+01  0.10013199790E+02  0.51100000000E-03 0.  1.
        -12    1    3    3    0    0 -0.24591019773E+02  0.29734632018E+02 -0.12677707866E+01  0.38606655352E+02  0.00000000000E+00 0.  1.
</event>
<event>
 7    1  0.3757412E-015  0.9000662E+02  0.7816164E-02  0.1186341E+00
        -11   -1    0    0    0    0  0.00000000000E+00  0.00000000000E+00  0.45593999997E+02  0.45594000000E+02  0.51100000000E-03 0. -1.
         11   -1    0    0    0    0 -0.00000000000E+00 -0.00000000000E+00 -0.45593999997E+02  0.45594000000E+02  0.51100000000E-03 0.  1.
    9900012    2    1    2    0    0 -0.25722521249E+00  0.10178661241E+01 -0.54169384152E+00  0.90006624330E+02  0.89998870964E+02 0.  0.
        -12    1    1    2    0    0  0.25722521249E+00 -0.10178661241E+01  0.54169384152E+00  0.11813756704E+01  0.00000000000E+00 0.  1.
         11    1    3    3    0    0  0.34919720254E+02 -0.12230062588E+02  0.19954594564E+02  0.42037449233E+02  0.51100000000E-03 0. -1.
        -11    1    3    3    0    0 -0.13628867741E+02  0.21686916211E+01  0.31043991440E+01  0.14145195423E+02  0.51100000000E-03 0.  1.
        -12    1    3    3    0    0 -0.21548077725E+02  0.11079237091E+02 -0.23600687550E+02  0.33823979674E+02  0.00000000000E+00 0.  1.
</event>
<event>
 7    1  0.3757412E-015  0.9000788E+02  0.7816164E-02  0.1186339E+00
        -11   -1    0    0    0    0  0.00000000000E+00  0.00000000000E+00  0.45593999997E+02  0.45594000000E+02  0.51100000000E-03 0. -1.
         11   -1    0    0    0    0 -0.00000000000E+00 -0.00000000000E+00 -0.45593999997E+02  0.45594000000E+02  0.51100000000E-03 0.  1.
    9900012    2    1    2    0    0 -0.11577994321E+00  0.10013907685E+01 -0.61359377577E+00  0.90007878910E+02  0.90000142111E+02 0.  0.
        -12    1    1    2    0    0  0.11577994321E+00 -0.10013907685E+01  0.61359377577E+00  0.11801210904E+01  0.00000000000E+00 0.  1.
         11    1    3    3    0    0 -0.23154894763E+01  0.10181365579E+02 -0.69380076256E+00  0.10464370804E+02  0.51100000000E-03 0. -1.
        -11    1    3    3    0    0 -0.40104328007E+01  0.24266364597E+02 -0.26660993736E+02  0.36273249224E+02  0.51100000000E-03 0.  1.
         12    1    3    3    0    0  0.62101423338E+01 -0.33446339408E+02  0.26741200723E+02  0.43270258882E+02  0.00000000000E+00 0. -1.
</event>
<event>
 7    1  0.3757412E-015  0.9000769E+02  0.7816164E-02  0.1186339E+00
        -11   -1    0    0    0    0  0.00000000000E+00  0.00000000000E+00  0.45593999997E+02  0.45594000000E+02  0.51100000000E-03 0.  1.
         11   -1    0    0    0    0 -0.00000000000E+00 -0.00000000000E+00 -0.45593999997E+02  0.45594000000E+02  0.51100000000E-03 0. -1.
    9900012    2    1    2    0    0 -0.74257641201E+00  0.81708400189E+00 -0.41723341696E+00  0.90007690838E+02  0.89999951557E+02 0.  0.
        -12    1    1    2    0    0  0.74257641201E+00 -0.81708400189E+00  0.41723341696E+00  0.11803091621E+01  0.00000000000E+00 0.  1.
         11    1    3    3    0    0  0.38987288797E+01 -0.81962164058E+01 -0.18781539593E+01  0.92685226873E+01  0.51100000000E-03 0. -1.
        -11    1    3    3    0    0  0.12569887121E+02 -0.31030834075E+02  0.12565865322E+02  0.35760532675E+02  0.51100000000E-03 0.  1.
         12    1    3    3    0    0 -0.17211192412E+02  0.40044134483E+02 -0.11104944779E+02  0.44978635476E+02  0.00000000000E+00 0. -1.
</event>
<event>
 7    1  0.3757412E-015  0.9000771E+02  0.7816164E-02  0.1186339E+00
        -11   -1    0    0    0    0  0.00000000000E+00  0.00000000000E+00  0.45593999997E+02  0.45594000000E+02  0.51100000000E-03 0.  1.
         11   -1    0    0    0    0 -0.00000000000E+00 -0.00000000000E+00 -0.45593999997E+02  0.45594000000E+02  0.51100000000E-03 0. -1.
    9900012    2    1    2    0    0  0.14716687688E+00  0.66306286928E+00 -0.96528480548E+00  0.90007709691E+02  0.89999970659E+02 0.  0.
        -12    1    1    2    0    0 -0.14716687688E+00 -0.66306286928E+00  0.96528480548E+00  0.11802903092E+01  0.00000000000E+00 0.  1.
         11    1    3    3    0    0 -0.33764050304E+02 -0.29792224411E+01  0.10840314805E+02  0.35586504249E+02  0.51100000000E-03 0. -1.
        -11    1    3    3    0    0 -0.52922099200E+01 -0.10188597476E+02 -0.13923318954E+01  0.11565188832E+02  0.51100000000E-03 0.  1.
        -12    1    3    3    0    0  0.39203427101E+02  0.13830882786E+02 -0.10413267715E+02  0.42856016610E+02  0.00000000000E+00 0.  1.
</event>
<event>
 7    1  0.3757412E-015  0.9000775E+02  0.7816164E-02  0.1186339E+00
        -11   -1    0    0    0    0  0.00000000000E+00  0.00000000000E+00  0.45593999997E+02  0.45594000000E+02  0.51100000000E-03 0.  1.
         11   -1    0    0    0    0 -0.00000000000E+00 -0.00000000000E+00 -0.45593999997E+02  0.45594000000E+02  0.51100000000E-03 0. -1.
    9900012    2    1    2    0    0  0.89228728396E+00 -0.70829932938E+00 -0.30840751514E+00  0.90007754376E+02  0.90000015934E+02 0.  0.
        -12    1    1    2    0    0 -0.89228728396E+00  0.70829932938E+00  0.30840751514E+00  0.11802456238E+01  0.00000000000E+00 0.  1.
         11    1    3    3    0    0 -0.42346574527E+01  0.32276745942E+02 -0.14351846934E+02  0.35576623829E+02  0.51100000000E-03 0. -1.
        -11    1    3    3    0    0 -0.38944262565E+01  0.77486551231E+01 -0.32595837061E+01  0.92646153877E+01  0.51100000000E-03 0.  1.
        -12    1    3    3    0    0  0.90213709932E+01 -0.40733700395E+02  0.17303023125E+02  0.45166515160E+02  0.00000000000E+00 0.  1.
</event>
<event>
 7    1  0.3757412E-015  0.9000803E+02  0.7816164E-02  0.1186338E+00
        -11   -1    0    0    0    0  0.00000000000E+00  0.00000000000E+00  0.45593999997E+02  0.45594000000E+02  0.51100000000E-03 0.  1.
         11   -1    0    0    0    0 -0.00000000000E+00 -0.00000000000E+00 -0.45593999997E+02  0.45594000000E+02  0.51100000000E-03 0. -1.
    9900012    2    1    2    0    0  0.68671567982E+00 -0.16683448701E+00 -0.94494839596E+00  0.90008025576E+02  0.90000290713E+02 0.  0.
        -12    1    1    2    0    0 -0.68671567982E+00  0.16683448701E+00  0.94494839596E+00  0.11799744243E+01  0.00000000000E+00 0.  1.
         11    1    3    3    0    0 -0.10432071602E+02 -0.39555693596E+01 -0.49215038778E+01  0.12194090682E+02  0.51100000000E-03 0. -1.
        -11    1    3    3    0    0 -0.12061873172E+02  0.35999397945E+02  0.40020112950E+00  0.37968481639E+02  0.51100000000E-03 0.  1.
         12    1    3    3    0    0  0.23180660454E+02 -0.32210663072E+02  0.35763543524E+01  0.39845453255E+02  0.00000000000E+00 0. -1.
</event>
<event>
 7    1  0.3757412E-015  0.9000791E+02  0.7816164E-02  0.1186339E+00
        -11   -1    0    0    0    0  0.00000000000E+00  0.00000000000E+00  0.45593999997E+02  0.45594000000E+02  0.51100000000E-03 0. -1.
         11   -1    0    0    0    0 -0.00000000000E+00 -0.00000000000E+00 -0.45593999997E+02  0.45594000000E+02  0.51100000000E-03 0.  1.
    9900012    2    1    2    0    0  0.11318020753E+01  0.20327835661E+00 -0.26515974651E+00  0.90007911987E+02  0.90000175625E+02 0.  0.
        -12    1    1    2    0    0 -0.11318020753E+01 -0.20327835661E+00  0.26515974651E+00  0.11800880133E+01  0.00000000000E+00 0.  1.
         11    1    3    3    0    0 -0.10137165351E+01  0.90047024716E+01  0.41987050632E+01  0.99870622450E+01  0.51100000000E-03 0. -1.
        -11    1    3    3    0    0  0.39092476323E+02 -0.83299270524E+01  0.84977236166E+01  0.40863439610E+02  0.51100000000E-03 0.  1.
         12    1    3    3    0    0 -0.36946957713E+02 -0.47149706265E+00 -0.12961588426E+02  0.39157410132E+02  0.00000000000E+00 0. -1.
</event>
<event>
 7    1  0.3757412E-015  0.9000770E+02  0.7816164E-02  0.1186339E+00
        -11   -1    0    0    0    0  0.00000000000E+00  0.00000000000E+00  0.45593999997E+02  0.45594000000E+02  0.51100000000E-03 0. -1.
         11   -1    0    0    0    0 -0.00000000000E+00 -0.00000000000E+00 -0.45593999997E+02  0.45594000000E+02  0.51100000000E-03 0.  1.
    9900012    2    1    2    0    0  0.10912019820E+01  0.18114959305E+00 -0.41177950302E+00  0.90007703724E+02  0.89999964613E+02 0.  0.
        -12    1    1    2    0    0 -0.10912019820E+01 -0.18114959305E+00  0.41177950302E+00  0.11802962762E+01  0.00000000000E+00 0.  1.
         11    1    3    3    0    0 -0.17870437484E+02 -0.61912662454E+01  0.30100100972E+02  0.35548563858E+02  0.51100000000E-03 0. -1.
        -11    1    3    3    0    0  0.51092203222E+01 -0.30897725742E+01  0.94164226603E+01  0.11149880844E+02  0.51100000000E-03 0.  1.
        -12    1    3    3    0    0  0.13852419144E+02  0.94621884127E+01 -0.39928303135E+02  0.43309259021E+02  0.00000000000E+00 0.  1.
</event>
<event>
 7    1  0.3757412E-015  0.9000771E+02  0.7816164E-02  0.1186339E+00
        -11   -1    0    0    0    0  0.00000000000E+00  0.00000000000E+00  0.45593999997E+02  0.45594000000E+02  0.51100000000E-03 0. -1.
         11   -1    0    0    0    0 -0.00000000000E+00 -0.00000000000E+00 -0.45593999997E+02  0.45594000000E+02  0.51100000000E-03 0.  1.
    9900012    2    1    2    0    0 -0.80942918685E+00 -0.11906872215E+00  0.85072750023E+00  0.90007707558E+02  0.89999968498E+02 0.  0.
        -12    1    1    2    0    0  0.80942918685E+00  0.11906872215E+00 -0.85072750023E+00  0.11802924421E+01  0.00000000000E+00 0.  1.
         11    1    3    3    0    0 -0.26656845482E+02  0.13880256828E+02 -0.23565727033E+02  0.38191523032E+02  0.51100000000E-03 0. -1.
        -11    1    3    3    0    0  0.12780511534E+01  0.10751429536E+02  0.56439789843E+01  0.12209879232E+02  0.51100000000E-03 0.  1.
        -12    1    3    3    0    0  0.24569365141E+02 -0.24750755087E+02  0.18772475548E+02  0.39606305294E+02  0.00000000000E+00 0.  1.
</event>
<event>
 7    1  0.3757412E-015  0.9000781E+02  0.7816164E-02  0.1186339E+00
        -11   -1    0    0    0    0  0.00000000000E+00  0.00000000000E+00  0.45593999997E+02  0.45594000000E+02  0.51100000000E-03 0. -1.
         11   -1    0    0    0    0 -0.00000000000E+00 -0.00000000000E+00 -0.45593999997E+02  0.45594000000E+02  0.51100000000E-03 0.  1.
    9900012    2    1    2    0    0 -0.24145308141E+00 -0.27848319952E+00  0.11211621193E+01  0.90007806380E+02  0.90000068624E+02 0.  0.
        -12    1    1    2    0    0  0.24145308141E+00  0.27848319952E+00 -0.11211621193E+01  0.11801936200E+01  0.00000000000E+00 0.  1.
         11    1    3    3    0    0 -0.92298076562E+01  0.36748302960E+02 -0.36949224629E+01  0.38069404672E+02  0.51100000000E-03 0. -1.
        -11    1    3    3    0    0 -0.16760542483E+01  0.19119489421E+01 -0.89337480646E+01  0.92885177151E+01  0.51100000000E-03 0.  1.
        -12    1    3    3    0    0  0.10664408823E+02 -0.38938735101E+02  0.13749832647E+02  0.42649883993E+02  0.00000000000E+00 0.  1.
</event>
<event>
 7    1  0.3757412E-015  0.9000762E+02  0.7816164E-02  0.1186339E+00
        -11   -1    0    0    0    0  0.00000000000E+00  0.00000000000E+00  0.45593999997E+02  0.45594000000E+02  0.51100000000E-03 0.  1.
         11   -1    0    0    0    0 -0.00000000000E+00 -0.00000000000E+00 -0.45593999997E+02  0.45594000000E+02  0.51100000000E-03 0. -1.
    9900012    2    1    2    0    0 -0.43986914055E+00 -0.10950524113E+01  0.25728355950E-01  0.90007624385E+02  0.89999884227E+02 0.  0.
        -12    1    1    2    0    0  0.43986914055E+00  0.10950524113E+01 -0.25728355950E-01  0.11803756151E+01  0.00000000000E+00 0.  1.
         11    1    3    3    0    0 -0.83391705064E+01  0.59746980280E+00  0.43782078902E+01  0.94375547410E+01  0.51100000000E-03 0. -1.
        -11    1    3    3    0    0 -0.21018590438E+02 -0.45681170472E+00  0.29376547211E+02  0.36124387154E+02  0.51100000000E-03 0.  1.
         12    1    3    3    0    0  0.28917891804E+02 -0.12357105094E+01 -0.33729026745E+02  0.44445682490E+02  0.00000000000E+00 0. -1.
</event>
<event>
 7    1  0.3757412E-015  0.9000781E+02  0.7816164E-02  0.1186339E+00
        -11   -1    0    0    0    0  0.00000000000E+00  0.00000000000E+00  0.45593999997E+02  0.45594000000E+02  0.51100000000E-03 0. -1.
         11   -1    0    0    0    0 -0.00000000000E+00 -0.00000000000E+00 -0.45593999997E+02  0.45594000000E+02  0.51100000000E-03 0.  1.
    9900012    2    1    2    0    0 -0.47406852415E+00  0.10419635286E+01 -0.28708488495E+00  0.90007810739E+02  0.90000073041E+02 0.  0.
        -12    1    1    2    0    0  0.47406852415E+00 -0.10419635286E+01  0.28708488495E+00  0.11801892609E+01  0.00000000000E+00 0.  1.
         11    1    3    3    0    0  0.50079565573E+00  0.86134949018E+01 -0.15144558552E+01  0.87599467755E+01  0.51100000000E-03 0. -1.
        -11    1    3    3    0    0 -0.24267939953E+01  0.36694767263E+02 -0.20856427145E+01  0.36834022036E+02  0.51100000000E-03 0.  1.
         12    1    3    3    0    0  0.14519298154E+01 -0.44266298636E+02  0.33130136847E+01  0.44413841928E+02  0.00000000000E+00 0. -1.
</event>
<event>
 7    1  0.3757412E-015  0.9000770E+02  0.7816164E-02  0.1186339E+00
        -11   -1    0    0    0    0  0.00000000000E+00  0.00000000000E+00  0.45593999997E+02  0.45594000000E+02  0.51100000000E-03 0.  1.
         11   -1    0    0    0    0 -0.00000000000E+00 -0.00000000000E+00 -0.45593999997E+02  0.45594000000E+02  0.51100000000E-03 0. -1.
    9900012    2    1    2    0    0 -0.57481246445E-01  0.10113195870E+01 -0.60584145413E+00  0.90007696959E+02  0.89999957759E+02 0.  0.
        -12    1    1    2    0    0  0.57481246445E-01 -0.10113195870E+01  0.60584145413E+00  0.11803030408E+01  0.00000000000E+00 0.  1.
         11    1    3    3    0    0 -0.39526731595E+02  0.13345654159E+02  0.41218563706E+01  0.41922055004E+02  0.51100000000E-03 0. -1.
        -11    1    3    3    0    0  0.11315834629E+01 -0.89832354406E+01 -0.30899408033E+01  0.95669605698E+01  0.51100000000E-03 0.  1.
        -12    1    3    3    0    0  0.38337666886E+02 -0.33510991318E+01 -0.16377570214E+01  0.38518681386E+02  0.00000000000E+00 0.  1.
</event>
<event>
 7    1  0.3757412E-015  0.9000769E+02  0.7816164E-02  0.1186339E+00
        -11   -1    0    0    0    0  0.00000000000E+00  0.00000000000E+00  0.45593999997E+02  0.45594000000E+02  0.51100000000E-03 0. -1.
         11   -1    0    0    0    0 -0.00000000000E+00 -0.00000000000E+00 -0.45593999997E+02  0.45594000000E+02  0.51100000000E-03 0.  1.
    9900012    2    1    2    0    0 -0.30056811292E+00 -0.95406996159E+00 -0.62653518338E+00  0.90007687745E+02  0.89999948424E+02 0.  0.
        -12    1    1    2    0    0  0.30056811292E+00  0.95406996159E+00  0.62653518338E+00  0.11803122545E+01  0.00000000000E+00 0.  1.
         11    1    3    3    0    0  0.24324807742E+02  0.13937070243E+02  0.89369858780E+01  0.29424614110E+02  0.51100000000E-03 0. -1.
        -11    1    3    3    0    0  0.78019905129E+01  0.94452045769E+01 -0.15338228492E+02  0.19630185913E+02  0.51100000000E-03 0.  1.
        -12    1    3    3    0    0 -0.32427366368E+02 -0.24336344781E+02  0.57747074304E+01  0.40952887722E+02  0.00000000000E+00 0.  1.
</event>
<event>
 7    1  0.3757412E-015  0.9000757E+02  0.7816164E-02  0.1186339E+00
        -11   -1    0    0    0    0  0.00000000000E+00  0.00000000000E+00  0.45593999997E+02  0.45594000000E+02  0.51100000000E-03 0.  1.
         11   -1    0    0    0    0 -0.00000000000E+00 -0.00000000000E+00 -0.45593999997E+02  0.45594000000E+02  0.51100000000E-03 0. -1.
    9900012    2    1    2    0    0 -0.18552873444E-01 -0.19712173233E+00 -0.11637026089E+01  0.90007574251E+02  0.89999833431E+02 0.  0.
        -12    1    1    2    0    0  0.18552873444E-01  0.19712173233E+00  0.11637026089E+01  0.11804257488E+01  0.00000000000E+00 0.  1.
         11    1    3    3    0    0 -0.67297281163E+01  0.36937358620E+01  0.52729026219E+01  0.93132393644E+01  0.51100000000E-03 0. -1.
        -11    1    3    3    0    0 -0.31368846279E+02 -0.21940846761E+02 -0.22780531183E+01  0.38348335032E+02  0.51100000000E-03 0.  1.
         12    1    3    3    0    0  0.38080021522E+02  0.18049989167E+02 -0.41585521126E+01  0.42345999855E+02  0.00000000000E+00 0. -1.
</event>
<event>
 7    1  0.3757412E-015  0.9000772E+02  0.7816164E-02  0.1186339E+00
        -11   -1    0    0    0    0  0.00000000000E+00  0.00000000000E+00  0.45593999997E+02  0.45594000000E+02  0.51100000000E-03 0.  1.
         11   -1    0    0    0    0 -0.00000000000E+00 -0.00000000000E+00 -0.45593999997E+02  0.45594000000E+02  0.51100000000E-03 0. -1.
    9900012    2    1    2    0    0 -0.38860894649E-01  0.23837773510E+00 -0.11553004256E+01  0.90007723258E+02  0.89999984405E+02 0.  0.
        -12    1    1    2    0    0  0.38860894649E-01 -0.23837773510E+00  0.11553004256E+01  0.11802767418E+01  0.00000000000E+00 0.  1.
         11    1    3    3    0    0  0.34091950433E+02 -0.16208314497E+01 -0.20534517514E+01  0.34192175176E+02  0.51100000000E-03 0. -1.
        -11    1    3    3    0    0  0.10259988147E+02  0.47463053805E+01  0.76921563167E+00  0.11330775105E+02  0.51100000000E-03 0.  1.
        -12    1    3    3    0    0 -0.44390799474E+02 -0.28870961957E+01  0.12893569408E+00  0.44484772977E+02  0.00000000000E+00 0.  1.
</event>
<event>
 7    1  0.3757412E-015  0.9000772E+02  0.7816164E-02  0.1186339E+00
        -11   -1    0    0    0    0  0.00000000000E+00  0.00000000000E+00  0.45593999997E+02  0.45594000000E+02  0.51100000000E-03 0.  1.
         11   -1    0    0    0    0 -0.00000000000E+00 -0.00000000000E+00 -0.45593999997E+02  0.45594000000E+02  0.51100000000E-03 0. -1.
    9900012    2    1    2    0    0 -0.49083067552E-01  0.10484042684E+01 -0.53990059596E+00  0.90007723206E+02  0.89999984352E+02 0.  0.
        -12    1    1    2    0    0  0.49083067552E-01 -0.10484042684E+01  0.53990059596E+00  0.11802767943E+01  0.00000000000E+00 0.  1.
         11    1    3    3    0    0  0.98985554329E+01  0.37033486182E+00 -0.56517829532E+00  0.99215913207E+01  0.51100000000E-03 0. -1.
        -11    1    3    3    0    0  0.14712493563E+02 -0.27029541645E+02 -0.21181827968E+02  0.37359382017E+02  0.51100000000E-03 0.  1.
         12    1    3    3    0    0 -0.24660132063E+02  0.27707611051E+02  0.21207105667E+02  0.42726749868E+02  0.00000000000E+00 0. -1.
</event>
<event>
 7    1  0.3757412E-015  0.9000769E+02  0.7816164E-02  0.1186339E+00
        -11   -1    0    0    0    0  0.00000000000E+00  0.00000000000E+00  0.45593999997E+02  0.45594000000E+02  0.51100000000E-03 0. -1.
         11   -1    0    0    0    0 -0.00000000000E+00 -0.00000000000E+00 -0.45593999997E+02  0.45594000000E+02  0.51100000000E-03 0.  1.
    9900012    2    1    2    0    0 -0.82301187800E-01  0.37155787251E-01  0.11768540699E+01  0.90007686677E+02  0.89999947341E+02 0.  0.
        -12    1    1    2    0    0  0.82301187800E-01 -0.37155787251E-01 -0.11768540699E+01  0.11803133227E+01  0.00000000000E+00 0.  1.
         11    1    3    3    0    0 -0.11327990044E+02 -0.22711618545E+02  0.18700237273E+02  0.31525225609E+02  0.51100000000E-03 0. -1.
        -11    1    3    3    0    0 -0.57590926166E+01 -0.80810350197E+01 -0.20876235951E+02  0.23114659905E+02  0.51100000000E-03 0.  1.
         12    1    3    3    0    0  0.17004781473E+02  0.30829809352E+02  0.33528527479E+01  0.35367801164E+02  0.00000000000E+00 0. -1.
</event>
<event>
 7    1  0.3757412E-015  0.9000773E+02  0.7816164E-02  0.1186339E+00
        -11   -1    0    0    0    0  0.00000000000E+00  0.00000000000E+00  0.45593999997E+02  0.45594000000E+02  0.51100000000E-03 0.  1.
         11   -1    0    0    0    0 -0.00000000000E+00 -0.00000000000E+00 -0.45593999997E+02  0.45594000000E+02  0.51100000000E-03 0. -1.
    9900012    2    1    2    0    0 -0.81948033780E+00  0.26005076537E+00 -0.80862481765E+00  0.90007725235E+02  0.89999986408E+02 0.  0.
        -12    1    1    2    0    0  0.81948033780E+00 -0.26005076537E+00  0.80862481765E+00  0.11802747648E+01  0.00000000000E+00 0.  1.
         11    1    3    3    0    0  0.14629147176E+02  0.95970021103E+00 -0.20637849508E+02  0.25315090444E+02  0.51100000000E-03 0. -1.
        -11    1    3    3    0    0  0.41421076952E+01  0.11580600655E+02 -0.17135369763E+02  0.21092374567E+02  0.51100000000E-03 0.  1.
        -12    1    3    3    0    0 -0.19590735209E+02 -0.12280250101E+02  0.36964594453E+02  0.43600260225E+02  0.00000000000E+00 0.  1.
</event>
<event>
 7    1  0.3757412E-015  0.9000773E+02  0.7816164E-02  0.1186339E+00
        -11   -1    0    0    0    0  0.00000000000E+00  0.00000000000E+00  0.45593999997E+02  0.45594000000E+02  0.51100000000E-03 0.  1.
         11   -1    0    0    0    0 -0.00000000000E+00 -0.00000000000E+00 -0.45593999997E+02  0.45594000000E+02  0.51100000000E-03 0. -1.
    9900012    2    1    2    0    0  0.27524010908E+00  0.11092715771E+01  0.29461203624E+00  0.90007730200E+02  0.89999991438E+02 0.  0.
        -12    1    1    2    0    0 -0.27524010908E+00 -0.11092715771E+01 -0.29461203624E+00  0.11802698002E+01  0.00000000000E+00 0.  1.
         11    1    3    3    0    0 -0.72847208494E+01 -0.25060675553E+01  0.62330854874E+01  0.99095351757E+01  0.51100000000E-03 0. -1.
        -11    1    3    3    0    0  0.31715627255E+02 -0.25253786186E+02  0.51239518868E+01  0.40864282841E+02  0.51100000000E-03 0.  1.
         12    1    3    3    0    0 -0.24155666296E+02  0.28869125318E+02 -0.11062425338E+02  0.39233912183E+02  0.00000000000E+00 0. -1.
</event>
<event>
 7    1  0.3757412E-015  0.9000785E+02  0.7816164E-02  0.1186339E+00
        -11   -1    0    0    0    0  0.00000000000E+00  0.00000000000E+00  0.45593999997E+02  0.45594000000E+02  0.51100000000E-03 0.  1.
         11   -1    0    0    0    0 -0.00000000000E+00 -0.00000000000E+00 -0.45593999997E+02  0.45594000000E+02  0.51100000000E-03 0. -1.
    9900012    2    1    2    0    0  0.87467284378E+00 -0.36869497056E+00 -0.70125914366E+00  0.90007850454E+02  0.90000113280E+02 0.  0.
        -12    1    1    2    0    0 -0.87467284378E+00  0.36869497056E+00  0.70125914366E+00  0.11801495463E+01  0.00000000000E+00 0.  1.
         11    1    3    3    0    0  0.15145082714E-01  0.37752658931E+01 -0.11200652534E+02  0.11819791851E+02  0.51100000000E-03 0. -1.
        -11    1    3    3    0    0 -0.27938284766E+01  0.34937491659E+02  0.16043822480E+02  0.38546569769E+02  0.51100000000E-03 0.  1.
         12    1    3    3    0    0  0.36533562377E+01 -0.39081452522E+02 -0.55444290891E+01  0.39641488834E+02  0.00000000000E+00 0. -1.
</event>
<event>
 7    1  0.3757412E-015  0.9000778E+02  0.7816164E-02  0.1186339E+00
        -11   -1    0    0    0    0  0.00000000000E+00  0.00000000000E+00  0.45593999997E+02  0.45594000000E+02  0.51100000000E-03 0.  1.
         11   -1    0    0    0    0 -0.00000000000E+00 -0.00000000000E+00 -0.45593999997E+02  0.45594000000E+02  0.51100000000E-03 0. -1.
    9900012    2    1    2    0    0  0.32260249920E+00 -0.76411546996E+00 -0.83962933033E+00  0.90007778734E+02  0.90000040613E+02 0.  0.
        -12    1    1    2    0    0 -0.32260249920E+00  0.76411546996E+00  0.83962933033E+00  0.11802212658E+01  0.00000000000E+00 0.  1.
         11    1    3    3    0    0  0.46182426558E+01  0.80677386019E+01  0.30618597419E+01  0.97873161141E+01  0.51100000000E-03 0. -1.
        -11    1    3    3    0    0  0.35546296994E+02  0.51664854312E+01  0.70249067917E+01  0.36600288488E+02  0.51100000000E-03 0.  1.
         12    1    3    3    0    0 -0.39841937151E+02 -0.13998339503E+02 -0.10926395864E+02  0.43620174132E+02  0.00000000000E+00 0. -1.
</event>
<event>
 7    1  0.3757412E-015  0.9000768E+02  0.7816164E-02  0.1186339E+00
        -11   -1    0    0    0    0  0.00000000000E+00  0.00000000000E+00  0.45593999997E+02  0.45594000000E+02  0.51100000000E-03 0.  1.
         11   -1    0    0    0    0 -0.00000000000E+00 -0.00000000000E+00 -0.45593999997E+02  0.45594000000E+02  0.51100000000E-03 0. -1.
    9900012    2    1    2    0    0  0.98944172863E+00 -0.63232119651E+00  0.11967906994E+00  0.90007683047E+02  0.89999943663E+02 0.  0.
        -12    1    1    2    0    0 -0.98944172863E+00  0.63232119651E+00 -0.11967906994E+00  0.11803169531E+01  0.00000000000E+00 0.  1.
         11    1    3    3    0    0 -0.62576631006E+01 -0.38387092365E+01  0.63639141950E+01  0.97156286583E+01  0.51100000000E-03 0. -1.
        -11    1    3    3    0    0  0.25172131967E+02 -0.15377835111E+02  0.25765921655E+02  0.39166270686E+02  0.51100000000E-03 0.  1.
         12    1    3    3    0    0 -0.17925027138E+02  0.18584223151E+02 -0.32010156780E+02  0.41125783702E+02  0.00000000000E+00 0. -1.
</event>
<event>
 7    1  0.3757412E-015  0.9000774E+02  0.7816164E-02  0.1186339E+00
        -11   -1    0    0    0    0  0.00000000000E+00  0.00000000000E+00  0.45593999997E+02  0.45594000000E+02  0.51100000000E-03 0.  1.
         11   -1    0    0    0    0 -0.00000000000E+00 -0.00000000000E+00 -0.45593999997E+02  0.45594000000E+02  0.51100000000E-03 0. -1.
    9900012    2    1    2    0    0  0.13178619402E+00  0.61630733248E+00 -0.99790177640E+00  0.90007741433E+02  0.90000002820E+02 0.  0.
        -12    1    1    2    0    0 -0.13178619402E+00 -0.61630733248E+00  0.99790177640E+00  0.11802585667E+01  0.00000000000E+00 0.  1.
         11    1    3    3    0    0 -0.11020579286E+02  0.65072728783E+01 -0.32832002467E+02  0.35238305214E+02  0.51100000000E-03 0. -1.
        -11    1    3    3    0    0  0.87412430416E+01  0.50392179532E+00 -0.94736540117E+01  0.12900131305E+02  0.51100000000E-03 0.  1.
        -12    1    3    3    0    0  0.24111224387E+01 -0.63948873411E+01  0.41307754702E+02  0.41869304915E+02  0.00000000000E+00 0.  1.
</event>
<event>
 7    1  0.3757412E-015  0.9000772E+02  0.7816164E-02  0.1186339E+00
        -11   -1    0    0    0    0  0.00000000000E+00  0.00000000000E+00  0.45593999997E+02  0.45594000000E+02  0.51100000000E-03 0.  1.
         11   -1    0    0    0    0 -0.00000000000E+00 -0.00000000000E+00 -0.45593999997E+02  0.45594000000E+02  0.51100000000E-03 0. -1.
    9900012    2    1    2    0    0  0.21811242654E-03 -0.30759827026E-01 -0.11798804580E+01  0.90007718631E+02  0.89999979717E+02 0.  0.
        -12    1    1    2    0    0 -0.21811242654E-03  0.30759827026E-01  0.11798804580E+01  0.11802813688E+01  0.00000000000E+00 0.  1.
         11    1    3    3    0    0  0.58910202603E+01 -0.31142313890E+01 -0.71230515082E+01  0.97539950738E+01  0.51100000000E-03 0. -1.
        -11    1    3    3    0    0  0.15769912038E+02 -0.31898095374E+01  0.37881357612E+02  0.41156557987E+02  0.51100000000E-03 0.  1.
         12    1    3    3    0    0 -0.21660714186E+02  0.62732810994E+01 -0.31938186561E+02  0.39097165570E+02  0.00000000000E+00 0. -1.
</event>
<event>
 7    1  0.3757412E-015  0.9000804E+02  0.7816164E-02  0.1186338E+00
        -11   -1    0    0    0    0  0.00000000000E+00  0.00000000000E+00  0.45593999997E+02  0.45594000000E+02  0.51100000000E-03 0.  1.
         11   -1    0    0    0    0 -0.00000000000E+00 -0.00000000000E+00 -0.45593999997E+02  0.45594000000E+02  0.51100000000E-03 0. -1.
    9900012    2    1    2    0    0  0.70142516922E+00 -0.52924822753E+00 -0.78753031158E+00  0.90008040278E+02  0.90000305609E+02 0.  0.
        -12    1    1    2    0    0 -0.70142516922E+00  0.52924822753E+00  0.78753031158E+00  0.11799597222E+01  0.00000000000E+00 0.  1.
         11    1    3    3    0    0 -0.10723590868E+01  0.91038485638E+01  0.27829160008E+01  0.95799078498E+01  0.51100000000E-03 0. -1.
        -11    1    3    3    0    0 -0.71554398698E+01  0.33811177109E+02  0.59419482289E+01  0.35067118020E+02  0.51100000000E-03 0.  1.
         12    1    3    3    0    0  0.89292241258E+01 -0.43444273900E+02 -0.95123945412E+01  0.45361014408E+02  0.00000000000E+00 0. -1.
</event>
<event>
 7    1  0.3757412E-015  0.9000781E+02  0.7816164E-02  0.1186339E+00
        -11   -1    0    0    0    0  0.00000000000E+00  0.00000000000E+00  0.45593999997E+02  0.45594000000E+02  0.51100000000E-03 0.  1.
         11   -1    0    0    0    0 -0.00000000000E+00 -0.00000000000E+00 -0.45593999997E+02  0.45594000000E+02  0.51100000000E-03 0. -1.
    9900012    2    1    2    0    0  0.84798899898E+00  0.64988424694E+00 -0.50142301861E+00  0.90007805135E+02  0.90000067362E+02 0.  0.
        -12    1    1    2    0    0 -0.84798899898E+00 -0.64988424694E+00  0.50142301861E+00  0.11801948654E+01  0.00000000000E+00 0.  1.
         11    1    3    3    0    0 -0.12292846602E+01  0.35236770968E+01 -0.14821165217E+02  0.15283794677E+02  0.51100000000E-03 0. -1.
        -11    1    3    3    0    0 -0.19013004549E+02 -0.25502941649E+02  0.26576074117E+02  0.41450960067E+02  0.51100000000E-03 0.  1.
         12    1    3    3    0    0  0.21090278208E+02  0.22629148799E+02 -0.12256331918E+02  0.33273050391E+02  0.00000000000E+00 0. -1.
</event>
<event>
 7    1  0.3757412E-015  0.9000772E+02  0.7816164E-02  0.1186339E+00
        -11   -1    0    0    0    0  0.00000000000E+00  0.00000000000E+00  0.45593999997E+02  0.45594000000E+02  0.51100000000E-03 0.  1.
         11   -1    0    0    0    0 -0.00000000000E+00 -0.00000000000E+00 -0.45593999997E+02  0.45594000000E+02  0.51100000000E-03 0. -1.
    9900012    2    1    2    0    0  0.92165347748E+00 -0.13384740872E+00 -0.72505203280E+00  0.90007720071E+02  0.89999981176E+02 0.  0.
        -12    1    1    2    0    0 -0.92165347748E+00  0.13384740872E+00  0.72505203280E+00  0.11802799294E+01  0.00000000000E+00 0.  1.
         11    1    3    3    0    0  0.38315478177E+01 -0.80243365621E+01 -0.35022301680E+01  0.95570054071E+01  0.51100000000E-03 0. -1.
        -11    1    3    3    0    0  0.30344588142E+02  0.19889262132E+02  0.19668041891E+02  0.41269948507E+02  0.51100000000E-03 0.  1.
         12    1    3    3    0    0 -0.33254482483E+02 -0.11998772979E+02 -0.16890863756E+02  0.39180766156E+02  0.00000000000E+00 0. -1.
</event>
<event>
 7    1  0.3757412E-015  0.9000770E+02  0.7816164E-02  0.1186339E+00
        -11   -1    0    0    0    0  0.00000000000E+00  0.00000000000E+00  0.45593999997E+02  0.45594000000E+02  0.51100000000E-03 0.  1.
         11   -1    0    0    0    0 -0.00000000000E+00 -0.00000000000E+00 -0.45593999997E+02  0.45594000000E+02  0.51100000000E-03 0. -1.
    9900012    2    1    2    0    0  0.43876302893E+00 -0.80433270960E+00  0.74407875602E+00  0.90007696099E+02  0.89999956888E+02 0.  0.
        -12    1    1    2    0    0 -0.43876302893E+00  0.80433270960E+00 -0.74407875602E+00  0.11803039009E+01  0.00000000000E+00 0.  1.
         11    1    3    3    0    0 -0.27035109074E+02 -0.20657252240E+02  0.12631379969E+02  0.36292849887E+02  0.51100000000E-03 0. -1.
        -11    1    3    3    0    0  0.84427526494E+00 -0.96195827486E+01  0.46143797290E+01  0.10702414378E+02  0.51100000000E-03 0.  1.
        -12    1    3    3    0    0  0.26629596838E+02  0.29472502279E+02 -0.16501680942E+02  0.43012431834E+02  0.00000000000E+00 0.  1.
</event>
<event>
 7    1  0.3757412E-015  0.9000770E+02  0.7816164E-02  0.1186339E+00
        -11   -1    0    0    0    0  0.00000000000E+00  0.00000000000E+00  0.45593999997E+02  0.45594000000E+02  0.51100000000E-03 0. -1.
         11   -1    0    0    0    0 -0.00000000000E+00 -0.00000000000E+00 -0.45593999997E+02  0.45594000000E+02  0.51100000000E-03 0.  1.
    9900012    2    1    2    0    0  0.52058808099E-01  0.36634229412E+00  0.11207959294E+01  0.90007703295E+02  0.89999964179E+02 0.  0.
        -12    1    1    2    0    0 -0.52058808099E-01 -0.36634229412E+00 -0.11207959294E+01  0.11802967048E+01  0.00000000000E+00 0.  1.
         11    1    3    3    0    0  0.49201845747E+01  0.68056250014E+01 -0.47782326367E+01  0.96621040825E+01  0.51100000000E-03 0. -1.
        -11    1    3    3    0    0 -0.13409691798E+02 -0.11202423751E+02 -0.34557468960E+02  0.38723801378E+02  0.51100000000E-03 0.  1.
         12    1    3    3    0    0  0.85415660314E+01  0.47631410438E+01  0.40456497526E+02  0.41621797834E+02  0.00000000000E+00 0. -1.
</event>
<event>
 7    1  0.3757412E-015  0.9000775E+02  0.7816164E-02  0.1186339E+00
        -11   -1    0    0    0    0  0.00000000000E+00  0.00000000000E+00  0.45593999997E+02  0.45594000000E+02  0.51100000000E-03 0.  1.
         11   -1    0    0    0    0 -0.00000000000E+00 -0.00000000000E+00 -0.45593999997E+02  0.45594000000E+02  0.51100000000E-03 0. -1.
    9900012    2    1    2    0    0 -0.46615544551E+00  0.83374231949E+00 -0.69322469511E+00  0.90007751029E+02  0.90000012543E+02 0.  0.
        -12    1    1    2    0    0  0.46615544551E+00 -0.83374231949E+00  0.69322469511E+00  0.11802489706E+01  0.00000000000E+00 0.  1.
         11    1    3    3    0    0  0.19942505827E+02  0.10084288439E+02 -0.28223059804E+02  0.35999132169E+02  0.51100000000E-03 0. -1.
        -11    1    3    3    0    0 -0.17454541040E+01  0.50397063386E+01 -0.90633932159E+01  0.10516194505E+02  0.51100000000E-03 0.  1.
        -12    1    3    3    0    0 -0.18663207168E+02 -0.14290252458E+02  0.36593228325E+02  0.43492424356E+02  0.00000000000E+00 0.  1.
</event>
<event>
 7    1  0.3757412E-015  0.9000767E+02  0.7816164E-02  0.1186339E+00
        -11   -1    0    0    0    0  0.00000000000E+00  0.00000000000E+00  0.45593999997E+02  0.45594000000E+02  0.51100000000E-03 0.  1.
         11   -1    0    0    0    0 -0.00000000000E+00 -0.00000000000E+00 -0.45593999997E+02  0.45594000000E+02  0.51100000000E-03 0. -1.
    9900012    2    1    2    0    0 -0.93916237385E+00  0.21194078243E+00 -0.68282017387E+00  0.90007666043E+02  0.89999926435E+02 0.  0.
        -12    1    1    2    0    0  0.93916237385E+00 -0.21194078243E+00  0.68282017387E+00  0.11803339568E+01  0.00000000000E+00 0.  1.
         11    1    3    3    0    0  0.30301528001E+02 -0.12769502669E+02 -0.13462168779E+02  0.35531293054E+02  0.51100000000E-03 0. -1.
        -11    1    3    3    0    0  0.89064983835E+01  0.47487683884E+00 -0.32239929491E+01  0.94839523546E+01  0.51100000000E-03 0.  1.
        -12    1    3    3    0    0 -0.40147188758E+02  0.12506566613E+02  0.16003341554E+02  0.44992420634E+02  0.00000000000E+00 0.  1.
</event>
<event>
 7    1  0.4965790E-015  0.9000802E+02  0.7816164E-02  0.1186338E+00
        -11   -1    0    0    0    0  0.00000000000E+00  0.00000000000E+00  0.45593999997E+02  0.45594000000E+02  0.51100000000E-03 0. -1.
         11   -1    0    0    0    0 -0.00000000000E+00 -0.00000000000E+00 -0.45593999997E+02  0.45594000000E+02  0.51100000000E-03 0.  1.
    9900012    2    1    2    0    0 -0.57423083577E+00  0.72747254768E+00  0.73033282321E+00  0.90008023986E+02  0.90000289102E+02 0.  0.
        -12    1    1    2    0    0  0.57423083577E+00 -0.72747254768E+00 -0.73033282321E+00  0.11799760138E+01  0.00000000000E+00 0.  1.
         11    1    3    3    0    0 -0.26998695840E+02 -0.80044159199E+00  0.24409533543E+02  0.36405983187E+02  0.51100000000E-03 0. -1.
        -11    1    3    3    0    0 -0.91241198663E+01 -0.11502175769E+01  0.23135865024E+01  0.94828923105E+01  0.51100000000E-03 0.  1.
        -12    1    3    3    0    0  0.35548584870E+02  0.26781317166E+01 -0.25992787222E+02  0.44119148488E+02  0.00000000000E+00 0.  1.
</event>
<event>
 7    1  0.3757412E-015  0.9000772E+02  0.7816164E-02  0.1186339E+00
        -11   -1    0    0    0    0  0.00000000000E+00  0.00000000000E+00  0.45593999997E+02  0.45594000000E+02  0.51100000000E-03 0. -1.
         11   -1    0    0    0    0 -0.00000000000E+00 -0.00000000000E+00 -0.45593999997E+02  0.45594000000E+02  0.51100000000E-03 0.  1.
    9900012    2    1    2    0    0  0.82112832037E-01 -0.57774351628E+00  0.10259253235E+01  0.90007723398E+02  0.89999984547E+02 0.  0.
        -12    1    1    2    0    0 -0.82112832037E-01  0.57774351628E+00 -0.10259253235E+01  0.11802766019E+01  0.00000000000E+00 0.  1.
         11    1    3    3    0    0 -0.41554463778E+01  0.88126933518E+01  0.21970193554E+01  0.99879023334E+01  0.51100000000E-03 0. -1.
        -11    1    3    3    0    0 -0.10573824018E+01  0.23447998841E+02 -0.28534817773E+02  0.36948105943E+02  0.51100000000E-03 0.  1.
         12    1    3    3    0    0  0.52949416116E+01 -0.32838435709E+02  0.27363723741E+02  0.43071715121E+02  0.00000000000E+00 0. -1.
</event>
<event>
 7    1  0.3757412E-015  0.9000777E+02  0.7816164E-02  0.1186339E+00
        -11   -1    0    0    0    0  0.00000000000E+00  0.00000000000E+00  0.45593999997E+02  0.45594000000E+02  0.51100000000E-03 0. -1.
         11   -1    0    0    0    0 -0.00000000000E+00 -0.00000000000E+00 -0.45593999997E+02  0.45594000000E+02  0.51100000000E-03 0.  1.
    9900012    2    1    2    0    0  0.17469029819E+00 -0.49885506299E+00  0.10552635440E+01  0.90007765184E+02  0.90000026884E+02 0.  0.
        -12    1    1    2    0    0 -0.17469029819E+00  0.49885506299E+00 -0.10552635440E+01  0.11802348162E+01  0.00000000000E+00 0.  1.
         11    1    3    3    0    0 -0.28614880102E+01 -0.71084231394E+00  0.25201103001E+01  0.38787068223E+01  0.51100000000E-03 0. -1.
        -11    1    3    3    0    0  0.32394315002E+02  0.27625347953E+02  0.11182039841E+02  0.44018058899E+02  0.51100000000E-03 0.  1.
         12    1    3    3    0    0 -0.29358136694E+02 -0.27413360702E+02 -0.12646886597E+02  0.42110999462E+02  0.00000000000E+00 0. -1.
</event>
<event>
 7    1  0.3757412E-015  0.9000778E+02  0.7816164E-02  0.1186339E+00
        -11   -1    0    0    0    0  0.00000000000E+00  0.00000000000E+00  0.45593999997E+02  0.45594000000E+02  0.51100000000E-03 0.  1.
         11   -1    0    0    0    0 -0.00000000000E+00 -0.00000000000E+00 -0.45593999997E+02  0.45594000000E+02  0.51100000000E-03 0. -1.
    9900012    2    1    2    0    0 -0.95292107601E+00  0.63684771842E+00  0.28157214109E+00  0.90007781180E+02  0.90000043091E+02 0.  0.
        -12    1    1    2    0    0  0.95292107601E+00 -0.63684771842E+00 -0.28157214109E+00  0.11802188205E+01  0.00000000000E+00 0.  1.
         11    1    3    3    0    0  0.15658225532E+01 -0.58421093765E+01  0.83394187323E+01  0.10301841937E+02  0.51100000000E-03 0. -1.
        -11    1    3    3    0    0  0.51910991448E+01  0.24441995474E+02  0.28712438768E+02  0.38062616743E+02  0.51100000000E-03 0.  1.
         12    1    3    3    0    0 -0.77098427740E+01 -0.17963038379E+02 -0.36770285359E+02  0.41643322500E+02  0.00000000000E+00 0. -1.
</event>
<event>
 7    1  0.3757412E-015  0.9000759E+02  0.7816164E-02  0.1186339E+00
        -11   -1    0    0    0    0  0.00000000000E+00  0.00000000000E+00  0.45593999997E+02  0.45594000000E+02  0.51100000000E-03 0.  1.
         11   -1    0    0    0    0 -0.00000000000E+00 -0.00000000000E+00 -0.45593999997E+02  0.45594000000E+02  0.51100000000E-03 0. -1.
    9900012    2    1    2    0    0 -0.67404164697E-01  0.94724390712E-01 -0.11746710617E+01  0.90007589845E+02  0.89999849231E+02 0.  0.
        -12    1    1    2    0    0  0.67404164697E-01 -0.94724390712E-01  0.11746710617E+01  0.11804101553E+01  0.00000000000E+00 0.  1.
         11    1    3    3    0    0  0.42941175997E+01 -0.83715255439E+01 -0.50458553765E-01  0.94087423293E+01  0.51100000000E-03 0. -1.
        -11    1    3    3    0    0  0.45281577743E+01  0.25308681147E+02  0.32811278919E+02  0.41684692380E+02  0.51100000000E-03 0.  1.
         12    1    3    3    0    0 -0.88896795387E+01 -0.16842431213E+02 -0.33935491427E+02  0.38914155135E+02  0.00000000000E+00 0. -1.
</event>
<event>
 7    1  0.3757412E-015  0.9000749E+02  0.7816164E-02  0.1186340E+00
        -11   -1    0    0    0    0  0.00000000000E+00  0.00000000000E+00  0.45593999997E+02  0.45594000000E+02  0.51100000000E-03 0.  1.
         11   -1    0    0    0    0 -0.00000000000E+00 -0.00000000000E+00 -0.45593999997E+02  0.45594000000E+02  0.51100000000E-03 0. -1.
    9900012    2    1    2    0    0 -0.47230774995E+00 -0.84531045889E+00 -0.67525830782E+00  0.90007492412E+02  0.89999750512E+02 0.  0.
        -12    1    1    2    0    0  0.47230774995E+00  0.84531045889E+00  0.67525830782E+00  0.11805075878E+01  0.00000000000E+00 0.  1.
         11    1    3    3    0    0 -0.25077635208E+01  0.12074680164E+02 -0.24009115368E+02  0.26991191155E+02  0.51100000000E-03 0. -1.
        -11    1    3    3    0    0  0.19604254684E+02 -0.20841837770E+02 -0.47004328372E+01  0.28996604499E+02  0.51100000000E-03 0.  1.
        -12    1    3    3    0    0 -0.17568798913E+02  0.79218471468E+01  0.28034289898E+02  0.34019696758E+02  0.00000000000E+00 0.  1.
</event>
<event>
 7    1  0.3757412E-015  0.9000775E+02  0.7816164E-02  0.1186339E+00
        -11   -1    0    0    0    0  0.00000000000E+00  0.00000000000E+00  0.45593999997E+02  0.45594000000E+02  0.51100000000E-03 0.  1.
         11   -1    0    0    0    0 -0.00000000000E+00 -0.00000000000E+00 -0.45593999997E+02  0.45594000000E+02  0.51100000000E-03 0. -1.
    9900012    2    1    2    0    0  0.10401884217E+01  0.42636736986E+00 -0.35946573596E+00  0.90007747187E+02  0.90000008650E+02 0.  0.
        -12    1    1    2    0    0 -0.10401884217E+01 -0.42636736986E+00  0.35946573596E+00  0.11802528128E+01  0.00000000000E+00 0.  1.
         11    1    3    3    0    0  0.25982881235E+02 -0.28492390034E+02 -0.12390584275E+02  0.40502505924E+02  0.51100000000E-03 0. -1.
        -11    1    3    3    0    0 -0.28760811940E+01  0.25751969797E-01  0.12822251619E+02  0.13140876798E+02  0.51100000000E-03 0.  1.
        -12    1    3    3    0    0 -0.22066611619E+02  0.28893005435E+02 -0.79113307924E+00  0.36364364465E+02  0.00000000000E+00 0.  1.
</event>
<event>
 7    1  0.3757412E-015  0.9000771E+02  0.7816164E-02  0.1186339E+00
        -11   -1    0    0    0    0  0.00000000000E+00  0.00000000000E+00  0.45593999997E+02  0.45594000000E+02  0.51100000000E-03 0.  1.
         11   -1    0    0    0    0 -0.00000000000E+00 -0.00000000000E+00 -0.45593999997E+02  0.45594000000E+02  0.51100000000E-03 0. -1.
    9900012    2    1    2    0    0  0.12047562702E+00  0.10755858638E+01 -0.47083264500E+00  0.90007710753E+02  0.89999971735E+02 0.  0.
        -12    1    1    2    0    0 -0.12047562702E+00 -0.10755858638E+01  0.47083264500E+00  0.11802892470E+01  0.00000000000E+00 0.  1.
         11    1    3    3    0    0 -0.51489595234E+01  0.94968419243E+01 -0.18677632781E+01  0.10963135073E+02  0.51100000000E-03 0. -1.
        -11    1    3    3    0    0 -0.32687755982E+02  0.52374997658E+00  0.17231764645E+02  0.36955343567E+02  0.51100000000E-03 0.  1.
         12    1    3    3    0    0  0.37957191132E+02 -0.89450060372E+01 -0.15834834012E+02  0.42089232112E+02  0.00000000000E+00 0. -1.
</event>
<event>
 7    1  0.3757412E-015  0.9000774E+02  0.7816164E-02  0.1186339E+00
        -11   -1    0    0    0    0  0.00000000000E+00  0.00000000000E+00  0.45593999997E+02  0.45594000000E+02  0.51100000000E-03 0. -1.
         11   -1    0    0    0    0 -0.00000000000E+00 -0.00000000000E+00 -0.45593999997E+02  0.45594000000E+02  0.51100000000E-03 0.  1.
    9900012    2    1    2    0    0 -0.63842598008E+00  0.83175685291E+00 -0.54186531454E+00  0.90007735109E+02  0.89999996412E+02 0.  0.
        -12    1    1    2    0    0  0.63842598008E+00 -0.83175685291E+00  0.54186531454E+00  0.11802648912E+01  0.00000000000E+00 0.  1.
         11    1    3    3    0    0 -0.17663260543E+02 -0.17966564633E+02  0.20311056967E+02  0.32362435834E+02  0.51100000000E-03 0. -1.
        -11    1    3    3    0    0 -0.81841191796E+01 -0.28640301737E+01  0.93379016937E+01  0.12742797334E+02  0.51100000000E-03 0.  1.
        -12    1    3    3    0    0  0.25208953743E+02  0.21662351660E+02 -0.30190823975E+02  0.44902501941E+02  0.00000000000E+00 0.  1.
</event>
<event>
 7    1  0.3757412E-015  0.9000782E+02  0.7816164E-02  0.1186339E+00
        -11   -1    0    0    0    0  0.00000000000E+00  0.00000000000E+00  0.45593999997E+02  0.45594000000E+02  0.51100000000E-03 0. -1.
         11   -1    0    0    0    0 -0.00000000000E+00 -0.00000000000E+00 -0.45593999997E+02  0.45594000000E+02  0.51100000000E-03 0.  1.
    9900012    2    1    2    0    0 -0.10359663026E+01  0.54288647783E+00 -0.15769819532E+00  0.90007821781E+02  0.90000084228E+02 0.  0.
        -12    1    1    2    0    0  0.10359663026E+01 -0.54288647783E+00  0.15769819532E+00  0.11801782190E+01  0.00000000000E+00 0.  1.
         11    1    3    3    0    0  0.61731941045E+01  0.77456824256E+01  0.10338094658E+02  0.14317126915E+02  0.51100000000E-03 0. -1.
        -11    1    3    3    0    0  0.14718027149E+02  0.29044980647E+02 -0.34265432017E+01  0.32740989944E+02  0.51100000000E-03 0.  1.
         12    1    3    3    0    0 -0.21927187556E+02 -0.36247776595E+02 -0.70692496514E+01  0.42949704921E+02  0.00000000000E+00 0. -1.
</event>
<event>
 7    1  0.3757412E-015  0.9000857E+02  0.7816164E-02  0.1186337E+00
        -11   -1    0    0    0    0  0.00000000000E+00  0.00000000000E+00  0.45593999997E+02  0.45594000000E+02  0.51100000000E-03 0.  1.
         11   -1    0    0    0    0 -0.00000000000E+00 -0.00000000000E+00 -0.45593999997E+02  0.45594000000E+02  0.51100000000E-03 0. -1.
    9900012    2    1    2    0    0 -0.41928283931E+00 -0.10197985519E+01 -0.41865300181E+00  0.90008568984E+02  0.90000841291E+02 0.  0.
        -12    1    1    2    0    0  0.41928283931E+00  0.10197985519E+01  0.41865300181E+00  0.11794310161E+01  0.00000000000E+00 0.  1.
         11    1    3    3    0    0 -0.48543811413E+01 -0.55154609003E+01  0.14773818981E+01  0.74945301882E+01  0.51100000000E-03 0. -1.
        -11    1    3    3    0    0 -0.36106311353E+02  0.17167493007E+02  0.31139173231E+00  0.39981064277E+02  0.51100000000E-03 0.  1.
         12    1    3    3    0    0  0.40541409655E+02 -0.12671830659E+02 -0.22074266322E+01  0.42532974519E+02  0.00000000000E+00 0. -1.
</event>
<event>
 7    1  0.3757412E-015  0.9000773E+02  0.7816164E-02  0.1186339E+00
        -11   -1    0    0    0    0  0.00000000000E+00  0.00000000000E+00  0.45593999997E+02  0.45594000000E+02  0.51100000000E-03 0.  1.
         11   -1    0    0    0    0 -0.00000000000E+00 -0.00000000000E+00 -0.45593999997E+02  0.45594000000E+02  0.51100000000E-03 0. -1.
    9900012    2    1    2    0    0  0.47770941768E+00  0.10697757980E+01 -0.14285948284E+00  0.90007730803E+02  0.89999992050E+02 0.  0.
        -12    1    1    2    0    0 -0.47770941768E+00 -0.10697757980E+01  0.14285948284E+00  0.11802691971E+01  0.00000000000E+00 0.  1.
         11    1    3    3    0    0 -0.57631351810E+01  0.28043034191E+02 -0.15437366316E+02  0.32525955371E+02  0.51100000000E-03 0. -1.
        -11    1    3    3    0    0 -0.71234924633E+01  0.11345187959E+02 -0.16634167508E+01  0.13499051458E+02  0.51100000000E-03 0.  1.
        -12    1    3    3    0    0  0.13364337062E+02 -0.38318446352E+02  0.16957923584E+02  0.43982723975E+02  0.00000000000E+00 0.  1.
</event>
<event>
 7    1  0.3757412E-015  0.9000770E+02  0.7816164E-02  0.1186339E+00
        -11   -1    0    0    0    0  0.00000000000E+00  0.00000000000E+00  0.45593999997E+02  0.45594000000E+02  0.51100000000E-03 0.  1.
         11   -1    0    0    0    0 -0.00000000000E+00 -0.00000000000E+00 -0.45593999997E+02  0.45594000000E+02  0.51100000000E-03 0. -1.
    9900012    2    1    2    0    0  0.42669405512E+00  0.81221775006E+00 -0.74251880926E+00  0.90007703566E+02  0.89999964453E+02 0.  0.
        -12    1    1    2    0    0 -0.42669405512E+00 -0.81221775006E+00  0.74251880926E+00  0.11802964341E+01  0.00000000000E+00 0.  1.
         11    1    3    3    0    0  0.28322555298E+02  0.26819245723E+02 -0.92909029462E+01  0.40096882143E+02  0.51100000000E-03 0. -1.
        -11    1    3    3    0    0  0.63003996458E+01 -0.39782756574E+01  0.52193459579E+01  0.90974329013E+01  0.51100000000E-03 0.  1.
        -12    1    3    3    0    0 -0.34196260889E+02 -0.22028752316E+02  0.33290381790E+01  0.40813388521E+02  0.00000000000E+00 0.  1.
</event>
<event>
 7    1  0.3757412E-015  0.9000781E+02  0.7816164E-02  0.1186339E+00
        -11   -1    0    0    0    0  0.00000000000E+00  0.00000000000E+00  0.45593999997E+02  0.45594000000E+02  0.51100000000E-03 0. -1.
         11   -1    0    0    0    0 -0.00000000000E+00 -0.00000000000E+00 -0.45593999997E+02  0.45594000000E+02  0.51100000000E-03 0.  1.
    9900012    2    1    2    0    0  0.75250423129E-01  0.16194001918E-01  0.11776762503E+01  0.90007810938E+02  0.90000073242E+02 0.  0.
        -12    1    1    2    0    0 -0.75250423129E-01 -0.16194001918E-01 -0.11776762503E+01  0.11801890622E+01  0.00000000000E+00 0.  1.
         11    1    3    3    0    0 -0.14799139294E+01 -0.82664564855E+01  0.48750348859E+01  0.97103250958E+01  0.51100000000E-03 0. -1.
        -11    1    3    3    0    0  0.39556376065E+02 -0.35939104566E+01 -0.70599462093E+01  0.40341863126E+02  0.51100000000E-03 0.  1.
         12    1    3    3    0    0 -0.38001211712E+02  0.11876560944E+02  0.33625875736E+01  0.39955622716E+02  0.00000000000E+00 0. -1.
</event>
<event>
 7    1  0.3757412E-015  0.9000780E+02  0.7816164E-02  0.1186339E+00
        -11   -1    0    0    0    0  0.00000000000E+00  0.00000000000E+00  0.45593999997E+02  0.45594000000E+02  0.51100000000E-03 0. -1.
         11   -1    0    0    0    0 -0.00000000000E+00 -0.00000000000E+00 -0.45593999997E+02  0.45594000000E+02  0.51100000000E-03 0.  1.
    9900012    2    1    2    0    0 -0.31261647435E+00  0.34504788850E+00  0.10844769290E+01  0.90007797765E+02  0.90000059896E+02 0.  0.
        -12    1    1    2    0    0  0.31261647435E+00 -0.34504788850E+00 -0.10844769290E+01  0.11802022348E+01  0.00000000000E+00 0.  1.
         11    1    3    3    0    0  0.55772970930E+01 -0.67717726653E+01 -0.34599762883E+01  0.94305134574E+01  0.51100000000E-03 0. -1.
        -11    1    3    3    0    0  0.26596822188E+02  0.25017245683E+02 -0.14002765706E+02  0.39106661578E+02  0.51100000000E-03 0.  1.
         12    1    3    3    0    0 -0.32486735755E+02 -0.17900425129E+02  0.18547218924E+02  0.41470622730E+02  0.00000000000E+00 0. -1.
</event>
<event>
 7    1  0.3757412E-015  0.9000771E+02  0.7816164E-02  0.1186339E+00
        -11   -1    0    0    0    0  0.00000000000E+00  0.00000000000E+00  0.45593999997E+02  0.45594000000E+02  0.51100000000E-03 0.  1.
         11   -1    0    0    0    0 -0.00000000000E+00 -0.00000000000E+00 -0.45593999997E+02  0.45594000000E+02  0.51100000000E-03 0. -1.
    9900012    2    1    2    0    0  0.80758270009E+00  0.84026930681E+00 -0.18668780549E+00  0.90007705688E+02  0.89999966603E+02 0.  0.
        -12    1    1    2    0    0 -0.80758270009E+00 -0.84026930681E+00  0.18668780549E+00  0.11802943117E+01  0.00000000000E+00 0.  1.
         11    1    3    3    0    0  0.33511620815E+02  0.30013147972E+01  0.18929212041E+02  0.38605073358E+02  0.51100000000E-03 0. -1.
        -11    1    3    3    0    0  0.35111268931E+01 -0.80044922060E+01  0.21492852093E+01  0.90010740863E+01  0.51100000000E-03 0.  1.
        -12    1    3    3    0    0 -0.36215165008E+02  0.58434467156E+01 -0.21265185056E+02  0.42401558244E+02  0.00000000000E+00 0.  1.
</event>
<event>
 7    1  0.3757412E-015  0.9000773E+02  0.7816164E-02  0.1186339E+00
        -11   -1    0    0    0    0  0.00000000000E+00  0.00000000000E+00  0.45593999997E+02  0.45594000000E+02  0.51100000000E-03 0.  1.
         11   -1    0    0    0    0 -0.00000000000E+00 -0.00000000000E+00 -0.45593999997E+02  0.45594000000E+02  0.51100000000E-03 0. -1.
    9900012    2    1    2    0    0  0.30563331377E+00 -0.74365880879E+00 -0.86406379007E+00  0.90007726142E+02  0.89999987327E+02 0.  0.
        -12    1    1    2    0    0 -0.30563331377E+00  0.74365880879E+00  0.86406379007E+00  0.11802738579E+01  0.00000000000E+00 0.  1.
         11    1    3    3    0    0  0.28999459133E+02  0.87569465308E+01  0.19509948114E+02  0.36031802872E+02  0.51100000000E-03 0. -1.
        -11    1    3    3    0    0  0.54435375654E+01  0.80411400056E+01  0.14597973981E+01  0.98195235383E+01  0.51100000000E-03 0.  1.
        -12    1    3    3    0    0 -0.34137363385E+02 -0.17541745345E+02 -0.21833809302E+02  0.44156399732E+02  0.00000000000E+00 0.  1.
</event>
<event>
 7    1  0.3757412E-015  0.9000776E+02  0.7816164E-02  0.1186339E+00
        -11   -1    0    0    0    0  0.00000000000E+00  0.00000000000E+00  0.45593999997E+02  0.45594000000E+02  0.51100000000E-03 0. -1.
         11   -1    0    0    0    0 -0.00000000000E+00 -0.00000000000E+00 -0.45593999997E+02  0.45594000000E+02  0.51100000000E-03 0.  1.
    9900012    2    1    2    0    0  0.14556347767E+00  0.33042505353E+00  0.11236583869E+01  0.90007755274E+02  0.90000016844E+02 0.  0.
        -12    1    1    2    0    0 -0.14556347767E+00 -0.33042505353E+00 -0.11236583869E+01  0.11802447257E+01  0.00000000000E+00 0.  1.
         11    1    3    3    0    0 -0.12594436729E+01  0.47656616973E+01 -0.42408817017E+01  0.65025231755E+01  0.51100000000E-03 0. -1.
        -11    1    3    3    0    0 -0.31181910322E+02 -0.26960156091E+02  0.12876301486E+02  0.43185190609E+02  0.51100000000E-03 0.  1.
         12    1    3    3    0    0  0.32586917472E+02  0.22524919447E+02 -0.75117613976E+01  0.40320041490E+02  0.00000000000E+00 0. -1.
</event>
<event>
 7    1  0.3757412E-015  0.9000797E+02  0.7816164E-02  0.1186339E+00
        -11   -1    0    0    0    0  0.00000000000E+00  0.00000000000E+00  0.45593999997E+02  0.45594000000E+02  0.51100000000E-03 0.  1.
         11   -1    0    0    0    0 -0.00000000000E+00 -0.00000000000E+00 -0.45593999997E+02  0.45594000000E+02  0.51100000000E-03 0. -1.
    9900012    2    1    2    0    0  0.85654291258E+00 -0.81154686775E+00  0.14105371857E-01  0.90007969051E+02  0.90000233442E+02 0.  0.
        -12    1    1    2    0    0 -0.85654291258E+00  0.81154686775E+00 -0.14105371857E-01  0.11800309492E+01  0.00000000000E+00 0.  1.
         11    1    3    3    0    0 -0.95820497739E+01  0.86668278931E+01  0.44384643580E+01  0.13661242612E+02  0.51100000000E-03 0. -1.
        -11    1    3    3    0    0 -0.12569189990E+02  0.14663968278E+02  0.25192794251E+02  0.31744186634E+02  0.51100000000E-03 0.  1.
         12    1    3    3    0    0  0.23007782677E+02 -0.24142343039E+02 -0.29617153237E+02  0.44602539804E+02  0.00000000000E+00 0. -1.
</event>
<event>
 7    1  0.3757412E-015  0.9000736E+02  0.7816164E-02  0.1186340E+00
        -11   -1    0    0    0    0  0.00000000000E+00  0.00000000000E+00  0.45593999997E+02  0.45594000000E+02  0.51100000000E-03 0.  1.
         11   -1    0    0    0    0 -0.00000000000E+00 -0.00000000000E+00 -0.45593999997E+02  0.45594000000E+02  0.51100000000E-03 0. -1.
    9900012    2    1    2    0    0  0.79563306700E+00  0.41942260565E+00 -0.76483265650E+00  0.90007357678E+02  0.89999613999E+02 0.  0.
        -12    1    1    2    0    0 -0.79563306700E+00 -0.41942260565E+00  0.76483265650E+00  0.11806423217E+01  0.00000000000E+00 0.  1.
         11    1    3    3    0    0 -0.31397568517E+02  0.45266222013E+01 -0.16650141113E+02  0.35826314584E+02  0.51100000000E-03 0. -1.
        -11    1    3    3    0    0 -0.96998521853E+00 -0.58945281655E+01 -0.10287520940E+02  0.11896193550E+02  0.51100000000E-03 0.  1.
        -12    1    3    3    0    0  0.33163186803E+02  0.17873285699E+01  0.26172829397E+02  0.42284849544E+02  0.00000000000E+00 0.  1.
</event>
<event>
 7    1  0.3757412E-015  0.9000773E+02  0.7816164E-02  0.1186339E+00
        -11   -1    0    0    0    0  0.00000000000E+00  0.00000000000E+00  0.45593999997E+02  0.45594000000E+02  0.51100000000E-03 0.  1.
         11   -1    0    0    0    0 -0.00000000000E+00 -0.00000000000E+00 -0.45593999997E+02  0.45594000000E+02  0.51100000000E-03 0. -1.
    9900012    2    1    2    0    0 -0.93372793436E-01  0.70258161594E-01 -0.11744726567E+01  0.90007728544E+02  0.89999989761E+02 0.  0.
        -12    1    1    2    0    0  0.93372793436E-01 -0.70258161594E-01  0.11744726567E+01  0.11802714557E+01  0.00000000000E+00 0.  1.
         11    1    3    3    0    0  0.12984834424E+01  0.15412288095E+01  0.82662639083E+01  0.85083820292E+01  0.51100000000E-03 0. -1.
        -11    1    3    3    0    0  0.12843906718E+02  0.62350418929E+01  0.33064870838E+02  0.36015654527E+02  0.51100000000E-03 0.  1.
         12    1    3    3    0    0 -0.14235762953E+02 -0.77060125408E+01 -0.42505607403E+02  0.45483691988E+02  0.00000000000E+00 0. -1.
</event>
<event>
 7    1  0.3757412E-015  0.9000767E+02  0.7816164E-02  0.1186339E+00
        -11   -1    0    0    0    0  0.00000000000E+00  0.00000000000E+00  0.45593999997E+02  0.45594000000E+02  0.51100000000E-03 0.  1.
         11   -1    0    0    0    0 -0.00000000000E+00 -0.00000000000E+00 -0.45593999997E+02  0.45594000000E+02  0.51100000000E-03 0. -1.
    9900012    2    1    2    0    0 -0.44532035121E+00  0.10930591477E+00 -0.10876165805E+01  0.90007674696E+02  0.89999935201E+02 0.  0.
        -12    1    1    2    0    0  0.44532035121E+00 -0.10930591477E+00  0.10876165805E+01  0.11803253045E+01  0.00000000000E+00 0.  1.
         11    1    3    3    0    0  0.22329986834E+02  0.20526590780E+02 -0.24823568424E+02  0.39194116786E+02  0.51100000000E-03 0. -1.
        -11    1    3    3    0    0 -0.43055386537E+01 -0.45216640113E+01 -0.84106929546E+01  0.10474868246E+02  0.51100000000E-03 0.  1.
        -12    1    3    3    0    0 -0.18469768532E+02 -0.15895620854E+02  0.32146644798E+02  0.40338689663E+02  0.00000000000E+00 0.  1.
</event>
<event>
 7    1  0.3757412E-015  0.9000774E+02  0.7816164E-02  0.1186339E+00
        -11   -1    0    0    0    0  0.00000000000E+00  0.00000000000E+00  0.45593999997E+02  0.45594000000E+02  0.51100000000E-03 0. -1.
         11   -1    0    0    0    0 -0.00000000000E+00 -0.00000000000E+00 -0.45593999997E+02  0.45594000000E+02  0.51100000000E-03 0.  1.
    9900012    2    1    2    0    0 -0.94229224238E+00 -0.63551621772E+00  0.31815776352E+00  0.90007737362E+02  0.89999998695E+02 0.  0.
        -12    1    1    2    0    0  0.94229224238E+00  0.63551621772E+00 -0.31815776352E+00  0.11802626384E+01  0.00000000000E+00 0.  1.
         11    1    3    3    0    0 -0.25798702923E+02 -0.92725664121E+01  0.27149264338E+02  0.38582847416E+02  0.51100000000E-03 0. -1.
        -11    1    3    3    0    0  0.34734338760E+01 -0.82111089527E+01  0.44436851444E+01  0.99615958083E+01  0.51100000000E-03 0.  1.
        -12    1    3    3    0    0  0.21382976805E+02  0.16848159147E+02 -0.31274791719E+02  0.41463294137E+02  0.00000000000E+00 0.  1.
</event>
<event>
 7    1  0.3757412E-015  0.9000771E+02  0.7816164E-02  0.1186339E+00
        -11   -1    0    0    0    0  0.00000000000E+00  0.00000000000E+00  0.45593999997E+02  0.45594000000E+02  0.51100000000E-03 0.  1.
         11   -1    0    0    0    0 -0.00000000000E+00 -0.00000000000E+00 -0.45593999997E+02  0.45594000000E+02  0.51100000000E-03 0. -1.
    9900012    2    1    2    0    0 -0.10477549553E+01  0.35100067858E+00 -0.41483801420E+00  0.90007710840E+02  0.89999971823E+02 0.  0.
        -12    1    1    2    0    0  0.10477549553E+01 -0.35100067858E+00  0.41483801420E+00  0.11802891598E+01  0.00000000000E+00 0.  1.
         11    1    3    3    0    0 -0.15191522974E+01 -0.66340759040E+01  0.99409212399E+01  0.12047435501E+02  0.51100000000E-03 0. -1.
        -11    1    3    3    0    0 -0.36893021599E+01 -0.40414806967E+01  0.32785067890E+02  0.33238609980E+02  0.51100000000E-03 0.  1.
         12    1    3    3    0    0  0.41606995021E+01  0.11026557279E+02 -0.43140827144E+02  0.44721665358E+02  0.00000000000E+00 0. -1.
</event>
<event>
 7    1  0.3757412E-015  0.9000785E+02  0.7816164E-02  0.1186339E+00
        -11   -1    0    0    0    0  0.00000000000E+00  0.00000000000E+00  0.45593999997E+02  0.45594000000E+02  0.51100000000E-03 0.  1.
         11   -1    0    0    0    0 -0.00000000000E+00 -0.00000000000E+00 -0.45593999997E+02  0.45594000000E+02  0.51100000000E-03 0. -1.
    9900012    2    1    2    0    0  0.30443272671E+00 -0.92849350762E+00 -0.66180024707E+00  0.90007847872E+02  0.90000110664E+02 0.  0.
        -12    1    1    2    0    0 -0.30443272671E+00  0.92849350762E+00  0.66180024707E+00  0.11801521283E+01  0.00000000000E+00 0.  1.
         11    1    3    3    0    0 -0.10099930306E+02  0.10985613070E+02 -0.31706221240E+02  0.35042499231E+02  0.51100000000E-03 0. -1.
        -11    1    3    3    0    0  0.35168988041E+01  0.52464494013E+00 -0.10483879034E+02  0.11070480991E+02  0.51100000000E-03 0.  1.
        -12    1    3    3    0    0  0.68874642290E+01 -0.12438751518E+02  0.41528300028E+02  0.43894867650E+02  0.00000000000E+00 0.  1.
</event>
<event>
 7    1  0.3757412E-015  0.9000792E+02  0.7816164E-02  0.1186339E+00
        -11   -1    0    0    0    0  0.00000000000E+00  0.00000000000E+00  0.45593999997E+02  0.45594000000E+02  0.51100000000E-03 0. -1.
         11   -1    0    0    0    0 -0.00000000000E+00 -0.00000000000E+00 -0.45593999997E+02  0.45594000000E+02  0.51100000000E-03 0.  1.
    9900012    2    1    2    0    0  0.14291267892E-01  0.16813604999E+00  0.11679559228E+01  0.90007917372E+02  0.90000181081E+02 0.  0.
        -12    1    1    2    0    0 -0.14291267892E-01 -0.16813604999E+00 -0.11679559228E+01  0.11800826281E+01  0.00000000000E+00 0.  1.
         11    1    3    3    0    0 -0.31574618164E+01  0.85016073901E+01  0.45907408247E+01  0.10164732900E+02  0.51100000000E-03 0. -1.
        -11    1    3    3    0    0 -0.16918217224E+00  0.33423963821E+02  0.11539716719E+02  0.35360359760E+02  0.51100000000E-03 0.  1.
         12    1    3    3    0    0  0.33409352565E+01 -0.41757435161E+02 -0.14962501621E+02  0.44482824712E+02  0.00000000000E+00 0. -1.
</event>
<event>
 7    1  0.3757412E-015  0.9000832E+02  0.7816164E-02  0.1186338E+00
        -11   -1    0    0    0    0  0.00000000000E+00  0.00000000000E+00  0.45593999997E+02  0.45594000000E+02  0.51100000000E-03 0. -1.
         11   -1    0    0    0    0 -0.00000000000E+00 -0.00000000000E+00 -0.45593999997E+02  0.45594000000E+02  0.51100000000E-03 0.  1.
    9900012    2    1    2    0    0  0.45315805371E+00 -0.90426274046E+00  0.60712512697E+00  0.90008320279E+02  0.90000589304E+02 0.  0.
        -12    1    1    2    0    0 -0.45315805371E+00  0.90426274046E+00 -0.60712512697E+00  0.11796797215E+01  0.00000000000E+00 0.  1.
         11    1    3    3    0    0  0.88630805786E+00 -0.39576212339E+01 -0.85304839848E+01  0.94454997263E+01  0.51100000000E-03 0. -1.
        -11    1    3    3    0    0  0.24266853538E+02  0.19128322654E+02 -0.21815309219E+02  0.37824339052E+02  0.51100000000E-03 0.  1.
         12    1    3    3    0    0 -0.24700003542E+02 -0.16074964161E+02  0.30952918330E+02  0.42738481500E+02  0.00000000000E+00 0. -1.
</event>
<event>
 7    1  0.3757412E-015  0.9000775E+02  0.7816164E-02  0.1186339E+00
        -11   -1    0    0    0    0  0.00000000000E+00  0.00000000000E+00  0.45593999997E+02  0.45594000000E+02  0.51100000000E-03 0. -1.
         11   -1    0    0    0    0 -0.00000000000E+00 -0.00000000000E+00 -0.45593999997E+02  0.45594000000E+02  0.51100000000E-03 0.  1.
    9900012    2    1    2    0    0 -0.95822277370E-01 -0.24177073100E+00  0.11512372089E+01  0.90007753371E+02  0.90000014915E+02 0.  0.
        -12    1    1    2    0    0  0.95822277370E-01  0.24177073100E+00 -0.11512372089E+01  0.11802466294E+01  0.00000000000E+00 0.  1.
         11    1    3    3    0    0  0.21325936389E+01  0.30241024475E+01 -0.77956337672E+01  0.86293138391E+01  0.51100000000E-03 0. -1.
        -11    1    3    3    0    0  0.45236863785E+01  0.23919576392E+02 -0.26641554099E+02  0.36088533889E+02  0.51100000000E-03 0.  1.
         12    1    3    3    0    0 -0.67521022947E+01 -0.27185449570E+02  0.35588425075E+02  0.45289905642E+02  0.00000000000E+00 0. -1.
</event>
<event>
 7    1  0.3757412E-015  0.9000774E+02  0.7816164E-02  0.1186339E+00
        -11   -1    0    0    0    0  0.00000000000E+00  0.00000000000E+00  0.45593999997E+02  0.45594000000E+02  0.51100000000E-03 0.  1.
         11   -1    0    0    0    0 -0.00000000000E+00 -0.00000000000E+00 -0.45593999997E+02  0.45594000000E+02  0.51100000000E-03 0. -1.
    9900012    2    1    2    0    0 -0.59951057627E+00  0.98683383737E+00 -0.24445775668E+00  0.90007740050E+02  0.90000001419E+02 0.  0.
        -12    1    1    2    0    0  0.59951057627E+00 -0.98683383737E+00  0.24445775668E+00  0.11802599495E+01  0.00000000000E+00 0.  1.
         11    1    3    3    0    0 -0.27052218323E+01  0.21618786120E+01  0.10285056743E+02  0.10852388528E+02  0.51100000000E-03 0. -1.
        -11    1    3    3    0    0 -0.24348679606E+02  0.74629573897E+01  0.23872728597E+02  0.34906462188E+02  0.51100000000E-03 0.  1.
         12    1    3    3    0    0  0.26454390862E+02 -0.86380021643E+01 -0.34402243097E+02  0.44248889335E+02  0.00000000000E+00 0. -1.
</event>
<event>
 7    1  0.3757412E-015  0.9000773E+02  0.7816164E-02  0.1186339E+00
        -11   -1    0    0    0    0  0.00000000000E+00  0.00000000000E+00  0.45593999997E+02  0.45594000000E+02  0.51100000000E-03 0. -1.
         11   -1    0    0    0    0 -0.00000000000E+00 -0.00000000000E+00 -0.45593999997E+02  0.45594000000E+02  0.51100000000E-03 0.  1.
    9900012    2    1    2    0    0  0.92819935087E+00 -0.70966569793E+00  0.16692858835E+00  0.90007726900E+02  0.89999988095E+02 0.  0.
        -12    1    1    2    0    0 -0.92819935087E+00  0.70966569793E+00 -0.16692858835E+00  0.11802731003E+01  0.00000000000E+00 0.  1.
         11    1    3    3    0    0 -0.63812398153E+01 -0.42980052400E+01  0.59408976140E+01  0.97204596262E+01  0.51100000000E-03 0. -1.
        -11    1    3    3    0    0 -0.30597858298E+02 -0.17810865915E+02 -0.93271193819E+01  0.36612170563E+02  0.51100000000E-03 0.  1.
         12    1    3    3    0    0  0.37907297464E+02  0.21399205457E+02  0.35531503563E+01  0.43675096711E+02  0.00000000000E+00 0. -1.
</event>
<event>
 7    1  0.3757412E-015  0.9000768E+02  0.7816164E-02  0.1186339E+00
        -11   -1    0    0    0    0  0.00000000000E+00  0.00000000000E+00  0.45593999997E+02  0.45594000000E+02  0.51100000000E-03 0. -1.
         11   -1    0    0    0    0 -0.00000000000E+00 -0.00000000000E+00 -0.45593999997E+02  0.45594000000E+02  0.51100000000E-03 0.  1.
    9900012    2    1    2    0    0 -0.34804560324E+00 -0.71748330780E+00  0.87019765840E+00  0.90007677161E+02  0.89999937700E+02 0.  0.
        -12    1    1    2    0    0  0.34804560324E+00  0.71748330780E+00 -0.87019765840E+00  0.11803228387E+01  0.00000000000E+00 0.  1.
         11    1    3    3    0    0  0.38403390170E+02 -0.12010285814E+02 -0.14575232034E+02  0.42796083127E+02  0.51100000000E-03 0. -1.
        -11    1    3    3    0    0 -0.70329391234E+01  0.10111290899E+02  0.10564686347E+01  0.12361899635E+02  0.51100000000E-03 0.  1.
        -12    1    3    3    0    0 -0.31718496650E+02  0.11815116068E+01  0.14388961058E+02  0.34849694399E+02  0.00000000000E+00 0.  1.
</event>
<event>
 7    1  0.3757412E-015  0.9000774E+02  0.7816164E-02  0.1186339E+00
        -11   -1    0    0    0    0  0.00000000000E+00  0.00000000000E+00  0.45593999997E+02  0.45594000000E+02  0.51100000000E-03 0.  1.
         11   -1    0    0    0    0 -0.00000000000E+00 -0.00000000000E+00 -0.45593999997E+02  0.45594000000E+02  0.51100000000E-03 0. -1.
    9900012    2    1    2    0    0 -0.81558541119E+00 -0.34736338101E+00 -0.77920981761E+00  0.90007742053E+02  0.90000003448E+02 0.  0.
        -12    1    1    2    0    0  0.81558541119E+00  0.34736338101E+00  0.77920981761E+00  0.11802579469E+01  0.00000000000E+00 0.  1.
         11    1    3    3    0    0  0.37137535449E+02  0.12031763544E+02  0.77332988704E+01  0.39796529810E+02  0.51100000000E-03 0. -1.
        -11    1    3    3    0    0  0.34911814977E+01  0.10459646093E+01  0.34664879691E+01  0.50298041030E+01  0.51100000000E-03 0.  1.
        -12    1    3    3    0    0 -0.41444302358E+02 -0.13425091534E+02 -0.11978996657E+02  0.45181408140E+02  0.00000000000E+00 0.  1.
</event>
<event>
 7    1  0.3757412E-015  0.9000765E+02  0.7816164E-02  0.1186339E+00
        -11   -1    0    0    0    0  0.00000000000E+00  0.00000000000E+00  0.45593999997E+02  0.45594000000E+02  0.51100000000E-03 0. -1.
         11   -1    0    0    0    0 -0.00000000000E+00 -0.00000000000E+00 -0.45593999997E+02  0.45594000000E+02  0.51100000000E-03 0.  1.
    9900012    2    1    2    0    0  0.16437036128E+00 -0.27987670794E+00  0.11348481514E+01  0.90007648818E+02  0.89999908982E+02 0.  0.
        -12    1    1    2    0    0 -0.16437036128E+00  0.27987670794E+00 -0.11348481514E+01  0.11803511825E+01  0.00000000000E+00 0.  1.
         11    1    3    3    0    0 -0.17787756856E+01  0.67694575096E+01  0.85243884080E+01  0.11029723292E+02  0.51100000000E-03 0. -1.
        -11    1    3    3    0    0 -0.35676238749E+02 -0.14346301079E+02  0.48333042309E+01  0.38755273137E+02  0.51100000000E-03 0.  1.
         12    1    3    3    0    0  0.37619384795E+02  0.72969668611E+01 -0.12222844488E+02  0.40222652388E+02  0.00000000000E+00 0. -1.
</event>
<event>
 7    1  0.3757412E-015  0.9000776E+02  0.7816164E-02  0.1186339E+00
        -11   -1    0    0    0    0  0.00000000000E+00  0.00000000000E+00  0.45593999997E+02  0.45594000000E+02  0.51100000000E-03 0.  1.
         11   -1    0    0    0    0 -0.00000000000E+00 -0.00000000000E+00 -0.45593999997E+02  0.45594000000E+02  0.51100000000E-03 0. -1.
    9900012    2    1    2    0    0  0.97400057553E+00  0.66316971192E+00  0.66986904116E-01  0.90007763399E+02  0.90000025076E+02 0.  0.
        -12    1    1    2    0    0 -0.97400057553E+00 -0.66316971192E+00 -0.66986904116E-01  0.11802366005E+01  0.00000000000E+00 0.  1.
         11    1    3    3    0    0  0.25011140903E+01  0.22116329726E+01  0.28113799189E+01  0.43647164178E+01  0.51100000000E-03 0. -1.
        -11    1    3    3    0    0  0.19500996863E+00 -0.26384781319E+02  0.32894750264E+02  0.42169412010E+02  0.51100000000E-03 0.  1.
         12    1    3    3    0    0 -0.17221234834E+01  0.24836318058E+02 -0.35639143279E+02  0.43473634971E+02  0.00000000000E+00 0. -1.
</event>
<event>
 7    1  0.3757412E-015  0.9000781E+02  0.7816164E-02  0.1186339E+00
        -11   -1    0    0    0    0  0.00000000000E+00  0.00000000000E+00  0.45593999997E+02  0.45594000000E+02  0.51100000000E-03 0. -1.
         11   -1    0    0    0    0 -0.00000000000E+00 -0.00000000000E+00 -0.45593999997E+02  0.45594000000E+02  0.51100000000E-03 0.  1.
    9900012    2    1    2    0    0  0.10190689176E+01 -0.25066552530E+00 -0.53992463617E+00  0.90007807949E+02  0.90000070214E+02 0.  0.
        -12    1    1    2    0    0 -0.10190689176E+01  0.25066552530E+00  0.53992463617E+00  0.11801920510E+01  0.00000000000E+00 0.  1.
         11    1    3    3    0    0  0.34955299895E+01  0.18187315922E+02  0.34781156102E+02  0.39404644528E+02  0.51100000000E-03 0. -1.
        -11    1    3    3    0    0 -0.98896140163E+01 -0.45951551504E+01  0.10811248313E+01  0.10958501148E+02  0.51100000000E-03 0.  1.
        -12    1    3    3    0    0  0.74131529444E+01 -0.13842826297E+02 -0.36402205569E+02  0.39644662273E+02  0.00000000000E+00 0.  1.
</event>
<event>
 7    1  0.3757412E-015  0.9000770E+02  0.7816164E-02  0.1186339E+00
        -11   -1    0    0    0    0  0.00000000000E+00  0.00000000000E+00  0.45593999997E+02  0.45594000000E+02  0.51100000000E-03 0. -1.
         11   -1    0    0    0    0 -0.00000000000E+00 -0.00000000000E+00 -0.45593999997E+02  0.45594000000E+02  0.51100000000E-03 0.  1.
    9900012    2    1    2    0    0  0.41500884179E+00 -0.91865516869E+00 -0.61396638898E+00  0.90007697334E+02  0.89999958138E+02 0.  0.
        -12    1    1    2    0    0 -0.41500884179E+00  0.91865516869E+00  0.61396638898E+00  0.11803026665E+01  0.00000000000E+00 0.  1.
         11    1    3    3    0    0  0.88683254250E+01 -0.49100432752E+01  0.36736220133E+02  0.38109127394E+02  0.51100000000E-03 0. -1.
        -11    1    3    3    0    0 -0.19916553442E+00  0.95819445425E+01  0.32285291264E+01  0.10113195771E+02  0.51100000000E-03 0.  1.
        -12    1    3    3    0    0 -0.82541510488E+01 -0.55905564359E+01 -0.40578715648E+02  0.41785374169E+02  0.00000000000E+00 0.  1.
</event>
<event>
 7    1  0.3757412E-015  0.9000772E+02  0.7816164E-02  0.1186339E+00
        -11   -1    0    0    0    0  0.00000000000E+00  0.00000000000E+00  0.45593999997E+02  0.45594000000E+02  0.51100000000E-03 0.  1.
         11   -1    0    0    0    0 -0.00000000000E+00 -0.00000000000E+00 -0.45593999997E+02  0.45594000000E+02  0.51100000000E-03 0. -1.
    9900012    2    1    2    0    0  0.71615558172E+00  0.68695142639E+00 -0.63897494165E+00  0.90007716112E+02  0.89999977165E+02 0.  0.
        -12    1    1    2    0    0 -0.71615558172E+00 -0.68695142639E+00  0.63897494165E+00  0.11802838877E+01  0.00000000000E+00 0.  1.
         11    1    3    3    0    0 -0.93507613504E+01  0.28834334612E+00 -0.16526326198E+01  0.95000565553E+01  0.51100000000E-03 0. -1.
        -11    1    3    3    0    0  0.20355038682E+01 -0.35984924103E+02 -0.16137554243E+02  0.39490235451E+02  0.51100000000E-03 0.  1.
         12    1    3    3    0    0  0.80314130639E+01  0.36383532184E+02  0.17151211921E+02  0.41017424106E+02  0.00000000000E+00 0. -1.
</event>
<event>
 7    1  0.3757412E-015  0.9000775E+02  0.7816164E-02  0.1186339E+00
        -11   -1    0    0    0    0  0.00000000000E+00  0.00000000000E+00  0.45593999997E+02  0.45594000000E+02  0.51100000000E-03 0.  1.
         11   -1    0    0    0    0 -0.00000000000E+00 -0.00000000000E+00 -0.45593999997E+02  0.45594000000E+02  0.51100000000E-03 0. -1.
    9900012    2    1    2    0    0  0.96685049968E+00 -0.17059392241E-01 -0.67668346932E+00  0.90007749421E+02  0.90000010913E+02 0.  0.
        -12    1    1    2    0    0 -0.96685049968E+00  0.17059392241E-01  0.67668346932E+00  0.11802505790E+01  0.00000000000E+00 0.  1.
         11    1    3    3    0    0  0.64010257043E+01  0.70786956705E+01 -0.95470788964E+00  0.95912736317E+01  0.51100000000E-03 0. -1.
        -11    1    3    3    0    0  0.33629616153E+02  0.12461907349E+02  0.59809967444E+01  0.36359627882E+02  0.51100000000E-03 0.  1.
         12    1    3    3    0    0 -0.39063791357E+02 -0.19557662412E+02 -0.57029723241E+01  0.44056847908E+02  0.00000000000E+00 0. -1.
</event>
<event>
 7    1  0.3757412E-015  0.9000777E+02  0.7816164E-02  0.1186339E+00
        -11   -1    0    0    0    0  0.00000000000E+00  0.00000000000E+00  0.45593999997E+02  0.45594000000E+02  0.51100000000E-03 0. -1.
         11   -1    0    0    0    0 -0.00000000000E+00 -0.00000000000E+00 -0.45593999997E+02  0.45594000000E+02  0.51100000000E-03 0.  1.
    9900012    2    1    2    0    0  0.59576058909E+00  0.97744227294E+00  0.28741470772E+00  0.90007774898E+02  0.90000036727E+02 0.  0.
        -12    1    1    2    0    0 -0.59576058909E+00 -0.97744227294E+00 -0.28741470772E+00  0.11802251017E+01  0.00000000000E+00 0.  1.
         11    1    3    3    0    0 -0.42965243495E+01 -0.52341224487E+01  0.48067867959E+01  0.83042976136E+01  0.51100000000E-03 0. -1.
        -11    1    3    3    0    0 -0.14187643874E+02 -0.33634667065E+02  0.39587288099E+01  0.36718545741E+02  0.51100000000E-03 0.  1.
         12    1    3    3    0    0  0.19079928813E+02  0.39846231787E+02 -0.84781008981E+01  0.44984931543E+02  0.00000000000E+00 0. -1.
</event>
<event>
 7    1  0.3757412E-015  0.9000774E+02  0.7816164E-02  0.1186339E+00
        -11   -1    0    0    0    0  0.00000000000E+00  0.00000000000E+00  0.45593999997E+02  0.45594000000E+02  0.51100000000E-03 0.  1.
         11   -1    0    0    0    0 -0.00000000000E+00 -0.00000000000E+00 -0.45593999997E+02  0.45594000000E+02  0.51100000000E-03 0. -1.
    9900012    2    1    2    0    0 -0.29139544600E+00 -0.91425487344E+00 -0.68719648451E+00  0.90007740585E+02  0.90000001960E+02 0.  0.
        -12    1    1    2    0    0  0.29139544600E+00  0.91425487344E+00  0.68719648451E+00  0.11802594155E+01  0.00000000000E+00 0.  1.
         11    1    3    3    0    0 -0.70274556334E+01 -0.63861443135E+01 -0.15887407465E+01  0.96276720599E+01  0.51100000000E-03 0. -1.
        -11    1    3    3    0    0  0.86820225553E+01 -0.31117695776E+02  0.21055384952E+02  0.38561869013E+02  0.51100000000E-03 0.  1.
         12    1    3    3    0    0 -0.19459623679E+01  0.36589585216E+02 -0.20153840690E+02  0.41818199511E+02  0.00000000000E+00 0. -1.
</event>
<event>
 7    1  0.3757412E-015  0.9000773E+02  0.7816164E-02  0.1186339E+00
        -11   -1    0    0    0    0  0.00000000000E+00  0.00000000000E+00  0.45593999997E+02  0.45594000000E+02  0.51100000000E-03 0.  1.
         11   -1    0    0    0    0 -0.00000000000E+00 -0.00000000000E+00 -0.45593999997E+02  0.45594000000E+02  0.51100000000E-03 0. -1.
    9900012    2    1    2    0    0 -0.24561760352E+00  0.10878951475E+01  0.38624826791E+00  0.90007732410E+02  0.89999993678E+02 0.  0.
        -12    1    1    2    0    0  0.24561760352E+00 -0.10878951475E+01 -0.38624826791E+00  0.11802675898E+01  0.00000000000E+00 0.  1.
         11    1    3    3    0    0  0.33002857173E+02  0.95252730884E+01 -0.42691929495E+01  0.34614237211E+02  0.51100000000E-03 0. -1.
        -11    1    3    3    0    0  0.72917960622E+01  0.39243403430E+01  0.96514553762E+01  0.12716970083E+02  0.51100000000E-03 0.  1.
        -12    1    3    3    0    0 -0.40540270839E+02 -0.12361718284E+02 -0.49960141588E+01  0.42676525117E+02  0.00000000000E+00 0.  1.
</event>
<event>
 7    1  0.3757412E-015  0.9000767E+02  0.7816164E-02  0.1186339E+00
        -11   -1    0    0    0    0  0.00000000000E+00  0.00000000000E+00  0.45593999997E+02  0.45594000000E+02  0.51100000000E-03 0.  1.
         11   -1    0    0    0    0 -0.00000000000E+00 -0.00000000000E+00 -0.45593999997E+02  0.45594000000E+02  0.51100000000E-03 0. -1.
    9900012    2    1    2    0    0  0.22160414654E+00  0.10855227658E+01  0.40708489781E+00  0.90007666917E+02  0.89999927320E+02 0.  0.
        -12    1    1    2    0    0 -0.22160414654E+00 -0.10855227658E+01 -0.40708489781E+00  0.11803330830E+01  0.00000000000E+00 0.  1.
         11    1    3    3    0    0  0.36581467772E+01  0.48991070309E+01 -0.11521358648E+00  0.61152728455E+01  0.51100000000E-03 0. -1.
        -11    1    3    3    0    0  0.33644890153E+02  0.19363580718E+02  0.77081529278E+01  0.39577045285E+02  0.51100000000E-03 0.  1.
         12    1    3    3    0    0 -0.37081432784E+02 -0.23177164983E+02 -0.71858544435E+01  0.44315348787E+02  0.00000000000E+00 0. -1.
</event>
<event>
 7    1  0.3757412E-015  0.9000787E+02  0.7816164E-02  0.1186339E+00
        -11   -1    0    0    0    0  0.00000000000E+00  0.00000000000E+00  0.45593999997E+02  0.45594000000E+02  0.51100000000E-03 0.  1.
         11   -1    0    0    0    0 -0.00000000000E+00 -0.00000000000E+00 -0.45593999997E+02  0.45594000000E+02  0.51100000000E-03 0. -1.
    9900012    2    1    2    0    0  0.29485814529E+00 -0.42595312452E+00 -0.10603411604E+01  0.90007872563E+02  0.90000135681E+02 0.  0.
        -12    1    1    2    0    0 -0.29485814529E+00  0.42595312452E+00  0.10603411604E+01  0.11801274366E+01  0.00000000000E+00 0.  1.
         11    1    3    3    0    0  0.57241371324E+01  0.67528310023E+01 -0.15876052135E+01  0.89937179760E+01  0.51100000000E-03 0. -1.
        -11    1    3    3    0    0  0.28464882465E+02  0.19378085901E+02  0.11977870519E+02  0.36458594725E+02  0.51100000000E-03 0.  1.
         12    1    3    3    0    0 -0.33894161452E+02 -0.26556870028E+02 -0.11450606466E+02  0.44555559862E+02  0.00000000000E+00 0. -1.
</event>
<event>
 7    1  0.3757412E-015  0.9000752E+02  0.7816164E-02  0.1186339E+00
        -11   -1    0    0    0    0  0.00000000000E+00  0.00000000000E+00  0.45593999997E+02  0.45594000000E+02  0.51100000000E-03 0. -1.
         11   -1    0    0    0    0 -0.00000000000E+00 -0.00000000000E+00 -0.45593999997E+02  0.45594000000E+02  0.51100000000E-03 0.  1.
    9900012    2    1    2    0    0 -0.10942305148E+01  0.42310933837E+00 -0.13101608531E+00  0.90007522492E+02  0.89999780989E+02 0.  0.
        -12    1    1    2    0    0  0.10942305148E+01 -0.42310933837E+00  0.13101608531E+00  0.11804775078E+01  0.00000000000E+00 0.  1.
         11    1    3    3    0    0 -0.11937267060E+00 -0.78542899708E+01  0.10788215778E+02  0.13345026067E+02  0.51100000000E-03 0. -1.
        -11    1    3    3    0    0  0.20302730803E+02 -0.89555733215E+01  0.23737795268E+02  0.32494400995E+02  0.51100000000E-03 0.  1.
         12    1    3    3    0    0 -0.21277588648E+02  0.17232972631E+02 -0.34657027131E+02  0.44168095430E+02  0.00000000000E+00 0. -1.
</event>
<event>
 7    1  0.3757412E-015  0.9000771E+02  0.7816164E-02  0.1186339E+00
        -11   -1    0    0    0    0  0.00000000000E+00  0.00000000000E+00  0.45593999997E+02  0.45594000000E+02  0.51100000000E-03 0.  1.
         11   -1    0    0    0    0 -0.00000000000E+00 -0.00000000000E+00 -0.45593999997E+02  0.45594000000E+02  0.51100000000E-03 0. -1.
    9900012    2    1    2    0    0  0.10060591964E+01  0.61628642511E+00 -0.33639363164E-01  0.90007705261E+02  0.89999966170E+02 0.  0.
        -12    1    1    2    0    0 -0.10060591964E+01 -0.61628642511E+00  0.33639363164E-01  0.11802947391E+01  0.00000000000E+00 0.  1.
         11    1    3    3    0    0  0.10394564142E+02 -0.24502815647E+01  0.15707575812E+01  0.10794356076E+02  0.51100000000E-03 0. -1.
        -11    1    3    3    0    0 -0.11220302613E+02 -0.37008013573E+02 -0.48076395198E+01  0.38969239887E+02  0.51100000000E-03 0.  1.
         12    1    3    3    0    0  0.18317976673E+01  0.40074581563E+02  0.32032425754E+01  0.40244109298E+02  0.00000000000E+00 0. -1.
</event>
<event>
 7    1  0.3757412E-015  0.9000769E+02  0.7816164E-02  0.1186339E+00
        -11   -1    0    0    0    0  0.00000000000E+00  0.00000000000E+00  0.45593999997E+02  0.45594000000E+02  0.51100000000E-03 0.  1.
         11   -1    0    0    0    0 -0.00000000000E+00 -0.00000000000E+00 -0.45593999997E+02  0.45594000000E+02  0.51100000000E-03 0. -1.
    9900012    2    1    2    0    0 -0.69221710059E+00 -0.89656300911E+00  0.33186683570E+00  0.90007692692E+02  0.89999953436E+02 0.  0.
        -12    1    1    2    0    0  0.69221710059E+00  0.89656300911E+00 -0.33186683570E+00  0.11803073076E+01  0.00000000000E+00 0.  1.
         11    1    3    3    0    0 -0.28515086358E+02  0.24045767615E+02 -0.15264505814E+02  0.40302781891E+02  0.51100000000E-03 0. -1.
        -11    1    3    3    0    0  0.61633849036E+01 -0.92164798580E+01 -0.82791303104E+01  0.13837442444E+02  0.51100000000E-03 0.  1.
        -12    1    3    3    0    0  0.21659484353E+02 -0.15725850766E+02  0.23875502960E+02  0.35867468357E+02  0.00000000000E+00 0.  1.
</event>
<event>
 7    1  0.3757412E-015  0.9000772E+02  0.7816164E-02  0.1186339E+00
        -11   -1    0    0    0    0  0.00000000000E+00  0.00000000000E+00  0.45593999997E+02  0.45594000000E+02  0.51100000000E-03 0.  1.
         11   -1    0    0    0    0 -0.00000000000E+00 -0.00000000000E+00 -0.45593999997E+02  0.45594000000E+02  0.51100000000E-03 0. -1.
    9900012    2    1    2    0    0 -0.39016065224E+00 -0.73302761726E+00 -0.83875237706E+00  0.90007720214E+02  0.89999981321E+02 0.  0.
        -12    1    1    2    0    0  0.39016065224E+00  0.73302761726E+00  0.83875237706E+00  0.11802797856E+01  0.00000000000E+00 0.  1.
         11    1    3    3    0    0  0.16259816906E+02  0.22025522595E+01 -0.33447086979E+02  0.37255073613E+02  0.51100000000E-03 0. -1.
        -11    1    3    3    0    0 -0.30888737453E+01 -0.30481354819E+01 -0.84572777953E+01  0.95056729850E+01  0.51100000000E-03 0.  1.
        -12    1    3    3    0    0 -0.13561103813E+02  0.11255560518E+00  0.41065612397E+02  0.43246973616E+02  0.00000000000E+00 0.  1.
</event>
<event>
 7    1  0.3757412E-015  0.9000814E+02  0.7816164E-02  0.1186338E+00
        -11   -1    0    0    0    0  0.00000000000E+00  0.00000000000E+00  0.45593999997E+02  0.45594000000E+02  0.51100000000E-03 0.  1.
         11   -1    0    0    0    0 -0.00000000000E+00 -0.00000000000E+00 -0.45593999997E+02  0.45594000000E+02  0.51100000000E-03 0. -1.
    9900012    2    1    2    0    0 -0.11324757807E+01 -0.22065365288E+00  0.24676245604E+00  0.90008135119E+02  0.90000401701E+02 0.  0.
        -12    1    1    2    0    0  0.11324757807E+01  0.22065365288E+00 -0.24676245604E+00  0.11798648813E+01  0.00000000000E+00 0.  1.
         11    1    3    3    0    0  0.24862825465E+02 -0.24473598066E+02 -0.21303838121E+02  0.40877507402E+02  0.51100000000E-03 0. -1.
        -11    1    3    3    0    0 -0.64068780983E+01  0.13235044659E+01 -0.55548010256E+01  0.85822820818E+01  0.51100000000E-03 0.  1.
        -12    1    3    3    0    0 -0.19588423148E+02  0.22929439947E+02  0.27105401603E+02  0.40548345635E+02  0.00000000000E+00 0.  1.
</event>
<event>
 7    1  0.3757412E-015  0.9000779E+02  0.7816164E-02  0.1186339E+00
        -11   -1    0    0    0    0  0.00000000000E+00  0.00000000000E+00  0.45593999997E+02  0.45594000000E+02  0.51100000000E-03 0.  1.
         11   -1    0    0    0    0 -0.00000000000E+00 -0.00000000000E+00 -0.45593999997E+02  0.45594000000E+02  0.51100000000E-03 0. -1.
    9900012    2    1    2    0    0 -0.94518761639E+00 -0.31238280405E+00 -0.63398666350E+00  0.90007787419E+02  0.90000049413E+02 0.  0.
        -12    1    1    2    0    0  0.94518761639E+00  0.31238280405E+00  0.63398666350E+00  0.11802125808E+01  0.00000000000E+00 0.  1.
         11    1    3    3    0    0 -0.76375708197E+01  0.39389049107E+02 -0.15253664675E+02  0.42924398235E+02  0.51100000000E-03 0. -1.
        -11    1    3    3    0    0  0.59310774120E+01 -0.20043471801E+01  0.54001372844E+01  0.82678032051E+01  0.51100000000E-03 0.  1.
        -12    1    3    3    0    0  0.76130579125E+00 -0.37697084730E+02  0.92195407274E+01  0.38815585979E+02  0.00000000000E+00 0.  1.
</event>
<event>
 7    1  0.3757412E-015  0.9000775E+02  0.7816164E-02  0.1186339E+00
        -11   -1    0    0    0    0  0.00000000000E+00  0.00000000000E+00  0.45593999997E+02  0.45594000000E+02  0.51100000000E-03 0. -1.
         11   -1    0    0    0    0 -0.00000000000E+00 -0.00000000000E+00 -0.45593999997E+02  0.45594000000E+02  0.51100000000E-03 0.  1.
    9900012    2    1    2    0    0 -0.14816547924E+00 -0.99168632883E+00  0.62257276626E+00  0.90007749335E+02  0.90000010826E+02 0.  0.
        -12    1    1    2    0    0  0.14816547924E+00  0.99168632883E+00 -0.62257276626E+00  0.11802506655E+01  0.00000000000E+00 0.  1.
         11    1    3    3    0    0  0.26294473698E+02 -0.64080365751E+01  0.20254545084E+02  0.33803977231E+02  0.51100000000E-03 0. -1.
        -11    1    3    3    0    0  0.39706912572E+01  0.10104083016E+02  0.90526086317E+01  0.14135367202E+02  0.51100000000E-03 0.  1.
        -12    1    3    3    0    0 -0.30413330435E+02 -0.46877327693E+01 -0.28684580950E+02  0.42068404901E+02  0.00000000000E+00 0.  1.
</event>
<event>
 7    1  0.3757412E-015  0.9000773E+02  0.7816164E-02  0.1186339E+00
        -11   -1    0    0    0    0  0.00000000000E+00  0.00000000000E+00  0.45593999997E+02  0.45594000000E+02  0.51100000000E-03 0.  1.
         11   -1    0    0    0    0 -0.00000000000E+00 -0.00000000000E+00 -0.45593999997E+02  0.45594000000E+02  0.51100000000E-03 0. -1.
    9900012    2    1    2    0    0  0.56276170474E-01  0.63177986181E+00 -0.99535015628E+00  0.90007731075E+02  0.89999992325E+02 0.  0.
        -12    1    1    2    0    0 -0.56276170474E-01 -0.63177986181E+00  0.99535015628E+00  0.11802689248E+01  0.00000000000E+00 0.  1.
         11    1    3    3    0    0 -0.76011124002E+01 -0.11789311583E+01  0.45770672997E+01  0.89507728004E+01  0.51100000000E-03 0. -1.
        -11    1    3    3    0    0 -0.30321773224E+02  0.13858765583E+02  0.14601884056E+02  0.36396295597E+02  0.51100000000E-03 0.  1.
         12    1    3    3    0    0  0.37979161794E+02 -0.12048054562E+02 -0.20174301513E+02  0.44660662678E+02  0.00000000000E+00 0. -1.
</event>
<event>
 7    1  0.3757412E-015  0.9000784E+02  0.7816164E-02  0.1186339E+00
        -11   -1    0    0    0    0  0.00000000000E+00  0.00000000000E+00  0.45593999997E+02  0.45594000000E+02  0.51100000000E-03 0.  1.
         11   -1    0    0    0    0 -0.00000000000E+00 -0.00000000000E+00 -0.45593999997E+02  0.45594000000E+02  0.51100000000E-03 0. -1.
    9900012    2    1    2    0    0 -0.88309518592E+00  0.58777702014E+00  0.51715236859E+00  0.90007836662E+02  0.90000099306E+02 0.  0.
        -12    1    1    2    0    0  0.88309518592E+00 -0.58777702014E+00 -0.51715236859E+00  0.11801633383E+01  0.00000000000E+00 0.  1.
         11    1    3    3    0    0 -0.12413992648E+02 -0.88666149287E+01 -0.34446833098E+02  0.37673709460E+02  0.51100000000E-03 0. -1.
        -11    1    3    3    0    0 -0.96161003494E+01  0.92177892932E+00 -0.10402066536E+01  0.97160224613E+01  0.51100000000E-03 0.  1.
        -12    1    3    3    0    0  0.21146997812E+02  0.85326130195E+01  0.36004192120E+02  0.42618104740E+02  0.00000000000E+00 0.  1.
</event>
<event>
 7    1  0.3757412E-015  0.9000771E+02  0.7816164E-02  0.1186339E+00
        -11   -1    0    0    0    0  0.00000000000E+00  0.00000000000E+00  0.45593999997E+02  0.45594000000E+02  0.51100000000E-03 0. -1.
         11   -1    0    0    0    0 -0.00000000000E+00 -0.00000000000E+00 -0.45593999997E+02  0.45594000000E+02  0.51100000000E-03 0.  1.
    9900012    2    1    2    0    0  0.36117322728E+00 -0.26746026726E+00 -0.10913751213E+01  0.90007711582E+02  0.89999972575E+02 0.  0.
        -12    1    1    2    0    0 -0.36117322728E+00  0.26746026726E+00  0.10913751213E+01  0.11802884182E+01  0.00000000000E+00 0.  1.
         11    1    3    3    0    0  0.39482809909E+02  0.18282067649E+02  0.32728396534E+01  0.43632989303E+02  0.51100000000E-03 0. -1.
        -11    1    3    3    0    0 -0.78507486952E+01 -0.11754755166E+02 -0.21461556530E+01  0.14297360192E+02  0.51100000000E-03 0.  1.
        -12    1    3    3    0    0 -0.31270887987E+02 -0.67947727498E+01 -0.22180591218E+01  0.32077362087E+02  0.00000000000E+00 0.  1.
</event>
<event>
 7    1  0.3757412E-015  0.9000756E+02  0.7816164E-02  0.1186339E+00
        -11   -1    0    0    0    0  0.00000000000E+00  0.00000000000E+00  0.45593999997E+02  0.45594000000E+02  0.51100000000E-03 0.  1.
         11   -1    0    0    0    0 -0.00000000000E+00 -0.00000000000E+00 -0.45593999997E+02  0.45594000000E+02  0.51100000000E-03 0. -1.
    9900012    2    1    2    0    0 -0.85597310191E+00 -0.60250651304E+00 -0.54564586188E+00  0.90007562176E+02  0.89999821197E+02 0.  0.
        -12    1    1    2    0    0  0.85597310191E+00  0.60250651304E+00  0.54564586188E+00  0.11804378239E+01  0.00000000000E+00 0.  1.
         11    1    3    3    0    0  0.34614837371E+01  0.24548167630E+02 -0.10916011604E+02  0.27087888682E+02  0.51100000000E-03 0. -1.
        -11    1    3    3    0    0  0.15010593195E+02 -0.94677745058E+01  0.27482441233E+02  0.32714541699E+02  0.51100000000E-03 0.  1.
         12    1    3    3    0    0 -0.19328050034E+02 -0.15682899637E+02 -0.17112075491E+02  0.30205131795E+02  0.00000000000E+00 0. -1.
</event>
<event>
 7    1  0.3757412E-015  0.9000759E+02  0.7816164E-02  0.1186339E+00
        -11   -1    0    0    0    0  0.00000000000E+00  0.00000000000E+00  0.45593999997E+02  0.45594000000E+02  0.51100000000E-03 0.  1.
         11   -1    0    0    0    0 -0.00000000000E+00 -0.00000000000E+00 -0.45593999997E+02  0.45594000000E+02  0.51100000000E-03 0. -1.
    9900012    2    1    2    0    0 -0.34969467263E+00  0.11268097143E+01  0.37083986238E-01  0.90007592563E+02  0.89999851984E+02 0.  0.
        -12    1    1    2    0    0  0.34969467263E+00 -0.11268097143E+01 -0.37083986238E-01  0.11804074375E+01  0.00000000000E+00 0.  1.
         11    1    3    3    0    0  0.40020376241E+01 -0.28076313139E+01 -0.15595441913E+01  0.51314010840E+01  0.51100000000E-03 0. -1.
        -11    1    3    3    0    0 -0.12092746378E+02 -0.15604452913E+02  0.38011178551E+02  0.42832034282E+02  0.51100000000E-03 0.  1.
         12    1    3    3    0    0  0.77410140809E+01  0.19538893942E+02 -0.36414550373E+02  0.42044157196E+02  0.00000000000E+00 0. -1.
</event>
<event>
 7    1  0.3757412E-015  0.9000772E+02  0.7816164E-02  0.1186339E+00
        -11   -1    0    0    0    0  0.00000000000E+00  0.00000000000E+00  0.45593999997E+02  0.45594000000E+02  0.51100000000E-03 0.  1.
         11   -1    0    0    0    0 -0.00000000000E+00 -0.00000000000E+00 -0.45593999997E+02  0.45594000000E+02  0.51100000000E-03 0. -1.
    9900012    2    1    2    0    0  0.20813778233E-01  0.11491120587E+01 -0.26862922859E+00  0.90007723168E+02  0.89999984314E+02 0.  0.
        -12    1    1    2    0    0 -0.20813778233E-01 -0.11491120587E+01  0.26862922859E+00  0.11802768316E+01  0.00000000000E+00 0.  1.
         11    1    3    3    0    0  0.43773355676E+01 -0.50526908414E+01 -0.41091476337E+02  0.41631720830E+02  0.51100000000E-03 0. -1.
        -11    1    3    3    0    0  0.70703720762E+01  0.48454508607E+01  0.33951330482E+01  0.92192995404E+01  0.51100000000E-03 0.  1.
        -12    1    3    3    0    0 -0.11426893866E+02  0.13563520394E+01  0.37427714060E+02  0.39156702798E+02  0.00000000000E+00 0.  1.
</event>
<event>
 7    1  0.4581700E-015  0.9000776E+02  0.7816164E-02  0.1186339E+00
        -11   -1    0    0    0    0  0.00000000000E+00  0.00000000000E+00  0.45593999997E+02  0.45594000000E+02  0.51100000000E-03 0.  1.
         11   -1    0    0    0    0 -0.00000000000E+00 -0.00000000000E+00 -0.45593999997E+02  0.45594000000E+02  0.51100000000E-03 0. -1.
    9900012    2    1    2    0    0 -0.49699423758E+00 -0.13465770941E+00 -0.10619976040E+01  0.90007756431E+02  0.90000018016E+02 0.  0.
        -12    1    1    2    0    0  0.49699423758E+00  0.13465770941E+00  0.10619976040E+01  0.11802435688E+01  0.00000000000E+00 0.  1.
         11    1    3    3    0    0  0.19475452317E+01  0.94755463585E+01 -0.42047291222E+02  0.43145725288E+02  0.51100000000E-03 0. -1.
        -11    1    3    3    0    0 -0.99542000567E+00 -0.88469098425E+01  0.38648120153E+01  0.97054338865E+01  0.51100000000E-03 0.  1.
        -12    1    3    3    0    0 -0.14491194636E+01 -0.76329422536E+00  0.37120481603E+02  0.37156597257E+02  0.00000000000E+00 0.  1.
</event>
<event>
 7    1  0.3757412E-015  0.9000783E+02  0.7816164E-02  0.1186339E+00
        -11   -1    0    0    0    0  0.00000000000E+00  0.00000000000E+00  0.45593999997E+02  0.45594000000E+02  0.51100000000E-03 0.  1.
         11   -1    0    0    0    0 -0.00000000000E+00 -0.00000000000E+00 -0.45593999997E+02  0.45594000000E+02  0.51100000000E-03 0. -1.
    9900012    2    1    2    0    0  0.12002845005E+00  0.47806337718E+00 -0.10723080429E+01  0.90007832232E+02  0.90000094818E+02 0.  0.
        -12    1    1    2    0    0 -0.12002845005E+00 -0.47806337718E+00  0.10723080429E+01  0.11801677679E+01  0.00000000000E+00 0.  1.
         11    1    3    3    0    0  0.35979954206E+02 -0.42681852342E+01 -0.95316353062E+01  0.37465004761E+02  0.51100000000E-03 0. -1.
        -11    1    3    3    0    0  0.39631224014E+01 -0.64339087573E+01 -0.49819025649E+01  0.90510151084E+01  0.51100000000E-03 0.  1.
        -12    1    3    3    0    0 -0.39823048157E+02  0.11180157369E+02  0.13441229828E+02  0.43491812363E+02  0.00000000000E+00 0.  1.
</event>
<event>
 7    1  0.3757412E-015  0.9000769E+02  0.7816164E-02  0.1186339E+00
        -11   -1    0    0    0    0  0.00000000000E+00  0.00000000000E+00  0.45593999997E+02  0.45594000000E+02  0.51100000000E-03 0.  1.
         11   -1    0    0    0    0 -0.00000000000E+00 -0.00000000000E+00 -0.45593999997E+02  0.45594000000E+02  0.51100000000E-03 0. -1.
    9900012    2    1    2    0    0  0.40044206434E+00 -0.10860613119E+01  0.23076648252E+00  0.90007688097E+02  0.89999948779E+02 0.  0.
        -12    1    1    2    0    0 -0.40044206434E+00  0.10860613119E+01 -0.23076648252E+00  0.11803119035E+01  0.00000000000E+00 0.  1.
         11    1    3    3    0    0  0.29209773708E+02 -0.46552752656E+01  0.30619520729E+02  0.42572732092E+02  0.51100000000E-03 0. -1.
        -11    1    3    3    0    0 -0.92116018887E+01 -0.13486136638E+01  0.17495658155E+01  0.94727688124E+01  0.51100000000E-03 0.  1.
        -12    1    3    3    0    0 -0.19597729755E+02  0.49178276175E+01 -0.32138320062E+02  0.37962187192E+02  0.00000000000E+00 0.  1.
</event>
<event>
 7    1  0.3757412E-015  0.9000786E+02  0.7816164E-02  0.1186339E+00
        -11   -1    0    0    0    0  0.00000000000E+00  0.00000000000E+00  0.45593999997E+02  0.45594000000E+02  0.51100000000E-03 0.  1.
         11   -1    0    0    0    0 -0.00000000000E+00 -0.00000000000E+00 -0.45593999997E+02  0.45594000000E+02  0.51100000000E-03 0. -1.
    9900012    2    1    2    0    0 -0.19061542496E+00 -0.10391556798E+01  0.52588830994E+00  0.90007857093E+02  0.90000120006E+02 0.  0.
        -12    1    1    2    0    0  0.19061542496E+00  0.10391556798E+01 -0.52588830994E+00  0.11801429073E+01  0.00000000000E+00 0.  1.
         11    1    3    3    0    0  0.10490379974E+02 -0.28279892813E+02 -0.17710782410E+02  0.34978167811E+02  0.51100000000E-03 0. -1.
        -11    1    3    3    0    0  0.19242515050E+01 -0.10471538656E+02 -0.13006500849E+01  0.10726022403E+02  0.51100000000E-03 0.  1.
        -12    1    3    3    0    0 -0.12605246904E+02  0.37712275790E+02  0.19537320805E+02  0.44303666880E+02  0.00000000000E+00 0.  1.
</event>
<event>
 7    1  0.3757412E-015  0.9000778E+02  0.7816164E-02  0.1186339E+00
        -11   -1    0    0    0    0  0.00000000000E+00  0.00000000000E+00  0.45593999997E+02  0.45594000000E+02  0.51100000000E-03 0.  1.
         11   -1    0    0    0    0 -0.00000000000E+00 -0.00000000000E+00 -0.45593999997E+02  0.45594000000E+02  0.51100000000E-03 0. -1.
    9900012    2    1    2    0    0 -0.70719114654E+00  0.62742023511E+00 -0.70649700565E+00  0.90007782440E+02  0.90000044369E+02 0.  0.
        -12    1    1    2    0    0  0.70719114654E+00 -0.62742023511E+00  0.70649700565E+00  0.11802175597E+01  0.00000000000E+00 0.  1.
         11    1    3    3    0    0  0.33171267163E-01 -0.86009558124E+01 -0.18208941440E+01  0.87916549616E+01  0.51100000000E-03 0. -1.
        -11    1    3    3    0    0 -0.24506029784E+02  0.13817275598E+02  0.31587858611E+02  0.42299591164E+02  0.51100000000E-03 0.  1.
         12    1    3    3    0    0  0.23765667370E+02 -0.45888995501E+01 -0.30473461473E+02  0.38916536315E+02  0.00000000000E+00 0. -1.
</event>
<event>
 7    1  0.3757412E-015  0.9000780E+02  0.7816164E-02  0.1186339E+00
        -11   -1    0    0    0    0  0.00000000000E+00  0.00000000000E+00  0.45593999997E+02  0.45594000000E+02  0.51100000000E-03 0.  1.
         11   -1    0    0    0    0 -0.00000000000E+00 -0.00000000000E+00 -0.45593999997E+02  0.45594000000E+02  0.51100000000E-03 0. -1.
    9900012    2    1    2    0    0  0.47174008673E+00  0.15584912937E+00 -0.10705292772E+01  0.90007804849E+02  0.90000067073E+02 0.  0.
        -12    1    1    2    0    0 -0.47174008673E+00 -0.15584912937E+00  0.10705292772E+01  0.11801951508E+01  0.00000000000E+00 0.  1.
         11    1    3    3    0    0  0.10461869603E+02 -0.18985337377E+01  0.59960152827E+01  0.12206856494E+02  0.51100000000E-03 0. -1.
        -11    1    3    3    0    0 -0.71410554498E+01  0.35576349254E+02 -0.20382495848E+02  0.41618714978E+02  0.51100000000E-03 0.  1.
         12    1    3    3    0    0 -0.28490740661E+01 -0.33521966386E+02  0.13315951288E+02  0.36182233377E+02  0.00000000000E+00 0. -1.
</event>
<event>
 7    1  0.3757412E-015  0.9000770E+02  0.7816164E-02  0.1186339E+00
        -11   -1    0    0    0    0  0.00000000000E+00  0.00000000000E+00  0.45593999997E+02  0.45594000000E+02  0.51100000000E-03 0.  1.
         11   -1    0    0    0    0 -0.00000000000E+00 -0.00000000000E+00 -0.45593999997E+02  0.45594000000E+02  0.51100000000E-03 0. -1.
    9900012    2    1    2    0    0 -0.12112873460E+00  0.11706806117E+01 -0.89174365162E-01  0.90007696085E+02  0.89999956873E+02 0.  0.
        -12    1    1    2    0    0  0.12112873460E+00 -0.11706806117E+01  0.89174365162E-01  0.11803039152E+01  0.00000000000E+00 0.  1.
         11    1    3    3    0    0  0.69865067916E+01  0.54591305246E+00  0.87175030272E+01  0.11184996983E+02  0.51100000000E-03 0. -1.
        -11    1    3    3    0    0 -0.26843722576E+02  0.21806021864E+02  0.18330212740E+02  0.39141853950E+02  0.51100000000E-03 0.  1.
         12    1    3    3    0    0  0.19736087050E+02 -0.21181254304E+02 -0.27136890132E+02  0.39680845152E+02  0.00000000000E+00 0. -1.
</event>
<event>
 7    1  0.3757412E-015  0.9000787E+02  0.7816164E-02  0.1186339E+00
        -11   -1    0    0    0    0  0.00000000000E+00  0.00000000000E+00  0.45593999997E+02  0.45594000000E+02  0.51100000000E-03 0. -1.
         11   -1    0    0    0    0 -0.00000000000E+00 -0.00000000000E+00 -0.45593999997E+02  0.45594000000E+02  0.51100000000E-03 0.  1.
    9900012    2    1    2    0    0  0.34810735920E+00  0.99898725894E+00 -0.52301629559E+00  0.90007872752E+02  0.90000135872E+02 0.  0.
        -12    1    1    2    0    0 -0.34810735920E+00 -0.99898725894E+00  0.52301629559E+00  0.11801272484E+01  0.00000000000E+00 0.  1.
         11    1    3    3    0    0 -0.18472535724E+02 -0.14936542977E+01  0.31423089136E+02  0.36481174739E+02  0.51100000000E-03 0. -1.
        -11    1    3    3    0    0 -0.33707299392E+01  0.29643591039E+01  0.72238351619E+01  0.85048832989E+01  0.51100000000E-03 0.  1.
        -12    1    3    3    0    0  0.22191373022E+02 -0.47171754724E+00 -0.39169940593E+02  0.45021814714E+02  0.00000000000E+00 0.  1.
</event>
<event>
 7    1  0.3757412E-015  0.9000777E+02  0.7816164E-02  0.1186339E+00
        -11   -1    0    0    0    0  0.00000000000E+00  0.00000000000E+00  0.45593999997E+02  0.45594000000E+02  0.51100000000E-03 0.  1.
         11   -1    0    0    0    0 -0.00000000000E+00 -0.00000000000E+00 -0.45593999997E+02  0.45594000000E+02  0.51100000000E-03 0. -1.
    9900012    2    1    2    0    0  0.87658265049E+00  0.67672422332E+00 -0.40815759535E+00  0.90007768904E+02  0.90000030653E+02 0.  0.
        -12    1    1    2    0    0 -0.87658265049E+00 -0.67672422332E+00  0.40815759535E+00  0.11802310961E+01  0.00000000000E+00 0.  1.
         11    1    3    3    0    0 -0.47596157601E+01 -0.68110119944E-01 -0.95598920657E+01  0.10679424972E+02  0.51100000000E-03 0. -1.
        -11    1    3    3    0    0 -0.30379717079E+02  0.92041314576E+01  0.23658292030E+02  0.39589872793E+02  0.51100000000E-03 0.  1.
         12    1    3    3    0    0  0.36015915490E+02 -0.84592971143E+01 -0.14506557560E+02  0.39738471139E+02  0.00000000000E+00 0. -1.
</event>
<event>
 7    1  0.3757412E-015  0.9000776E+02  0.7816164E-02  0.1186339E+00
        -11   -1    0    0    0    0  0.00000000000E+00  0.00000000000E+00  0.45593999997E+02  0.45594000000E+02  0.51100000000E-03 0.  1.
         11   -1    0    0    0    0 -0.00000000000E+00 -0.00000000000E+00 -0.45593999997E+02  0.45594000000E+02  0.51100000000E-03 0. -1.
    9900012    2    1    2    0    0 -0.90374108989E-01 -0.55202336600E+00 -0.10392646137E+01  0.90007759256E+02  0.90000020878E+02 0.  0.
        -12    1    1    2    0    0  0.90374108989E-01  0.55202336600E+00  0.10392646137E+01  0.11802407438E+01  0.00000000000E+00 0.  1.
         11    1    3    3    0    0 -0.12199290190E+02  0.25888196746E+02 -0.14958927455E+02  0.32292273422E+02  0.51100000000E-03 0. -1.
        -11    1    3    3    0    0 -0.70454936929E+01 -0.36535054272E+01 -0.14518981692E+02  0.16546537793E+02  0.51100000000E-03 0.  1.
        -12    1    3    3    0    0  0.19154409774E+02 -0.22786714685E+02  0.28438644534E+02  0.41168948041E+02  0.00000000000E+00 0.  1.
</event>
<event>
 7    1  0.3757412E-015  0.9000757E+02  0.7816164E-02  0.1186339E+00
        -11   -1    0    0    0    0  0.00000000000E+00  0.00000000000E+00  0.45593999997E+02  0.45594000000E+02  0.51100000000E-03 0.  1.
         11   -1    0    0    0    0 -0.00000000000E+00 -0.00000000000E+00 -0.45593999997E+02  0.45594000000E+02  0.51100000000E-03 0. -1.
    9900012    2    1    2    0    0 -0.79650124621E+00 -0.50405724464E+00 -0.71058448892E+00  0.90007568614E+02  0.89999827720E+02 0.  0.
        -12    1    1    2    0    0  0.79650124621E+00  0.50405724464E+00  0.71058448892E+00  0.11804313860E+01  0.00000000000E+00 0.  1.
         11    1    3    3    0    0 -0.93501802393E+01 -0.24205145957E+01  0.23740900301E+02  0.25630355221E+02  0.51100000000E-03 0. -1.
        -11    1    3    3    0    0  0.61525956990E+00  0.12641463120E+02  0.16792837299E+02  0.21028183920E+02  0.51100000000E-03 0.  1.
         12    1    3    3    0    0  0.79384194232E+01 -0.10725005769E+02 -0.41244322089E+02  0.43349029473E+02  0.00000000000E+00 0. -1.
</event>
<event>
 7    1  0.3757412E-015  0.9000761E+02  0.7816164E-02  0.1186339E+00
        -11   -1    0    0    0    0  0.00000000000E+00  0.00000000000E+00  0.45593999997E+02  0.45594000000E+02  0.51100000000E-03 0. -1.
         11   -1    0    0    0    0 -0.00000000000E+00 -0.00000000000E+00 -0.45593999997E+02  0.45594000000E+02  0.51100000000E-03 0.  1.
    9900012    2    1    2    0    0 -0.31008067395E+00  0.72311062259E+00 -0.87993704401E+00  0.90007606761E+02  0.89999866370E+02 0.  0.
        -12    1    1    2    0    0  0.31008067395E+00 -0.72311062259E+00  0.87993704401E+00  0.11803932388E+01  0.00000000000E+00 0.  1.
         11    1    3    3    0    0 -0.96244370189E+01 -0.24620169434E+02  0.23577603975E+02  0.35421546273E+02  0.51100000000E-03 0. -1.
        -11    1    3    3    0    0  0.14701878746E+01 -0.86092300061E+01  0.39898925202E+01  0.96020589598E+01  0.51100000000E-03 0.  1.
        -12    1    3    3    0    0  0.78441684704E+01  0.33952510063E+02 -0.28447433539E+02  0.44984001529E+02  0.00000000000E+00 0.  1.
</event>
<event>
 7    1  0.3757412E-015  0.9000779E+02  0.7816164E-02  0.1186339E+00
        -11   -1    0    0    0    0  0.00000000000E+00  0.00000000000E+00  0.45593999997E+02  0.45594000000E+02  0.51100000000E-03 0.  1.
         11   -1    0    0    0    0 -0.00000000000E+00 -0.00000000000E+00 -0.45593999997E+02  0.45594000000E+02  0.51100000000E-03 0. -1.
    9900012    2    1    2    0    0 -0.73210738440E+00  0.92431074792E+00  0.50622904102E-01  0.90007790587E+02  0.90000052622E+02 0.  0.
        -12    1    1    2    0    0  0.73210738440E+00 -0.92431074792E+00 -0.50622904102E-01  0.11802094134E+01  0.00000000000E+00 0.  1.
         11    1    3    3    0    0  0.33565309641E+01 -0.32480066802E+02 -0.13426679963E+02  0.35305761211E+02  0.51100000000E-03 0. -1.
        -11    1    3    3    0    0 -0.26167105708E+01 -0.63304374916E+01 -0.71552822394E+01  0.99055377054E+01  0.51100000000E-03 0.  1.
        -12    1    3    3    0    0 -0.14719277777E+01  0.39734815042E+02  0.20632585107E+02  0.44796491670E+02  0.00000000000E+00 0.  1.
</event>
<event>
 7    1  0.3757412E-015  0.9000771E+02  0.7816164E-02  0.1186339E+00
        -11   -1    0    0    0    0  0.00000000000E+00  0.00000000000E+00  0.45593999997E+02  0.45594000000E+02  0.51100000000E-03 0.  1.
         11   -1    0    0    0    0 -0.00000000000E+00 -0.00000000000E+00 -0.45593999997E+02  0.45594000000E+02  0.51100000000E-03 0. -1.
    9900012    2    1    2    0    0  0.47482515821E+00 -0.85170958916E+00  0.66499790813E+00  0.90007707505E+02  0.89999968444E+02 0.  0.
        -12    1    1    2    0    0 -0.47482515821E+00  0.85170958916E+00 -0.66499790813E+00  0.11802924947E+01  0.00000000000E+00 0.  1.
         11    1    3    3    0    0 -0.86547810806E+01 -0.97387137119E+00  0.34038337107E+01  0.93509221573E+01  0.51100000000E-03 0. -1.
        -11    1    3    3    0    0 -0.26318124382E+02 -0.95467849146E+01  0.22636945977E+02  0.36003001216E+02  0.51100000000E-03 0.  1.
         12    1    3    3    0    0  0.35447730620E+02  0.96689466966E+01 -0.25375781779E+02  0.44653784132E+02  0.00000000000E+00 0. -1.
</event>
<event>
 7    1  0.3757412E-015  0.9000773E+02  0.7816164E-02  0.1186339E+00
        -11   -1    0    0    0    0  0.00000000000E+00  0.00000000000E+00  0.45593999997E+02  0.45594000000E+02  0.51100000000E-03 0.  1.
         11   -1    0    0    0    0 -0.00000000000E+00 -0.00000000000E+00 -0.45593999997E+02  0.45594000000E+02  0.51100000000E-03 0. -1.
    9900012    2    1    2    0    0 -0.66215458812E+00 -0.41949938417E+00 -0.88238667531E+00  0.90007731100E+02  0.89999992350E+02 0.  0.
        -12    1    1    2    0    0  0.66215458812E+00  0.41949938417E+00  0.88238667531E+00  0.11802689001E+01  0.00000000000E+00 0.  1.
         11    1    3    3    0    0  0.30263324846E+02 -0.25150844520E+02 -0.21688136029E+02  0.44931159071E+02  0.51100000000E-03 0. -1.
        -11    1    3    3    0    0 -0.86612060965E+01  0.42670777169E+01  0.37499286361E+01  0.10357915250E+02  0.51100000000E-03 0.  1.
        -12    1    3    3    0    0 -0.22264273337E+02  0.20464267419E+02  0.17055820717E+02  0.34718656779E+02  0.00000000000E+00 0.  1.
</event>
<event>
 7    1  0.3757412E-015  0.9000834E+02  0.7816164E-02  0.1186338E+00
        -11   -1    0    0    0    0  0.00000000000E+00  0.00000000000E+00  0.45593999997E+02  0.45594000000E+02  0.51100000000E-03 0.  1.
         11   -1    0    0    0    0 -0.00000000000E+00 -0.00000000000E+00 -0.45593999997E+02  0.45594000000E+02  0.51100000000E-03 0. -1.
    9900012    2    1    2    0    0  0.25362709078E+00 -0.22745986972E+00 -0.11293993922E+01  0.90008335776E+02  0.90000605007E+02 0.  0.
        -12    1    1    2    0    0 -0.25362709078E+00  0.22745986972E+00  0.11293993922E+01  0.11796642236E+01  0.00000000000E+00 0.  1.
         11    1    3    3    0    0  0.17873023494E+02  0.31051305007E+02 -0.78363611781E+01  0.36674747010E+02  0.51100000000E-03 0. -1.
        -11    1    3    3    0    0 -0.64294946312E+01  0.82722611630E+01 -0.33831526083E+01  0.11009742404E+02  0.51100000000E-03 0.  1.
        -12    1    3    3    0    0 -0.11189901772E+02 -0.39551026040E+02  0.10090114394E+02  0.42323846363E+02  0.00000000000E+00 0.  1.
</event>
<event>
 7    1  0.3757412E-015  0.9000770E+02  0.7816164E-02  0.1186339E+00
        -11   -1    0    0    0    0  0.00000000000E+00  0.00000000000E+00  0.45593999997E+02  0.45594000000E+02  0.51100000000E-03 0.  1.
         11   -1    0    0    0    0 -0.00000000000E+00 -0.00000000000E+00 -0.45593999997E+02  0.45594000000E+02  0.51100000000E-03 0. -1.
    9900012    2    1    2    0    0 -0.77679847523E+00  0.85750837260E+00 -0.23315575412E+00  0.90007704238E+02  0.89999965134E+02 0.  0.
        -12    1    1    2    0    0  0.77679847523E+00 -0.85750837260E+00  0.23315575412E+00  0.11802957620E+01  0.00000000000E+00 0.  1.
         11    1    3    3    0    0  0.69005787427E+01  0.20106058944E+02 -0.30296230855E+02  0.37009906748E+02  0.51100000000E-03 0. -1.
        -11    1    3    3    0    0  0.34330371118E+01  0.74299169199E+01 -0.33296792073E+01  0.88360722684E+01  0.51100000000E-03 0.  1.
        -12    1    3    3    0    0 -0.11110414330E+02 -0.26678467491E+02  0.33392754308E+02  0.44161725221E+02  0.00000000000E+00 0.  1.
</event>
<event>
 7    1  0.3757412E-015  0.9000775E+02  0.7816164E-02  0.1186339E+00
        -11   -1    0    0    0    0  0.00000000000E+00  0.00000000000E+00  0.45593999997E+02  0.45594000000E+02  0.51100000000E-03 0.  1.
         11   -1    0    0    0    0 -0.00000000000E+00 -0.00000000000E+00 -0.45593999997E+02  0.45594000000E+02  0.51100000000E-03 0. -1.
    9900012    2    1    2    0    0  0.66552898594E+00 -0.74724228622E+00 -0.62585850698E+00  0.90007746325E+02  0.90000007777E+02 0.  0.
        -12    1    1    2    0    0 -0.66552898594E+00  0.74724228622E+00  0.62585850698E+00  0.11802536745E+01  0.00000000000E+00 0.  1.
         11    1    3    3    0    0  0.44900954255E+00  0.56279666381E+01  0.75241586269E+01  0.94068369473E+01  0.51100000000E-03 0. -1.
        -11    1    3    3    0    0  0.10086532950E+02  0.25069952074E+02  0.22824438202E+02  0.35372243687E+02  0.51100000000E-03 0.  1.
         12    1    3    3    0    0 -0.98700135062E+01 -0.31445160999E+02 -0.30974455336E+02  0.45228665691E+02  0.00000000000E+00 0. -1.
</event>
<event>
 7    1  0.3757412E-015  0.9000768E+02  0.7816164E-02  0.1186339E+00
        -11   -1    0    0    0    0  0.00000000000E+00  0.00000000000E+00  0.45593999997E+02  0.45594000000E+02  0.51100000000E-03 0.  1.
         11   -1    0    0    0    0 -0.00000000000E+00 -0.00000000000E+00 -0.45593999997E+02  0.45594000000E+02  0.51100000000E-03 0. -1.
    9900012    2    1    2    0    0  0.10042643667E+01  0.61017360989E+00 -0.11090141721E+00  0.90007678909E+02  0.89999939471E+02 0.  0.
        -12    1    1    2    0    0 -0.10042643667E+01 -0.61017360989E+00  0.11090141721E+00  0.11803210905E+01  0.00000000000E+00 0.  1.
         11    1    3    3    0    0  0.36429570741E+02  0.10386293539E+01 -0.46359374284E+01  0.36738049641E+02  0.51100000000E-03 0. -1.
        -11    1    3    3    0    0  0.28499572825E+01  0.11998236010E+02  0.41957268931E+01  0.13026282981E+02  0.51100000000E-03 0.  1.
        -12    1    3    3    0    0 -0.38275263657E+02 -0.12426691754E+02  0.32930911807E+00  0.40243346288E+02  0.00000000000E+00 0.  1.
</event>
<event>
 7    1  0.3757412E-015  0.9000781E+02  0.7816164E-02  0.1186339E+00
        -11   -1    0    0    0    0  0.00000000000E+00  0.00000000000E+00  0.45593999997E+02  0.45594000000E+02  0.51100000000E-03 0.  1.
         11   -1    0    0    0    0 -0.00000000000E+00 -0.00000000000E+00 -0.45593999997E+02  0.45594000000E+02  0.51100000000E-03 0. -1.
    9900012    2    1    2    0    0  0.44793894370E+00  0.96055539944E+00 -0.51917196959E+00  0.90007807004E+02  0.90000069257E+02 0.  0.
        -12    1    1    2    0    0 -0.44793894370E+00 -0.96055539944E+00  0.51917196959E+00  0.11801929955E+01  0.00000000000E+00 0.  1.
         11    1    3    3    0    0  0.79890299711E+01  0.30568204229E+02 -0.24465983711E+02  0.39960281141E+02  0.51100000000E-03 0. -1.
        -11    1    3    3    0    0  0.35667766040E+00  0.67391069369E+01  0.34621922343E+01  0.75848240975E+01  0.51100000000E-03 0.  1.
        -12    1    3    3    0    0 -0.78977686878E+01 -0.36346755766E+02  0.20484619507E+02  0.42462701766E+02  0.00000000000E+00 0.  1.
</event>
<event>
 7    1  0.3757412E-015  0.9000770E+02  0.7816164E-02  0.1186339E+00
        -11   -1    0    0    0    0  0.00000000000E+00  0.00000000000E+00  0.45593999997E+02  0.45594000000E+02  0.51100000000E-03 0.  1.
         11   -1    0    0    0    0 -0.00000000000E+00 -0.00000000000E+00 -0.45593999997E+02  0.45594000000E+02  0.51100000000E-03 0. -1.
    9900012    2    1    2    0    0  0.98661828131E+00  0.64485323437E+00  0.62050348825E-01  0.90007702761E+02  0.89999963637E+02 0.  0.
        -12    1    1    2    0    0 -0.98661828131E+00 -0.64485323437E+00 -0.62050348825E-01  0.11802972391E+01  0.00000000000E+00 0.  1.
         11    1    3    3    0    0 -0.37303609232E+02 -0.27740300315E+01 -0.82637297590E+01  0.38308533437E+02  0.51100000000E-03 0. -1.
        -11    1    3    3    0    0 -0.20898416419E+01 -0.78664836974E+01  0.51930113227E+01  0.96548625421E+01  0.51100000000E-03 0.  1.
        -12    1    3    3    0    0  0.40380069155E+02  0.11285366963E+02  0.31327687852E+01  0.42044306781E+02  0.00000000000E+00 0.  1.
</event>
<event>
 7    1  0.3757412E-015  0.9000773E+02  0.7816164E-02  0.1186339E+00
        -11   -1    0    0    0    0  0.00000000000E+00  0.00000000000E+00  0.45593999997E+02  0.45594000000E+02  0.51100000000E-03 0. -1.
         11   -1    0    0    0    0 -0.00000000000E+00 -0.00000000000E+00 -0.45593999997E+02  0.45594000000E+02  0.51100000000E-03 0.  1.
    9900012    2    1    2    0    0  0.92561704751E+00  0.29460999970E+00  0.67042137789E+00  0.90007734439E+02  0.89999995734E+02 0.  0.
        -12    1    1    2    0    0 -0.92561704751E+00 -0.29460999970E+00 -0.67042137789E+00  0.11802655610E+01  0.00000000000E+00 0.  1.
         11    1    3    3    0    0  0.27109443201E+02  0.73145637370E+01  0.32455276064E+02  0.42915844370E+02  0.51100000000E-03 0. -1.
        -11    1    3    3    0    0 -0.28260423874E+00 -0.11571618066E+01  0.30583521260E+01  0.32821344564E+01  0.51100000000E-03 0.  1.
        -12    1    3    3    0    0 -0.25901221915E+02 -0.58627919307E+01 -0.34843206812E+02  0.43809755613E+02  0.00000000000E+00 0.  1.
</event>
<event>
 7    1  0.3757412E-015  0.9000772E+02  0.7816164E-02  0.1186339E+00
        -11   -1    0    0    0    0  0.00000000000E+00  0.00000000000E+00  0.45593999997E+02  0.45594000000E+02  0.51100000000E-03 0.  1.
         11   -1    0    0    0    0 -0.00000000000E+00 -0.00000000000E+00 -0.45593999997E+02  0.45594000000E+02  0.51100000000E-03 0. -1.
    9900012    2    1    2    0    0 -0.50880792686E+00 -0.10030650962E+01 -0.35780490273E+00  0.90007724845E+02  0.89999986013E+02 0.  0.
        -12    1    1    2    0    0  0.50880792686E+00  0.10030650962E+01  0.35780490273E+00  0.11802751553E+01  0.00000000000E+00 0.  1.
         11    1    3    3    0    0 -0.14745700054E+01  0.32064219678E+01  0.15230450998E+02  0.15634005770E+02  0.51100000000E-03 0. -1.
        -11    1    3    3    0    0  0.11354897185E+02  0.19846244085E+02  0.19864333143E+02  0.30288592339E+02  0.51100000000E-03 0.  1.
         12    1    3    3    0    0 -0.10389135107E+02 -0.24055731149E+02 -0.35452589044E+02  0.44085126736E+02  0.00000000000E+00 0. -1.
</event>
<event>
 7    1  0.3757412E-015  0.9000766E+02  0.7816164E-02  0.1186339E+00
        -11   -1    0    0    0    0  0.00000000000E+00  0.00000000000E+00  0.45593999997E+02  0.45594000000E+02  0.51100000000E-03 0.  1.
         11   -1    0    0    0    0 -0.00000000000E+00 -0.00000000000E+00 -0.45593999997E+02  0.45594000000E+02  0.51100000000E-03 0. -1.
    9900012    2    1    2    0    0 -0.62625419932E+00 -0.42205636107E+00 -0.90712137532E+00  0.90007663148E+02  0.89999923502E+02 0.  0.
        -12    1    1    2    0    0  0.62625419932E+00  0.42205636107E+00  0.90712137532E+00  0.11803368518E+01  0.00000000000E+00 0.  1.
         11    1    3    3    0    0 -0.22132970843E+01 -0.55792145950E+01  0.31228168134E-01  0.60022741474E+01  0.51100000000E-03 0. -1.
        -11    1    3    3    0    0  0.32336604507E+02 -0.15961679446E+02 -0.20917126177E+02  0.41688815881E+02  0.51100000000E-03 0.  1.
         12    1    3    3    0    0 -0.30749561622E+02  0.21118837680E+02  0.19978776634E+02  0.42316573120E+02  0.00000000000E+00 0. -1.
</event>
<event>
 7    1  0.3757412E-015  0.9000765E+02  0.7816164E-02  0.1186339E+00
        -11   -1    0    0    0    0  0.00000000000E+00  0.00000000000E+00  0.45593999997E+02  0.45594000000E+02  0.51100000000E-03 0.  1.
         11   -1    0    0    0    0 -0.00000000000E+00 -0.00000000000E+00 -0.45593999997E+02  0.45594000000E+02  0.51100000000E-03 0. -1.
    9900012    2    1    2    0    0 -0.66400998011E+00 -0.30614716967E-01  0.97538280340E+00  0.90007653387E+02  0.89999913611E+02 0.  0.
        -12    1    1    2    0    0  0.66400998011E+00  0.30614716967E-01 -0.97538280340E+00  0.11803466134E+01  0.00000000000E+00 0.  1.
         11    1    3    3    0    0  0.77736379118E+01  0.22441914582E+01  0.56139502226E+00  0.81105490761E+01  0.51100000000E-03 0. -1.
        -11    1    3    3    0    0  0.25369437834E+02 -0.26221121690E+02  0.12785787940E+02  0.38660470408E+02  0.51100000000E-03 0.  1.
         12    1    3    3    0    0 -0.33807085726E+02  0.23946315515E+02 -0.12371800159E+02  0.43236633902E+02  0.00000000000E+00 0. -1.
</event>
<event>
 7    1  0.3757412E-015  0.9000771E+02  0.7816164E-02  0.1186339E+00
        -11   -1    0    0    0    0  0.00000000000E+00  0.00000000000E+00  0.45593999997E+02  0.45594000000E+02  0.51100000000E-03 0. -1.
         11   -1    0    0    0    0 -0.00000000000E+00 -0.00000000000E+00 -0.45593999997E+02  0.45594000000E+02  0.51100000000E-03 0.  1.
    9900012    2    1    2    0    0  0.76198901268E+00  0.24679101062E-01  0.90102717376E+00  0.90007709239E+02  0.89999970201E+02 0.  0.
        -12    1    1    2    0    0 -0.76198901268E+00 -0.24679101062E-01 -0.90102717376E+00  0.11802907613E+01  0.00000000000E+00 0.  1.
         11    1    3    3    0    0  0.34369558389E+02  0.95556711468E+01 -0.14581210874E+02  0.38538151302E+02  0.51100000000E-03 0. -1.
        -11    1    3    3    0    0  0.22248551545E+01 -0.41932985011E+00 -0.75684675200E+01  0.78998429633E+01  0.51100000000E-03 0.  1.
        -12    1    3    3    0    0 -0.35832424531E+02 -0.91116621957E+01  0.23050705567E+02  0.43569714974E+02  0.00000000000E+00 0.  1.
</event>
<event>
 7    1  0.3757412E-015  0.9000650E+02  0.7816164E-02  0.1186342E+00
        -11   -1    0    0    0    0  0.00000000000E+00  0.00000000000E+00  0.45593999997E+02  0.45594000000E+02  0.51100000000E-03 0. -1.
         11   -1    0    0    0    0 -0.00000000000E+00 -0.00000000000E+00 -0.45593999997E+02  0.45594000000E+02  0.51100000000E-03 0.  1.
    9900012    2    1    2    0    0  0.22421151030E+00 -0.91323669111E+00  0.71531028775E+00  0.90006500587E+02  0.89998745586E+02 0.  0.
        -12    1    1    2    0    0 -0.22421151030E+00  0.91323669111E+00 -0.71531028775E+00  0.11814994131E+01  0.00000000000E+00 0.  1.
         11    1    3    3    0    0  0.45105674912E+01  0.35383457648E+01 -0.76424693874E+01  0.95536615202E+01  0.51100000000E-03 0. -1.
        -11    1    3    3    0    0 -0.31663409646E+02  0.24213510449E+02 -0.38248067062E+00  0.39862411999E+02  0.51100000000E-03 0.  1.
         12    1    3    3    0    0  0.27377053665E+02 -0.28665092905E+02  0.87402603458E+01  0.40590427068E+02  0.00000000000E+00 0. -1.
</event>
<event>
 7    1  0.3757412E-015  0.9000771E+02  0.7816164E-02  0.1186339E+00
        -11   -1    0    0    0    0  0.00000000000E+00  0.00000000000E+00  0.45593999997E+02  0.45594000000E+02  0.51100000000E-03 0.  1.
         11   -1    0    0    0    0 -0.00000000000E+00 -0.00000000000E+00 -0.45593999997E+02  0.45594000000E+02  0.51100000000E-03 0. -1.
    9900012    2    1    2    0    0  0.66263881823E+00 -0.10100346866E+00 -0.97149418172E+00  0.90007706456E+02  0.89999967382E+02 0.  0.
        -12    1    1    2    0    0 -0.66263881823E+00  0.10100346866E+00  0.97149418172E+00  0.11802935437E+01  0.00000000000E+00 0.  1.
         11    1    3    3    0    0 -0.14998553593E+02  0.14385130706E+02 -0.37095095562E+02  0.42519815502E+02  0.51100000000E-03 0. -1.
        -11    1    3    3    0    0  0.82206605389E+01  0.32162419064E+01  0.32305682380E+01  0.94000022924E+01  0.51100000000E-03 0.  1.
        -12    1    3    3    0    0  0.74405318719E+01 -0.17702376081E+02  0.32893033142E+02  0.38087888662E+02  0.00000000000E+00 0.  1.
</event>
<event>
 7    1  0.3757412E-015  0.9000765E+02  0.7816164E-02  0.1186339E+00
        -11   -1    0    0    0    0  0.00000000000E+00  0.00000000000E+00  0.45593999997E+02  0.45594000000E+02  0.51100000000E-03 0.  1.
         11   -1    0    0    0    0 -0.00000000000E+00 -0.00000000000E+00 -0.45593999997E+02  0.45594000000E+02  0.51100000000E-03 0. -1.
    9900012    2    1    2    0    0 -0.43280277419E+00 -0.64881351349E+00 -0.88597411853E+00  0.90007649478E+02  0.89999909651E+02 0.  0.
        -12    1    1    2    0    0  0.43280277419E+00  0.64881351349E+00  0.88597411853E+00  0.11803505222E+01  0.00000000000E+00 0.  1.
         11    1    3    3    0    0  0.17649960309E+01 -0.82636902877E+01  0.21280122918E+01  0.87139098420E+01  0.51100000000E-03 0. -1.
        -11    1    3    3    0    0 -0.31124527709E+02  0.83455729829E+01  0.25178603096E+02  0.40894337844E+02  0.51100000000E-03 0.  1.
         12    1    3    3    0    0  0.28926728904E+02 -0.73069620875E+00 -0.28192589507E+02  0.40399401792E+02  0.00000000000E+00 0. -1.
</event>
<event>
 7    1  0.3757412E-015  0.9000774E+02  0.7816164E-02  0.1186339E+00
        -11   -1    0    0    0    0  0.00000000000E+00  0.00000000000E+00  0.45593999997E+02  0.45594000000E+02  0.51100000000E-03 0. -1.
         11   -1    0    0    0    0 -0.00000000000E+00 -0.00000000000E+00 -0.45593999997E+02  0.45594000000E+02  0.51100000000E-03 0.  1.
    9900012    2    1    2    0    0 -0.37729506189E+00 -0.10988031283E+01  0.20807294924E+00  0.90007739761E+02  0.90000001126E+02 0.  0.
        -12    1    1    2    0    0  0.37729506189E+00  0.10988031283E+01 -0.20807294924E+00  0.11802602386E+01  0.00000000000E+00 0.  1.
         11    1    3    3    0    0  0.10836815918E+02  0.96425219801E+01  0.31263938164E+02  0.34465180098E+02  0.51100000000E-03 0. -1.
        -11    1    3    3    0    0  0.17915374686E+01 -0.72654860189E+00  0.10597046097E+02  0.10771948088E+02  0.51100000000E-03 0.  1.
        -12    1    3    3    0    0 -0.13005648448E+02 -0.10014776507E+02 -0.41652911312E+02  0.44770611575E+02  0.00000000000E+00 0.  1.
</event>
<event>
 7    1  0.3757412E-015  0.9000821E+02  0.7816164E-02  0.1186338E+00
        -11   -1    0    0    0    0  0.00000000000E+00  0.00000000000E+00  0.45593999997E+02  0.45594000000E+02  0.51100000000E-03 0. -1.
         11   -1    0    0    0    0 -0.00000000000E+00 -0.00000000000E+00 -0.45593999997E+02  0.45594000000E+02  0.51100000000E-03 0.  1.
    9900012    2    1    2    0    0 -0.32402890014E+00  0.10136445473E+01  0.50934284781E+00  0.90008211827E+02  0.90000479422E+02 0.  0.
        -12    1    1    2    0    0  0.32402890014E+00 -0.10136445473E+01 -0.50934284781E+00  0.11797881729E+01  0.00000000000E+00 0.  1.
         11    1    3    3    0    0  0.99088324950E+01  0.12707716122E+01 -0.19521534910E+00  0.99918932739E+01  0.51100000000E-03 0. -1.
        -11    1    3    3    0    0  0.92948762552E+01 -0.19732171306E+02 -0.31057537012E+02  0.37951599631E+02  0.51100000000E-03 0.  1.
         12    1    3    3    0    0 -0.19527737650E+02  0.19475044241E+02  0.31762095209E+02  0.42064718922E+02  0.00000000000E+00 0. -1.
</event>
<event>
 7    1  0.3757412E-015  0.9000794E+02  0.7816164E-02  0.1186339E+00
        -11   -1    0    0    0    0  0.00000000000E+00  0.00000000000E+00  0.45593999997E+02  0.45594000000E+02  0.51100000000E-03 0. -1.
         11   -1    0    0    0    0 -0.00000000000E+00 -0.00000000000E+00 -0.45593999997E+02  0.45594000000E+02  0.51100000000E-03 0.  1.
    9900012    2    1    2    0    0  0.90242770389E+00 -0.10302755365E+00  0.75336617645E+00  0.90007936005E+02  0.90000199960E+02 0.  0.
        -12    1    1    2    0    0 -0.90242770389E+00  0.10302755365E+00 -0.75336617645E+00  0.11800639955E+01  0.00000000000E+00 0.  1.
         11    1    3    3    0    0  0.55379661768E+01  0.88620669501E+00 -0.12081537896E+02  0.13319834454E+02  0.51100000000E-03 0. -1.
        -11    1    3    3    0    0  0.72493693133E+01  0.35825604217E+02  0.24549655302E+01  0.36634056955E+02  0.51100000000E-03 0.  1.
         12    1    3    3    0    0 -0.11884907786E+02 -0.36814838465E+02  0.10379938543E+02  0.40054044596E+02  0.00000000000E+00 0. -1.
</event>
<event>
 7    1  0.3757412E-015  0.9000764E+02  0.7816164E-02  0.1186339E+00
        -11   -1    0    0    0    0  0.00000000000E+00  0.00000000000E+00  0.45593999997E+02  0.45594000000E+02  0.51100000000E-03 0.  1.
         11   -1    0    0    0    0 -0.00000000000E+00 -0.00000000000E+00 -0.45593999997E+02  0.45594000000E+02  0.51100000000E-03 0. -1.
    9900012    2    1    2    0    0 -0.96019551420E+00 -0.57636808853E+00  0.37293009138E+00  0.90007638847E+02  0.89999898880E+02 0.  0.
        -12    1    1    2    0    0  0.96019551420E+00  0.57636808853E+00 -0.37293009138E+00  0.11803611532E+01  0.00000000000E+00 0.  1.
         11    1    3    3    0    0 -0.19799047148E+01 -0.30422547613E+00  0.22138516218E+02  0.22228955811E+02  0.51100000000E-03 0. -1.
        -11    1    3    3    0    0 -0.74882090264E+01 -0.19942418853E+02  0.14419321246E+02  0.25723339005E+02  0.51100000000E-03 0.  1.
         12    1    3    3    0    0  0.85079182270E+01  0.19670276241E+02 -0.36184907373E+02  0.42055344031E+02  0.00000000000E+00 0. -1.
</event>
<event>
 7    1  0.3757412E-015  0.9000772E+02  0.7816164E-02  0.1186339E+00
        -11   -1    0    0    0    0  0.00000000000E+00  0.00000000000E+00  0.45593999997E+02  0.45594000000E+02  0.51100000000E-03 0.  1.
         11   -1    0    0    0    0 -0.00000000000E+00 -0.00000000000E+00 -0.45593999997E+02  0.45594000000E+02  0.51100000000E-03 0. -1.
    9900012    2    1    2    0    0 -0.93401867669E-01 -0.10263163199E+01  0.57533288265E+00  0.90007721633E+02  0.89999982759E+02 0.  0.
        -12    1    1    2    0    0  0.93401867669E-01  0.10263163199E+01 -0.57533288265E+00  0.11802783668E+01  0.00000000000E+00 0.  1.
         11    1    3    3    0    0 -0.17469371859E+01 -0.56861057425E+01 -0.75974784448E+01  0.96491070585E+01  0.51100000000E-03 0. -1.
        -11    1    3    3    0    0  0.42218816160E+01 -0.21857491006E+02 -0.27787325628E+02  0.35604910662E+02  0.51100000000E-03 0.  1.
         12    1    3    3    0    0 -0.25683462978E+01  0.26517280429E+02  0.35960136955E+02  0.44753703912E+02  0.00000000000E+00 0. -1.
</event>
<event>
 7    1  0.3757412E-015  0.9000774E+02  0.7816164E-02  0.1186339E+00
        -11   -1    0    0    0    0  0.00000000000E+00  0.00000000000E+00  0.45593999997E+02  0.45594000000E+02  0.51100000000E-03 0. -1.
         11   -1    0    0    0    0 -0.00000000000E+00 -0.00000000000E+00 -0.45593999997E+02  0.45594000000E+02  0.51100000000E-03 0.  1.
    9900012    2    1    2    0    0 -0.42657639904E+00 -0.63826364735E-01  0.10986227074E+01  0.90007740248E+02  0.90000001619E+02 0.  0.
        -12    1    1    2    0    0  0.42657639904E+00  0.63826364735E-01 -0.10986227074E+01  0.11802597520E+01  0.00000000000E+00 0.  1.
         11    1    3    3    0    0 -0.12620178247E+02 -0.32682168970E+02  0.77264502994E+01  0.35876051929E+02  0.51100000000E-03 0. -1.
        -11    1    3    3    0    0 -0.22204722268E+01 -0.53646139397E+01  0.89108653981E+01  0.10635464355E+02  0.51100000000E-03 0.  1.
        -12    1    3    3    0    0  0.14414074075E+02  0.37982956545E+02 -0.15538692990E+02  0.43496223964E+02  0.00000000000E+00 0.  1.
</event>
<event>
 7    1  0.3757412E-015  0.9000772E+02  0.7816164E-02  0.1186339E+00
        -11   -1    0    0    0    0  0.00000000000E+00  0.00000000000E+00  0.45593999997E+02  0.45594000000E+02  0.51100000000E-03 0.  1.
         11   -1    0    0    0    0 -0.00000000000E+00 -0.00000000000E+00 -0.45593999997E+02  0.45594000000E+02  0.51100000000E-03 0. -1.
    9900012    2    1    2    0    0  0.89806214504E+00 -0.53976791389E+00 -0.54331008124E+00  0.90007724243E+02  0.89999985403E+02 0.  0.
        -12    1    1    2    0    0 -0.89806214504E+00  0.53976791389E+00  0.54331008124E+00  0.11802757566E+01  0.00000000000E+00 0.  1.
         11    1    3    3    0    0  0.20469134427E+02  0.30355220634E+02 -0.20065262130E+01  0.36666756492E+02  0.51100000000E-03 0. -1.
        -11    1    3    3    0    0  0.84107206596E+01  0.33861040463E+01  0.45738447783E+00  0.90782775595E+01  0.51100000000E-03 0.  1.
        -12    1    3    3    0    0 -0.27981792941E+02 -0.34281092595E+02  0.10058316539E+01  0.44262690192E+02  0.00000000000E+00 0.  1.
</event>
<event>
 7    1  0.3757412E-015  0.9000767E+02  0.7816164E-02  0.1186339E+00
        -11   -1    0    0    0    0  0.00000000000E+00  0.00000000000E+00  0.45593999997E+02  0.45594000000E+02  0.51100000000E-03 0.  1.
         11   -1    0    0    0    0 -0.00000000000E+00 -0.00000000000E+00 -0.45593999997E+02  0.45594000000E+02  0.51100000000E-03 0. -1.
    9900012    2    1    2    0    0  0.79532913919E+00 -0.70542954538E+00  0.51284323880E+00  0.90007666373E+02  0.89999926769E+02 0.  0.
        -12    1    1    2    0    0 -0.79532913919E+00  0.70542954538E+00 -0.51284323880E+00  0.11803336269E+01  0.00000000000E+00 0.  1.
         11    1    3    3    0    0 -0.57150939512E+01 -0.14163270798E+01 -0.81592671175E+01  0.10061904463E+02  0.51100000000E-03 0. -1.
        -11    1    3    3    0    0 -0.78855285931E+00 -0.37559944125E+02  0.15042266688E+02  0.40467777375E+02  0.51100000000E-03 0.  1.
         12    1    3    3    0    0  0.72989759497E+01  0.38270841660E+02 -0.63701563313E+01  0.39477984535E+02  0.00000000000E+00 0. -1.
</event>
<event>
 7    1  0.3757412E-015  0.9000782E+02  0.7816164E-02  0.1186339E+00
        -11   -1    0    0    0    0  0.00000000000E+00  0.00000000000E+00  0.45593999997E+02  0.45594000000E+02  0.51100000000E-03 0.  1.
         11   -1    0    0    0    0 -0.00000000000E+00 -0.00000000000E+00 -0.45593999997E+02  0.45594000000E+02  0.51100000000E-03 0. -1.
    9900012    2    1    2    0    0  0.11493022505E+01 -0.26802390226E+00 -0.90499037415E-02  0.90007824430E+02  0.90000086912E+02 0.  0.
        -12    1    1    2    0    0 -0.11493022505E+01  0.26802390226E+00  0.90499037415E-02  0.11801755700E+01  0.00000000000E+00 0.  1.
         11    1    3    3    0    0 -0.15521857774E+02 -0.28312906715E+02 -0.18168851063E+02  0.37049371177E+02  0.51100000000E-03 0. -1.
        -11    1    3    3    0    0 -0.35659498022E+01 -0.76071967063E+01  0.80146024803E+00  0.84396551180E+01  0.51100000000E-03 0.  1.
        -12    1    3    3    0    0  0.20237109826E+02  0.35652079519E+02  0.17358340911E+02  0.44518798135E+02  0.00000000000E+00 0.  1.
</event>
<event>
 7    1  0.3757412E-015  0.9000773E+02  0.7816164E-02  0.1186339E+00
        -11   -1    0    0    0    0  0.00000000000E+00  0.00000000000E+00  0.45593999997E+02  0.45594000000E+02  0.51100000000E-03 0.  1.
         11   -1    0    0    0    0 -0.00000000000E+00 -0.00000000000E+00 -0.45593999997E+02  0.45594000000E+02  0.51100000000E-03 0. -1.
    9900012    2    1    2    0    0 -0.11243328843E+01  0.33052600872E+00  0.14021278137E+00  0.90007732445E+02  0.89999993713E+02 0.  0.
        -12    1    1    2    0    0  0.11243328843E+01 -0.33052600872E+00 -0.14021278137E+00  0.11802675549E+01  0.00000000000E+00 0.  1.
         11    1    3    3    0    0  0.20208485301E+02 -0.15173265185E+02 -0.22196964413E+02  0.33635042500E+02  0.51100000000E-03 0. -1.
        -11    1    3    3    0    0  0.81426388014E+01 -0.82932723655E+01 -0.13398112017E+01  0.11699402869E+02  0.51100000000E-03 0.  1.
        -12    1    3    3    0    0 -0.29475456987E+02  0.23797063559E+02  0.23676988396E+02  0.44673287076E+02  0.00000000000E+00 0.  1.
</event>
<event>
 7    1  0.3757412E-015  0.9000776E+02  0.7816164E-02  0.1186339E+00
        -11   -1    0    0    0    0  0.00000000000E+00  0.00000000000E+00  0.45593999997E+02  0.45594000000E+02  0.51100000000E-03 0. -1.
         11   -1    0    0    0    0 -0.00000000000E+00 -0.00000000000E+00 -0.45593999997E+02  0.45594000000E+02  0.51100000000E-03 0.  1.
    9900012    2    1    2    0    0 -0.60658360960E+00  0.43215979892E+00  0.91556033941E+00  0.90007764217E+02  0.90000025905E+02 0.  0.
        -12    1    1    2    0    0  0.60658360960E+00 -0.43215979892E+00 -0.91556033941E+00  0.11802357825E+01  0.00000000000E+00 0.  1.
         11    1    3    3    0    0  0.48731717610E+01  0.47796492660E+01 -0.93516226292E+00  0.68896573817E+01  0.51100000000E-03 0. -1.
        -11    1    3    3    0    0 -0.26360731938E+02  0.26331309148E+02 -0.17613887257E+02  0.41212559424E+02  0.51100000000E-03 0.  1.
         12    1    3    3    0    0  0.20880976567E+02 -0.30678798615E+02  0.19464609860E+02  0.41905547411E+02  0.00000000000E+00 0. -1.
</event>
<event>
 7    1  0.3757412E-015  0.9000804E+02  0.7816164E-02  0.1186338E+00
        -11   -1    0    0    0    0  0.00000000000E+00  0.00000000000E+00  0.45593999997E+02  0.45594000000E+02  0.51100000000E-03 0.  1.
         11   -1    0    0    0    0 -0.00000000000E+00 -0.00000000000E+00 -0.45593999997E+02  0.45594000000E+02  0.51100000000E-03 0. -1.
    9900012    2    1    2    0    0  0.10155123655E+01  0.27716695893E+00 -0.53311762640E+00  0.90008041827E+02  0.90000307178E+02 0.  0.
        -12    1    1    2    0    0 -0.10155123655E+01 -0.27716695893E+00  0.53311762640E+00  0.11799581735E+01  0.00000000000E+00 0.  1.
         11    1    3    3    0    0  0.14110324952E+02 -0.16195107961E+01 -0.33371462366E+02  0.36268148370E+02  0.51100000000E-03 0. -1.
        -11    1    3    3    0    0  0.56176526391E+01 -0.41485631588E+00 -0.74018491188E+01  0.93014782467E+01  0.51100000000E-03 0.  1.
        -12    1    3    3    0    0 -0.18712465225E+02  0.23115340709E+01  0.40240193859E+02  0.44438415210E+02  0.00000000000E+00 0.  1.
</event>
<event>
 7    1  0.3757412E-015  0.9000776E+02  0.7816164E-02  0.1186339E+00
        -11   -1    0    0    0    0  0.00000000000E+00  0.00000000000E+00  0.45593999997E+02  0.45594000000E+02  0.51100000000E-03 0.  1.
         11   -1    0    0    0    0 -0.00000000000E+00 -0.00000000000E+00 -0.45593999997E+02  0.45594000000E+02  0.51100000000E-03 0. -1.
    9900012    2    1    2    0    0  0.93747788141E-01  0.94949053157E+00 -0.69472999578E+00  0.90007758209E+02  0.90000019818E+02 0.  0.
        -12    1    1    2    0    0 -0.93747788141E-01 -0.94949053157E+00  0.69472999578E+00  0.11802417906E+01  0.00000000000E+00 0.  1.
         11    1    3    3    0    0  0.94833079435E+01 -0.16068613430E+01 -0.78316611468E+01  0.12403630497E+02  0.51100000000E-03 0. -1.
        -11    1    3    3    0    0 -0.89800336785E+01 -0.25640156688E+02  0.30600232883E+02  0.40919834953E+02  0.51100000000E-03 0.  1.
         12    1    3    3    0    0 -0.40952647679E+00  0.28196508563E+02 -0.23463301732E+02  0.36684292759E+02  0.00000000000E+00 0. -1.
</event>
<event>
 7    1  0.3757412E-015  0.9000775E+02  0.7816164E-02  0.1186339E+00
        -11   -1    0    0    0    0  0.00000000000E+00  0.00000000000E+00  0.45593999997E+02  0.45594000000E+02  0.51100000000E-03 0. -1.
         11   -1    0    0    0    0 -0.00000000000E+00 -0.00000000000E+00 -0.45593999997E+02  0.45594000000E+02  0.51100000000E-03 0.  1.
    9900012    2    1    2    0    0  0.84262399751E-01  0.79372228578E+00  0.86942657720E+00  0.90007746725E+02  0.90000008182E+02 0.  0.
        -12    1    1    2    0    0 -0.84262399751E-01 -0.79372228578E+00 -0.86942657720E+00  0.11802532746E+01  0.00000000000E+00 0.  1.
         11    1    3    3    0    0 -0.65592270396E+01 -0.60957125614E+01 -0.51953153570E+01  0.10352413869E+02  0.51100000000E-03 0. -1.
        -11    1    3    3    0    0 -0.99043707478E+01  0.86364040993E+00 -0.34249011425E+02  0.35662826844E+02  0.51100000000E-03 0.  1.
         12    1    3    3    0    0  0.16547860187E+02  0.60257944373E+01  0.40313753359E+02  0.43992506013E+02  0.00000000000E+00 0. -1.
</event>
<event>
 7    1  0.3757412E-015  0.9000772E+02  0.7816164E-02  0.1186339E+00
        -11   -1    0    0    0    0  0.00000000000E+00  0.00000000000E+00  0.45593999997E+02  0.45594000000E+02  0.51100000000E-03 0.  1.
         11   -1    0    0    0    0 -0.00000000000E+00 -0.00000000000E+00 -0.45593999997E+02  0.45594000000E+02  0.51100000000E-03 0. -1.
    9900012    2    1    2    0    0 -0.10039067488E+01 -0.46854453315E+00  0.40706872854E+00  0.90007717115E+02  0.89999978180E+02 0.  0.
        -12    1    1    2    0    0  0.10039067488E+01  0.46854453315E+00 -0.40706872854E+00  0.11802828854E+01  0.00000000000E+00 0.  1.
         11    1    3    3    0    0  0.41042736367E+01  0.52494062232E+01  0.69266055217E+01  0.96114094750E+01  0.51100000000E-03 0. -1.
        -11    1    3    3    0    0  0.23959688100E+02  0.16148943844E+02  0.20206917118E+02  0.35258680361E+02  0.51100000000E-03 0.  1.
         12    1    3    3    0    0 -0.29067868485E+02 -0.21866894600E+02 -0.26726453911E+02  0.45137627279E+02  0.00000000000E+00 0. -1.
</event>
<event>
 7    1  0.3757412E-015  0.9000770E+02  0.7816164E-02  0.1186339E+00
        -11   -1    0    0    0    0  0.00000000000E+00  0.00000000000E+00  0.45593999997E+02  0.45594000000E+02  0.51100000000E-03 0.  1.
         11   -1    0    0    0    0 -0.00000000000E+00 -0.00000000000E+00 -0.45593999997E+02  0.45594000000E+02  0.51100000000E-03 0. -1.
    9900012    2    1    2    0    0  0.83761713135E+00  0.49984556130E+00 -0.66457294713E+00  0.90007701205E+02  0.89999962061E+02 0.  0.
        -12    1    1    2    0    0 -0.83761713135E+00 -0.49984556130E+00  0.66457294713E+00  0.11802987952E+01  0.00000000000E+00 0.  1.
         11    1    3    3    0    0 -0.84965196840E+01 -0.29589422983E+01  0.30040984207E+01  0.94852935562E+01  0.51100000000E-03 0. -1.
        -11    1    3    3    0    0 -0.10006559274E+02  0.32040838393E+02  0.19627815848E+02  0.38884414727E+02  0.51100000000E-03 0.  1.
         12    1    3    3    0    0  0.19340696089E+02 -0.28582050534E+02 -0.23296487216E+02  0.41637992921E+02  0.00000000000E+00 0. -1.
</event>
<event>
 7    1  0.3757412E-015  0.9000778E+02  0.7816164E-02  0.1186339E+00
        -11   -1    0    0    0    0  0.00000000000E+00  0.00000000000E+00  0.45593999997E+02  0.45594000000E+02  0.51100000000E-03 0. -1.
         11   -1    0    0    0    0 -0.00000000000E+00 -0.00000000000E+00 -0.45593999997E+02  0.45594000000E+02  0.51100000000E-03 0.  1.
    9900012    2    1    2    0    0 -0.11435532277E+01 -0.28890926748E+00  0.41789922671E-01  0.90007775891E+02  0.90000037733E+02 0.  0.
        -12    1    1    2    0    0  0.11435532277E+01  0.28890926748E+00 -0.41789922671E-01  0.11802241088E+01  0.00000000000E+00 0.  1.
         11    1    3    3    0    0 -0.22561110642E+01  0.76515613222E+01 -0.24316397717E+01  0.83396222961E+01  0.51100000000E-03 0. -1.
        -11    1    3    3    0    0 -0.33331991215E+02  0.17722952168E+02 -0.49617270421E+01  0.38075496155E+02  0.51100000000E-03 0.  1.
         12    1    3    3    0    0  0.34444549052E+02 -0.25663422757E+02  0.74351567365E+01  0.43592657440E+02  0.00000000000E+00 0. -1.
</event>
<event>
 7    1  0.3757412E-015  0.9000772E+02  0.7816164E-02  0.1186339E+00
        -11   -1    0    0    0    0  0.00000000000E+00  0.00000000000E+00  0.45593999997E+02  0.45594000000E+02  0.51100000000E-03 0. -1.
         11   -1    0    0    0    0 -0.00000000000E+00 -0.00000000000E+00 -0.45593999997E+02  0.45594000000E+02  0.51100000000E-03 0.  1.
    9900012    2    1    2    0    0 -0.48628657723E-01 -0.26335703579E-01  0.11789873971E+01  0.90007716306E+02  0.89999977361E+02 0.  0.
        -12    1    1    2    0    0  0.48628657723E-01  0.26335703579E-01 -0.11789873971E+01  0.11802836939E+01  0.00000000000E+00 0.  1.
         11    1    3    3    0    0 -0.28301865570E+02  0.14068026452E+02 -0.21644957886E+02  0.38306777013E+02  0.51100000000E-03 0. -1.
        -11    1    3    3    0    0 -0.67049138163E+00 -0.92616045446E+01 -0.56146499004E+01  0.10851321173E+02  0.51100000000E-03 0.  1.
        -12    1    3    3    0    0  0.28923728294E+02 -0.48327576114E+01  0.28438595183E+02  0.40849618120E+02  0.00000000000E+00 0.  1.
</event>
<event>
 7    1  0.3757412E-015  0.9000773E+02  0.7816164E-02  0.1186339E+00
        -11   -1    0    0    0    0  0.00000000000E+00  0.00000000000E+00  0.45593999997E+02  0.45594000000E+02  0.51100000000E-03 0. -1.
         11   -1    0    0    0    0 -0.00000000000E+00 -0.00000000000E+00 -0.45593999997E+02  0.45594000000E+02  0.51100000000E-03 0.  1.
    9900012    2    1    2    0    0 -0.81221447415E+00 -0.55613149161E+00  0.65120747494E+00  0.90007726403E+02  0.89999987592E+02 0.  0.
        -12    1    1    2    0    0  0.81221447415E+00  0.55613149161E+00 -0.65120747494E+00  0.11802735968E+01  0.00000000000E+00 0.  1.
         11    1    3    3    0    0  0.76359259836E+00 -0.12489216747E+02  0.19754472636E+01  0.12667517546E+02  0.51100000000E-03 0. -1.
        -11    1    3    3    0    0 -0.94176999910E+01  0.16469367853E+02 -0.36435546994E+02  0.41078975591E+02  0.51100000000E-03 0.  1.
         12    1    3    3    0    0  0.78418929185E+01 -0.45362825971E+01  0.35111307205E+02  0.36261233267E+02  0.00000000000E+00 0. -1.
</event>
<event>
 7    1  0.3757412E-015  0.9000741E+02  0.7816164E-02  0.1186340E+00
        -11   -1    0    0    0    0  0.00000000000E+00  0.00000000000E+00  0.45593999997E+02  0.45594000000E+02  0.51100000000E-03 0. -1.
         11   -1    0    0    0    0 -0.00000000000E+00 -0.00000000000E+00 -0.45593999997E+02  0.45594000000E+02  0.51100000000E-03 0.  1.
    9900012    2    1    2    0    0  0.69523801601E+00 -0.93150848724E+00 -0.20673599479E+00  0.90007405348E+02  0.89999662298E+02 0.  0.
        -12    1    1    2    0    0 -0.69523801601E+00  0.93150848724E+00  0.20673599479E+00  0.11805946520E+01  0.00000000000E+00 0.  1.
         11    1    3    3    0    0  0.26566074908E+02  0.16200539856E+02  0.20083735417E+02  0.37034716905E+02  0.51100000000E-03 0. -1.
        -11    1    3    3    0    0  0.46081363567E+01  0.79767214021E+01 -0.59170793520E+01  0.10948736609E+02  0.51100000000E-03 0.  1.
        -12    1    3    3    0    0 -0.30478973249E+02 -0.25108769745E+02 -0.14373392060E+02  0.42023951834E+02  0.00000000000E+00 0.  1.
</event>
<event>
 7    1  0.3757412E-015  0.9000780E+02  0.7816164E-02  0.1186339E+00
        -11   -1    0    0    0    0  0.00000000000E+00  0.00000000000E+00  0.45593999997E+02  0.45594000000E+02  0.51100000000E-03 0.  1.
         11   -1    0    0    0    0 -0.00000000000E+00 -0.00000000000E+00 -0.45593999997E+02  0.45594000000E+02  0.51100000000E-03 0. -1.
    9900012    2    1    2    0    0  0.39621278090E+00 -0.38821609572E+00 -0.10417161697E+01  0.90007801338E+02  0.90000063515E+02 0.  0.
        -12    1    1    2    0    0 -0.39621278090E+00  0.38821609572E+00  0.10417161697E+01  0.11801986625E+01  0.00000000000E+00 0.  1.
         11    1    3    3    0    0 -0.33963556871E+00 -0.10422903604E+02  0.60033361402E+01  0.12032967918E+02  0.51100000000E-03 0. -1.
        -11    1    3    3    0    0 -0.93559836812E+01 -0.20170268229E+02  0.24544846178E+02  0.33118327633E+02  0.51100000000E-03 0.  1.
         12    1    3    3    0    0  0.10091832031E+02  0.30204955737E+02 -0.31589898488E+02  0.44856505786E+02  0.00000000000E+00 0. -1.
</event>
<event>
 7    1  0.3757412E-015  0.9000790E+02  0.7816164E-02  0.1186339E+00
        -11   -1    0    0    0    0  0.00000000000E+00  0.00000000000E+00  0.45593999997E+02  0.45594000000E+02  0.51100000000E-03 0.  1.
         11   -1    0    0    0    0 -0.00000000000E+00 -0.00000000000E+00 -0.45593999997E+02  0.45594000000E+02  0.51100000000E-03 0. -1.
    9900012    2    1    2    0    0  0.40963175076E-01  0.84579887893E+00 -0.82193514097E+00  0.90007902080E+02  0.90000165587E+02 0.  0.
        -12    1    1    2    0    0 -0.40963175076E-01 -0.84579887893E+00  0.82193514097E+00  0.11800979202E+01  0.00000000000E+00 0.  1.
         11    1    3    3    0    0  0.23297144332E+01 -0.81516816147E+01  0.20172915723E+01  0.87147546171E+01  0.51100000000E-03 0. -1.
        -11    1    3    3    0    0 -0.33795913127E+02  0.20953554052E+02  0.15792978494E+02  0.42785901199E+02  0.51100000000E-03 0.  1.
         12    1    3    3    0    0  0.31507161868E+02 -0.11956073558E+02 -0.18632205207E+02  0.38507246264E+02  0.00000000000E+00 0. -1.
</event>
<event>
 7    1  0.3757412E-015  0.9000750E+02  0.7816164E-02  0.1186340E+00
        -11   -1    0    0    0    0  0.00000000000E+00  0.00000000000E+00  0.45593999997E+02  0.45594000000E+02  0.51100000000E-03 0. -1.
         11   -1    0    0    0    0 -0.00000000000E+00 -0.00000000000E+00 -0.45593999997E+02  0.45594000000E+02  0.51100000000E-03 0.  1.
    9900012    2    1    2    0    0  0.55406452275E+00  0.99202575999E-01  0.10376667381E+01  0.90007499722E+02  0.89999757918E+02 0.  0.
        -12    1    1    2    0    0 -0.55406452275E+00 -0.99202575999E-01 -0.10376667381E+01  0.11805002777E+01  0.00000000000E+00 0.  1.
         11    1    3    3    0    0  0.17435445487E+02  0.11252284237E+02 -0.30183328028E+02  0.36628430911E+02  0.51100000000E-03 0. -1.
        -11    1    3    3    0    0  0.12054446605E+02  0.56309903844E+00  0.81689476124E+01  0.14572524450E+02  0.51100000000E-03 0.  1.
        -12    1    3    3    0    0 -0.28935827570E+02 -0.11716180699E+02  0.23052047154E+02  0.38806544362E+02  0.00000000000E+00 0.  1.
</event>
<event>
 7    1  0.3944579E-015  0.9000762E+02  0.7816164E-02  0.1186339E+00
        -11   -1    0    0    0    0  0.00000000000E+00  0.00000000000E+00  0.45593999997E+02  0.45594000000E+02  0.51100000000E-03 0.  1.
         11   -1    0    0    0    0 -0.00000000000E+00 -0.00000000000E+00 -0.45593999997E+02  0.45594000000E+02  0.51100000000E-03 0. -1.
    9900012    2    1    2    0    0 -0.54371024583E-01  0.78066575877E+00 -0.88367979873E+00  0.90007624966E+02  0.89999884815E+02 0.  0.
        -12    1    1    2    0    0  0.54371024583E-01 -0.78066575877E+00  0.88367979873E+00  0.11803750344E+01  0.00000000000E+00 0.  1.
         11    1    3    3    0    0 -0.16193578743E+02 -0.22360883462E+02 -0.24284745530E+02  0.36769416196E+02  0.51100000000E-03 0. -1.
        -11    1    3    3    0    0 -0.85644251764E+01 -0.23152968830E+01 -0.26133657779E+01  0.92487652803E+01  0.51100000000E-03 0.  1.
        -12    1    3    3    0    0  0.24703632894E+02  0.25456846104E+02  0.26014431509E+02  0.43989443489E+02  0.00000000000E+00 0.  1.
</event>
<event>
 7    1  0.3757412E-015  0.9000772E+02  0.7816164E-02  0.1186339E+00
        -11   -1    0    0    0    0  0.00000000000E+00  0.00000000000E+00  0.45593999997E+02  0.45594000000E+02  0.51100000000E-03 0.  1.
         11   -1    0    0    0    0 -0.00000000000E+00 -0.00000000000E+00 -0.45593999997E+02  0.45594000000E+02  0.51100000000E-03 0. -1.
    9900012    2    1    2    0    0 -0.77555906450E+00  0.48282010503E+00 -0.74729333919E+00  0.90007722723E+02  0.89999983863E+02 0.  0.
        -12    1    1    2    0    0  0.77555906450E+00 -0.48282010503E+00  0.74729333919E+00  0.11802772772E+01  0.00000000000E+00 0.  1.
         11    1    3    3    0    0 -0.58488351382E+01  0.23312369386E+02  0.77445781654E+01  0.25251810432E+02  0.51100000000E-03 0. -1.
        -11    1    3    3    0    0 -0.70406796168E+01 -0.78596446985E+01  0.24432231742E+02  0.26613514093E+02  0.51100000000E-03 0.  1.
         12    1    3    3    0    0  0.12113955691E+02 -0.14969904582E+02 -0.32924103246E+02  0.38142398198E+02  0.00000000000E+00 0. -1.
</event>
<event>
 7    1  0.3757412E-015  0.9000765E+02  0.7816164E-02  0.1186339E+00
        -11   -1    0    0    0    0  0.00000000000E+00  0.00000000000E+00  0.45593999997E+02  0.45594000000E+02  0.51100000000E-03 0. -1.
         11   -1    0    0    0    0 -0.00000000000E+00 -0.00000000000E+00 -0.45593999997E+02  0.45594000000E+02  0.51100000000E-03 0.  1.
    9900012    2    1    2    0    0 -0.44653194670E+00  0.84549625656E+00  0.69207151617E+00  0.90007653575E+02  0.89999913802E+02 0.  0.
        -12    1    1    2    0    0  0.44653194670E+00 -0.84549625656E+00 -0.69207151617E+00  0.11803464249E+01  0.00000000000E+00 0.  1.
         11    1    3    3    0    0 -0.84345798286E-01 -0.54006475945E+01  0.95414124531E+01  0.10964153434E+02  0.51100000000E-03 0. -1.
        -11    1    3    3    0    0 -0.37596538362E+02  0.87411384085E+01 -0.14633396616E+02  0.41280061703E+02  0.51100000000E-03 0.  1.
         12    1    3    3    0    0  0.37234352213E+02 -0.24949945574E+01  0.57840556790E+01  0.37763438438E+02  0.00000000000E+00 0. -1.
</event>
<event>
 7    1  0.3757412E-015  0.9000767E+02  0.7816164E-02  0.1186339E+00
        -11   -1    0    0    0    0  0.00000000000E+00  0.00000000000E+00  0.45593999997E+02  0.45594000000E+02  0.51100000000E-03 0. -1.
         11   -1    0    0    0    0 -0.00000000000E+00 -0.00000000000E+00 -0.45593999997E+02  0.45594000000E+02  0.51100000000E-03 0.  1.
    9900012    2    1    2    0    0 -0.83442666094E+00 -0.54961852344E-01  0.83299859606E+00  0.90007671521E+02  0.89999931985E+02 0.  0.
        -12    1    1    2    0    0  0.83442666094E+00  0.54961852344E-01 -0.83299859606E+00  0.11803284792E+01  0.00000000000E+00 0.  1.
         11    1    3    3    0    0  0.63240974117E+01 -0.88397331437E+01 -0.87873474220E+00  0.10904460791E+02  0.51100000000E-03 0. -1.
        -11    1    3    3    0    0 -0.13090340427E+02 -0.14512114310E+02 -0.32120846071E+02  0.37599298222E+02  0.51100000000E-03 0.  1.
         12    1    3    3    0    0  0.59318163542E+01  0.23296885601E+02  0.33832579409E+02  0.41503912508E+02  0.00000000000E+00 0. -1.
</event>
<event>
 7    1  0.3757412E-015  0.9000772E+02  0.7816164E-02  0.1186339E+00
        -11   -1    0    0    0    0  0.00000000000E+00  0.00000000000E+00  0.45593999997E+02  0.45594000000E+02  0.51100000000E-03 0.  1.
         11   -1    0    0    0    0 -0.00000000000E+00 -0.00000000000E+00 -0.45593999997E+02  0.45594000000E+02  0.51100000000E-03 0. -1.
    9900012    2    1    2    0    0  0.17344192528E+00 -0.46783477351E+00 -0.10696326398E+01  0.90007718059E+02  0.89999979137E+02 0.  0.
        -12    1    1    2    0    0 -0.17344192528E+00  0.46783477351E+00  0.10696326398E+01  0.11802819413E+01  0.00000000000E+00 0.  1.
         11    1    3    3    0    0  0.96255810232E+01 -0.33285263085E+02 -0.13669517229E+02  0.37248036864E+02  0.51100000000E-03 0. -1.
        -11    1    3    3    0    0  0.45271033484E+01 -0.73249569111E+01  0.81538684820E+00  0.86495383952E+01  0.51100000000E-03 0.  1.
        -12    1    3    3    0    0 -0.13979242446E+02  0.40142385223E+02  0.11784497741E+02  0.44110142799E+02  0.00000000000E+00 0.  1.
</event>
<event>
 7    1  0.3757412E-015  0.9000823E+02  0.7816164E-02  0.1186338E+00
        -11   -1    0    0    0    0  0.00000000000E+00  0.00000000000E+00  0.45593999997E+02  0.45594000000E+02  0.51100000000E-03 0.  1.
         11   -1    0    0    0    0 -0.00000000000E+00 -0.00000000000E+00 -0.45593999997E+02  0.45594000000E+02  0.51100000000E-03 0. -1.
    9900012    2    1    2    0    0  0.35411765451E+00  0.42413552735E+00 -0.10423837161E+01  0.90008231349E+02  0.90000499201E+02 0.  0.
        -12    1    1    2    0    0 -0.35411765451E+00 -0.42413552735E+00  0.10423837161E+01  0.11797686512E+01  0.00000000000E+00 0.  1.
         11    1    3    3    0    0  0.77663067518E+01  0.28071692498E+01  0.26408504929E+01  0.86700525574E+01  0.51100000000E-03 0. -1.
        -11    1    3    3    0    0 -0.32007988817E+01 -0.27708185318E+02  0.28694663344E+02  0.40017150720E+02  0.51100000000E-03 0.  1.
         12    1    3    3    0    0 -0.42113902156E+01  0.25325151595E+02 -0.32377897553E+02  0.41321028071E+02  0.00000000000E+00 0. -1.
</event>
<event>
 7    1  0.3757412E-015  0.9000755E+02  0.7816164E-02  0.1186339E+00
        -11   -1    0    0    0    0  0.00000000000E+00  0.00000000000E+00  0.45593999997E+02  0.45594000000E+02  0.51100000000E-03 0.  1.
         11   -1    0    0    0    0 -0.00000000000E+00 -0.00000000000E+00 -0.45593999997E+02  0.45594000000E+02  0.51100000000E-03 0. -1.
    9900012    2    1    2    0    0  0.44130349337E+00  0.29164468219E+00 -0.10553037531E+01  0.90007546102E+02  0.89999804910E+02 0.  0.
        -12    1    1    2    0    0 -0.44130349337E+00 -0.29164468219E+00  0.10553037531E+01  0.11804538979E+01  0.00000000000E+00 0.  1.
         11    1    3    3    0    0 -0.20620655574E+02 -0.15726916046E+02 -0.24934138321E+02  0.35975805463E+02  0.51100000000E-03 0. -1.
        -11    1    3    3    0    0 -0.38999990680E+01 -0.73458493395E+01 -0.46265035272E+01  0.95171440252E+01  0.51100000000E-03 0.  1.
        -12    1    3    3    0    0  0.24961958135E+02  0.23364410068E+02  0.28505338095E+02  0.44514596614E+02  0.00000000000E+00 0.  1.
</event>
<event>
 7    1  0.3757412E-015  0.9000747E+02  0.7816164E-02  0.1186340E+00
        -11   -1    0    0    0    0  0.00000000000E+00  0.00000000000E+00  0.45593999997E+02  0.45594000000E+02  0.51100000000E-03 0. -1.
         11   -1    0    0    0    0 -0.00000000000E+00 -0.00000000000E+00 -0.45593999997E+02  0.45594000000E+02  0.51100000000E-03 0.  1.
    9900012    2    1    2    0    0  0.95830233239E+00 -0.68514946152E+00 -0.76735478042E-01  0.90007465596E+02  0.89999723342E+02 0.  0.
        -12    1    1    2    0    0 -0.95830233239E+00  0.68514946152E+00  0.76735478042E-01  0.11805344038E+01  0.00000000000E+00 0.  1.
         11    1    3    3    0    0  0.39020336995E+02 -0.26988612077E+00 -0.74968427121E+01  0.39734898875E+02  0.51100000000E-03 0. -1.
        -11    1    3    3    0    0 -0.44116498793E+00 -0.95257624719E+01 -0.33276005824E+01  0.10099886292E+02  0.51100000000E-03 0.  1.
        -12    1    3    3    0    0 -0.37620869675E+02  0.91104991311E+01  0.10747707816E+02  0.40172680429E+02  0.00000000000E+00 0.  1.
</event>
<event>
 7    1  0.3757412E-015  0.9000767E+02  0.7816164E-02  0.1186339E+00
        -11   -1    0    0    0    0  0.00000000000E+00  0.00000000000E+00  0.45593999997E+02  0.45594000000E+02  0.51100000000E-03 0.  1.
         11   -1    0    0    0    0 -0.00000000000E+00 -0.00000000000E+00 -0.45593999997E+02  0.45594000000E+02  0.51100000000E-03 0. -1.
    9900012    2    1    2    0    0  0.12314339428E+00  0.10896024818E+01 -0.43678446428E+00  0.90007670160E+02  0.89999930606E+02 0.  0.
        -12    1    1    2    0    0 -0.12314339428E+00 -0.10896024818E+01  0.43678446428E+00  0.11803298404E+01  0.00000000000E+00 0.  1.
         11    1    3    3    0    0 -0.39298210807E+01  0.24700750096E+02 -0.30045213864E+02  0.39093291309E+02  0.51100000000E-03 0. -1.
        -11    1    3    3    0    0  0.55932841092E+01 -0.45363080425E+01 -0.67224186343E+01  0.98515902441E+01  0.51100000000E-03 0.  1.
        -12    1    3    3    0    0 -0.15403196342E+01 -0.19074839572E+02  0.36330848034E+02  0.41062788606E+02  0.00000000000E+00 0.  1.
</event>
<event>
 7    1  0.3757412E-015  0.9000773E+02  0.7816164E-02  0.1186339E+00
        -11   -1    0    0    0    0  0.00000000000E+00  0.00000000000E+00  0.45593999997E+02  0.45594000000E+02  0.51100000000E-03 0.  1.
         11   -1    0    0    0    0 -0.00000000000E+00 -0.00000000000E+00 -0.45593999997E+02  0.45594000000E+02  0.51100000000E-03 0. -1.
    9900012    2    1    2    0    0 -0.88385611367E-01  0.89226104605E+00  0.76753265940E+00  0.90007725382E+02  0.89999986557E+02 0.  0.
        -12    1    1    2    0    0  0.88385611367E-01 -0.89226104605E+00 -0.76753265940E+00  0.11802746180E+01  0.00000000000E+00 0.  1.
         11    1    3    3    0    0  0.45409422681E+01 -0.55024313912E+01  0.12242770097E+01  0.72384917182E+01  0.51100000000E-03 0. -1.
        -11    1    3    3    0    0  0.16638277251E+02 -0.33006078949E+02 -0.66901910010E+01  0.37563175763E+02  0.51100000000E-03 0.  1.
         12    1    3    3    0    0 -0.21267605131E+02  0.39400771386E+02  0.62334466507E+01  0.45206057901E+02  0.00000000000E+00 0. -1.
</event>
<event>
 7    1  0.3757412E-015  0.9000772E+02  0.7816164E-02  0.1186339E+00
        -11   -1    0    0    0    0  0.00000000000E+00  0.00000000000E+00  0.45593999997E+02  0.45594000000E+02  0.51100000000E-03 0.  1.
         11   -1    0    0    0    0 -0.00000000000E+00 -0.00000000000E+00 -0.45593999997E+02  0.45594000000E+02  0.51100000000E-03 0. -1.
    9900012    2    1    2    0    0 -0.95905818992E+00 -0.46256476531E+00  0.50921663068E+00  0.90007720224E+02  0.89999981330E+02 0.  0.
        -12    1    1    2    0    0  0.95905818992E+00  0.46256476531E+00 -0.50921663068E+00  0.11802797765E+01  0.00000000000E+00 0.  1.
         11    1    3    3    0    0  0.91314528351E+01 -0.40008830033E+02  0.12819739640E+02  0.42993437129E+02  0.51100000000E-03 0. -1.
        -11    1    3    3    0    0  0.78053948344E+00  0.35708039782E+01 -0.84840319887E+01  0.92378938066E+01  0.51100000000E-03 0.  1.
        -12    1    3    3    0    0 -0.10871050508E+02  0.35975461289E+02 -0.38264910203E+01  0.37776389288E+02  0.00000000000E+00 0.  1.
</event>
<event>
 7    1  0.4237635E-015  0.9000776E+02  0.7816164E-02  0.1186339E+00
        -11   -1    0    0    0    0  0.00000000000E+00  0.00000000000E+00  0.45593999997E+02  0.45594000000E+02  0.51100000000E-03 0. -1.
         11   -1    0    0    0    0 -0.00000000000E+00 -0.00000000000E+00 -0.45593999997E+02  0.45594000000E+02  0.51100000000E-03 0.  1.
    9900012    2    1    2    0    0 -0.74578521995E+00 -0.19636600016E+00  0.89342813910E+00  0.90007758906E+02  0.90000020524E+02 0.  0.
        -12    1    1    2    0    0  0.74578521995E+00  0.19636600016E+00 -0.89342813910E+00  0.11802410940E+01  0.00000000000E+00 0.  1.
         11    1    3    3    0    0 -0.18421727456E+02  0.29018789192E+02  0.14246702105E+02  0.37207777275E+02  0.51100000000E-03 0. -1.
        -11    1    3    3    0    0  0.12087087111E+01  0.90221010604E+01 -0.48273519677E+01  0.10303524231E+02  0.51100000000E-03 0.  1.
        -12    1    3    3    0    0  0.16467233525E+02 -0.38237256252E+02 -0.85259219978E+01  0.42496457400E+02  0.00000000000E+00 0.  1.
</event>
<event>
 7    1  0.3757412E-015  0.9000773E+02  0.7816164E-02  0.1186339E+00
        -11   -1    0    0    0    0  0.00000000000E+00  0.00000000000E+00  0.45593999997E+02  0.45594000000E+02  0.51100000000E-03 0.  1.
         11   -1    0    0    0    0 -0.00000000000E+00 -0.00000000000E+00 -0.45593999997E+02  0.45594000000E+02  0.51100000000E-03 0. -1.
    9900012    2    1    2    0    0 -0.81159466668E+00 -0.81250408667E+00 -0.27235455304E+00  0.90007734862E+02  0.89999996162E+02 0.  0.
        -12    1    1    2    0    0  0.81159466668E+00  0.81250408667E+00  0.27235455304E+00  0.11802651382E+01  0.00000000000E+00 0.  1.
         11    1    3    3    0    0 -0.35206499943E+02 -0.17296144205E+02 -0.14153968521E+01  0.39251211333E+02  0.51100000000E-03 0. -1.
        -11    1    3    3    0    0 -0.59944544061E+01  0.43566836855E+01 -0.37460058717E+01  0.83034171649E+01  0.51100000000E-03 0.  1.
        -12    1    3    3    0    0  0.40389359683E+02  0.12126956432E+02  0.48890481708E+01  0.42453106364E+02  0.00000000000E+00 0.  1.
</event>
<event>
 7    1  0.3757412E-015  0.9000776E+02  0.7816164E-02  0.1186339E+00
        -11   -1    0    0    0    0  0.00000000000E+00  0.00000000000E+00  0.45593999997E+02  0.45594000000E+02  0.51100000000E-03 0.  1.
         11   -1    0    0    0    0 -0.00000000000E+00 -0.00000000000E+00 -0.45593999997E+02  0.45594000000E+02  0.51100000000E-03 0. -1.
    9900012    2    1    2    0    0 -0.10237121760E+01 -0.57585648610E+00 -0.11562757719E+00  0.90007759750E+02  0.90000021378E+02 0.  0.
        -12    1    1    2    0    0  0.10237121760E+01  0.57585648610E+00  0.11562757719E+00  0.11802402504E+01  0.00000000000E+00 0.  1.
         11    1    3    3    0    0 -0.21877425005E+02  0.17030088369E+02 -0.21793665814E+02  0.35264848001E+02  0.51100000000E-03 0. -1.
        -11    1    3    3    0    0 -0.16659838298E+01  0.10007901442E+02 -0.39119576304E+01  0.10873684112E+02  0.51100000000E-03 0.  1.
        -12    1    3    3    0    0  0.22519696659E+02 -0.27613846297E+02  0.25589995867E+02  0.43869227636E+02  0.00000000000E+00 0.  1.
</event>
<event>
 7    1  0.3757412E-015  0.9000775E+02  0.7816164E-02  0.1186339E+00
        -11   -1    0    0    0    0  0.00000000000E+00  0.00000000000E+00  0.45593999997E+02  0.45594000000E+02  0.51100000000E-03 0. -1.
         11   -1    0    0    0    0 -0.00000000000E+00 -0.00000000000E+00 -0.45593999997E+02  0.45594000000E+02  0.51100000000E-03 0.  1.
    9900012    2    1    2    0    0  0.58919244757E+00 -0.27582167584E+00  0.98476658963E+00  0.90007749784E+02  0.90000011281E+02 0.  0.
        -12    1    1    2    0    0 -0.58919244757E+00  0.27582167584E+00 -0.98476658963E+00  0.11802502163E+01  0.00000000000E+00 0.  1.
         11    1    3    3    0    0 -0.19540007971E+02 -0.29197882391E+02  0.99839562445E+01  0.36524069189E+02  0.51100000000E-03 0. -1.
        -11    1    3    3    0    0 -0.10314241844E+02 -0.51226653698E+00 -0.86114639214E+00  0.10362797652E+02  0.51100000000E-03 0.  1.
        -12    1    3    3    0    0  0.30443442262E+02  0.29434327252E+02 -0.81380432627E+01  0.43120882942E+02  0.00000000000E+00 0.  1.
</event>
<event>
 7    1  0.3757412E-015  0.9000765E+02  0.7816164E-02  0.1186339E+00
        -11   -1    0    0    0    0  0.00000000000E+00  0.00000000000E+00  0.45593999997E+02  0.45594000000E+02  0.51100000000E-03 0.  1.
         11   -1    0    0    0    0 -0.00000000000E+00 -0.00000000000E+00 -0.45593999997E+02  0.45594000000E+02  0.51100000000E-03 0. -1.
    9900012    2    1    2    0    0 -0.85345321191E+00  0.72233771356E+00 -0.37823400189E+00  0.90007654662E+02  0.89999914903E+02 0.  0.
        -12    1    1    2    0    0  0.85345321191E+00 -0.72233771356E+00  0.37823400189E+00  0.11803453383E+01  0.00000000000E+00 0.  1.
         11    1    3    3    0    0 -0.11299277235E+02  0.13033986909E+02 -0.31780115142E+02  0.36159842360E+02  0.51100000000E-03 0. -1.
        -11    1    3    3    0    0 -0.62030068731E+01 -0.98182628446E+01 -0.58242051698E+01  0.12992187871E+02  0.51100000000E-03 0.  1.
        -12    1    3    3    0    0  0.16648830896E+02 -0.24933863513E+01  0.37226086310E+02  0.40855624431E+02  0.00000000000E+00 0.  1.
</event>
<event>
 7    1  0.3757412E-015  0.9000773E+02  0.7816164E-02  0.1186339E+00
        -11   -1    0    0    0    0  0.00000000000E+00  0.00000000000E+00  0.45593999997E+02  0.45594000000E+02  0.51100000000E-03 0.  1.
         11   -1    0    0    0    0 -0.00000000000E+00 -0.00000000000E+00 -0.45593999997E+02  0.45594000000E+02  0.51100000000E-03 0. -1.
    9900012    2    1    2    0    0 -0.11654669903E+01  0.57162208854E-01  0.17738371039E+00  0.90007726386E+02  0.89999987574E+02 0.  0.
        -12    1    1    2    0    0  0.11654669903E+01 -0.57162208854E-01 -0.17738371039E+00  0.11802736142E+01  0.00000000000E+00 0.  1.
         11    1    3    3    0    0  0.64736088195E+01  0.74414696737E+01  0.26145455545E+01  0.10203868422E+02  0.51100000000E-03 0. -1.
        -11    1    3    3    0    0  0.22647979953E+02 -0.22258257355E+02  0.21574261291E+02  0.38390230097E+02  0.51100000000E-03 0.  1.
         12    1    3    3    0    0 -0.30287055763E+02  0.14873949890E+02 -0.24011423135E+02  0.41413627867E+02  0.00000000000E+00 0. -1.
</event>
<event>
 7    1  0.3757412E-015  0.9000782E+02  0.7816164E-02  0.1186339E+00
        -11   -1    0    0    0    0  0.00000000000E+00  0.00000000000E+00  0.45593999997E+02  0.45594000000E+02  0.51100000000E-03 0.  1.
         11   -1    0    0    0    0 -0.00000000000E+00 -0.00000000000E+00 -0.45593999997E+02  0.45594000000E+02  0.51100000000E-03 0. -1.
    9900012    2    1    2    0    0  0.88112274523E+00 -0.20033041131E+00 -0.75915911023E+00  0.90007816912E+02  0.90000079296E+02 0.  0.
        -12    1    1    2    0    0 -0.88112274523E+00  0.20033041131E+00  0.75915911023E+00  0.11801830877E+01  0.00000000000E+00 0.  1.
         11    1    3    3    0    0 -0.15606671642E+02  0.33592947318E+02  0.35757553872E-01  0.37041268716E+02  0.51100000000E-03 0. -1.
        -11    1    3    3    0    0 -0.78623961644E+01  0.35530656964E+00  0.67302742769E+01  0.10355680002E+02  0.51100000000E-03 0.  1.
        -12    1    3    3    0    0  0.24350190552E+02 -0.34148584299E+02 -0.75251909410E+01  0.42610868194E+02  0.00000000000E+00 0.  1.
</event>
<event>
 7    1  0.3757412E-015  0.9000792E+02  0.7816164E-02  0.1186339E+00
        -11   -1    0    0    0    0  0.00000000000E+00  0.00000000000E+00  0.45593999997E+02  0.45594000000E+02  0.51100000000E-03 0.  1.
         11   -1    0    0    0    0 -0.00000000000E+00 -0.00000000000E+00 -0.45593999997E+02  0.45594000000E+02  0.51100000000E-03 0. -1.
    9900012    2    1    2    0    0  0.76472416138E+00 -0.89477833268E+00  0.84613313601E-01  0.90007919189E+02  0.90000182922E+02 0.  0.
        -12    1    1    2    0    0 -0.76472416138E+00  0.89477833268E+00 -0.84613313601E-01  0.11800808110E+01  0.00000000000E+00 0.  1.
         11    1    3    3    0    0 -0.30034650565E+02 -0.42645444695E+01 -0.21370175295E+02  0.37107289937E+02  0.51100000000E-03 0. -1.
        -11    1    3    3    0    0 -0.64298153600E+00 -0.67117721565E+01 -0.67017076861E+01  0.95065344320E+01  0.51100000000E-03 0.  1.
        -12    1    3    3    0    0  0.31442356262E+02  0.10081538293E+02  0.28156496295E+02  0.43394094820E+02  0.00000000000E+00 0.  1.
</event>
<event>
 7    1  0.3757412E-015  0.9000778E+02  0.7816164E-02  0.1186339E+00
        -11   -1    0    0    0    0  0.00000000000E+00  0.00000000000E+00  0.45593999997E+02  0.45594000000E+02  0.51100000000E-03 0.  1.
         11   -1    0    0    0    0 -0.00000000000E+00 -0.00000000000E+00 -0.45593999997E+02  0.45594000000E+02  0.51100000000E-03 0. -1.
    9900012    2    1    2    0    0  0.64896154912E+00  0.97443372441E+00  0.14911879790E+00  0.90007784515E+02  0.90000046470E+02 0.  0.
        -12    1    1    2    0    0 -0.64896154912E+00 -0.97443372441E+00 -0.14911879790E+00  0.11802154851E+01  0.00000000000E+00 0.  1.
         11    1    3    3    0    0  0.77574577730E+01  0.27562882120E+00 -0.16554139699E+02  0.18283699401E+02  0.51100000000E-03 0. -1.
        -11    1    3    3    0    0  0.25735237994E+02  0.18110652568E+02  0.14028545683E+02  0.34454292988E+02  0.51100000000E-03 0.  1.
         12    1    3    3    0    0 -0.32843734218E+02 -0.17411847665E+02  0.26747128148E+01  0.37269792126E+02  0.00000000000E+00 0. -1.
</event>
<event>
 7    1  0.3757412E-015  0.9000768E+02  0.7816164E-02  0.1186339E+00
        -11   -1    0    0    0    0  0.00000000000E+00  0.00000000000E+00  0.45593999997E+02  0.45594000000E+02  0.51100000000E-03 0.  1.
         11   -1    0    0    0    0 -0.00000000000E+00 -0.00000000000E+00 -0.45593999997E+02  0.45594000000E+02  0.51100000000E-03 0. -1.
    9900012    2    1    2    0    0  0.11047730257E+01  0.23681242447E+00  0.34139456673E+00  0.90007680631E+02  0.89999941215E+02 0.  0.
        -12    1    1    2    0    0 -0.11047730257E+01 -0.23681242447E+00 -0.34139456673E+00  0.11803193690E+01  0.00000000000E+00 0.  1.
         11    1    3    3    0    0 -0.15993513329E+01  0.41302738788E+01  0.81264818041E+01  0.92550955572E+01  0.51100000000E-03 0. -1.
        -11    1    3    3    0    0 -0.20022899719E+02  0.32080161903E+02 -0.42672390126E+01  0.38056045905E+02  0.51100000000E-03 0.  1.
         12    1    3    3    0    0  0.22727024077E+02 -0.35973623357E+02 -0.35178482248E+01  0.42696539169E+02  0.00000000000E+00 0. -1.
</event>
<event>
 7    1  0.3757412E-015  0.9000774E+02  0.7816164E-02  0.1186339E+00
        -11   -1    0    0    0    0  0.00000000000E+00  0.00000000000E+00  0.45593999997E+02  0.45594000000E+02  0.51100000000E-03 0.  1.
         11   -1    0    0    0    0 -0.00000000000E+00 -0.00000000000E+00 -0.45593999997E+02  0.45594000000E+02  0.51100000000E-03 0. -1.
    9900012    2    1    2    0    0  0.78308420599E+00  0.82553045776E+00  0.31353199010E+00  0.90007735742E+02  0.89999997054E+02 0.  0.
        -12    1    1    2    0    0 -0.78308420599E+00 -0.82553045776E+00 -0.31353199010E+00  0.11802642582E+01  0.00000000000E+00 0.  1.
         11    1    3    3    0    0 -0.66592457584E+01  0.75976552445E-01  0.86796437670E+01  0.10940180195E+02  0.51100000000E-03 0. -1.
        -11    1    3    3    0    0  0.20816665995E+02  0.27781637506E+02  0.17913595138E+02  0.39064688105E+02  0.51100000000E-03 0.  1.
         12    1    3    3    0    0 -0.13374336030E+02 -0.27032083601E+02 -0.26279706915E+02  0.40002867442E+02  0.00000000000E+00 0. -1.
</event>
<event>
 7    1  0.3757412E-015  0.9000753E+02  0.7816164E-02  0.1186339E+00
        -11   -1    0    0    0    0  0.00000000000E+00  0.00000000000E+00  0.45593999997E+02  0.45594000000E+02  0.51100000000E-03 0. -1.
         11   -1    0    0    0    0 -0.00000000000E+00 -0.00000000000E+00 -0.45593999997E+02  0.45594000000E+02  0.51100000000E-03 0.  1.
    9900012    2    1    2    0    0  0.47543892912E-01 -0.95958243654E+00  0.68589238904E+00  0.90007530922E+02  0.89999789530E+02 0.  0.
        -12    1    1    2    0    0 -0.47543892912E-01  0.95958243654E+00 -0.68589238904E+00  0.11804690778E+01  0.00000000000E+00 0.  1.
         11    1    3    3    0    0  0.70291705910E+01 -0.34690685239E+02 -0.81390177402E+01  0.36319367996E+02  0.51100000000E-03 0. -1.
        -11    1    3    3    0    0 -0.68070789485E+01 -0.81810186628E+01  0.44938609847E+01  0.11552496569E+02  0.51100000000E-03 0.  1.
        -12    1    3    3    0    0 -0.17454774951E+00  0.41912121466E+02  0.43310491446E+01  0.42135666357E+02  0.00000000000E+00 0.  1.
</event>
<event>
 7    1  0.3757412E-015  0.9000774E+02  0.7816164E-02  0.1186339E+00
        -11   -1    0    0    0    0  0.00000000000E+00  0.00000000000E+00  0.45593999997E+02  0.45594000000E+02  0.51100000000E-03 0. -1.
         11   -1    0    0    0    0 -0.00000000000E+00 -0.00000000000E+00 -0.45593999997E+02  0.45594000000E+02  0.51100000000E-03 0.  1.
    9900012    2    1    2    0    0  0.46803353020E+00  0.95377217213E+00 -0.51407610340E+00  0.90007741138E+02  0.90000002521E+02 0.  0.
        -12    1    1    2    0    0 -0.46803353020E+00 -0.95377217213E+00  0.51407610340E+00  0.11802588622E+01  0.00000000000E+00 0.  1.
         11    1    3    3    0    0 -0.35499417055E+02  0.35463674413E+01  0.44698080134E+00  0.35678917100E+02  0.51100000000E-03 0. -1.
        -11    1    3    3    0    0 -0.87010347107E+01 -0.20268356634E+01  0.31380640438E+01  0.94690820066E+01  0.51100000000E-03 0.  1.
        -12    1    3    3    0    0  0.44668485296E+02 -0.56575960580E+00 -0.40991209485E+01  0.44859742032E+02  0.00000000000E+00 0.  1.
</event>
<event>
 7    1  0.3757412E-015  0.9000776E+02  0.7816164E-02  0.1186339E+00
        -11   -1    0    0    0    0  0.00000000000E+00  0.00000000000E+00  0.45593999997E+02  0.45594000000E+02  0.51100000000E-03 0. -1.
         11   -1    0    0    0    0 -0.00000000000E+00 -0.00000000000E+00 -0.45593999997E+02  0.45594000000E+02  0.51100000000E-03 0.  1.
    9900012    2    1    2    0    0  0.44450916011E+00  0.55795025650E+00  0.94024659669E+00  0.90007762505E+02  0.90000024170E+02 0.  0.
        -12    1    1    2    0    0 -0.44450916011E+00 -0.55795025650E+00 -0.94024659669E+00  0.11802374951E+01  0.00000000000E+00 0.  1.
         11    1    3    3    0    0  0.15619405701E+02 -0.19137720558E+02  0.31392222809E+02  0.39946086614E+02  0.51100000000E-03 0. -1.
        -11    1    3    3    0    0 -0.34706990866E+01  0.43939310743E+01  0.63843510689E+01  0.84918973891E+01  0.51100000000E-03 0.  1.
        -12    1    3    3    0    0 -0.11704197455E+02  0.15301739741E+02 -0.36836327281E+02  0.41569778502E+02  0.00000000000E+00 0.  1.
</event>
<event>
 7    1  0.3757412E-015  0.9000775E+02  0.7816164E-02  0.1186339E+00
        -11   -1    0    0    0    0  0.00000000000E+00  0.00000000000E+00  0.45593999997E+02  0.45594000000E+02  0.51100000000E-03 0.  1.
         11   -1    0    0    0    0 -0.00000000000E+00 -0.00000000000E+00 -0.45593999997E+02  0.45594000000E+02  0.51100000000E-03 0. -1.
    9900012    2    1    2    0    0  0.18470113395E+00  0.99425828127E+00 -0.60854315726E+00  0.90007750529E+02  0.90000012036E+02 0.  0.
        -12    1    1    2    0    0 -0.18470113395E+00 -0.99425828127E+00  0.60854315726E+00  0.11802494707E+01  0.00000000000E+00 0.  1.
         11    1    3    3    0    0 -0.16107152741E+02  0.95894468068E+01  0.29199115343E+02  0.34698504241E+02  0.51100000000E-03 0. -1.
        -11    1    3    3    0    0 -0.41997745937E+01  0.19451616006E+01  0.90316087367E+01  0.10148483479E+02  0.51100000000E-03 0.  1.
        -12    1    3    3    0    0  0.20491628469E+02 -0.10540350126E+02 -0.38839267236E+02  0.45160762810E+02  0.00000000000E+00 0.  1.
</event>
<event>
 7    1  0.3757412E-015  0.9000777E+02  0.7816164E-02  0.1186339E+00
        -11   -1    0    0    0    0  0.00000000000E+00  0.00000000000E+00  0.45593999997E+02  0.45594000000E+02  0.51100000000E-03 0. -1.
         11   -1    0    0    0    0 -0.00000000000E+00 -0.00000000000E+00 -0.45593999997E+02  0.45594000000E+02  0.51100000000E-03 0.  1.
    9900012    2    1    2    0    0 -0.55506089082E+00  0.55484841213E+00  0.88147421158E+00  0.90007768608E+02  0.90000030354E+02 0.  0.
        -12    1    1    2    0    0  0.55506089082E+00 -0.55484841213E+00 -0.88147421158E+00  0.11802313920E+01  0.00000000000E+00 0.  1.
         11    1    3    3    0    0  0.21875516721E+02 -0.29491421978E+02  0.10869364221E+02  0.38293932691E+02  0.51100000000E-03 0. -1.
        -11    1    3    3    0    0 -0.72210599569E+01 -0.72911733449E+01 -0.37082861517E+01  0.10911292412E+02  0.51100000000E-03 0.  1.
        -12    1    3    3    0    0 -0.15209517655E+02  0.37337443735E+02 -0.62796038572E+01  0.40802543506E+02  0.00000000000E+00 0.  1.
</event>
<event>
 7    1  0.3757412E-015  0.9000767E+02  0.7816164E-02  0.1186339E+00
        -11   -1    0    0    0    0  0.00000000000E+00  0.00000000000E+00  0.45593999997E+02  0.45594000000E+02  0.51100000000E-03 0.  1.
         11   -1    0    0    0    0 -0.00000000000E+00 -0.00000000000E+00 -0.45593999997E+02  0.45594000000E+02  0.51100000000E-03 0. -1.
    9900012    2    1    2    0    0  0.11631599598E+01 -0.48672303809E-02 -0.20052073137E+00  0.90007672357E+02  0.89999932832E+02 0.  0.
        -12    1    1    2    0    0 -0.11631599598E+01  0.48672303809E-02  0.20052073137E+00  0.11803276434E+01  0.00000000000E+00 0.  1.
         11    1    3    3    0    0 -0.33143028306E+01 -0.94239823918E+01 -0.36972815675E+01  0.10652039177E+02  0.51100000000E-03 0. -1.
        -11    1    3    3    0    0  0.30276997347E+02 -0.20518125791E+02  0.12809830550E+02  0.38752829746E+02  0.51100000000E-03 0.  1.
         12    1    3    3    0    0 -0.25799534557E+02  0.29937240952E+02 -0.93130697143E+01  0.40602803434E+02  0.00000000000E+00 0. -1.
</event>
<event>
 7    1  0.3757412E-015  0.9000770E+02  0.7816164E-02  0.1186339E+00
        -11   -1    0    0    0    0  0.00000000000E+00  0.00000000000E+00  0.45593999997E+02  0.45594000000E+02  0.51100000000E-03 0.  1.
         11   -1    0    0    0    0 -0.00000000000E+00 -0.00000000000E+00 -0.45593999997E+02  0.45594000000E+02  0.51100000000E-03 0. -1.
    9900012    2    1    2    0    0  0.60108338629E+00  0.86487912570E+00 -0.53271744799E+00  0.90007701301E+02  0.89999962158E+02 0.  0.
        -12    1    1    2    0    0 -0.60108338629E+00 -0.86487912570E+00  0.53271744799E+00  0.11802986989E+01  0.00000000000E+00 0.  1.
         11    1    3    3    0    0  0.48327781489E+01 -0.48851094884E+01  0.58969797264E+01  0.90550764495E+01  0.51100000000E-03 0. -1.
        -11    1    3    3    0    0  0.14314701602E+02 -0.32649997235E+02 -0.12710768877E+02  0.37848337442E+02  0.51100000000E-03 0.  1.
         12    1    3    3    0    0 -0.18546396365E+02  0.38399985850E+02  0.62810717024E+01  0.43104287410E+02  0.00000000000E+00 0. -1.
</event>
<event>
 7    1  0.3757412E-015  0.9000778E+02  0.7816164E-02  0.1186339E+00
        -11   -1    0    0    0    0  0.00000000000E+00  0.00000000000E+00  0.45593999997E+02  0.45594000000E+02  0.51100000000E-03 0. -1.
         11   -1    0    0    0    0 -0.00000000000E+00 -0.00000000000E+00 -0.45593999997E+02  0.45594000000E+02  0.51100000000E-03 0.  1.
    9900012    2    1    2    0    0 -0.14511997007E+00 -0.11474881938E+01  0.23481557678E+00  0.90007776582E+02  0.90000038433E+02 0.  0.
        -12    1    1    2    0    0  0.14511997007E+00  0.11474881938E+01 -0.23481557678E+00  0.11802234177E+01  0.00000000000E+00 0.  1.
         11    1    3    3    0    0 -0.15562800905E+02  0.14106903714E+02  0.15879900694E+02  0.26332047978E+02  0.51100000000E-03 0. -1.
        -11    1    3    3    0    0 -0.85125019910E+01 -0.11798673981E+01 -0.30848428322E+02  0.32023121450E+02  0.51100000000E-03 0.  1.
        -12    1    3    3    0    0  0.23930182926E+02 -0.14074524510E+02  0.15203343204E+02  0.31652607154E+02  0.00000000000E+00 0.  1.
</event>
<event>
 7    1  0.3757412E-015  0.9000772E+02  0.7816164E-02  0.1186339E+00
        -11   -1    0    0    0    0  0.00000000000E+00  0.00000000000E+00  0.45593999997E+02  0.45594000000E+02  0.51100000000E-03 0. -1.
         11   -1    0    0    0    0 -0.00000000000E+00 -0.00000000000E+00 -0.45593999997E+02  0.45594000000E+02  0.51100000000E-03 0.  1.
    9900012    2    1    2    0    0  0.43702648017E+00  0.10963748986E+01  0.62037955231E-02  0.90007716750E+02  0.89999977811E+02 0.  0.
        -12    1    1    2    0    0 -0.43702648017E+00 -0.10963748986E+01 -0.62037955231E-02  0.11802832498E+01  0.00000000000E+00 0.  1.
         11    1    3    3    0    0 -0.80158664983E+01  0.42023137833E+01 -0.14094651964E+01  0.91597024653E+01  0.51100000000E-03 0. -1.
        -11    1    3    3    0    0 -0.85967480321E+01  0.21904142471E+02 -0.29397343157E+02  0.37655003905E+02  0.51100000000E-03 0.  1.
         12    1    3    3    0    0  0.17049641011E+02 -0.25010081355E+02  0.30813012149E+02  0.43193010380E+02  0.00000000000E+00 0. -1.
</event>
<event>
 7    1  0.3757412E-015  0.9000776E+02  0.7816164E-02  0.1186339E+00
        -11   -1    0    0    0    0  0.00000000000E+00  0.00000000000E+00  0.45593999997E+02  0.45594000000E+02  0.51100000000E-03 0.  1.
         11   -1    0    0    0    0 -0.00000000000E+00 -0.00000000000E+00 -0.45593999997E+02  0.45594000000E+02  0.51100000000E-03 0. -1.
    9900012    2    1    2    0    0 -0.88923157276E+00  0.32642324213E+00 -0.70405199401E+00  0.90007756748E+02  0.90000018337E+02 0.  0.
        -12    1    1    2    0    0  0.88923157276E+00 -0.32642324213E+00  0.70405199401E+00  0.11802432517E+01  0.00000000000E+00 0.  1.
         11    1    3    3    0    0  0.49321216591E+01 -0.21842920701E+01 -0.79748688477E+01  0.96278496720E+01  0.51100000000E-03 0. -1.
        -11    1    3    3    0    0 -0.61751876075E+01 -0.29359329950E+02  0.29062738641E+02  0.41770156508E+02  0.51100000000E-03 0.  1.
         12    1    3    3    0    0  0.35383437568E+00  0.31870045262E+02 -0.21791921787E+02  0.38609750569E+02  0.00000000000E+00 0. -1.
</event>
<event>
 7    1  0.3757412E-015  0.9000771E+02  0.7816164E-02  0.1186339E+00
        -11   -1    0    0    0    0  0.00000000000E+00  0.00000000000E+00  0.45593999997E+02  0.45594000000E+02  0.51100000000E-03 0. -1.
         11   -1    0    0    0    0 -0.00000000000E+00 -0.00000000000E+00 -0.45593999997E+02  0.45594000000E+02  0.51100000000E-03 0.  1.
    9900012    2    1    2    0    0 -0.21097595123E+00 -0.11174724167E+01  0.31597539726E+00  0.90007705161E+02  0.89999966070E+02 0.  0.
        -12    1    1    2    0    0  0.21097595123E+00  0.11174724167E+01 -0.31597539726E+00  0.11802948385E+01  0.00000000000E+00 0.  1.
         11    1    3    3    0    0  0.11075861724E+01 -0.90801359924E+01  0.34741674082E+01  0.97849607159E+01  0.51100000000E-03 0. -1.
        -11    1    3    3    0    0  0.13617714489E+02 -0.65819325364E+01 -0.37282636689E+02  0.40233803978E+02  0.51100000000E-03 0.  1.
         12    1    3    3    0    0 -0.14936276613E+02  0.14544596112E+02  0.34124444678E+02  0.39988940467E+02  0.00000000000E+00 0. -1.
</event>
<event>
 7    1  0.3757412E-015  0.9000887E+02  0.7816164E-02  0.1186337E+00
        -11   -1    0    0    0    0  0.00000000000E+00  0.00000000000E+00  0.45593999997E+02  0.45594000000E+02  0.51100000000E-03 0.  1.
         11   -1    0    0    0    0 -0.00000000000E+00 -0.00000000000E+00 -0.45593999997E+02  0.45594000000E+02  0.51100000000E-03 0. -1.
    9900012    2    1    2    0    0 -0.11143755574E+01  0.23030000336E+00  0.30897501304E+00  0.90008874674E+02  0.90001151013E+02 0.  0.
        -12    1    1    2    0    0  0.11143755574E+01 -0.23030000336E+00 -0.30897501304E+00  0.11791253255E+01  0.00000000000E+00 0.  1.
         11    1    3    3    0    0 -0.10904530703E+01 -0.19063020562E+01 -0.81226815028E+01  0.84143348213E+01  0.51100000000E-03 0. -1.
        -11    1    3    3    0    0  0.36542041580E+02  0.49063979058E+00  0.21885407169E+02  0.42597330638E+02  0.51100000000E-03 0.  1.
         12    1    3    3    0    0 -0.36565964067E+02  0.16459622690E+01 -0.13453750653E+02  0.38997209216E+02  0.00000000000E+00 0. -1.
</event>
<event>
 7    1  0.4494283E-015  0.9000771E+02  0.7816164E-02  0.1186339E+00
        -11   -1    0    0    0    0  0.00000000000E+00  0.00000000000E+00  0.45593999997E+02  0.45594000000E+02  0.51100000000E-03 0.  1.
         11   -1    0    0    0    0 -0.00000000000E+00 -0.00000000000E+00 -0.45593999997E+02  0.45594000000E+02  0.51100000000E-03 0. -1.
    9900012    2    1    2    0    0  0.29891184360E+00  0.11407410557E+01 -0.49458723005E-01  0.90007709946E+02  0.89999970917E+02 0.  0.
        -12    1    1    2    0    0 -0.29891184360E+00 -0.11407410557E+01  0.49458723005E-01  0.11802900540E+01  0.00000000000E+00 0.  1.
         11    1    3    3    0    0  0.16922269164E+02 -0.79243400826E+00 -0.37787599718E+02  0.41411276701E+02  0.51100000000E-03 0. -1.
        -11    1    3    3    0    0 -0.38414870719E+01 -0.83674642575E+01  0.22241454272E+01  0.94719746710E+01  0.51100000000E-03 0.  1.
        -12    1    3    3    0    0 -0.12781870248E+02  0.10300639321E+02  0.35513995568E+02  0.39124458574E+02  0.00000000000E+00 0.  1.
</event>
<event>
 7    1  0.3757412E-015  0.9000764E+02  0.7816164E-02  0.1186339E+00
        -11   -1    0    0    0    0  0.00000000000E+00  0.00000000000E+00  0.45593999997E+02  0.45594000000E+02  0.51100000000E-03 0. -1.
         11   -1    0    0    0    0 -0.00000000000E+00 -0.00000000000E+00 -0.45593999997E+02  0.45594000000E+02  0.51100000000E-03 0.  1.
    9900012    2    1    2    0    0  0.51764310514E-02  0.11789115768E+01  0.58194784014E-01  0.90007641608E+02  0.89999901677E+02 0.  0.
        -12    1    1    2    0    0 -0.51764310514E-02 -0.11789115768E+01 -0.58194784014E-01  0.11803583923E+01  0.00000000000E+00 0.  1.
         11    1    3    3    0    0 -0.39042480104E+01  0.85535341205E+01  0.10377931957E+01  0.94595514405E+01  0.51100000000E-03 0. -1.
        -11    1    3    3    0    0 -0.25112767301E+02  0.26045958503E+02 -0.24200831593E+01  0.36261547659E+02  0.51100000000E-03 0.  1.
         12    1    3    3    0    0  0.29022191742E+02 -0.33420581047E+02  0.14404847476E+01  0.44286542508E+02  0.00000000000E+00 0. -1.
</event>
<event>
 7    1  0.3757412E-015  0.9000769E+02  0.7816164E-02  0.1186339E+00
        -11   -1    0    0    0    0  0.00000000000E+00  0.00000000000E+00  0.45593999997E+02  0.45594000000E+02  0.51100000000E-03 0. -1.
         11   -1    0    0    0    0 -0.00000000000E+00 -0.00000000000E+00 -0.45593999997E+02  0.45594000000E+02  0.51100000000E-03 0.  1.
    9900012    2    1    2    0    0 -0.55170683081E-01 -0.81896055100E+00  0.84817168231E+00  0.90007688435E+02  0.89999949122E+02 0.  0.
        -12    1    1    2    0    0  0.55170683081E-01  0.81896055100E+00 -0.84817168231E+00  0.11803115652E+01  0.00000000000E+00 0.  1.
         11    1    3    3    0    0  0.10706428046E+02 -0.21304935003E+01  0.22511144733E+01  0.11146036097E+02  0.51100000000E-03 0. -1.
        -11    1    3    3    0    0  0.21358479345E+02 -0.62974916877E+01 -0.28491253817E+02  0.36160677341E+02  0.51100000000E-03 0.  1.
         12    1    3    3    0    0 -0.32120078073E+02  0.76090246370E+01  0.27088311026E+02  0.42700974996E+02  0.00000000000E+00 0. -1.
</event>
<event>
 7    1  0.5556329E-015  0.9000767E+02  0.7816164E-02  0.1186339E+00
        -11   -1    0    0    0    0  0.00000000000E+00  0.00000000000E+00  0.45593999997E+02  0.45594000000E+02  0.51100000000E-03 0. -1.
         11   -1    0    0    0    0 -0.00000000000E+00 -0.00000000000E+00 -0.45593999997E+02  0.45594000000E+02  0.51100000000E-03 0.  1.
    9900012    2    1    2    0    0  0.67653680860E+00 -0.25049912702E+00  0.93419664667E+00  0.90007671554E+02  0.89999932018E+02 0.  0.
        -12    1    1    2    0    0 -0.67653680860E+00  0.25049912702E+00 -0.93419664667E+00  0.11803284461E+01  0.00000000000E+00 0.  1.
         11    1    3    3    0    0 -0.31855596675E+02  0.14524225958E+01  0.24271761401E+02  0.40075016814E+02  0.51100000000E-03 0. -1.
        -11    1    3    3    0    0 -0.23422581785E+01  0.76505694112E+01 -0.50143841214E+01  0.94425332443E+01  0.51100000000E-03 0.  1.
        -12    1    3    3    0    0  0.34874391662E+02 -0.93534911341E+01 -0.18323180633E+02  0.40490121495E+02  0.00000000000E+00 0.  1.
</event>
<event>
 7    1  0.3757412E-015  0.9000781E+02  0.7816164E-02  0.1186339E+00
        -11   -1    0    0    0    0  0.00000000000E+00  0.00000000000E+00  0.45593999997E+02  0.45594000000E+02  0.51100000000E-03 0. -1.
         11   -1    0    0    0    0 -0.00000000000E+00 -0.00000000000E+00 -0.45593999997E+02  0.45594000000E+02  0.51100000000E-03 0.  1.
    9900012    2    1    2    0    0  0.94966052781E+00  0.12273060504E+00  0.68987745632E+00  0.90007809836E+02  0.90000072125E+02 0.  0.
        -12    1    1    2    0    0 -0.94966052781E+00 -0.12273060504E+00 -0.68987745632E+00  0.11801901644E+01  0.00000000000E+00 0.  1.
         11    1    3    3    0    0  0.10050426800E+01  0.44225812556E+01  0.57227586846E+01  0.73020067772E+01  0.51100000000E-03 0. -1.
        -11    1    3    3    0    0  0.66527587355E+01  0.36878496129E+02 -0.14050490229E+02  0.40021231259E+02  0.51100000000E-03 0.  1.
         12    1    3    3    0    0 -0.67081408876E+01 -0.41178346779E+02  0.90176090009E+01  0.42684571800E+02  0.00000000000E+00 0. -1.
</event>
<event>
 7    1  0.4935793E-015  0.9000782E+02  0.7816164E-02  0.1186339E+00
        -11   -1    0    0    0    0  0.00000000000E+00  0.00000000000E+00  0.45593999997E+02  0.45594000000E+02  0.51100000000E-03 0. -1.
         11   -1    0    0    0    0 -0.00000000000E+00 -0.00000000000E+00 -0.45593999997E+02  0.45594000000E+02  0.51100000000E-03 0.  1.
    9900012    2    1    2    0    0  0.36763248957E+00  0.89823366221E-01  0.11178516108E+01  0.90007824543E+02  0.90000087027E+02 0.  0.
        -12    1    1    2    0    0 -0.36763248957E+00 -0.89823366221E-01 -0.11178516108E+01  0.11801754566E+01  0.00000000000E+00 0.  1.
         11    1    3    3    0    0  0.34463685017E+02  0.13784363927E+02  0.17305162562E+02  0.40953912211E+02  0.51100000000E-03 0. -1.
        -11    1    3    3    0    0  0.36749280817E+01 -0.42998897459E+01 -0.71138334773E+01  0.90884968634E+01  0.51100000000E-03 0.  1.
        -12    1    3    3    0    0 -0.37770980610E+02 -0.93946508146E+01 -0.90734774736E+01  0.39965415469E+02  0.00000000000E+00 0.  1.
</event>
<event>
 7    1  0.3757412E-015  0.9000787E+02  0.7816164E-02  0.1186339E+00
        -11   -1    0    0    0    0  0.00000000000E+00  0.00000000000E+00  0.45593999997E+02  0.45594000000E+02  0.51100000000E-03 0.  1.
         11   -1    0    0    0    0 -0.00000000000E+00 -0.00000000000E+00 -0.45593999997E+02  0.45594000000E+02  0.51100000000E-03 0. -1.
    9900012    2    1    2    0    0  0.97838671414E+00 -0.44094035470E+00 -0.49095919004E+00  0.90007868700E+02  0.90000131767E+02 0.  0.
        -12    1    1    2    0    0 -0.97838671414E+00  0.44094035470E+00  0.49095919004E+00  0.11801312999E+01  0.00000000000E+00 0.  1.
         11    1    3    3    0    0 -0.15480995161E+01  0.36491536350E+02 -0.22974662611E+01  0.36596546132E+02  0.51100000000E-03 0. -1.
        -11    1    3    3    0    0 -0.80982640746E+01  0.53536566032E+01  0.14045040967E+01  0.98089832330E+01  0.51100000000E-03 0.  1.
        -12    1    3    3    0    0  0.10624750305E+02 -0.42286133308E+02  0.40200297434E+00  0.43602339336E+02  0.00000000000E+00 0.  1.
</event>
<event>
 7    1  0.3757412E-015  0.9000775E+02  0.7816164E-02  0.1186339E+00
        -11   -1    0    0    0    0  0.00000000000E+00  0.00000000000E+00  0.45593999997E+02  0.45594000000E+02  0.51100000000E-03 0. -1.
         11   -1    0    0    0    0 -0.00000000000E+00 -0.00000000000E+00 -0.45593999997E+02  0.45594000000E+02  0.51100000000E-03 0.  1.
    9900012    2    1    2    0    0 -0.64849493566E-02  0.11802261706E+01  0.37745093771E-02  0.90007749978E+02  0.90000011477E+02 0.  0.
        -12    1    1    2    0    0  0.64849493566E-02 -0.11802261706E+01 -0.37745093771E-02  0.11802500224E+01  0.00000000000E+00 0.  1.
         11    1    3    3    0    0  0.12942653956E+02  0.18529430485E+02  0.29955330629E+02  0.37525643484E+02  0.51100000000E-03 0. -1.
        -11    1    3    3    0    0 -0.61314382012E+01  0.11338085231E+02 -0.48965623971E+01  0.13788510967E+02  0.51100000000E-03 0.  1.
        -12    1    3    3    0    0 -0.68177007039E+01 -0.28687289545E+02 -0.25054993723E+02  0.38693595527E+02  0.00000000000E+00 0.  1.
</event>
<event>
 7    1  0.3757412E-015  0.9000769E+02  0.7816164E-02  0.1186339E+00
        -11   -1    0    0    0    0  0.00000000000E+00  0.00000000000E+00  0.45593999997E+02  0.45594000000E+02  0.51100000000E-03 0.  1.
         11   -1    0    0    0    0 -0.00000000000E+00 -0.00000000000E+00 -0.45593999997E+02  0.45594000000E+02  0.51100000000E-03 0. -1.
    9900012    2    1    2    0    0 -0.24358187252E+00 -0.84210241044E+00  0.79035046725E+00  0.90007693913E+02  0.89999954672E+02 0.  0.
        -12    1    1    2    0    0  0.24358187252E+00  0.84210241044E+00 -0.79035046725E+00  0.11803060872E+01  0.00000000000E+00 0.  1.
         11    1    3    3    0    0  0.95324410864E+01  0.33620129723E+02 -0.10488294864E+02  0.36485406467E+02  0.51100000000E-03 0. -1.
        -11    1    3    3    0    0 -0.69057902562E+01  0.74916586940E+01  0.10404279627E+01  0.10241942182E+02  0.51100000000E-03 0.  1.
        -12    1    3    3    0    0 -0.28702327028E+01 -0.41953890827E+02  0.10238217369E+02  0.43280345264E+02  0.00000000000E+00 0.  1.
</event>
<event>
 7    1  0.3757412E-015  0.9000774E+02  0.7816164E-02  0.1186339E+00
        -11   -1    0    0    0    0  0.00000000000E+00  0.00000000000E+00  0.45593999997E+02  0.45594000000E+02  0.51100000000E-03 0.  1.
         11   -1    0    0    0    0 -0.00000000000E+00 -0.00000000000E+00 -0.45593999997E+02  0.45594000000E+02  0.51100000000E-03 0. -1.
    9900012    2    1    2    0    0 -0.98434782193E+00 -0.60186076581E+00  0.24868264131E+00  0.90007737287E+02  0.89999998619E+02 0.  0.
        -12    1    1    2    0    0  0.98434782193E+00  0.60186076581E+00 -0.24868264131E+00  0.11802627132E+01  0.00000000000E+00 0.  1.
         11    1    3    3    0    0  0.31754849422E+02  0.72071541508E+01 -0.12628790709E+02  0.34925633678E+02  0.51100000000E-03 0. -1.
        -11    1    3    3    0    0  0.98163850804E+01  0.14118737140E+01  0.11260323100E+01  0.99811197997E+01  0.51100000000E-03 0.  1.
        -12    1    3    3    0    0 -0.42555582324E+02 -0.92208886306E+01  0.11751441040E+02  0.45100983810E+02  0.00000000000E+00 0.  1.
</event>
<event>
 7    1  0.4744948E-015  0.9000772E+02  0.7816164E-02  0.1186339E+00
        -11   -1    0    0    0    0  0.00000000000E+00  0.00000000000E+00  0.45593999997E+02  0.45594000000E+02  0.51100000000E-03 0. -1.
         11   -1    0    0    0    0 -0.00000000000E+00 -0.00000000000E+00 -0.45593999997E+02  0.45594000000E+02  0.51100000000E-03 0.  1.
    9900012    2    1    2    0    0  0.71473685502E+00  0.93708635975E+00 -0.63811103775E-01  0.90007723984E+02  0.89999985140E+02 0.  0.
        -12    1    1    2    0    0 -0.71473685502E+00 -0.93708635975E+00  0.63811103775E-01  0.11802760162E+01  0.00000000000E+00 0.  1.
         11    1    3    3    0    0  0.27026025246E+02  0.27407034821E+02  0.36508409823E+01  0.38663681129E+02  0.51100000000E-03 0. -1.
        -11    1    3    3    0    0  0.78757028450E+01 -0.34682035234E+01  0.38892090032E+01  0.94435733657E+01  0.51100000000E-03 0.  1.
        -12    1    3    3    0    0 -0.34186991236E+02 -0.23001744938E+02 -0.76038610893E+01  0.41900469489E+02  0.00000000000E+00 0.  1.
</event>
<event>
 7    1  0.3757412E-015  0.9000873E+02  0.7816164E-02  0.1186337E+00
        -11   -1    0    0    0    0  0.00000000000E+00  0.00000000000E+00  0.45593999997E+02  0.45594000000E+02  0.51100000000E-03 0. -1.
         11   -1    0    0    0    0 -0.00000000000E+00 -0.00000000000E+00 -0.45593999997E+02  0.45594000000E+02  0.51100000000E-03 0.  1.
    9900012    2    1    2    0    0 -0.10744240687E+01  0.14315140769E+00  0.46455333119E+00  0.90008725137E+02  0.90000999503E+02 0.  0.
        -12    1    1    2    0    0  0.10744240687E+01 -0.14315140769E+00 -0.46455333119E+00  0.11792748630E+01  0.00000000000E+00 0.  1.
         11    1    3    3    0    0 -0.21319060140E+02 -0.78046508639E+01  0.22864577091E+02  0.32221169845E+02  0.51100000000E-03 0. -1.
        -11    1    3    3    0    0  0.75297518831E+01 -0.16854522839E+02  0.45552246027E+01  0.19013736482E+02  0.51100000000E-03 0.  1.
        -12    1    3    3    0    0  0.12714884188E+02  0.24802325111E+02 -0.26955248363E+02  0.38773818810E+02  0.00000000000E+00 0.  1.
</event>
<event>
 7    1  0.3757412E-015  0.9000773E+02  0.7816164E-02  0.1186339E+00
        -11   -1    0    0    0    0  0.00000000000E+00  0.00000000000E+00  0.45593999997E+02  0.45594000000E+02  0.51100000000E-03 0. -1.
         11   -1    0    0    0    0 -0.00000000000E+00 -0.00000000000E+00 -0.45593999997E+02  0.45594000000E+02  0.51100000000E-03 0.  1.
    9900012    2    1    2    0    0  0.54996391027E+00 -0.55809977760E+00  0.88266236239E+00  0.90007733712E+02  0.89999994997E+02 0.  0.
        -12    1    1    2    0    0 -0.54996391027E+00  0.55809977760E+00 -0.88266236239E+00  0.11802662879E+01  0.00000000000E+00 0.  1.
         11    1    3    3    0    0  0.72371222472E+01 -0.48871443372E+00 -0.69048595473E+01  0.10014582660E+02  0.51100000000E-03 0. -1.
        -11    1    3    3    0    0  0.27340745678E+02 -0.97892047931E+01 -0.19777658180E+02  0.35135461688E+02  0.51100000000E-03 0.  1.
         12    1    3    3    0    0 -0.34027904015E+02  0.97198194492E+01  0.27565180089E+02  0.44857689364E+02  0.00000000000E+00 0. -1.
</event>
<event>
 7    1  0.3757412E-015  0.9000773E+02  0.7816164E-02  0.1186339E+00
        -11   -1    0    0    0    0  0.00000000000E+00  0.00000000000E+00  0.45593999997E+02  0.45594000000E+02  0.51100000000E-03 0.  1.
         11   -1    0    0    0    0 -0.00000000000E+00 -0.00000000000E+00 -0.45593999997E+02  0.45594000000E+02  0.51100000000E-03 0. -1.
    9900012    2    1    2    0    0  0.85661233077E+00  0.73835787269E+00 -0.33775105972E+00  0.90007731890E+02  0.89999993151E+02 0.  0.
        -12    1    1    2    0    0 -0.85661233077E+00 -0.73835787269E+00  0.33775105972E+00  0.11802681101E+01  0.00000000000E+00 0.  1.
         11    1    3    3    0    0 -0.16287333189E+01 -0.10394044835E+02 -0.32191159153E+01  0.11002347377E+02  0.51100000000E-03 0. -1.
        -11    1    3    3    0    0  0.17745082597E+02 -0.28801648605E+02 -0.82681692827E+01  0.34825070600E+02  0.51100000000E-03 0.  1.
        -12    1    3    3    0    0 -0.15259736947E+02  0.39934051313E+02  0.11149534138E+02  0.44180313913E+02  0.00000000000E+00 0.  1.
</event>
<event>
 7    1  0.3757412E-015  0.9000769E+02  0.7816164E-02  0.1186339E+00
        -11   -1    0    0    0    0  0.00000000000E+00  0.00000000000E+00  0.45593999997E+02  0.45594000000E+02  0.51100000000E-03 0. -1.
         11   -1    0    0    0    0 -0.00000000000E+00 -0.00000000000E+00 -0.45593999997E+02  0.45594000000E+02  0.51100000000E-03 0.  1.
    9900012    2    1    2    0    0  0.35341024407E+00  0.10849758258E+01  0.30174338280E+00  0.90007694780E+02  0.89999955551E+02 0.  0.
        -12    1    1    2    0    0 -0.35341024407E+00 -0.10849758258E+01 -0.30174338280E+00  0.11803052200E+01  0.00000000000E+00 0.  1.
         11    1    3    3    0    0  0.24133557600E+02 -0.28710779104E+02  0.99338494782E+01  0.38799726866E+02  0.51100000000E-03 0. -1.
        -11    1    3    3    0    0 -0.42530021243E+01 -0.72015566895E+01 -0.43709658925E+00  0.83750522094E+01  0.51100000000E-03 0.  1.
        -12    1    3    3    0    0 -0.19527145231E+02  0.36997311619E+02 -0.91950095061E+01  0.42832915704E+02  0.00000000000E+00 0.  1.
</event>
<event>
 8    1  0.3757412E-015  0.9000767E+02  0.7816164E-02  0.1186339E+00
        -11   -1    0    0    0    0  0.00000000000E+00  0.00000000000E+00  0.45593999997E+02  0.45594000000E+02  0.51100000000E-03 0.  1.
         11   -1    0    0    0    0 -0.00000000000E+00 -0.00000000000E+00 -0.45593999997E+02  0.45594000000E+02  0.51100000000E-03 0. -1.
    9900012    2    1    2    0    0  0.33295718702E+00  0.98619828712E+00 -0.55652965086E+00  0.90007672587E+02  0.89999933065E+02 0.  0.
         23    2    3    3    0    0 -0.11991581328E+02 -0.60548131183E+01 -0.25261985061E+02  0.61515048659E+02  0.54456170795E+02 0.  0.
        -12    1    1    2    0    0 -0.33295718702E+00 -0.98619828712E+00  0.55652965086E+00  0.11803274131E+01  0.00000000000E+00 0.  1.
         11    1    4    4    0    0 -0.81507379044E+01 -0.25764553508E+02 -0.30513423127E+02  0.40759241124E+02  0.51100000000E-03 0. -1.
        -11    1    4    4    0    0 -0.38408434240E+01  0.19709740389E+02  0.52514380658E+01  0.20755807535E+02  0.51100000000E-03 0.  1.
        -12    1    3    3    0    0  0.12324538515E+02  0.70410114054E+01  0.24705455410E+02  0.28492623927E+02  0.00000000000E+00 0.  1.
</event>
<event>
 7    1  0.3757412E-015  0.9000764E+02  0.7816164E-02  0.1186339E+00
        -11   -1    0    0    0    0  0.00000000000E+00  0.00000000000E+00  0.45593999997E+02  0.45594000000E+02  0.51100000000E-03 0.  1.
         11   -1    0    0    0    0 -0.00000000000E+00 -0.00000000000E+00 -0.45593999997E+02  0.45594000000E+02  0.51100000000E-03 0. -1.
    9900012    2    1    2    0    0 -0.32663615300E+00  0.11047249515E+01 -0.25719490801E+00  0.90007636659E+02  0.89999896663E+02 0.  0.
        -12    1    1    2    0    0  0.32663615300E+00 -0.11047249515E+01  0.25719490801E+00  0.11803633405E+01  0.00000000000E+00 0.  1.
         11    1    3    3    0    0 -0.96942245109E+01  0.15301968252E+02  0.16143703696E+00  0.18115029215E+02  0.51100000000E-03 0. -1.
        -11    1    3    3    0    0 -0.59430434815E+01  0.96519533128E+01 -0.29307626689E+02  0.31423191292E+02  0.51100000000E-03 0.  1.
        -12    1    3    3    0    0  0.15310631839E+02 -0.23849196614E+02  0.28888994744E+02  0.40469416153E+02  0.00000000000E+00 0.  1.
</event>
<event>
 7    1  0.3757412E-015  0.9000775E+02  0.7816164E-02  0.1186339E+00
        -11   -1    0    0    0    0  0.00000000000E+00  0.00000000000E+00  0.45593999997E+02  0.45594000000E+02  0.51100000000E-03 0.  1.
         11   -1    0    0    0    0 -0.00000000000E+00 -0.00000000000E+00 -0.45593999997E+02  0.45594000000E+02  0.51100000000E-03 0. -1.
    9900012    2    1    2    0    0 -0.15809544132E+00 -0.87145553265E+00 -0.78009779927E+00  0.90007753631E+02  0.90000015179E+02 0.  0.
        -12    1    1    2    0    0  0.15809544132E+00  0.87145553265E+00  0.78009779927E+00  0.11802463685E+01  0.00000000000E+00 0.  1.
         11    1    3    3    0    0  0.94059778571E+01  0.14410164265E+02 -0.35091735122E+02  0.39083949746E+02  0.51100000000E-03 0. -1.
        -11    1    3    3    0    0 -0.14701864456E+01  0.87743425327E+01  0.86706660888E+00  0.89388108735E+01  0.51100000000E-03 0.  1.
        -12    1    3    3    0    0 -0.80938868528E+01 -0.24055962331E+02  0.33444570714E+02  0.41984993012E+02  0.00000000000E+00 0.  1.
</event>
<event>
 7    1  0.3757412E-015  0.9000772E+02  0.7816164E-02  0.1186339E+00
        -11   -1    0    0    0    0  0.00000000000E+00  0.00000000000E+00  0.45593999997E+02  0.45594000000E+02  0.51100000000E-03 0. -1.
         11   -1    0    0    0    0 -0.00000000000E+00 -0.00000000000E+00 -0.45593999997E+02  0.45594000000E+02  0.51100000000E-03 0.  1.
    9900012    2    1    2    0    0 -0.87844387631E+00 -0.75089050833E+00  0.23994000063E+00  0.90007715541E+02  0.89999976587E+02 0.  0.
        -12    1    1    2    0    0  0.87844387631E+00  0.75089050833E+00 -0.23994000063E+00  0.11802844586E+01  0.00000000000E+00 0.  1.
         11    1    3    3    0    0  0.25197070997E+01  0.46377364138E+01 -0.12295679191E+02  0.13380629654E+02  0.51100000000E-03 0. -1.
        -11    1    3    3    0    0 -0.21937730352E+02  0.23773488441E+02 -0.11721362502E+02  0.34406875836E+02  0.51100000000E-03 0.  1.
         12    1    3    3    0    0  0.18539579376E+02 -0.29162115363E+02  0.24256981694E+02  0.42220210051E+02  0.00000000000E+00 0. -1.
</event>
<event>
 7    1  0.3757412E-015  0.9000749E+02  0.7816164E-02  0.1186340E+00
        -11   -1    0    0    0    0  0.00000000000E+00  0.00000000000E+00  0.45593999997E+02  0.45594000000E+02  0.51100000000E-03 0.  1.
         11   -1    0    0    0    0 -0.00000000000E+00 -0.00000000000E+00 -0.45593999997E+02  0.45594000000E+02  0.51100000000E-03 0. -1.
    9900012    2    1    2    0    0 -0.37246259212E+00  0.87149993330E+00 -0.70381647829E+00  0.90007492418E+02  0.89999750517E+02 0.  0.
        -12    1    1    2    0    0  0.37246259212E+00 -0.87149993330E+00  0.70381647829E+00  0.11805075821E+01  0.00000000000E+00 0.  1.
         11    1    3    3    0    0  0.83575094829E+01 -0.62499373209E+01  0.21811782375E+01  0.10661483013E+02  0.51100000000E-03 0. -1.
        -11    1    3    3    0    0 -0.15095540956E+02  0.33961155301E+02  0.21148149955E+02  0.42760725823E+02  0.51100000000E-03 0.  1.
         12    1    3    3    0    0  0.63655688815E+01 -0.26839718046E+02 -0.24033144671E+02  0.36585283582E+02  0.00000000000E+00 0. -1.
</event>
<event>
 7    1  0.3757412E-015  0.9000768E+02  0.7816164E-02  0.1186339E+00
        -11   -1    0    0    0    0  0.00000000000E+00  0.00000000000E+00  0.45593999997E+02  0.45594000000E+02  0.51100000000E-03 0.  1.
         11   -1    0    0    0    0 -0.00000000000E+00 -0.00000000000E+00 -0.45593999997E+02  0.45594000000E+02  0.51100000000E-03 0. -1.
    9900012    2    1    2    0    0 -0.66073951473E+00 -0.93862023949E+00 -0.27489944011E+00  0.90007680398E+02  0.89999940979E+02 0.  0.
        -12    1    1    2    0    0  0.66073951473E+00  0.93862023949E+00  0.27489944011E+00  0.11803196018E+01  0.00000000000E+00 0.  1.
         11    1    3    3    0    0 -0.32986041002E+01 -0.30733164568E+01 -0.37816277028E+02  0.38084076352E+02  0.51100000000E-03 0. -1.
        -11    1    3    3    0    0 -0.97240064892E+00  0.13406754557E+01 -0.70181948903E+01  0.72109661960E+01  0.51100000000E-03 0.  1.
        -12    1    3    3    0    0  0.36102652343E+01  0.79402076157E+00  0.44559572479E+02  0.44712637850E+02  0.00000000000E+00 0.  1.
</event>
<event>
 7    1  0.3757412E-015  0.9000770E+02  0.7816164E-02  0.1186339E+00
        -11   -1    0    0    0    0  0.00000000000E+00  0.00000000000E+00  0.45593999997E+02  0.45594000000E+02  0.51100000000E-03 0. -1.
         11   -1    0    0    0    0 -0.00000000000E+00 -0.00000000000E+00 -0.45593999997E+02  0.45594000000E+02  0.51100000000E-03 0.  1.
    9900012    2    1    2    0    0 -0.94792717926E+00 -0.50515414638E+00  0.48923908185E+00  0.90007702780E+02  0.89999963656E+02 0.  0.
        -12    1    1    2    0    0  0.94792717926E+00  0.50515414638E+00 -0.48923908185E+00  0.11802972202E+01  0.00000000000E+00 0.  1.
         11    1    3    3    0    0  0.60114047698E+01  0.21226206395E+02  0.36994663144E+02  0.43073123019E+02  0.51100000000E-03 0. -1.
        -11    1    3    3    0    0 -0.40840365635E+01  0.10651407559E+00  0.24076661701E+00  0.40925137416E+01  0.51100000000E-03 0.  1.
        -12    1    3    3    0    0 -0.28752953856E+01 -0.21837874617E+02 -0.36746190679E+02  0.42842066019E+02  0.00000000000E+00 0.  1.
</event>
<event>
 7    1  0.3757412E-015  0.9000776E+02  0.7816164E-02  0.1186339E+00
        -11   -1    0    0    0    0  0.00000000000E+00  0.00000000000E+00  0.45593999997E+02  0.45594000000E+02  0.51100000000E-03 0.  1.
         11   -1    0    0    0    0 -0.00000000000E+00 -0.00000000000E+00 -0.45593999997E+02  0.45594000000E+02  0.51100000000E-03 0. -1.
    9900012    2    1    2    0    0  0.58528674214E+00  0.34839270243E+00 -0.96385794230E+00  0.90007762660E+02  0.90000024327E+02 0.  0.
        -12    1    1    2    0    0 -0.58528674214E+00 -0.34839270243E+00  0.96385794230E+00  0.11802373399E+01  0.00000000000E+00 0.  1.
         11    1    3    3    0    0 -0.28974873210E+01 -0.32977561518E+01  0.83858954143E+01  0.94654038779E+01  0.51100000000E-03 0. -1.
        -11    1    3    3    0    0 -0.33666967663E+02  0.16865520377E+02 -0.15336998300E+02  0.40658750673E+02  0.51100000000E-03 0.  1.
         12    1    3    3    0    0  0.37149741726E+02 -0.13219371523E+02  0.59872449431E+01  0.39883608109E+02  0.00000000000E+00 0. -1.
</event>
<event>
 7    1  0.3757412E-015  0.9000779E+02  0.7816164E-02  0.1186339E+00
        -11   -1    0    0    0    0  0.00000000000E+00  0.00000000000E+00  0.45593999997E+02  0.45594000000E+02  0.51100000000E-03 0. -1.
         11   -1    0    0    0    0 -0.00000000000E+00 -0.00000000000E+00 -0.45593999997E+02  0.45594000000E+02  0.51100000000E-03 0.  1.
    9900012    2    1    2    0    0 -0.38260704018E-01 -0.11205978607E+01  0.36837613766E+00  0.90007786280E+02  0.90000048259E+02 0.  0.
        -12    1    1    2    0    0  0.38260704018E-01  0.11205978607E+01 -0.36837613766E+00  0.11802137203E+01  0.00000000000E+00 0.  1.
         11    1    3    3    0    0 -0.55013502052E+01 -0.53236523898E+01  0.77174207740E+00  0.76942650684E+01  0.51100000000E-03 0. -1.
        -11    1    3    3    0    0 -0.28575134626E+02  0.22310463208E+02 -0.17359082425E+02  0.40194935382E+02  0.51100000000E-03 0.  1.
         12    1    3    3    0    0  0.34038224127E+02 -0.18107408679E+02  0.16955716485E+02  0.42118585830E+02  0.00000000000E+00 0. -1.
</event>
<event>
 7    1  0.3757412E-015  0.9000775E+02  0.7816164E-02  0.1186339E+00
        -11   -1    0    0    0    0  0.00000000000E+00  0.00000000000E+00  0.45593999997E+02  0.45594000000E+02  0.51100000000E-03 0. -1.
         11   -1    0    0    0    0 -0.00000000000E+00 -0.00000000000E+00 -0.45593999997E+02  0.45594000000E+02  0.51100000000E-03 0.  1.
    9900012    2    1    2    0    0  0.42495463994E+00 -0.10545994532E+01  0.31659456515E+00  0.90007746395E+02  0.90000007848E+02 0.  0.
        -12    1    1    2    0    0 -0.42495463994E+00  0.10545994532E+01 -0.31659456515E+00  0.11802536047E+01  0.00000000000E+00 0.  1.
         11    1    3    3    0    0  0.34231414645E+00 -0.10956429721E+02 -0.31074090470E+01  0.11393705387E+02  0.51100000000E-03 0. -1.
        -11    1    3    3    0    0  0.16402894123E+02 -0.22230465308E+02 -0.21320884253E+02  0.34897401465E+02  0.51100000000E-03 0.  1.
         12    1    3    3    0    0 -0.16320253630E+02  0.32132295576E+02  0.24744887865E+02  0.43716639543E+02  0.00000000000E+00 0. -1.
</event>
<event>
 7    1  0.3757412E-015  0.9000765E+02  0.7816164E-02  0.1186339E+00
        -11   -1    0    0    0    0  0.00000000000E+00  0.00000000000E+00  0.45593999997E+02  0.45594000000E+02  0.51100000000E-03 0. -1.
         11   -1    0    0    0    0 -0.00000000000E+00 -0.00000000000E+00 -0.45593999997E+02  0.45594000000E+02  0.51100000000E-03 0.  1.
    9900012    2    1    2    0    0 -0.22940295371E-01  0.11777376389E+01 -0.75038597206E-01  0.90007651325E+02  0.89999911523E+02 0.  0.
        -12    1    1    2    0    0  0.22940295371E-01 -0.11777376389E+01  0.75038597206E-01  0.11803486749E+01  0.00000000000E+00 0.  1.
         11    1    3    3    0    0  0.22801049945E+01 -0.57774931076E+01 -0.73661475809E+01  0.96352704082E+01  0.51100000000E-03 0. -1.
        -11    1    3    3    0    0  0.14355175029E+02 -0.25937354962E+02 -0.18890310429E+02  0.35151973784E+02  0.51100000000E-03 0.  1.
         12    1    3    3    0    0 -0.16658220319E+02  0.32892585708E+02  0.26181419413E+02  0.45220407133E+02  0.00000000000E+00 0. -1.
</event>
<event>
 7    1  0.3757412E-015  0.9000773E+02  0.7816164E-02  0.1186339E+00
        -11   -1    0    0    0    0  0.00000000000E+00  0.00000000000E+00  0.45593999997E+02  0.45594000000E+02  0.51100000000E-03 0.  1.
         11   -1    0    0    0    0 -0.00000000000E+00 -0.00000000000E+00 -0.45593999997E+02  0.45594000000E+02  0.51100000000E-03 0. -1.
    9900012    2    1    2    0    0  0.83414059996E+00 -0.28827935280E+00  0.78367631048E+00  0.90007727114E+02  0.89999988312E+02 0.  0.
        -12    1    1    2    0    0 -0.83414059996E+00  0.28827935280E+00 -0.78367631048E+00  0.11802728860E+01  0.00000000000E+00 0.  1.
         11    1    3    3    0    0 -0.38591406727E+01  0.68658766195E+01  0.35479888828E+01  0.86383710189E+01  0.51100000000E-03 0. -1.
        -11    1    3    3    0    0 -0.36006121770E+02 -0.13493006283E+02  0.68882110728E+01  0.39063403276E+02  0.51100000000E-03 0.  1.
         12    1    3    3    0    0  0.40699403042E+02  0.63388503103E+01 -0.96525236451E+01  0.42305952820E+02  0.00000000000E+00 0. -1.
</event>
<event>
 7    1  0.3757412E-015  0.9000772E+02  0.7816164E-02  0.1186339E+00
        -11   -1    0    0    0    0  0.00000000000E+00  0.00000000000E+00  0.45593999997E+02  0.45594000000E+02  0.51100000000E-03 0.  1.
         11   -1    0    0    0    0 -0.00000000000E+00 -0.00000000000E+00 -0.45593999997E+02  0.45594000000E+02  0.51100000000E-03 0. -1.
    9900012    2    1    2    0    0  0.86326059776E-01 -0.10986442529E+01 -0.42259675346E+00  0.90007720627E+02  0.89999981739E+02 0.  0.
        -12    1    1    2    0    0 -0.86326059776E-01  0.10986442529E+01  0.42259675346E+00  0.11802793733E+01  0.00000000000E+00 0.  1.
         11    1    3    3    0    0  0.11566353995E+00 -0.17252034193E+02 -0.28689962647E+02  0.33477754089E+02  0.51100000000E-03 0. -1.
        -11    1    3    3    0    0 -0.12646891671E+02 -0.31815278836E+01 -0.66742917401E+01  0.14649647064E+02  0.51100000000E-03 0.  1.
        -12    1    3    3    0    0  0.12617554191E+02  0.19334917824E+02  0.34941657634E+02  0.41880319474E+02  0.00000000000E+00 0.  1.
</event>
<event>
 7    1  0.3757412E-015  0.9000773E+02  0.7816164E-02  0.1186339E+00
        -11   -1    0    0    0    0  0.00000000000E+00  0.00000000000E+00  0.45593999997E+02  0.45594000000E+02  0.51100000000E-03 0. -1.
         11   -1    0    0    0    0 -0.00000000000E+00 -0.00000000000E+00 -0.45593999997E+02  0.45594000000E+02  0.51100000000E-03 0.  1.
    9900012    2    1    2    0    0  0.34425147040E+00  0.10139049845E+01  0.49650658834E+00  0.90007732579E+02  0.89999993849E+02 0.  0.
        -12    1    1    2    0    0 -0.34425147040E+00 -0.10139049845E+01 -0.49650658834E+00  0.11802674208E+01  0.00000000000E+00 0.  1.
         11    1    3    3    0    0  0.56207265954E+01 -0.17580954212E+02 -0.87742027846E+01  0.20436955576E+02  0.51100000000E-03 0. -1.
        -11    1    3    3    0    0  0.22854885175E+02  0.24164780687E+02 -0.10337915957E+02  0.34830373363E+02  0.51100000000E-03 0.  1.
         12    1    3    3    0    0 -0.28131360300E+02 -0.55699214903E+01  0.19608625330E+02  0.34740403640E+02  0.00000000000E+00 0. -1.
</event>
<event>
 7    1  0.3757412E-015  0.9000752E+02  0.7816164E-02  0.1186339E+00
        -11   -1    0    0    0    0  0.00000000000E+00  0.00000000000E+00  0.45593999997E+02  0.45594000000E+02  0.51100000000E-03 0.  1.
         11   -1    0    0    0    0 -0.00000000000E+00 -0.00000000000E+00 -0.45593999997E+02  0.45594000000E+02  0.51100000000E-03 0. -1.
    9900012    2    1    2    0    0  0.32079277941E+00  0.90309251005E+00 -0.68924607599E+00  0.90007515251E+02  0.89999773652E+02 0.  0.
        -12    1    1    2    0    0 -0.32079277941E+00 -0.90309251005E+00  0.68924607599E+00  0.11804847489E+01  0.00000000000E+00 0.  1.
         11    1    3    3    0    0  0.10640567264E+02 -0.29692775964E+02 -0.11797955890E+02  0.33676020840E+02  0.51100000000E-03 0. -1.
        -11    1    3    3    0    0  0.58332783659E+00 -0.47231800487E+00 -0.14561858909E+02  0.14581189623E+02  0.51100000000E-03 0.  1.
        -12    1    3    3    0    0 -0.10903102322E+02  0.31068186479E+02  0.25670568724E+02  0.41750304788E+02  0.00000000000E+00 0.  1.
</event>
<event>
 7    1  0.3757412E-015  0.9000773E+02  0.7816164E-02  0.1186339E+00
        -11   -1    0    0    0    0  0.00000000000E+00  0.00000000000E+00  0.45593999997E+02  0.45594000000E+02  0.51100000000E-03 0.  1.
         11   -1    0    0    0    0 -0.00000000000E+00 -0.00000000000E+00 -0.45593999997E+02  0.45594000000E+02  0.51100000000E-03 0. -1.
    9900012    2    1    2    0    0 -0.79636455189E+00  0.87097623261E+00  0.15647051100E-01  0.90007728452E+02  0.89999989667E+02 0.  0.
        -12    1    1    2    0    0  0.79636455189E+00 -0.87097623261E+00 -0.15647051100E-01  0.11802715482E+01  0.00000000000E+00 0.  1.
         11    1    3    3    0    0 -0.23859610614E+02  0.26487942293E+02  0.22274687055E+02  0.42036338913E+02  0.51100000000E-03 0. -1.
        -11    1    3    3    0    0  0.22264090739E+01  0.37963227617E+01 -0.81502002468E+01  0.92625443696E+01  0.51100000000E-03 0.  1.
        -12    1    3    3    0    0  0.20836836988E+02 -0.29413288822E+02 -0.14108839757E+02  0.38708845169E+02  0.00000000000E+00 0.  1.
</event>
<event>
 7    1  0.3757412E-015  0.9000775E+02  0.7816164E-02  0.1186339E+00
        -11   -1    0    0    0    0  0.00000000000E+00  0.00000000000E+00  0.45593999997E+02  0.45594000000E+02  0.51100000000E-03 0.  1.
         11   -1    0    0    0    0 -0.00000000000E+00 -0.00000000000E+00 -0.45593999997E+02  0.45594000000E+02  0.51100000000E-03 0. -1.
    9900012    2    1    2    0    0  0.74540494025E+00  0.90144099894E+00 -0.15739559060E+00  0.90007746734E+02  0.90000008191E+02 0.  0.
        -12    1    1    2    0    0 -0.74540494025E+00 -0.90144099894E+00  0.15739559060E+00  0.11802532658E+01  0.00000000000E+00 0.  1.
         11    1    3    3    0    0 -0.75846757415E+01  0.28106530689E+01 -0.60002979256E+01  0.10071278580E+02  0.51100000000E-03 0. -1.
        -11    1    3    3    0    0 -0.25800606322E+02 -0.17981579299E+02  0.22528945478E+02  0.38685421871E+02  0.51100000000E-03 0.  1.
         12    1    3    3    0    0  0.34130687004E+02  0.16072367229E+02 -0.16686043143E+02  0.41251046284E+02  0.00000000000E+00 0. -1.
</event>
<event>
 7    1  0.3757412E-015  0.9000777E+02  0.7816164E-02  0.1186339E+00
        -11   -1    0    0    0    0  0.00000000000E+00  0.00000000000E+00  0.45593999997E+02  0.45594000000E+02  0.51100000000E-03 0.  1.
         11   -1    0    0    0    0 -0.00000000000E+00 -0.00000000000E+00 -0.45593999997E+02  0.45594000000E+02  0.51100000000E-03 0. -1.
    9900012    2    1    2    0    0 -0.74368161557E+00  0.18063545016E+00 -0.89847299186E+00  0.90007768994E+02  0.90000030744E+02 0.  0.
        -12    1    1    2    0    0  0.74368161557E+00 -0.18063545016E+00  0.89847299186E+00  0.11802310063E+01  0.00000000000E+00 0.  1.
         11    1    3    3    0    0  0.61599634751E+01 -0.11765819029E+02  0.57747485722E+01  0.14481967020E+02  0.51100000000E-03 0. -1.
        -11    1    3    3    0    0  0.32979949062E+02 -0.17636150614E+01 -0.18887199248E+01  0.33081031445E+02  0.51100000000E-03 0.  1.
         12    1    3    3    0    0 -0.39883594153E+02  0.13710069540E+02 -0.47845016392E+01  0.42444770529E+02  0.00000000000E+00 0. -1.
</event>
<event>
 7    1  0.3757412E-015  0.9000777E+02  0.7816164E-02  0.1186339E+00
        -11   -1    0    0    0    0  0.00000000000E+00  0.00000000000E+00  0.45593999997E+02  0.45594000000E+02  0.51100000000E-03 0.  1.
         11   -1    0    0    0    0 -0.00000000000E+00 -0.00000000000E+00 -0.45593999997E+02  0.45594000000E+02  0.51100000000E-03 0. -1.
    9900012    2    1    2    0    0 -0.89808231360E+00 -0.55394273620E+00 -0.52871345190E+00  0.90007770229E+02  0.90000031997E+02 0.  0.
        -12    1    1    2    0    0  0.89808231360E+00  0.55394273620E+00  0.52871345190E+00  0.11802297705E+01  0.00000000000E+00 0.  1.
         11    1    3    3    0    0  0.15736091270E+02 -0.25194633324E+02 -0.27360350872E+02  0.40385429512E+02  0.51100000000E-03 0. -1.
        -11    1    3    3    0    0  0.32010216525E+00  0.61008044997E+01 -0.58107514994E+01  0.84313174646E+01  0.51100000000E-03 0.  1.
        -12    1    3    3    0    0 -0.16954275749E+02  0.18539886088E+02  0.32642388919E+02  0.41191023253E+02  0.00000000000E+00 0.  1.
</event>
<event>
 7    1  0.3757412E-015  0.9000774E+02  0.7816164E-02  0.1186339E+00
        -11   -1    0    0    0    0  0.00000000000E+00  0.00000000000E+00  0.45593999997E+02  0.45594000000E+02  0.51100000000E-03 0. -1.
         11   -1    0    0    0    0 -0.00000000000E+00 -0.00000000000E+00 -0.45593999997E+02  0.45594000000E+02  0.51100000000E-03 0.  1.
    9900012    2    1    2    0    0 -0.52649772320E-01  0.12823975756E+00  0.11720943841E+01  0.90007736182E+02  0.89999997500E+02 0.  0.
        -12    1    1    2    0    0  0.52649772320E-01 -0.12823975756E+00 -0.11720943841E+01  0.11802638176E+01  0.00000000000E+00 0.  1.
         11    1    3    3    0    0  0.33678907407E+02 -0.36650096633E+01 -0.77931066521E+01  0.34762531719E+02  0.51100000000E-03 0. -1.
        -11    1    3    3    0    0  0.37858533508E+01 -0.55586591242E+01 -0.10100485970E+02  0.12134710295E+02  0.51100000000E-03 0.  1.
        -12    1    3    3    0    0 -0.37517410530E+02  0.93519085451E+01  0.19065687007E+02  0.43110494168E+02  0.00000000000E+00 0.  1.
</event>
<event>
 7    1  0.3757412E-015  0.9000776E+02  0.7816164E-02  0.1186339E+00
        -11   -1    0    0    0    0  0.00000000000E+00  0.00000000000E+00  0.45593999997E+02  0.45594000000E+02  0.51100000000E-03 0.  1.
         11   -1    0    0    0    0 -0.00000000000E+00 -0.00000000000E+00 -0.45593999997E+02  0.45594000000E+02  0.51100000000E-03 0. -1.
    9900012    2    1    2    0    0 -0.91047963665E+00  0.59053641671E-02 -0.75096906105E+00  0.90007761646E+02  0.90000023300E+02 0.  0.
        -12    1    1    2    0    0  0.91047963665E+00 -0.59053641671E-02  0.75096906105E+00  0.11802383542E+01  0.00000000000E+00 0.  1.
         11    1    3    3    0    0  0.59521544508E+01 -0.49223224254E+01 -0.10928901431E+02  0.13382760829E+02  0.51100000000E-03 0. -1.
        -11    1    3    3    0    0 -0.19803708761E+02 -0.19384659900E+02 -0.21187239306E+02  0.34883391891E+02  0.51100000000E-03 0.  1.
         12    1    3    3    0    0  0.12941074674E+02  0.24312887689E+02  0.31365171675E+02  0.41741608926E+02  0.00000000000E+00 0. -1.
</event>
<event>
 7    1  0.3757412E-015  0.9000759E+02  0.7816164E-02  0.1186339E+00
        -11   -1    0    0    0    0  0.00000000000E+00  0.00000000000E+00  0.45593999997E+02  0.45594000000E+02  0.51100000000E-03 0.  1.
         11   -1    0    0    0    0 -0.00000000000E+00 -0.00000000000E+00 -0.45593999997E+02  0.45594000000E+02  0.51100000000E-03 0. -1.
    9900012    2    1    2    0    0 -0.61367092627E+00  0.98283273564E+00 -0.22542079563E+00  0.90007590441E+02  0.89999849835E+02 0.  0.
        -12    1    1    2    0    0  0.61367092627E+00 -0.98283273564E+00  0.22542079563E+00  0.11804095590E+01  0.00000000000E+00 0.  1.
         11    1    3    3    0    0  0.18023919637E+02 -0.34741291569E+02 -0.70321773425E+01  0.39765192536E+02  0.51100000000E-03 0. -1.
        -11    1    3    3    0    0  0.45194770919E+01  0.46404068319E+01 -0.65810136748E+01  0.92341101358E+01  0.51100000000E-03 0.  1.
        -12    1    3    3    0    0 -0.23157067655E+02  0.31083717473E+02  0.13387770222E+02  0.41008287770E+02  0.00000000000E+00 0.  1.
</event>
<event>
 7    1  0.3757412E-015  0.9000777E+02  0.7816164E-02  0.1186339E+00
        -11   -1    0    0    0    0  0.00000000000E+00  0.00000000000E+00  0.45593999997E+02  0.45594000000E+02  0.51100000000E-03 0.  1.
         11   -1    0    0    0    0 -0.00000000000E+00 -0.00000000000E+00 -0.45593999997E+02  0.45594000000E+02  0.51100000000E-03 0. -1.
    9900012    2    1    2    0    0  0.14722124181E+00 -0.23832947016E-01 -0.11707689684E+01  0.90007770327E+02  0.90000032095E+02 0.  0.
        -12    1    1    2    0    0 -0.14722124181E+00  0.23832947016E-01  0.11707689684E+01  0.11802296729E+01  0.00000000000E+00 0.  1.
         11    1    3    3    0    0  0.19050106771E+02  0.24807414479E+02  0.25966254570E+02  0.40651700552E+02  0.51100000000E-03 0. -1.
        -11    1    3    3    0    0 -0.11076297794E+02 -0.14453306008E+02  0.11292083052E+01  0.18244383767E+02  0.51100000000E-03 0.  1.
        -12    1    3    3    0    0 -0.78265877344E+01 -0.10377941418E+02 -0.28266231843E+02  0.31111686008E+02  0.00000000000E+00 0.  1.
</event>
<event>
 7    1  0.3757412E-015  0.9000766E+02  0.7816164E-02  0.1186339E+00
        -11   -1    0    0    0    0  0.00000000000E+00  0.00000000000E+00  0.45593999997E+02  0.45594000000E+02  0.51100000000E-03 0.  1.
         11   -1    0    0    0    0 -0.00000000000E+00 -0.00000000000E+00 -0.45593999997E+02  0.45594000000E+02  0.51100000000E-03 0. -1.
    9900012    2    1    2    0    0  0.11027952249E+01 -0.29275692835E+00 -0.30220809593E+00  0.90007663751E+02  0.89999924113E+02 0.  0.
        -12    1    1    2    0    0 -0.11027952249E+01  0.29275692835E+00  0.30220809593E+00  0.11803362488E+01  0.00000000000E+00 0.  1.
         11    1    3    3    0    0 -0.10329354685E+01 -0.33231622227E+02  0.13903925131E+02  0.36037852403E+02  0.51100000000E-03 0. -1.
        -11    1    3    3    0    0 -0.44513516485E+01 -0.81666428840E+01  0.16049242734E+01  0.94384516568E+01  0.51100000000E-03 0.  1.
        -12    1    3    3    0    0  0.65870823418E+01  0.41105508182E+02 -0.15811057501E+02  0.44531359692E+02  0.00000000000E+00 0.  1.
</event>
<event>
 7    1  0.3757412E-015  0.9000768E+02  0.7816164E-02  0.1186339E+00
        -11   -1    0    0    0    0  0.00000000000E+00  0.00000000000E+00  0.45593999997E+02  0.45594000000E+02  0.51100000000E-03 0.  1.
         11   -1    0    0    0    0 -0.00000000000E+00 -0.00000000000E+00 -0.45593999997E+02  0.45594000000E+02  0.51100000000E-03 0. -1.
    9900012    2    1    2    0    0 -0.77070825397E+00  0.44977766981E+00  0.77256725364E+00  0.90007681684E+02  0.89999942283E+02 0.  0.
        -12    1    1    2    0    0  0.77070825397E+00 -0.44977766981E+00 -0.77256725364E+00  0.11803183157E+01  0.00000000000E+00 0.  1.
         11    1    3    3    0    0  0.19374538528E+00  0.62429062998E+01 -0.87190880104E+01  0.10725386349E+02  0.51100000000E-03 0. -1.
        -11    1    3    3    0    0 -0.12842243801E+02 -0.40057221805E+02  0.12029973238E+01  0.42082673957E+02  0.51100000000E-03 0.  1.
         12    1    3    3    0    0  0.11877790161E+02  0.34264093175E+02  0.82886579402E+01  0.37199621378E+02  0.00000000000E+00 0. -1.
</event>
<event>
 7    1  0.3757412E-015  0.9000776E+02  0.7816164E-02  0.1186339E+00
        -11   -1    0    0    0    0  0.00000000000E+00  0.00000000000E+00  0.45593999997E+02  0.45594000000E+02  0.51100000000E-03 0. -1.
         11   -1    0    0    0    0 -0.00000000000E+00 -0.00000000000E+00 -0.45593999997E+02  0.45594000000E+02  0.51100000000E-03 0.  1.
    9900012    2    1    2    0    0  0.33442332473E+00 -0.22309720839E-01  0.11316447637E+01  0.90007764195E+02  0.90000025883E+02 0.  0.
        -12    1    1    2    0    0 -0.33442332473E+00  0.22309720839E-01 -0.11316447637E+01  0.11802358049E+01  0.00000000000E+00 0.  1.
         11    1    3    3    0    0  0.77845688979E+01 -0.29530098142E+02  0.27377083414E+02  0.41013789214E+02  0.51100000000E-03 0. -1.
        -11    1    3    3    0    0 -0.69448468240E+01 -0.38846629480E+01 -0.44941622196E+01  0.91388729034E+01  0.51100000000E-03 0.  1.
        -12    1    3    3    0    0 -0.50529874917E+00  0.33392451369E+02 -0.21751276431E+02  0.39855102078E+02  0.00000000000E+00 0.  1.
</event>
<event>
 7    1  0.3757412E-015  0.9000763E+02  0.7816164E-02  0.1186339E+00
        -11   -1    0    0    0    0  0.00000000000E+00  0.00000000000E+00  0.45593999997E+02  0.45594000000E+02  0.51100000000E-03 0.  1.
         11   -1    0    0    0    0 -0.00000000000E+00 -0.00000000000E+00 -0.45593999997E+02  0.45594000000E+02  0.51100000000E-03 0. -1.
    9900012    2    1    2    0    0  0.99500607372E-01 -0.97792196478E+00 -0.65348909013E+00  0.90007627291E+02  0.89999887172E+02 0.  0.
        -12    1    1    2    0    0 -0.99500607372E-01  0.97792196478E+00  0.65348909013E+00  0.11803727085E+01  0.00000000000E+00 0.  1.
         11    1    3    3    0    0 -0.16855693990E+02  0.14224536716E+00 -0.35081373473E+02  0.38920912356E+02  0.51100000000E-03 0. -1.
        -11    1    3    3    0    0 -0.58982706514E+01  0.10454662879E+02  0.91090929067E+01  0.15068680979E+02  0.51100000000E-03 0.  1.
        -12    1    3    3    0    0  0.22853465249E+02 -0.11574830211E+02  0.25318791476E+02  0.36018033957E+02  0.00000000000E+00 0.  1.
</event>
<event>
 7    1  0.3757412E-015  0.9000841E+02  0.7816164E-02  0.1186338E+00
        -11   -1    0    0    0    0  0.00000000000E+00  0.00000000000E+00  0.45593999997E+02  0.45594000000E+02  0.51100000000E-03 0.  1.
         11   -1    0    0    0    0 -0.00000000000E+00 -0.00000000000E+00 -0.45593999997E+02  0.45594000000E+02  0.51100000000E-03 0. -1.
    9900012    2    1    2    0    0 -0.70665604087E+00  0.72160078213E+00  0.60940360603E+00  0.90008405492E+02  0.90000675642E+02 0.  0.
        -12    1    1    2    0    0  0.70665604087E+00 -0.72160078213E+00 -0.60940360603E+00  0.11795945083E+01  0.00000000000E+00 0.  1.
         11    1    3    3    0    0  0.21829223696E+02  0.21401508403E+02 -0.63564132222E+01  0.31224086190E+02  0.51100000000E-03 0. -1.
        -11    1    3    3    0    0  0.11276472441E+02  0.62083397042E+01 -0.52319095143E+01  0.13895149874E+02  0.51100000000E-03 0.  1.
        -12    1    3    3    0    0 -0.33812352178E+02 -0.26888247325E+02  0.12197726343E+02  0.44889169428E+02  0.00000000000E+00 0.  1.
</event>
<event>
 7    1  0.3757412E-015  0.9000767E+02  0.7816164E-02  0.1186339E+00
        -11   -1    0    0    0    0  0.00000000000E+00  0.00000000000E+00  0.45593999997E+02  0.45594000000E+02  0.51100000000E-03 0. -1.
         11   -1    0    0    0    0 -0.00000000000E+00 -0.00000000000E+00 -0.45593999997E+02  0.45594000000E+02  0.51100000000E-03 0.  1.
    9900012    2    1    2    0    0  0.74337766217E+00 -0.91287695480E+00  0.85029907855E-01  0.90007667518E+02  0.89999927929E+02 0.  0.
        -12    1    1    2    0    0 -0.74337766217E+00  0.91287695480E+00 -0.85029907855E-01  0.11803324822E+01  0.00000000000E+00 0.  1.
         11    1    3    3    0    0  0.36729971447E+02 -0.75007446493E+01  0.10246977671E+02  0.38863254167E+02  0.51100000000E-03 0. -1.
        -11    1    3    3    0    0 -0.14997258615E+01 -0.11208296129E+02 -0.18958455811E+01  0.11466006738E+02  0.51100000000E-03 0.  1.
        -12    1    3    3    0    0 -0.34486867924E+02  0.17796163824E+02 -0.82661021825E+01  0.39678406613E+02  0.00000000000E+00 0.  1.
</event>
<event>
 7    1  0.3757412E-015  0.9000773E+02  0.7816164E-02  0.1186339E+00
        -11   -1    0    0    0    0  0.00000000000E+00  0.00000000000E+00  0.45593999997E+02  0.45594000000E+02  0.51100000000E-03 0. -1.
         11   -1    0    0    0    0 -0.00000000000E+00 -0.00000000000E+00 -0.45593999997E+02  0.45594000000E+02  0.51100000000E-03 0.  1.
    9900012    2    1    2    0    0  0.10858761208E+01 -0.45952833279E+00 -0.52324706991E-01  0.90007732609E+02  0.89999993880E+02 0.  0.
        -12    1    1    2    0    0 -0.10858761208E+01  0.45952833279E+00  0.52324706991E-01  0.11802673906E+01  0.00000000000E+00 0.  1.
         11    1    3    3    0    0  0.54060969122E+01  0.30671934686E+01 -0.56801673031E+01  0.84200867246E+01  0.51100000000E-03 0. -1.
        -11    1    3    3    0    0  0.27568723361E+02 -0.20806647477E+02 -0.17349902405E+02  0.38651910700E+02  0.51100000000E-03 0.  1.
         12    1    3    3    0    0 -0.31888944152E+02  0.17279925676E+02  0.22977745001E+02  0.42935735185E+02  0.00000000000E+00 0. -1.
</event>
<event>
 7    1  0.3757412E-015  0.9000777E+02  0.7816164E-02  0.1186339E+00
        -11   -1    0    0    0    0  0.00000000000E+00  0.00000000000E+00  0.45593999997E+02  0.45594000000E+02  0.51100000000E-03 0. -1.
         11   -1    0    0    0    0 -0.00000000000E+00 -0.00000000000E+00 -0.45593999997E+02  0.45594000000E+02  0.51100000000E-03 0.  1.
    9900012    2    1    2    0    0 -0.89830791575E+00  0.28538075677E+00  0.71031199864E+00  0.90007770182E+02  0.90000031948E+02 0.  0.
        -12    1    1    2    0    0  0.89830791575E+00 -0.28538075677E+00 -0.71031199864E+00  0.11802298180E+01  0.00000000000E+00 0.  1.
         11    1    3    3    0    0 -0.20027294824E+02 -0.29809206926E+00  0.62434013627E+01  0.20980025207E+02  0.51100000000E-03 0. -1.
        -11    1    3    3    0    0  0.11469414061E+02 -0.25492722870E+02 -0.23439988916E+02  0.36480946519E+02  0.51100000000E-03 0.  1.
         12    1    3    3    0    0  0.76595728470E+01  0.26076195696E+02  0.17906899552E+02  0.32546798456E+02  0.00000000000E+00 0. -1.
</event>
<event>
 7    1  0.3757412E-015  0.9000775E+02  0.7816164E-02  0.1186339E+00
        -11   -1    0    0    0    0  0.00000000000E+00  0.00000000000E+00  0.45593999997E+02  0.45594000000E+02  0.51100000000E-03 0. -1.
         11   -1    0    0    0    0 -0.00000000000E+00 -0.00000000000E+00 -0.45593999997E+02  0.45594000000E+02  0.51100000000E-03 0.  1.
    9900012    2    1    2    0    0 -0.94686797505E+00 -0.21604237250E+00 -0.67064672955E+00  0.90007745661E+02  0.90000007104E+02 0.  0.
        -12    1    1    2    0    0  0.94686797505E+00  0.21604237250E+00  0.67064672955E+00  0.11802543390E+01  0.00000000000E+00 0.  1.
         11    1    3    3    0    0  0.56068752616E+01 -0.22854584103E+02  0.14892555314E+02  0.27848828858E+02  0.51100000000E-03 0. -1.
        -11    1    3    3    0    0  0.59002684707E+01 -0.12971986952E+02  0.92637157736E+01  0.16997118688E+02  0.51100000000E-03 0.  1.
        -12    1    3    3    0    0 -0.12454011707E+02  0.35610528683E+02 -0.24826917817E+02  0.45161798115E+02  0.00000000000E+00 0.  1.
</event>
<event>
 8    1  0.3757412E-015  0.9000775E+02  0.7816164E-02  0.1186339E+00
        -11   -1    0    0    0    0  0.00000000000E+00  0.00000000000E+00  0.45593999997E+02  0.45594000000E+02  0.51100000000E-03 0. -1.
         11   -1    0    0    0    0 -0.00000000000E+00 -0.00000000000E+00 -0.45593999997E+02  0.45594000000E+02  0.51100000000E-03 0.  1.
    9900012    2    1    2    0    0 -0.16702307495E+00 -0.45162741512E+00  0.10775608618E+01  0.90007745180E+02  0.90000006616E+02 0.  0.
         23    2    3    3    0    0 -0.12466180734E+02 -0.60562647837E+01  0.12818419003E+02  0.72104421772E+02  0.69589164157E+02 0.  0.
        -12    1    1    2    0    0  0.16702307495E+00  0.45162741512E+00 -0.10775608618E+01  0.11802548202E+01  0.00000000000E+00 0.  1.
         11    1    4    4    0    0 -0.18291821836E+02 -0.33955161453E+02 -0.43801715474E+01  0.38816615494E+02  0.51100000000E-03 0. -1.
        -11    1    4    4    0    0  0.58256411017E+01  0.27898896669E+02  0.17198590551E+02  0.33287806278E+02  0.51100000000E-03 0.  1.
        -12    1    3    3    0    0  0.12299157659E+02  0.56046373685E+01 -0.11740858141E+02  0.17903323408E+02  0.00000000000E+00 0.  1.
</event>
<event>
 7    1  0.3757412E-015  0.9000780E+02  0.7816164E-02  0.1186339E+00
        -11   -1    0    0    0    0  0.00000000000E+00  0.00000000000E+00  0.45593999997E+02  0.45594000000E+02  0.51100000000E-03 0. -1.
         11   -1    0    0    0    0 -0.00000000000E+00 -0.00000000000E+00 -0.45593999997E+02  0.45594000000E+02  0.51100000000E-03 0.  1.
    9900012    2    1    2    0    0  0.96178123681E+00  0.60944118390E+00 -0.31054072626E+00  0.90007797794E+02  0.90000059925E+02 0.  0.
        -12    1    1    2    0    0 -0.96178123681E+00 -0.60944118390E+00  0.31054072626E+00  0.11802022059E+01  0.00000000000E+00 0.  1.
         11    1    3    3    0    0  0.32240597515E+01 -0.27031907067E+02  0.23699759768E+02  0.36094281739E+02  0.51100000000E-03 0. -1.
        -11    1    3    3    0    0  0.38125366965E+01 -0.37329008931E+01  0.73876880939E+01  0.91130631938E+01  0.51100000000E-03 0.  1.
        -12    1    3    3    0    0 -0.60748152112E+01  0.31374249144E+02 -0.31397988588E+02  0.44800452861E+02  0.00000000000E+00 0.  1.
</event>
<event>
 7    1  0.3757412E-015  0.9000770E+02  0.7816164E-02  0.1186339E+00
        -11   -1    0    0    0    0  0.00000000000E+00  0.00000000000E+00  0.45593999997E+02  0.45594000000E+02  0.51100000000E-03 0.  1.
         11   -1    0    0    0    0 -0.00000000000E+00 -0.00000000000E+00 -0.45593999997E+02  0.45594000000E+02  0.51100000000E-03 0. -1.
    9900012    2    1    2    0    0  0.41639733965E+00 -0.56958560457E+00 -0.94619448248E+00  0.90007704061E+02  0.89999964954E+02 0.  0.
        -12    1    1    2    0    0 -0.41639733965E+00  0.56958560457E+00  0.94619448248E+00  0.11802959392E+01  0.00000000000E+00 0.  1.
         11    1    3    3    0    0 -0.15873349313E+02 -0.20043681212E+02 -0.27540251039E+02  0.37578954249E+02  0.51100000000E-03 0. -1.
        -11    1    3    3    0    0 -0.69686599282E+01 -0.58690764387E+01  0.27190045133E+00  0.91149442980E+01  0.51100000000E-03 0.  1.
        -12    1    3    3    0    0  0.23258406581E+02  0.25343172046E+02  0.26322156105E+02  0.43313805513E+02  0.00000000000E+00 0.  1.
</event>
<event>
 7    1  0.3757412E-015  0.9000762E+02  0.7816164E-02  0.1186339E+00
        -11   -1    0    0    0    0  0.00000000000E+00  0.00000000000E+00  0.45593999997E+02  0.45594000000E+02  0.51100000000E-03 0.  1.
         11   -1    0    0    0    0 -0.00000000000E+00 -0.00000000000E+00 -0.45593999997E+02  0.45594000000E+02  0.51100000000E-03 0. -1.
    9900012    2    1    2    0    0  0.79139350169E+00 -0.86283003611E+00 -0.15004900873E+00  0.90007621226E+02  0.89999881026E+02 0.  0.
        -12    1    1    2    0    0 -0.79139350169E+00  0.86283003611E+00  0.15004900873E+00  0.11803787743E+01  0.00000000000E+00 0.  1.
         11    1    3    3    0    0 -0.10012151022E+02 -0.45754399207E+00 -0.11577487176E+01  0.10089246599E+02  0.51100000000E-03 0. -1.
        -11    1    3    3    0    0  0.21861795340E+02 -0.59117140819E+01  0.36155583799E+02  0.42662778847E+02  0.51100000000E-03 0.  1.
         12    1    3    3    0    0 -0.11058250816E+02  0.55064280379E+01 -0.35147884090E+02  0.37255595779E+02  0.00000000000E+00 0. -1.
</event>
<event>
 7    1  0.3757412E-015  0.9000780E+02  0.7816164E-02  0.1186339E+00
        -11   -1    0    0    0    0  0.00000000000E+00  0.00000000000E+00  0.45593999997E+02  0.45594000000E+02  0.51100000000E-03 0.  1.
         11   -1    0    0    0    0 -0.00000000000E+00 -0.00000000000E+00 -0.45593999997E+02  0.45594000000E+02  0.51100000000E-03 0. -1.
    9900012    2    1    2    0    0 -0.90311310732E+00  0.75663672350E+00  0.68919221273E-01  0.90007804137E+02  0.90000066352E+02 0.  0.
        -12    1    1    2    0    0  0.90311310732E+00 -0.75663672350E+00 -0.68919221273E-01  0.11801958630E+01  0.00000000000E+00 0.  1.
         11    1    3    3    0    0  0.14663566879E+02  0.69233310232E+01 -0.35787630541E+02  0.39290039528E+02  0.51100000000E-03 0. -1.
        -11    1    3    3    0    0  0.74004138636E+01  0.61869918087E+01  0.77267975160E+01  0.12359142086E+02  0.51100000000E-03 0.  1.
        -12    1    3    3    0    0 -0.22967093850E+02 -0.12353686108E+02  0.28129752247E+02  0.38358622523E+02  0.00000000000E+00 0.  1.
</event>
<event>
 7    1  0.3757412E-015  0.9000754E+02  0.7816164E-02  0.1186339E+00
        -11   -1    0    0    0    0  0.00000000000E+00  0.00000000000E+00  0.45593999997E+02  0.45594000000E+02  0.51100000000E-03 0.  1.
         11   -1    0    0    0    0 -0.00000000000E+00 -0.00000000000E+00 -0.45593999997E+02  0.45594000000E+02  0.51100000000E-03 0. -1.
    9900012    2    1    2    0    0 -0.11758857654E+01  0.10256809141E+00 -0.15883414803E-01  0.90007542534E+02  0.89999801295E+02 0.  0.
        -12    1    1    2    0    0  0.11758857654E+01 -0.10256809141E+00  0.15883414803E-01  0.11804574662E+01  0.00000000000E+00 0.  1.
         11    1    3    3    0    0  0.38193417291E+01 -0.10036801385E+02 -0.73399756853E+01  0.13007689903E+02  0.51100000000E-03 0. -1.
        -11    1    3    3    0    0  0.15717069027E+02 -0.27588320487E+02 -0.52026524941E+01  0.32174668286E+02  0.51100000000E-03 0.  1.
         12    1    3    3    0    0 -0.20712296522E+02  0.37727689963E+02  0.12526744765E+02  0.44825184345E+02  0.00000000000E+00 0. -1.
</event>
<event>
 7    1  0.3757412E-015  0.9000697E+02  0.7816164E-02  0.1186341E+00
        -11   -1    0    0    0    0  0.00000000000E+00  0.00000000000E+00  0.45593999997E+02  0.45594000000E+02  0.51100000000E-03 0.  1.
         11   -1    0    0    0    0 -0.00000000000E+00 -0.00000000000E+00 -0.45593999997E+02  0.45594000000E+02  0.51100000000E-03 0. -1.
    9900012    2    1    2    0    0  0.10035099914E+01 -0.20945987186E+00 -0.58645184340E+00  0.90006970151E+02  0.89999221353E+02 0.  0.
        -12    1    1    2    0    0 -0.10035099914E+01  0.20945987186E+00  0.58645184340E+00  0.11810298495E+01  0.00000000000E+00 0.  1.
         11    1    3    3    0    0  0.30509932081E+02 -0.13621833710E+02 -0.17367887782E+02  0.37657055587E+02  0.51100000000E-03 0. -1.
        -11    1    3    3    0    0  0.41119882923E+01 -0.65626731606E+01 -0.32667616274E+01  0.84052875334E+01  0.51100000000E-03 0.  1.
        -12    1    3    3    0    0 -0.33618410382E+02  0.19975046999E+02  0.20048197566E+02  0.43944627030E+02  0.00000000000E+00 0.  1.
</event>
<event>
 7    1  0.3757412E-015  0.9000771E+02  0.7816164E-02  0.1186339E+00
        -11   -1    0    0    0    0  0.00000000000E+00  0.00000000000E+00  0.45593999997E+02  0.45594000000E+02  0.51100000000E-03 0. -1.
         11   -1    0    0    0    0 -0.00000000000E+00 -0.00000000000E+00 -0.45593999997E+02  0.45594000000E+02  0.51100000000E-03 0.  1.
    9900012    2    1    2    0    0 -0.14918932437E+00  0.64520396238E+00  0.97701061971E+00  0.90007705393E+02  0.89999966304E+02 0.  0.
        -12    1    1    2    0    0  0.14918932437E+00 -0.64520396238E+00 -0.97701061971E+00  0.11802946067E+01  0.00000000000E+00 0.  1.
         11    1    3    3    0    0 -0.44124579539E+01  0.62785809658E+01  0.90826019683E+01  0.11890501374E+02  0.51100000000E-03 0. -1.
        -11    1    3    3    0    0  0.32352601882E+02  0.13033571009E+02 -0.22436498504E+02  0.41472415979E+02  0.51100000000E-03 0.  1.
         12    1    3    3    0    0 -0.28089333252E+02 -0.18666948012E+02  0.14330907155E+02  0.36644788041E+02  0.00000000000E+00 0. -1.
</event>
<event>
 7    1  0.3757412E-015  0.9000773E+02  0.7816164E-02  0.1186339E+00
        -11   -1    0    0    0    0  0.00000000000E+00  0.00000000000E+00  0.45593999997E+02  0.45594000000E+02  0.51100000000E-03 0.  1.
         11   -1    0    0    0    0 -0.00000000000E+00 -0.00000000000E+00 -0.45593999997E+02  0.45594000000E+02  0.51100000000E-03 0. -1.
    9900012    2    1    2    0    0 -0.47357538297E+00  0.81891639187E+00  0.70578465484E+00  0.90007733217E+02  0.89999994495E+02 0.  0.
        -12    1    1    2    0    0  0.47357538297E+00 -0.81891639187E+00 -0.70578465484E+00  0.11802667831E+01  0.00000000000E+00 0.  1.
         11    1    3    3    0    0 -0.30323751138E+01 -0.17533771650E-01  0.10024133966E+02  0.10472767938E+02  0.51100000000E-03 0. -1.
        -11    1    3    3    0    0  0.14620927693E+02 -0.15505293992E+02  0.29105071852E+02  0.36073409544E+02  0.51100000000E-03 0.  1.
         12    1    3    3    0    0 -0.12062127963E+02  0.16341744156E+02 -0.38423421162E+02  0.43461555735E+02  0.00000000000E+00 0. -1.
</event>
<event>
 7    1  0.3842233E-015  0.9000776E+02  0.7816164E-02  0.1186339E+00
        -11   -1    0    0    0    0  0.00000000000E+00  0.00000000000E+00  0.45593999997E+02  0.45594000000E+02  0.51100000000E-03 0.  1.
         11   -1    0    0    0    0 -0.00000000000E+00 -0.00000000000E+00 -0.45593999997E+02  0.45594000000E+02  0.51100000000E-03 0. -1.
    9900012    2    1    2    0    0  0.11235241384E+00  0.11339659258E+01 -0.30734703952E+00  0.90007761046E+02  0.90000022692E+02 0.  0.
        -12    1    1    2    0    0 -0.11235241384E+00 -0.11339659258E+01  0.30734703952E+00  0.11802389540E+01  0.00000000000E+00 0.  1.
         11    1    3    3    0    0  0.65707319313E+01 -0.68846728518E+01 -0.35027650189E+02  0.36297513915E+02  0.51100000000E-03 0. -1.
        -11    1    3    3    0    0 -0.29120254948E+01 -0.30942623779E+01 -0.81986532220E+01  0.92342984066E+01  0.51100000000E-03 0.  1.
        -12    1    3    3    0    0 -0.35463540226E+01  0.11112901156E+02  0.42918956371E+02  0.44475948725E+02  0.00000000000E+00 0.  1.
</event>
<event>
 7    1  0.3757412E-015  0.9000763E+02  0.7816164E-02  0.1186339E+00
        -11   -1    0    0    0    0  0.00000000000E+00  0.00000000000E+00  0.45593999997E+02  0.45594000000E+02  0.51100000000E-03 0. -1.
         11   -1    0    0    0    0 -0.00000000000E+00 -0.00000000000E+00 -0.45593999997E+02  0.45594000000E+02  0.51100000000E-03 0.  1.
    9900012    2    1    2    0    0  0.10920804473E+01 -0.37979973450E+00 -0.23744329245E+00  0.90007632744E+02  0.89999892696E+02 0.  0.
        -12    1    1    2    0    0 -0.10920804473E+01  0.37979973450E+00  0.23744329245E+00  0.11803672559E+01  0.00000000000E+00 0.  1.
         11    1    3    3    0    0 -0.56964272162E+01  0.20785531153E+01 -0.75743394559E+01  0.97025916402E+01  0.51100000000E-03 0. -1.
        -11    1    3    3    0    0  0.20284733983E+02 -0.37914942157E+01 -0.32346340176E+02  0.38368366973E+02  0.51100000000E-03 0.  1.
         12    1    3    3    0    0 -0.13496226319E+02  0.13331413659E+01  0.39683236340E+02  0.41936674131E+02  0.00000000000E+00 0. -1.
</event>
<event>
 7    1  0.3757412E-015  0.9000765E+02  0.7816164E-02  0.1186339E+00
        -11   -1    0    0    0    0  0.00000000000E+00  0.00000000000E+00  0.45593999997E+02  0.45594000000E+02  0.51100000000E-03 0.  1.
         11   -1    0    0    0    0 -0.00000000000E+00 -0.00000000000E+00 -0.45593999997E+02  0.45594000000E+02  0.51100000000E-03 0. -1.
    9900012    2    1    2    0    0  0.17447793495E+00  0.15458532918E+00 -0.11571063905E+01  0.90007646505E+02  0.89999906639E+02 0.  0.
        -12    1    1    2    0    0 -0.17447793495E+00 -0.15458532918E+00  0.11571063905E+01  0.11803534948E+01  0.00000000000E+00 0.  1.
         11    1    3    3    0    0  0.64062850500E+01 -0.67486860932E+01 -0.25922801464E+01  0.96594600649E+01  0.51100000000E-03 0. -1.
        -11    1    3    3    0    0  0.71013757245E+01 -0.30969633579E+02  0.18448629595E+02  0.36740980872E+02  0.51100000000E-03 0.  1.
         12    1    3    3    0    0 -0.13333182840E+02  0.37872905002E+02 -0.17013455839E+02  0.43607205569E+02  0.00000000000E+00 0. -1.
</event>
<event>
 7    1  0.3757412E-015  0.9000772E+02  0.7816164E-02  0.1186339E+00
        -11   -1    0    0    0    0  0.00000000000E+00  0.00000000000E+00  0.45593999997E+02  0.45594000000E+02  0.51100000000E-03 0.  1.
         11   -1    0    0    0    0 -0.00000000000E+00 -0.00000000000E+00 -0.45593999997E+02  0.45594000000E+02  0.51100000000E-03 0. -1.
    9900012    2    1    2    0    0 -0.16411152430E+00  0.92920498763E+00  0.70902395190E+00  0.90007716362E+02  0.89999977418E+02 0.  0.
        -12    1    1    2    0    0  0.16411152430E+00 -0.92920498763E+00 -0.70902395190E+00  0.11802836379E+01  0.00000000000E+00 0.  1.
         11    1    3    3    0    0  0.42684682362E+02 -0.12257025171E+02 -0.36690398146E+01  0.44560954072E+02  0.51100000000E-03 0. -1.
        -11    1    3    3    0    0 -0.11328305482E+02  0.37112041989E+01  0.38559260470E+01  0.12528835048E+02  0.51100000000E-03 0.  1.
        -12    1    3    3    0    0 -0.31520488404E+02  0.94750259597E+01  0.52213771949E+00  0.32917927243E+02  0.00000000000E+00 0.  1.
</event>
<event>
 7    1  0.3757412E-015  0.9000780E+02  0.7816164E-02  0.1186339E+00
        -11   -1    0    0    0    0  0.00000000000E+00  0.00000000000E+00  0.45593999997E+02  0.45594000000E+02  0.51100000000E-03 0.  1.
         11   -1    0    0    0    0 -0.00000000000E+00 -0.00000000000E+00 -0.45593999997E+02  0.45594000000E+02  0.51100000000E-03 0. -1.
    9900012    2    1    2    0    0 -0.54399488024E+00 -0.95661000954E+00 -0.42643107957E+00  0.90007798066E+02  0.90000060200E+02 0.  0.
        -12    1    1    2    0    0  0.54399488024E+00  0.95661000954E+00  0.42643107957E+00  0.11802019343E+01  0.00000000000E+00 0.  1.
         11    1    3    3    0    0 -0.83284456256E+01 -0.37054638909E+00 -0.13747927638E+01  0.84492820150E+01  0.51100000000E-03 0. -1.
        -11    1    3    3    0    0 -0.33556853416E+02  0.15216077120E+02 -0.38244242811E+01  0.37043456041E+02  0.51100000000E-03 0.  1.
         12    1    3    3    0    0  0.41341304162E+02 -0.15802140740E+02  0.47727859653E+01  0.44515060009E+02  0.00000000000E+00 0. -1.
</event>
<event>
 7    1  0.3757412E-015  0.9000772E+02  0.7816164E-02  0.1186339E+00
        -11   -1    0    0    0    0  0.00000000000E+00  0.00000000000E+00  0.45593999997E+02  0.45594000000E+02  0.51100000000E-03 0. -1.
         11   -1    0    0    0    0 -0.00000000000E+00 -0.00000000000E+00 -0.45593999997E+02  0.45594000000E+02  0.51100000000E-03 0.  1.
    9900012    2    1    2    0    0  0.39874039186E-01  0.92504264288E+00  0.73196258039E+00  0.90007719080E+02  0.89999980172E+02 0.  0.
        -12    1    1    2    0    0 -0.39874039186E-01 -0.92504264288E+00 -0.73196258039E+00  0.11802809196E+01  0.00000000000E+00 0.  1.
         11    1    3    3    0    0 -0.87388114253E+01 -0.28940364403E+01 -0.51472464019E+00  0.92199356701E+01  0.51100000000E-03 0. -1.
        -11    1    3    3    0    0 -0.25581574994E+01 -0.35720736228E+02  0.12852792001E+02  0.38048776971E+02  0.51100000000E-03 0.  1.
         12    1    3    3    0    0  0.11336842964E+02  0.39539815312E+02 -0.11606104780E+02  0.42739006439E+02  0.00000000000E+00 0. -1.
</event>
<event>
 7    1  0.3757412E-015  0.9000771E+02  0.7816164E-02  0.1186339E+00
        -11   -1    0    0    0    0  0.00000000000E+00  0.00000000000E+00  0.45593999997E+02  0.45594000000E+02  0.51100000000E-03 0. -1.
         11   -1    0    0    0    0 -0.00000000000E+00 -0.00000000000E+00 -0.45593999997E+02  0.45594000000E+02  0.51100000000E-03 0.  1.
    9900012    2    1    2    0    0 -0.29477395942E+00 -0.10438514228E+01 -0.46535570491E+00  0.90007714690E+02  0.89999975724E+02 0.  0.
        -12    1    1    2    0    0  0.29477395942E+00  0.10438514228E+01  0.46535570491E+00  0.11802853096E+01  0.00000000000E+00 0.  1.
         11    1    3    3    0    0  0.20909156233E+02 -0.12301736175E+00  0.32250490250E+02  0.38435687444E+02  0.51100000000E-03 0. -1.
        -11    1    3    3    0    0 -0.55124915862E+00 -0.10947689270E+02  0.75131570140E+00  0.10987276802E+02  0.51100000000E-03 0.  1.
        -12    1    3    3    0    0 -0.20652681033E+02  0.10026855209E+02 -0.33467161657E+02  0.40584750444E+02  0.00000000000E+00 0.  1.
</event>
<event>
 7    1  0.3757412E-015  0.9000840E+02  0.7816164E-02  0.1186338E+00
        -11   -1    0    0    0    0  0.00000000000E+00  0.00000000000E+00  0.45593999997E+02  0.45594000000E+02  0.51100000000E-03 0.  1.
         11   -1    0    0    0    0 -0.00000000000E+00 -0.00000000000E+00 -0.45593999997E+02  0.45594000000E+02  0.51100000000E-03 0. -1.
    9900012    2    1    2    0    0  0.11855019744E+00  0.99760776263E+00 -0.61820911188E+00  0.90008399261E+02  0.90000669329E+02 0.  0.
        -12    1    1    2    0    0 -0.11855019744E+00 -0.99760776263E+00  0.61820911188E+00  0.11796007390E+01  0.00000000000E+00 0.  1.
         11    1    3    3    0    0 -0.30020282727E+01 -0.14283117914E+02 -0.34301177620E+02  0.37277210430E+02  0.51100000000E-03 0. -1.
        -11    1    3    3    0    0  0.53879619100E+01 -0.58729074148E+01 -0.44034621803E+01  0.91055836980E+01  0.51100000000E-03 0.  1.
        -12    1    3    3    0    0 -0.22673834399E+01  0.21153633091E+02  0.38086430688E+02  0.43625605133E+02  0.00000000000E+00 0.  1.
</event>
<event>
 7    1  0.3757412E-015  0.9000777E+02  0.7816164E-02  0.1186339E+00
        -11   -1    0    0    0    0  0.00000000000E+00  0.00000000000E+00  0.45593999997E+02  0.45594000000E+02  0.51100000000E-03 0.  1.
         11   -1    0    0    0    0 -0.00000000000E+00 -0.00000000000E+00 -0.45593999997E+02  0.45594000000E+02  0.51100000000E-03 0. -1.
    9900012    2    1    2    0    0  0.34584809871E+00  0.10313450524E+00 -0.11236981150E+01  0.90007769053E+02  0.90000030805E+02 0.  0.
        -12    1    1    2    0    0 -0.34584809871E+00 -0.10313450524E+00  0.11236981150E+01  0.11802309465E+01  0.00000000000E+00 0.  1.
         11    1    3    3    0    0 -0.49133491034E+01 -0.61637089560E+01 -0.43998763854E+01  0.90272487488E+01  0.51100000000E-03 0. -1.
        -11    1    3    3    0    0 -0.17566513489E+02  0.30340533920E+02  0.23426655088E+02  0.42165608778E+02  0.51100000000E-03 0.  1.
         12    1    3    3    0    0  0.22825710691E+02 -0.24073690459E+02 -0.20150476818E+02  0.38814911527E+02  0.00000000000E+00 0. -1.
</event>
<event>
 7    1  0.3757412E-015  0.9000774E+02  0.7816164E-02  0.1186339E+00
        -11   -1    0    0    0    0  0.00000000000E+00  0.00000000000E+00  0.45593999997E+02  0.45594000000E+02  0.51100000000E-03 0. -1.
         11   -1    0    0    0    0 -0.00000000000E+00 -0.00000000000E+00 -0.45593999997E+02  0.45594000000E+02  0.51100000000E-03 0.  1.
    9900012    2    1    2    0    0  0.93470827146E+00 -0.54911957662E+00 -0.46668393633E+00  0.90007743351E+02  0.90000004763E+02 0.  0.
        -12    1    1    2    0    0 -0.93470827146E+00  0.54911957662E+00  0.46668393633E+00  0.11802566495E+01  0.00000000000E+00 0.  1.
         11    1    3    3    0    0  0.88147613783E+01 -0.94927115823E-02 -0.48180184091E+01  0.10045566680E+02  0.51100000000E-03 0. -1.
        -11    1    3    3    0    0  0.32436012986E+02  0.16045975880E+02  0.41328314579E+00  0.36190317539E+02  0.51100000000E-03 0.  1.
         12    1    3    3    0    0 -0.40316066093E+02 -0.16585602745E+02  0.39380513270E+01  0.43771859132E+02  0.00000000000E+00 0. -1.
</event>
<event>
 7    1  0.3757412E-015  0.9000777E+02  0.7816164E-02  0.1186339E+00
        -11   -1    0    0    0    0  0.00000000000E+00  0.00000000000E+00  0.45593999997E+02  0.45594000000E+02  0.51100000000E-03 0. -1.
         11   -1    0    0    0    0 -0.00000000000E+00 -0.00000000000E+00 -0.45593999997E+02  0.45594000000E+02  0.51100000000E-03 0.  1.
    9900012    2    1    2    0    0 -0.11547067235E+01  0.22970358524E+00 -0.82713757692E-01  0.90007765735E+02  0.90000027443E+02 0.  0.
        -12    1    1    2    0    0  0.11547067235E+01 -0.22970358524E+00  0.82713757692E-01  0.11802342649E+01  0.00000000000E+00 0.  1.
         11    1    3    3    0    0  0.17814833214E+02 -0.18218417416E+01  0.35385471203E+02  0.39658781654E+02  0.51100000000E-03 0. -1.
        -11    1    3    3    0    0 -0.19946769632E+01 -0.57253239746E+01  0.35980190400E+01  0.70500930544E+01  0.51100000000E-03 0.  1.
        -12    1    3    3    0    0 -0.16974862974E+02  0.77768693015E+01 -0.39066204001E+02  0.43298891027E+02  0.00000000000E+00 0.  1.
</event>
<event>
 7    1  0.3757412E-015  0.9000772E+02  0.7816164E-02  0.1186339E+00
        -11   -1    0    0    0    0  0.00000000000E+00  0.00000000000E+00  0.45593999997E+02  0.45594000000E+02  0.51100000000E-03 0. -1.
         11   -1    0    0    0    0 -0.00000000000E+00 -0.00000000000E+00 -0.45593999997E+02  0.45594000000E+02  0.51100000000E-03 0.  1.
    9900012    2    1    2    0    0 -0.97051220360E+00 -0.44477712011E+00 -0.50331832890E+00  0.90007724624E+02  0.89999985789E+02 0.  0.
        -12    1    1    2    0    0  0.97051220360E+00  0.44477712011E+00  0.50331832890E+00  0.11802753764E+01  0.00000000000E+00 0.  1.
         11    1    3    3    0    0 -0.36027177945E+01  0.56971763933E+01 -0.24294531177E+01  0.71651683215E+01  0.51100000000E-03 0. -1.
        -11    1    3    3    0    0 -0.12913590215E+02  0.35711492081E+02 -0.19691807203E+01  0.38025638087E+02  0.51100000000E-03 0.  1.
         12    1    3    3    0    0  0.15545795806E+02 -0.41853445595E+02  0.38953155091E+01  0.44816918215E+02  0.00000000000E+00 0. -1.
</event>
<event>
 7    1  0.3757412E-015  0.9000776E+02  0.7816164E-02  0.1186339E+00
        -11   -1    0    0    0    0  0.00000000000E+00  0.00000000000E+00  0.45593999997E+02  0.45594000000E+02  0.51100000000E-03 0.  1.
         11   -1    0    0    0    0 -0.00000000000E+00 -0.00000000000E+00 -0.45593999997E+02  0.45594000000E+02  0.51100000000E-03 0. -1.
    9900012    2    1    2    0    0 -0.46299402496E+00 -0.90017942360E+00 -0.60686209681E+00  0.90007759318E+02  0.90000020941E+02 0.  0.
        -12    1    1    2    0    0  0.46299402496E+00  0.90017942360E+00  0.60686209681E+00  0.11802406815E+01  0.00000000000E+00 0.  1.
         11    1    3    3    0    0 -0.49859968567E+01 -0.44475998763E+01  0.61590810955E+01  0.90871111756E+01  0.51100000000E-03 0. -1.
        -11    1    3    3    0    0 -0.21998906029E+02  0.26661254982E+02  0.16945225145E+02  0.38495649614E+02  0.51100000000E-03 0.  1.
         12    1    3    3    0    0  0.26521908861E+02 -0.23113834530E+02 -0.23711168338E+02  0.42424998529E+02  0.00000000000E+00 0. -1.
</event>
<event>
 7    1  0.3757412E-015  0.9000775E+02  0.7816164E-02  0.1186339E+00
        -11   -1    0    0    0    0  0.00000000000E+00  0.00000000000E+00  0.45593999997E+02  0.45594000000E+02  0.51100000000E-03 0.  1.
         11   -1    0    0    0    0 -0.00000000000E+00 -0.00000000000E+00 -0.45593999997E+02  0.45594000000E+02  0.51100000000E-03 0. -1.
    9900012    2    1    2    0    0 -0.10085737214E+01  0.61285837406E+00 -0.12797074643E-01  0.90007754219E+02  0.90000015775E+02 0.  0.
        -12    1    1    2    0    0  0.10085737214E+01 -0.61285837406E+00  0.12797074643E-01  0.11802457808E+01  0.00000000000E+00 0.  1.
         11    1    3    3    0    0  0.51078456424E+01 -0.79124474976E+00 -0.79067523729E+01  0.94463161448E+01  0.51100000000E-03 0. -1.
        -11    1    3    3    0    0  0.35246877132E+02 -0.60757379110E+01  0.13345219413E+02  0.38175277605E+02  0.51100000000E-03 0.  1.
         12    1    3    3    0    0 -0.41363296496E+02  0.74798410349E+01 -0.54512641147E+01  0.42386160470E+02  0.00000000000E+00 0. -1.
</event>
<event>
 7    1  0.3757412E-015  0.9000765E+02  0.7816164E-02  0.1186339E+00
        -11   -1    0    0    0    0  0.00000000000E+00  0.00000000000E+00  0.45593999997E+02  0.45594000000E+02  0.51100000000E-03 0. -1.
         11   -1    0    0    0    0 -0.00000000000E+00 -0.00000000000E+00 -0.45593999997E+02  0.45594000000E+02  0.51100000000E-03 0.  1.
    9900012    2    1    2    0    0 -0.79704566378E+00  0.55311874817E-01  0.86883899931E+00  0.90007651577E+02  0.89999911777E+02 0.  0.
        -12    1    1    2    0    0  0.79704566378E+00 -0.55311874817E-01 -0.86883899931E+00  0.11803484233E+01  0.00000000000E+00 0.  1.
         11    1    3    3    0    0  0.10045602615E+01  0.23734352136E+02  0.32677359222E+02  0.40399732903E+02  0.51100000000E-03 0. -1.
        -11    1    3    3    0    0 -0.36554580750E+01 -0.99515684568E+01  0.39081968502E+01  0.11299119053E+02  0.51100000000E-03 0.  1.
        -12    1    3    3    0    0  0.18538521497E+01 -0.13727471805E+02 -0.35716717073E+02  0.38308799621E+02  0.00000000000E+00 0.  1.
</event>
<event>
 7    1  0.6442884E-015  0.9000769E+02  0.7816164E-02  0.1186339E+00
        -11   -1    0    0    0    0  0.00000000000E+00  0.00000000000E+00  0.45593999997E+02  0.45594000000E+02  0.51100000000E-03 0. -1.
         11   -1    0    0    0    0 -0.00000000000E+00 -0.00000000000E+00 -0.45593999997E+02  0.45594000000E+02  0.51100000000E-03 0.  1.
    9900012    2    1    2    0    0  0.31375376958E+00  0.46136813368E+00  0.10401099466E+01  0.90007690429E+02  0.89999951143E+02 0.  0.
        -12    1    1    2    0    0 -0.31375376958E+00 -0.46136813368E+00 -0.10401099466E+01  0.11803095711E+01  0.00000000000E+00 0.  1.
         11    1    3    3    0    0 -0.22404869908E+02  0.23349831143E+02  0.24527149468E+02  0.40605096617E+02  0.51100000000E-03 0. -1.
        -11    1    3    3    0    0  0.77976653606E+01 -0.94472004219E+00  0.58879922876E+01  0.98165439170E+01  0.51100000000E-03 0.  1.
        -12    1    3    3    0    0  0.14920958317E+02 -0.21943742967E+02 -0.29375031809E+02  0.39586049895E+02  0.00000000000E+00 0.  1.
</event>
<event>
 7    1  0.3757412E-015  0.9000779E+02  0.7816164E-02  0.1186339E+00
        -11   -1    0    0    0    0  0.00000000000E+00  0.00000000000E+00  0.45593999997E+02  0.45594000000E+02  0.51100000000E-03 0.  1.
         11   -1    0    0    0    0 -0.00000000000E+00 -0.00000000000E+00 -0.45593999997E+02  0.45594000000E+02  0.51100000000E-03 0. -1.
    9900012    2    1    2    0    0  0.88166732609E+00  0.71255307237E+00 -0.32837534592E+00  0.90007788357E+02  0.90000050363E+02 0.  0.
        -12    1    1    2    0    0 -0.88166732609E+00 -0.71255307237E+00  0.32837534592E+00  0.11802116432E+01  0.00000000000E+00 0.  1.
         11    1    3    3    0    0 -0.15590672235E+02 -0.92878899967E+01 -0.30240421446E+02  0.35267790558E+02  0.51100000000E-03 0. -1.
        -11    1    3    3    0    0 -0.11690525050E+02  0.11539378885E+02  0.51696599504E+01  0.17220656935E+02  0.51100000000E-03 0.  1.
        -12    1    3    3    0    0  0.28162864611E+02 -0.15389358160E+01  0.24742386149E+02  0.37519340865E+02  0.00000000000E+00 0.  1.
</event>
<event>
 7    1  0.3757412E-015  0.9000775E+02  0.7816164E-02  0.1186339E+00
        -11   -1    0    0    0    0  0.00000000000E+00  0.00000000000E+00  0.45593999997E+02  0.45594000000E+02  0.51100000000E-03 0. -1.
         11   -1    0    0    0    0 -0.00000000000E+00 -0.00000000000E+00 -0.45593999997E+02  0.45594000000E+02  0.51100000000E-03 0.  1.
    9900012    2    1    2    0    0 -0.99101078325E+00  0.18661322263E+00  0.61324822608E+00  0.90007745682E+02  0.90000007125E+02 0.  0.
        -12    1    1    2    0    0  0.99101078325E+00 -0.18661322263E+00 -0.61324822608E+00  0.11802543176E+01  0.00000000000E+00 0.  1.
         11    1    3    3    0    0 -0.23661948872E+01  0.97539969894E+01 -0.14609247122E+01  0.10142664186E+02  0.51100000000E-03 0. -1.
        -11    1    3    3    0    0 -0.68044644219E+01  0.31609270426E+02 -0.13567511836E+02  0.35064570304E+02  0.51100000000E-03 0.  1.
         12    1    3    3    0    0  0.81796485259E+01 -0.41176654193E+02  0.15641684774E+02  0.44800511192E+02  0.00000000000E+00 0. -1.
</event>
<event>
 7    1  0.3757412E-015  0.9000642E+02  0.7816164E-02  0.1186342E+00
        -11   -1    0    0    0    0  0.00000000000E+00  0.00000000000E+00  0.45593999997E+02  0.45594000000E+02  0.51100000000E-03 0. -1.
         11   -1    0    0    0    0 -0.00000000000E+00 -0.00000000000E+00 -0.45593999997E+02  0.45594000000E+02  0.51100000000E-03 0.  1.
    9900012    2    1    2    0    0 -0.11759732788E+01  0.70158355720E-01 -0.91024441482E-01  0.90006424443E+02  0.89998668436E+02 0.  0.
        -12    1    1    2    0    0  0.11759732788E+01 -0.70158355720E-01  0.91024441482E-01  0.11815755567E+01  0.00000000000E+00 0.  1.
         11    1    3    3    0    0 -0.16110862058E+01 -0.65354386290E+01  0.61194230538E+01  0.90969717823E+01  0.51100000000E-03 0. -1.
        -11    1    3    3    0    0 -0.32695750437E+02  0.80774206959E+01 -0.25770534949E+02  0.42407278781E+02  0.51100000000E-03 0.  1.
         12    1    3    3    0    0  0.33130863364E+02 -0.14718237112E+01  0.19560087454E+02  0.38502173880E+02  0.00000000000E+00 0. -1.
</event>
<event>
 7    1  0.3757412E-015  0.9000787E+02  0.7816164E-02  0.1186339E+00
        -11   -1    0    0    0    0  0.00000000000E+00  0.00000000000E+00  0.45593999997E+02  0.45594000000E+02  0.51100000000E-03 0.  1.
         11   -1    0    0    0    0 -0.00000000000E+00 -0.00000000000E+00 -0.45593999997E+02  0.45594000000E+02  0.51100000000E-03 0. -1.
    9900012    2    1    2    0    0  0.82333677370E+00 -0.45482297760E-01 -0.84424858398E+00  0.90007869603E+02  0.90000132682E+02 0.  0.
        -12    1    1    2    0    0 -0.82333677370E+00  0.45482297760E-01  0.84424858398E+00  0.11801303970E+01  0.00000000000E+00 0.  1.
         11    1    3    3    0    0  0.64745593499E+01 -0.31686879671E+01 -0.91360078505E+01  0.11637316783E+02  0.51100000000E-03 0. -1.
        -11    1    3    3    0    0  0.34766228804E+02  0.25583240999E+00 -0.62434483076E+01  0.35323317546E+02  0.51100000000E-03 0.  1.
         12    1    3    3    0    0 -0.40417451380E+02  0.28673732594E+01  0.14535207574E+02  0.43047235273E+02  0.00000000000E+00 0. -1.
</event>
<event>
 7    1  0.3757412E-015  0.9000780E+02  0.7816164E-02  0.1186339E+00
        -11   -1    0    0    0    0  0.00000000000E+00  0.00000000000E+00  0.45593999997E+02  0.45594000000E+02  0.51100000000E-03 0.  1.
         11   -1    0    0    0    0 -0.00000000000E+00 -0.00000000000E+00 -0.45593999997E+02  0.45594000000E+02  0.51100000000E-03 0. -1.
    9900012    2    1    2    0    0  0.49610649779E+00  0.97195983771E+00 -0.44948253699E+00  0.90007804197E+02  0.90000066412E+02 0.  0.
        -12    1    1    2    0    0 -0.49610649779E+00 -0.97195983771E+00  0.44948253699E+00  0.11801958034E+01  0.00000000000E+00 0.  1.
         11    1    3    3    0    0  0.35852799239E+02 -0.15409889060E+02 -0.18873143504E+01  0.39069807394E+02  0.51100000000E-03 0. -1.
        -11    1    3    3    0    0  0.61071852526E-01  0.28209839589E+01 -0.10740937478E+02  0.11105377906E+02  0.51100000000E-03 0.  1.
        -12    1    3    3    0    0 -0.35417764594E+02  0.13560864939E+02  0.12178769291E+02  0.39832618896E+02  0.00000000000E+00 0.  1.
</event>
<event>
 7    1  0.3757412E-015  0.9000784E+02  0.7816164E-02  0.1186339E+00
        -11   -1    0    0    0    0  0.00000000000E+00  0.00000000000E+00  0.45593999997E+02  0.45594000000E+02  0.51100000000E-03 0. -1.
         11   -1    0    0    0    0 -0.00000000000E+00 -0.00000000000E+00 -0.45593999997E+02  0.45594000000E+02  0.51100000000E-03 0.  1.
    9900012    2    1    2    0    0 -0.84376609598E+00  0.73700222735E+00  0.37102876338E+00  0.90007840752E+02  0.90000103450E+02 0.  0.
        -12    1    1    2    0    0  0.84376609598E+00 -0.73700222735E+00 -0.37102876338E+00  0.11801592482E+01  0.00000000000E+00 0.  1.
         11    1    3    3    0    0 -0.28452001178E+01  0.31447422799E+00 -0.96472153107E+01  0.10062942972E+02  0.51100000000E-03 0. -1.
        -11    1    3    3    0    0 -0.12277896128E+02 -0.11823940587E+02 -0.30686833611E+02  0.35103191616E+02  0.51100000000E-03 0.  1.
         12    1    3    3    0    0  0.14279330149E+02  0.12246468586E+02  0.40705077685E+02  0.44841706164E+02  0.00000000000E+00 0. -1.
</event>
<event>
 7    1  0.3757412E-015  0.9000767E+02  0.7816164E-02  0.1186339E+00
        -11   -1    0    0    0    0  0.00000000000E+00  0.00000000000E+00  0.45593999997E+02  0.45594000000E+02  0.51100000000E-03 0. -1.
         11   -1    0    0    0    0 -0.00000000000E+00 -0.00000000000E+00 -0.45593999997E+02  0.45594000000E+02  0.51100000000E-03 0.  1.
    9900012    2    1    2    0    0 -0.40443344476E+00  0.24899301256E+00  0.10805624108E+01  0.90007669938E+02  0.89999930381E+02 0.  0.
        -12    1    1    2    0    0  0.40443344476E+00 -0.24899301256E+00 -0.10805624108E+01  0.11803300620E+01  0.00000000000E+00 0.  1.
         11    1    3    3    0    0  0.36284390547E+02 -0.12439898425E+02 -0.46858621786E+01  0.38642792017E+02  0.51100000000E-03 0. -1.
        -11    1    3    3    0    0  0.54962929606E+01  0.17750433702E+01  0.52234648276E+01  0.77874643075E+01  0.51100000000E-03 0.  1.
        -12    1    3    3    0    0 -0.42185116953E+02  0.10913848067E+02  0.54295976182E+00  0.43577413614E+02  0.00000000000E+00 0.  1.
</event>
<event>
 7    1  0.3757412E-015  0.9000755E+02  0.7816164E-02  0.1186339E+00
        -11   -1    0    0    0    0  0.00000000000E+00  0.00000000000E+00  0.45593999997E+02  0.45594000000E+02  0.51100000000E-03 0. -1.
         11   -1    0    0    0    0 -0.00000000000E+00 -0.00000000000E+00 -0.45593999997E+02  0.45594000000E+02  0.51100000000E-03 0.  1.
    9900012    2    1    2    0    0  0.32576062128E+00 -0.42136588036E+00  0.10534699072E+01  0.90007547530E+02  0.89999806358E+02 0.  0.
        -12    1    1    2    0    0 -0.32576062128E+00  0.42136588036E+00 -0.10534699072E+01  0.11804524696E+01  0.00000000000E+00 0.  1.
         11    1    3    3    0    0 -0.53277474932E+01 -0.94877270378E+00 -0.87309565802E+01  0.10272033200E+02  0.51100000000E-03 0. -1.
        -11    1    3    3    0    0  0.11923522551E+01  0.39565547145E+02  0.16985541893E+01  0.39619935783E+02  0.51100000000E-03 0.  1.
         12    1    3    3    0    0  0.44611558594E+01 -0.39038140322E+02  0.80858722981E+01  0.40115578548E+02  0.00000000000E+00 0. -1.
</event>
<event>
 7    1  0.3757412E-015  0.9000775E+02  0.7816164E-02  0.1186339E+00
        -11   -1    0    0    0    0  0.00000000000E+00  0.00000000000E+00  0.45593999997E+02  0.45594000000E+02  0.51100000000E-03 0.  1.
         11   -1    0    0    0    0 -0.00000000000E+00 -0.00000000000E+00 -0.45593999997E+02  0.45594000000E+02  0.51100000000E-03 0. -1.
    9900012    2    1    2    0    0 -0.54694032148E+00  0.98080715549E+00 -0.36311952473E+00  0.90007753339E+02  0.90000014883E+02 0.  0.
        -12    1    1    2    0    0  0.54694032148E+00 -0.98080715549E+00  0.36311952473E+00  0.11802466610E+01  0.00000000000E+00 0.  1.
         11    1    3    3    0    0  0.38723037585E+01 -0.86484808165E+01 -0.40456297052E+01  0.10303304169E+02  0.51100000000E-03 0. -1.
        -11    1    3    3    0    0  0.20405938552E+00  0.17517886207E+00  0.40964588029E+02  0.40965470832E+02  0.51100000000E-03 0.  1.
         12    1    3    3    0    0 -0.46233034655E+01  0.94541091099E+01 -0.37282077848E+02  0.38738978338E+02  0.00000000000E+00 0. -1.
</event>
<event>
 7    1  0.3757412E-015  0.9000781E+02  0.7816164E-02  0.1186339E+00
        -11   -1    0    0    0    0  0.00000000000E+00  0.00000000000E+00  0.45593999997E+02  0.45594000000E+02  0.51100000000E-03 0.  1.
         11   -1    0    0    0    0 -0.00000000000E+00 -0.00000000000E+00 -0.45593999997E+02  0.45594000000E+02  0.51100000000E-03 0. -1.
    9900012    2    1    2    0    0  0.38895356641E+00 -0.63975040637E-01 -0.11124148413E+01  0.90007811684E+02  0.90000073998E+02 0.  0.
        -12    1    1    2    0    0 -0.38895356641E+00  0.63975040637E-01  0.11124148413E+01  0.11801883163E+01  0.00000000000E+00 0.  1.
         11    1    3    3    0    0 -0.97536086535E+01 -0.80304222248E-01  0.65886684541E+01  0.11770721422E+02  0.51100000000E-03 0. -1.
        -11    1    3    3    0    0 -0.30888420031E+02 -0.13991378727E+02  0.13903473231E+01  0.33937976320E+02  0.51100000000E-03 0.  1.
         12    1    3    3    0    0  0.41030982251E+02  0.14007707909E+02 -0.90914306186E+01  0.44299113942E+02  0.00000000000E+00 0. -1.
</event>
<event>
 7    1  0.3757412E-015  0.9000765E+02  0.7816164E-02  0.1186339E+00
        -11   -1    0    0    0    0  0.00000000000E+00  0.00000000000E+00  0.45593999997E+02  0.45594000000E+02  0.51100000000E-03 0.  1.
         11   -1    0    0    0    0 -0.00000000000E+00 -0.00000000000E+00 -0.45593999997E+02  0.45594000000E+02  0.51100000000E-03 0. -1.
    9900012    2    1    2    0    0  0.50405238053E+00  0.70686542359E+00  0.79968559548E+00  0.90007650653E+02  0.89999910842E+02 0.  0.
        -12    1    1    2    0    0 -0.50405238053E+00 -0.70686542359E+00 -0.79968559548E+00  0.11803493470E+01  0.00000000000E+00 0.  1.
         11    1    3    3    0    0  0.19633930413E+02 -0.26928932184E+02 -0.42057950855E+01  0.33590881569E+02  0.51100000000E-03 0. -1.
        -11    1    3    3    0    0  0.70115761008E+01 -0.88538044558E+01  0.14955141707E+01  0.11392480663E+02  0.51100000000E-03 0.  1.
        -12    1    3    3    0    0 -0.26141454133E+02  0.36489602063E+02  0.35099665103E+01  0.45024288421E+02  0.00000000000E+00 0.  1.
</event>
<event>
 7    1  0.3757412E-015  0.9000802E+02  0.7816164E-02  0.1186338E+00
        -11   -1    0    0    0    0  0.00000000000E+00  0.00000000000E+00  0.45593999997E+02  0.45594000000E+02  0.51100000000E-03 0.  1.
         11   -1    0    0    0    0 -0.00000000000E+00 -0.00000000000E+00 -0.45593999997E+02  0.45594000000E+02  0.51100000000E-03 0. -1.
    9900012    2    1    2    0    0  0.49681738162E-01 -0.33300901991E+00 -0.11309231318E+01  0.90008021012E+02  0.90000286089E+02 0.  0.
        -12    1    1    2    0    0 -0.49681738162E-01  0.33300901991E+00  0.11309231318E+01  0.11799789881E+01  0.00000000000E+00 0.  1.
         11    1    3    3    0    0 -0.38896253756E+02 -0.16294473621E+02 -0.45489682840E+01  0.42416052852E+02  0.51100000000E-03 0. -1.
        -11    1    3    3    0    0 -0.69097255567E-01  0.70553035895E+01 -0.16716164345E+01  0.72509575186E+01  0.51100000000E-03 0.  1.
        -12    1    3    3    0    0  0.39015032750E+02  0.89061610120E+01  0.50896615867E+01  0.40341010641E+02  0.00000000000E+00 0.  1.
</event>
<event>
 7    1  0.3757412E-015  0.9000769E+02  0.7816164E-02  0.1186339E+00
        -11   -1    0    0    0    0  0.00000000000E+00  0.00000000000E+00  0.45593999997E+02  0.45594000000E+02  0.51100000000E-03 0.  1.
         11   -1    0    0    0    0 -0.00000000000E+00 -0.00000000000E+00 -0.45593999997E+02  0.45594000000E+02  0.51100000000E-03 0. -1.
    9900012    2    1    2    0    0  0.87791265418E+00  0.46153264400E+00 -0.63983664839E+00  0.90007689047E+02  0.89999949742E+02 0.  0.
        -12    1    1    2    0    0 -0.87791265418E+00 -0.46153264400E+00  0.63983664839E+00  0.11803109533E+01  0.00000000000E+00 0.  1.
         11    1    3    3    0    0  0.21969163707E+02 -0.13885720895E+02  0.30085296141E+02  0.39756539624E+02  0.51100000000E-03 0. -1.
        -11    1    3    3    0    0 -0.13757109126E+02 -0.55544089678E+01 -0.26598042225E+01  0.15072626488E+02  0.51100000000E-03 0.  1.
        -12    1    3    3    0    0 -0.73341419269E+01  0.19901662507E+02 -0.28065328567E+02  0.35178522935E+02  0.00000000000E+00 0.  1.
</event>
<event>
 7    1  0.3757412E-015  0.9000762E+02  0.7816164E-02  0.1186339E+00
        -11   -1    0    0    0    0  0.00000000000E+00  0.00000000000E+00  0.45593999997E+02  0.45594000000E+02  0.51100000000E-03 0.  1.
         11   -1    0    0    0    0 -0.00000000000E+00 -0.00000000000E+00 -0.45593999997E+02  0.45594000000E+02  0.51100000000E-03 0. -1.
    9900012    2    1    2    0    0 -0.65192148845E+00 -0.88088989141E+00 -0.43856356301E+00  0.90007615899E+02  0.89999875628E+02 0.  0.
        -12    1    1    2    0    0  0.65192148845E+00  0.88088989141E+00  0.43856356301E+00  0.11803841013E+01  0.00000000000E+00 0.  1.
         11    1    3    3    0    0  0.10714325854E+02  0.31187198015E+02 -0.19821697263E+02  0.38475157974E+02  0.51100000000E-03 0. -1.
        -11    1    3    3    0    0 -0.96369081744E+01  0.39230087704E+01 -0.42635664753E+00  0.10413538170E+02  0.51100000000E-03 0.  1.
        -12    1    3    3    0    0 -0.17293391678E+01 -0.35991096676E+02  0.19809490347E+02  0.41118919754E+02  0.00000000000E+00 0.  1.
</event>
<event>
 7    1  0.3757412E-015  0.9000761E+02  0.7816164E-02  0.1186339E+00
        -11   -1    0    0    0    0  0.00000000000E+00  0.00000000000E+00  0.45593999997E+02  0.45594000000E+02  0.51100000000E-03 0. -1.
         11   -1    0    0    0    0 -0.00000000000E+00 -0.00000000000E+00 -0.45593999997E+02  0.45594000000E+02  0.51100000000E-03 0.  1.
    9900012    2    1    2    0    0 -0.35283919001E+00 -0.82437448688E+00  0.76760773758E+00  0.90007614289E+02  0.89999873997E+02 0.  0.
        -12    1    1    2    0    0  0.35283919001E+00  0.82437448688E+00 -0.76760773758E+00  0.11803857113E+01  0.00000000000E+00 0.  1.
         11    1    3    3    0    0  0.58796073201E+01  0.57542119562E+01  0.97954529378E+00  0.82849409605E+01  0.51100000000E-03 0. -1.
        -11    1    3    3    0    0  0.36508259883E+02  0.62016650521E+01  0.17101096612E+01  0.37070718424E+02  0.51100000000E-03 0.  1.
         12    1    3    3    0    0 -0.42740706393E+02 -0.12780251495E+02 -0.19220472174E+01  0.44651954905E+02  0.00000000000E+00 0. -1.
</event>
<event>
 7    1  0.3757412E-015  0.9000736E+02  0.7816164E-02  0.1186340E+00
        -11   -1    0    0    0    0  0.00000000000E+00  0.00000000000E+00  0.45593999997E+02  0.45594000000E+02  0.51100000000E-03 0.  1.
         11   -1    0    0    0    0 -0.00000000000E+00 -0.00000000000E+00 -0.45593999997E+02  0.45594000000E+02  0.51100000000E-03 0. -1.
    9900012    2    1    2    0    0  0.32257747303E+00 -0.66242733290E+00 -0.92252149547E+00  0.90007359451E+02  0.89999615794E+02 0.  0.
        -12    1    1    2    0    0 -0.32257747303E+00  0.66242733290E+00  0.92252149547E+00  0.11806405495E+01  0.00000000000E+00 0.  1.
         11    1    3    3    0    0  0.80393892320E+01  0.57163555333E+01  0.34411368911E+01  0.10447484059E+02  0.51100000000E-03 0. -1.
        -11    1    3    3    0    0 -0.47774690542E+01  0.18930450466E+02  0.30599536667E+02  0.36297628158E+02  0.51100000000E-03 0.  1.
         12    1    3    3    0    0 -0.29393427048E+01 -0.25309233332E+02 -0.34963195053E+02  0.43262247234E+02  0.00000000000E+00 0. -1.
</event>
<event>
 7    1  0.3757412E-015  0.9000769E+02  0.7816164E-02  0.1186339E+00
        -11   -1    0    0    0    0  0.00000000000E+00  0.00000000000E+00  0.45593999997E+02  0.45594000000E+02  0.51100000000E-03 0. -1.
         11   -1    0    0    0    0 -0.00000000000E+00 -0.00000000000E+00 -0.45593999997E+02  0.45594000000E+02  0.51100000000E-03 0.  1.
    9900012    2    1    2    0    0 -0.97438152900E-01  0.11744284965E+01 -0.65945244043E-01  0.90007692725E+02  0.89999953469E+02 0.  0.
        -12    1    1    2    0    0  0.97438152900E-01 -0.11744284965E+01  0.65945244043E-01  0.11803072745E+01  0.00000000000E+00 0.  1.
         11    1    3    3    0    0  0.24275977432E+02 -0.33579022617E+02 -0.94641424009E+01  0.42502280313E+02  0.51100000000E-03 0. -1.
        -11    1    3    3    0    0 -0.57222981841E+01  0.92612049802E+01 -0.59291510417E+01  0.12396348113E+02  0.51100000000E-03 0.  1.
        -12    1    3    3    0    0 -0.18651117401E+02  0.25492246133E+02  0.15327348198E+02  0.35109064300E+02  0.00000000000E+00 0.  1.
</event>
<event>
 7    1  0.3757412E-015  0.9000770E+02  0.7816164E-02  0.1186339E+00
        -11   -1    0    0    0    0  0.00000000000E+00  0.00000000000E+00  0.45593999997E+02  0.45594000000E+02  0.51100000000E-03 0. -1.
         11   -1    0    0    0    0 -0.00000000000E+00 -0.00000000000E+00 -0.45593999997E+02  0.45594000000E+02  0.51100000000E-03 0.  1.
    9900012    2    1    2    0    0 -0.11235028696E+01 -0.13663167601E+00  0.33491980329E+00  0.90007704195E+02  0.89999965090E+02 0.  0.
        -12    1    1    2    0    0  0.11235028696E+01  0.13663167601E+00 -0.33491980329E+00  0.11802958051E+01  0.00000000000E+00 0.  1.
         11    1    3    3    0    0  0.35893396265E+01  0.16005527043E+01  0.76925388257E+01  0.86383031760E+01  0.51100000000E-03 0. -1.
        -11    1    3    3    0    0  0.15343238496E+02  0.33598023894E+02 -0.15284189309E+02  0.39973098707E+02  0.51100000000E-03 0.  1.
         12    1    3    3    0    0 -0.20056080992E+02 -0.35335208275E+02  0.79265702870E+01  0.41396302312E+02  0.00000000000E+00 0. -1.
</event>
<event>
 7    1  0.3757412E-015  0.9000772E+02  0.7816164E-02  0.1186339E+00
        -11   -1    0    0    0    0  0.00000000000E+00  0.00000000000E+00  0.45593999997E+02  0.45594000000E+02  0.51100000000E-03 0.  1.
         11   -1    0    0    0    0 -0.00000000000E+00 -0.00000000000E+00 -0.45593999997E+02  0.45594000000E+02  0.51100000000E-03 0. -1.
    9900012    2    1    2    0    0  0.61806277918E+00 -0.12237837200E+00 -0.99804483304E+00  0.90007715478E+02  0.89999976522E+02 0.  0.
        -12    1    1    2    0    0 -0.61806277918E+00  0.12237837200E+00  0.99804483304E+00  0.11802845224E+01  0.00000000000E+00 0.  1.
         11    1    3    3    0    0 -0.20715959674E+02  0.33375503966E+02  0.15080268109E+02  0.42077187842E+02  0.51100000000E-03 0. -1.
        -11    1    3    3    0    0 -0.16603969220E+01  0.21250201432E+00  0.25685426714E+01  0.30658582421E+01  0.51100000000E-03 0.  1.
        -12    1    3    3    0    0  0.22994419375E+02 -0.33710384352E+02 -0.18646855613E+02  0.44864669394E+02  0.00000000000E+00 0.  1.
</event>
<event>
 7    1  0.3757412E-015  0.9000773E+02  0.7816164E-02  0.1186339E+00
        -11   -1    0    0    0    0  0.00000000000E+00  0.00000000000E+00  0.45593999997E+02  0.45594000000E+02  0.51100000000E-03 0.  1.
         11   -1    0    0    0    0 -0.00000000000E+00 -0.00000000000E+00 -0.45593999997E+02  0.45594000000E+02  0.51100000000E-03 0. -1.
    9900012    2    1    2    0    0  0.80160183425E+00 -0.20437888059E-01 -0.86605150366E+00  0.90007733753E+02  0.89999995038E+02 0.  0.
        -12    1    1    2    0    0 -0.80160183425E+00  0.20437888059E-01  0.86605150366E+00  0.11802662475E+01  0.00000000000E+00 0.  1.
         11    1    3    3    0    0  0.18626934441E+01 -0.10797747127E+02 -0.47363133698E+01  0.11937069762E+02  0.51100000000E-03 0. -1.
        -11    1    3    3    0    0  0.27161897810E+02 -0.16516176960E+01  0.27901651451E+02  0.38974333703E+02  0.51100000000E-03 0.  1.
         12    1    3    3    0    0 -0.28222989420E+02  0.12428926935E+02 -0.24031389585E+02  0.39096330288E+02  0.00000000000E+00 0. -1.
</event>
<event>
 7    1  0.3757412E-015  0.9000782E+02  0.7816164E-02  0.1186339E+00
        -11   -1    0    0    0    0  0.00000000000E+00  0.00000000000E+00  0.45593999997E+02  0.45594000000E+02  0.51100000000E-03 0.  1.
         11   -1    0    0    0    0 -0.00000000000E+00 -0.00000000000E+00 -0.45593999997E+02  0.45594000000E+02  0.51100000000E-03 0. -1.
    9900012    2    1    2    0    0 -0.82500028262E+00  0.47357653162E+00 -0.69850769316E+00  0.90007824930E+02  0.90000087419E+02 0.  0.
        -12    1    1    2    0    0  0.82500028262E+00 -0.47357653162E+00  0.69850769316E+00  0.11801750697E+01  0.00000000000E+00 0.  1.
         11    1    3    3    0    0 -0.21807982905E+01  0.11302165518E+02  0.54400770094E+01  0.12731428228E+02  0.51100000000E-03 0. -1.
        -11    1    3    3    0    0 -0.14120226519E+02  0.27182111508E+02  0.11348669402E+02  0.32665582505E+02  0.51100000000E-03 0.  1.
         12    1    3    3    0    0  0.15476024527E+02 -0.38010700494E+02 -0.17487254105E+02  0.44610814197E+02  0.00000000000E+00 0. -1.
</event>
<event>
 7    1  0.3757412E-015  0.9000771E+02  0.7816164E-02  0.1186339E+00
        -11   -1    0    0    0    0  0.00000000000E+00  0.00000000000E+00  0.45593999997E+02  0.45594000000E+02  0.51100000000E-03 0.  1.
         11   -1    0    0    0    0 -0.00000000000E+00 -0.00000000000E+00 -0.45593999997E+02  0.45594000000E+02  0.51100000000E-03 0. -1.
    9900012    2    1    2    0    0 -0.76265580529E+00  0.79881540357E+00  0.41634423516E+00  0.90007706626E+02  0.89999967554E+02 0.  0.
        -12    1    1    2    0    0  0.76265580529E+00 -0.79881540357E+00 -0.41634423516E+00  0.11802933739E+01  0.00000000000E+00 0.  1.
         11    1    3    3    0    0 -0.33773529848E+01 -0.33653896900E+02  0.10251489032E+02  0.35342386979E+02  0.51100000000E-03 0. -1.
        -11    1    3    3    0    0 -0.26614364925E+01 -0.89755249285E+01  0.14801692652E+01  0.94780901694E+01  0.51100000000E-03 0.  1.
        -12    1    3    3    0    0  0.52761336721E+01  0.43428237232E+02 -0.11315314062E+02  0.45187229478E+02  0.00000000000E+00 0.  1.
</event>
<event>
 7    1  0.3757412E-015  0.9000769E+02  0.7816164E-02  0.1186339E+00
        -11   -1    0    0    0    0  0.00000000000E+00  0.00000000000E+00  0.45593999997E+02  0.45594000000E+02  0.51100000000E-03 0.  1.
         11   -1    0    0    0    0 -0.00000000000E+00 -0.00000000000E+00 -0.45593999997E+02  0.45594000000E+02  0.51100000000E-03 0. -1.
    9900012    2    1    2    0    0 -0.67391251691E+00  0.65179659270E+00  0.71703013879E+00  0.90007691100E+02  0.89999951823E+02 0.  0.
        -12    1    1    2    0    0  0.67391251691E+00 -0.65179659270E+00 -0.71703013879E+00  0.11803088997E+01  0.00000000000E+00 0.  1.
         11    1    3    3    0    0 -0.27710164219E+02  0.11764884452E+02 -0.20568049869E+02  0.36459709035E+02  0.51100000000E-03 0. -1.
        -11    1    3    3    0    0 -0.50510214077E+01  0.51118554556E+01 -0.52169377618E+01  0.88803335147E+01  0.51100000000E-03 0.  1.
        -12    1    3    3    0    0  0.32087273110E+02 -0.16224943315E+02  0.26502017770E+02  0.44667648551E+02  0.00000000000E+00 0.  1.
</event>
<event>
 7    1  0.3757412E-015  0.9000778E+02  0.7816164E-02  0.1186339E+00
        -11   -1    0    0    0    0  0.00000000000E+00  0.00000000000E+00  0.45593999997E+02  0.45594000000E+02  0.51100000000E-03 0. -1.
         11   -1    0    0    0    0 -0.00000000000E+00 -0.00000000000E+00 -0.45593999997E+02  0.45594000000E+02  0.51100000000E-03 0.  1.
    9900012    2    1    2    0    0 -0.48114613068E+00  0.10632693241E+01  0.17573345912E+00  0.90007777350E+02  0.90000039211E+02 0.  0.
        -12    1    1    2    0    0  0.48114613068E+00 -0.10632693241E+01 -0.17573345912E+00  0.11802226499E+01  0.00000000000E+00 0.  1.
         11    1    3    3    0    0  0.14566457783E+01  0.73212792795E+01  0.75535429318E+01  0.10619743796E+02  0.51100000000E-03 0. -1.
        -11    1    3    3    0    0  0.25562428950E+02 -0.32208589600E+02 -0.59671322591E+01  0.41550423410E+02  0.51100000000E-03 0.  1.
         12    1    3    3    0    0 -0.27500220859E+02  0.25950579645E+02 -0.14106772136E+01  0.37837610144E+02  0.00000000000E+00 0. -1.
</event>
<event>
 7    1  0.3757412E-015  0.9000807E+02  0.7816164E-02  0.1186338E+00
        -11   -1    0    0    0    0  0.00000000000E+00  0.00000000000E+00  0.45593999997E+02  0.45594000000E+02  0.51100000000E-03 0. -1.
         11   -1    0    0    0    0 -0.00000000000E+00 -0.00000000000E+00 -0.45593999997E+02  0.45594000000E+02  0.51100000000E-03 0.  1.
    9900012    2    1    2    0    0  0.87193474970E+00 -0.41017980258E+00  0.68096314583E+00  0.90008072678E+02  0.90000338437E+02 0.  0.
        -12    1    1    2    0    0 -0.87193474970E+00  0.41017980258E+00 -0.68096314583E+00  0.11799273216E+01  0.00000000000E+00 0.  1.
         11    1    3    3    0    0 -0.33174326045E+01 -0.35306190389E+02  0.19801075788E+02  0.40615453235E+02  0.51100000000E-03 0. -1.
        -11    1    3    3    0    0  0.60377610777E+01  0.67054142088E+01  0.66062743737E+01  0.11183022843E+02  0.51100000000E-03 0.  1.
        -12    1    3    3    0    0 -0.18483937235E+01  0.28190596378E+02 -0.25726387016E+02  0.38209596600E+02  0.00000000000E+00 0.  1.
</event>
<event>
 7    1  0.3757412E-015  0.9000775E+02  0.7816164E-02  0.1186339E+00
        -11   -1    0    0    0    0  0.00000000000E+00  0.00000000000E+00  0.45593999997E+02  0.45594000000E+02  0.51100000000E-03 0. -1.
         11   -1    0    0    0    0 -0.00000000000E+00 -0.00000000000E+00 -0.45593999997E+02  0.45594000000E+02  0.51100000000E-03 0.  1.
    9900012    2    1    2    0    0  0.91293755570E+00  0.74136727727E+00 -0.99569473960E-01  0.90007748120E+02  0.90000009595E+02 0.  0.
        -12    1    1    2    0    0 -0.91293755570E+00 -0.74136727727E+00  0.99569473960E-01  0.11802518801E+01  0.00000000000E+00 0.  1.
         11    1    3    3    0    0  0.43084896246E+01  0.95791369200E+01 -0.49981936079E+01  0.11632062869E+02  0.51100000000E-03 0. -1.
        -11    1    3    3    0    0 -0.68385040868E+01  0.20077780724E+02 -0.27554961442E+02  0.34772953819E+02  0.51100000000E-03 0.  1.
         12    1    3    3    0    0  0.34429520179E+01 -0.28915550367E+02  0.32453585576E+02  0.43602731432E+02  0.00000000000E+00 0. -1.
</event>
<event>
 7    1  0.3757412E-015  0.9000771E+02  0.7816164E-02  0.1186339E+00
        -11   -1    0    0    0    0  0.00000000000E+00  0.00000000000E+00  0.45593999997E+02  0.45594000000E+02  0.51100000000E-03 0.  1.
         11   -1    0    0    0    0 -0.00000000000E+00 -0.00000000000E+00 -0.45593999997E+02  0.45594000000E+02  0.51100000000E-03 0. -1.
    9900012    2    1    2    0    0  0.15792323212E+00 -0.92460787764E+00 -0.71641105681E+00  0.90007710088E+02  0.89999971061E+02 0.  0.
        -12    1    1    2    0    0 -0.15792323212E+00  0.92460787764E+00  0.71641105681E+00  0.11802899122E+01  0.00000000000E+00 0.  1.
         11    1    3    3    0    0 -0.47142385987E+01 -0.78445401473E+01 -0.40300083298E+02  0.41326233434E+02  0.51100000000E-03 0. -1.
        -11    1    3    3    0    0 -0.65216900910E+01  0.29901409185E+01 -0.13361732110E+00  0.71757395580E+01  0.51100000000E-03 0.  1.
        -12    1    3    3    0    0  0.11393851922E+02  0.39297913512E+01  0.39717289563E+02  0.41505737096E+02  0.00000000000E+00 0.  1.
</event>
<event>
 7    1  0.3757412E-015  0.9000758E+02  0.7816164E-02  0.1186339E+00
        -11   -1    0    0    0    0  0.00000000000E+00  0.00000000000E+00  0.45593999997E+02  0.45594000000E+02  0.51100000000E-03 0. -1.
         11   -1    0    0    0    0 -0.00000000000E+00 -0.00000000000E+00 -0.45593999997E+02  0.45594000000E+02  0.51100000000E-03 0.  1.
    9900012    2    1    2    0    0  0.28633864974E+00 -0.11196109750E+01  0.24055799735E+00  0.90007581978E+02  0.89999841260E+02 0.  0.
        -12    1    1    2    0    0 -0.28633864974E+00  0.11196109750E+01 -0.24055799735E+00  0.11804180224E+01  0.00000000000E+00 0.  1.
         11    1    3    3    0    0  0.90373636894E+01 -0.31792645175E+01 -0.85575842945E-01  0.95806570136E+01  0.51100000000E-03 0. -1.
        -11    1    3    3    0    0  0.70894643429E+01  0.38119353352E+02  0.96435115397E+01  0.39954260345E+02  0.51100000000E-03 0.  1.
         12    1    3    3    0    0 -0.15840489383E+02 -0.36059699809E+02 -0.93173776994E+01  0.40472664619E+02  0.00000000000E+00 0. -1.
</event>
<event>
 7    1  0.3757412E-015  0.9000773E+02  0.7816164E-02  0.1186339E+00
        -11   -1    0    0    0    0  0.00000000000E+00  0.00000000000E+00  0.45593999997E+02  0.45594000000E+02  0.51100000000E-03 0.  1.
         11   -1    0    0    0    0 -0.00000000000E+00 -0.00000000000E+00 -0.45593999997E+02  0.45594000000E+02  0.51100000000E-03 0. -1.
    9900012    2    1    2    0    0  0.14592394244E+00 -0.11694915910E+01 -0.63463818755E-01  0.90007732219E+02  0.89999993484E+02 0.  0.
        -12    1    1    2    0    0 -0.14592394244E+00  0.11694915910E+01  0.63463818755E-01  0.11802677809E+01  0.00000000000E+00 0.  1.
         11    1    3    3    0    0 -0.43955411767E+01 -0.79808408665E+01 -0.11596420415E+02  0.14747595393E+02  0.51100000000E-03 0. -1.
        -11    1    3    3    0    0 -0.31937965583E+01  0.16089477094E+02  0.40597028071E+02  0.43785731673E+02  0.51100000000E-03 0.  1.
         12    1    3    3    0    0  0.77352616774E+01 -0.92781278188E+01 -0.29064071475E+02  0.31474405153E+02  0.00000000000E+00 0. -1.
</event>
<event>
 7    1  0.3757412E-015  0.9000758E+02  0.7816164E-02  0.1186339E+00
        -11   -1    0    0    0    0  0.00000000000E+00  0.00000000000E+00  0.45593999997E+02  0.45594000000E+02  0.51100000000E-03 0. -1.
         11   -1    0    0    0    0 -0.00000000000E+00 -0.00000000000E+00 -0.45593999997E+02  0.45594000000E+02  0.51100000000E-03 0.  1.
    9900012    2    1    2    0    0 -0.43231191282E+00 -0.18132812795E+00  0.10833415755E+01  0.90007575310E+02  0.89999834504E+02 0.  0.
        -12    1    1    2    0    0  0.43231191282E+00  0.18132812795E+00 -0.10833415755E+01  0.11804246902E+01  0.00000000000E+00 0.  1.
         11    1    3    3    0    0  0.17811681313E+01 -0.92642083966E+01 -0.27866851888E+01  0.98368557847E+01  0.51100000000E-03 0. -1.
        -11    1    3    3    0    0 -0.33766304512E+02 -0.17896125674E+02 -0.18699461995E+01  0.38261355617E+02  0.51100000000E-03 0.  1.
         12    1    3    3    0    0  0.31552824468E+02  0.26979005943E+02  0.57399729639E+01  0.41909363909E+02  0.00000000000E+00 0. -1.
</event>
<event>
 7    1  0.3757412E-015  0.9000769E+02  0.7816164E-02  0.1186339E+00
        -11   -1    0    0    0    0  0.00000000000E+00  0.00000000000E+00  0.45593999997E+02  0.45594000000E+02  0.51100000000E-03 0.  1.
         11   -1    0    0    0    0 -0.00000000000E+00 -0.00000000000E+00 -0.45593999997E+02  0.45594000000E+02  0.51100000000E-03 0. -1.
    9900012    2    1    2    0    0 -0.99144191562E+00 -0.60906952020E+00 -0.19801426326E+00  0.90007689701E+02  0.89999950405E+02 0.  0.
        -12    1    1    2    0    0  0.99144191562E+00  0.60906952020E+00  0.19801426326E+00  0.11803102986E+01  0.00000000000E+00 0.  1.
         11    1    3    3    0    0  0.12964009459E+02  0.23577472591E+02  0.28458395566E+02  0.39164308158E+02  0.51100000000E-03 0. -1.
        -11    1    3    3    0    0 -0.73657142917E+01  0.52924959738E+01  0.19501801759E+00  0.90720611190E+01  0.51100000000E-03 0.  1.
        -12    1    3    3    0    0 -0.65897370830E+01 -0.29479038085E+02 -0.28851427847E+02  0.41771320425E+02  0.00000000000E+00 0.  1.
</event>
<event>
 7    1  0.3757412E-015  0.9000746E+02  0.7816164E-02  0.1186340E+00
        -11   -1    0    0    0    0  0.00000000000E+00  0.00000000000E+00  0.45593999997E+02  0.45594000000E+02  0.51100000000E-03 0.  1.
         11   -1    0    0    0    0 -0.00000000000E+00 -0.00000000000E+00 -0.45593999997E+02  0.45594000000E+02  0.51100000000E-03 0. -1.
    9900012    2    1    2    0    0  0.95935886826E+00 -0.73937246299E-01 -0.68399310018E+00  0.90007456602E+02  0.89999714228E+02 0.  0.
        -12    1    1    2    0    0 -0.95935886826E+00  0.73937246299E-01  0.68399310018E+00  0.11805433984E+01  0.00000000000E+00 0.  1.
         11    1    3    3    0    0  0.11446950063E+02 -0.92833881136E+01 -0.38565969156E+02  0.41286171266E+02  0.51100000000E-03 0. -1.
        -11    1    3    3    0    0 -0.76855406642E+01 -0.16822176696E+01 -0.12849301667E+01  0.79717273777E+01  0.51100000000E-03 0.  1.
        -12    1    3    3    0    0 -0.28020505304E+01  0.10891668537E+02  0.39166906223E+02  0.40749557958E+02  0.00000000000E+00 0.  1.
</event>
<event>
 7    1  0.3757412E-015  0.9000774E+02  0.7816164E-02  0.1186339E+00
        -11   -1    0    0    0    0  0.00000000000E+00  0.00000000000E+00  0.45593999997E+02  0.45594000000E+02  0.51100000000E-03 0. -1.
         11   -1    0    0    0    0 -0.00000000000E+00 -0.00000000000E+00 -0.45593999997E+02  0.45594000000E+02  0.51100000000E-03 0.  1.
    9900012    2    1    2    0    0  0.13925627211E+00  0.11504486279E+01  0.22380521361E+00  0.90007740228E+02  0.90000001599E+02 0.  0.
        -12    1    1    2    0    0 -0.13925627211E+00 -0.11504486279E+01 -0.22380521361E+00  0.11802597715E+01  0.00000000000E+00 0.  1.
         11    1    3    3    0    0 -0.19022182626E+02 -0.61067512244E+01  0.29279305000E+02  0.35445924222E+02  0.51100000000E-03 0. -1.
        -11    1    3    3    0    0  0.12534682953E+01  0.25125486043E+00  0.10501204461E+02  0.10578733722E+02  0.51100000000E-03 0.  1.
        -12    1    3    3    0    0  0.17907970602E+02  0.70059449918E+01 -0.39556704248E+02  0.43983082285E+02  0.00000000000E+00 0.  1.
</event>
<event>
 7    1  0.3757412E-015  0.9000792E+02  0.7816164E-02  0.1186339E+00
        -11   -1    0    0    0    0  0.00000000000E+00  0.00000000000E+00  0.45593999997E+02  0.45594000000E+02  0.51100000000E-03 0.  1.
         11   -1    0    0    0    0 -0.00000000000E+00 -0.00000000000E+00 -0.45593999997E+02  0.45594000000E+02  0.51100000000E-03 0. -1.
    9900012    2    1    2    0    0 -0.78715516364E+00 -0.92820366774E-01 -0.87428073886E+00  0.90007917087E+02  0.90000180792E+02 0.  0.
        -12    1    1    2    0    0  0.78715516364E+00  0.92820366774E-01  0.87428073886E+00  0.11800829134E+01  0.00000000000E+00 0.  1.
         11    1    3    3    0    0  0.74579669324E+01  0.60907064856E+01  0.95657208578E-01  0.96294925527E+01  0.51100000000E-03 0. -1.
        -11    1    3    3    0    0  0.25670021415E+02  0.11575157334E+02  0.21998804772E+02  0.35733481197E+02  0.51100000000E-03 0.  1.
         12    1    3    3    0    0 -0.33915143511E+02 -0.17758684187E+02 -0.22968742720E+02  0.44644943337E+02  0.00000000000E+00 0. -1.
</event>
<event>
 7    1  0.3757412E-015  0.9000770E+02  0.7816164E-02  0.1186339E+00
        -11   -1    0    0    0    0  0.00000000000E+00  0.00000000000E+00  0.45593999997E+02  0.45594000000E+02  0.51100000000E-03 0.  1.
         11   -1    0    0    0    0 -0.00000000000E+00 -0.00000000000E+00 -0.45593999997E+02  0.45594000000E+02  0.51100000000E-03 0. -1.
    9900012    2    1    2    0    0  0.36518976254E+00 -0.45495718734E+00 -0.10260417452E+01  0.90007698654E+02  0.89999959476E+02 0.  0.
        -12    1    1    2    0    0 -0.36518976254E+00  0.45495718734E+00  0.10260417452E+01  0.11803013462E+01  0.00000000000E+00 0.  1.
         11    1    3    3    0    0  0.67265548296E+01  0.16113455179E+02 -0.33116907142E+02  0.37438209313E+02  0.51100000000E-03 0. -1.
        -11    1    3    3    0    0 -0.41696137256E+01 -0.58299958655E+00 -0.81726573961E+01  0.91933615351E+01  0.51100000000E-03 0.  1.
        -12    1    3    3    0    0 -0.21917513415E+01 -0.15985412780E+02  0.40263522793E+02  0.43376127805E+02  0.00000000000E+00 0.  1.
</event>
<event>
 7    1  0.3757412E-015  0.9000767E+02  0.7816164E-02  0.1186339E+00
        -11   -1    0    0    0    0  0.00000000000E+00  0.00000000000E+00  0.45593999997E+02  0.45594000000E+02  0.51100000000E-03 0. -1.
         11   -1    0    0    0    0 -0.00000000000E+00 -0.00000000000E+00 -0.45593999997E+02  0.45594000000E+02  0.51100000000E-03 0.  1.
    9900012    2    1    2    0    0 -0.95414261714E+00 -0.57567504744E+00 -0.38910124686E+00  0.90007665440E+02  0.89999925823E+02 0.  0.
        -12    1    1    2    0    0  0.95414261714E+00  0.57567504744E+00  0.38910124686E+00  0.11803345604E+01  0.00000000000E+00 0.  1.
         11    1    3    3    0    0  0.98078162692E+01 -0.65910840070E+01  0.19357823615E+01  0.11974259976E+02  0.51100000000E-03 0. -1.
        -11    1    3    3    0    0 -0.43013393908E+02  0.12509653417E+02 -0.47424272254E+01  0.45045911028E+02  0.51100000000E-03 0.  1.
         12    1    3    3    0    0  0.32251435022E+02 -0.64942444570E+01  0.24175436171E+01  0.32987494436E+02  0.00000000000E+00 0. -1.
</event>
<event>
 7    1  0.3757412E-015  0.9000771E+02  0.7816164E-02  0.1186339E+00
        -11   -1    0    0    0    0  0.00000000000E+00  0.00000000000E+00  0.45593999997E+02  0.45594000000E+02  0.51100000000E-03 0.  1.
         11   -1    0    0    0    0 -0.00000000000E+00 -0.00000000000E+00 -0.45593999997E+02  0.45594000000E+02  0.51100000000E-03 0. -1.
    9900012    2    1    2    0    0  0.98669060703E+00 -0.42402349961E-01 -0.64631522088E+00  0.90007712036E+02  0.89999973035E+02 0.  0.
        -12    1    1    2    0    0 -0.98669060703E+00  0.42402349961E-01  0.64631522088E+00  0.11802879640E+01  0.00000000000E+00 0.  1.
         11    1    3    3    0    0 -0.27890333122E+01  0.32974095916E+02 -0.23917485143E+02  0.40830329464E+02  0.51100000000E-03 0. -1.
        -11    1    3    3    0    0  0.73282081426E+01 -0.17085550788E+01 -0.30517763525E+01  0.81200452095E+01  0.51100000000E-03 0.  1.
        -12    1    3    3    0    0 -0.35524842233E+01 -0.31307943187E+02  0.26322946274E+02  0.41057337363E+02  0.00000000000E+00 0.  1.
</event>
<event>
 7    1  0.3757412E-015  0.9000789E+02  0.7816164E-02  0.1186339E+00
        -11   -1    0    0    0    0  0.00000000000E+00  0.00000000000E+00  0.45593999997E+02  0.45594000000E+02  0.51100000000E-03 0.  1.
         11   -1    0    0    0    0 -0.00000000000E+00 -0.00000000000E+00 -0.45593999997E+02  0.45594000000E+02  0.51100000000E-03 0. -1.
    9900012    2    1    2    0    0 -0.10636081351E+01 -0.50488412146E+00  0.80502378553E-01  0.90007893702E+02  0.90000157099E+02 0.  0.
        -12    1    1    2    0    0  0.10636081351E+01  0.50488412146E+00 -0.80502378553E-01  0.11801062978E+01  0.00000000000E+00 0.  1.
         11    1    3    3    0    0 -0.11062257108E+02  0.16005945791E+01  0.10708506765E+01  0.11228631117E+02  0.51100000000E-03 0. -1.
        -11    1    3    3    0    0 -0.51930732578E+00  0.25003142128E+02 -0.29076785244E+02  0.38352134710E+02  0.51100000000E-03 0.  1.
         12    1    3    3    0    0  0.10517956298E+02 -0.27108620829E+02  0.28086436946E+02  0.40427127876E+02  0.00000000000E+00 0. -1.
</event>
<event>
 7    1  0.3757412E-015  0.9000830E+02  0.7816164E-02  0.1186338E+00
        -11   -1    0    0    0    0  0.00000000000E+00  0.00000000000E+00  0.45593999997E+02  0.45594000000E+02  0.51100000000E-03 0.  1.
         11   -1    0    0    0    0 -0.00000000000E+00 -0.00000000000E+00 -0.45593999997E+02  0.45594000000E+02  0.51100000000E-03 0. -1.
    9900012    2    1    2    0    0  0.70736324408E+00  0.86653576210E+00 -0.37475365134E+00  0.90008302036E+02  0.90000570821E+02 0.  0.
        -12    1    1    2    0    0 -0.70736324408E+00 -0.86653576210E+00  0.37475365134E+00  0.11796979636E+01  0.00000000000E+00 0.  1.
         11    1    3    3    0    0 -0.24436752970E+01  0.89366234172E+01  0.67444197177E+01  0.11459580474E+02  0.51100000000E-03 0. -1.
        -11    1    3    3    0    0 -0.20643152027E+02 -0.23564955561E+02  0.21685805269E+02  0.38101456752E+02  0.51100000000E-03 0.  1.
         12    1    3    3    0    0  0.23794190568E+02  0.15494867906E+02 -0.28804978638E+02  0.40447264810E+02  0.00000000000E+00 0. -1.
</event>
<event>
 7    1  0.3757412E-015  0.9000778E+02  0.7816164E-02  0.1186339E+00
        -11   -1    0    0    0    0  0.00000000000E+00  0.00000000000E+00  0.45593999997E+02  0.45594000000E+02  0.51100000000E-03 0.  1.
         11   -1    0    0    0    0 -0.00000000000E+00 -0.00000000000E+00 -0.45593999997E+02  0.45594000000E+02  0.51100000000E-03 0. -1.
    9900012    2    1    2    0    0  0.43021912679E-01  0.48279996824E+00 -0.10760867987E+01  0.90007784133E+02  0.90000046084E+02 0.  0.
        -12    1    1    2    0    0 -0.43021912679E-01 -0.48279996824E+00  0.10760867987E+01  0.11802158669E+01  0.00000000000E+00 0.  1.
         11    1    3    3    0    0 -0.36502522427E+01 -0.62872691965E+01  0.16694326767E+01  0.74592962877E+01  0.51100000000E-03 0. -1.
        -11    1    3    3    0    0  0.14267796108E+02 -0.19866349999E+02 -0.32868637937E+02  0.40970589795E+02  0.51100000000E-03 0.  1.
         12    1    3    3    0    0 -0.10574521953E+02  0.26636419164E+02  0.30123118462E+02  0.41577898050E+02  0.00000000000E+00 0. -1.
</event>
<event>
 7    1  0.3757412E-015  0.9000776E+02  0.7816164E-02  0.1186339E+00
        -11   -1    0    0    0    0  0.00000000000E+00  0.00000000000E+00  0.45593999997E+02  0.45594000000E+02  0.51100000000E-03 0.  1.
         11   -1    0    0    0    0 -0.00000000000E+00 -0.00000000000E+00 -0.45593999997E+02  0.45594000000E+02  0.51100000000E-03 0. -1.
    9900012    2    1    2    0    0  0.10046812281E+01 -0.59497590703E+00 -0.17201932538E+00  0.90007757928E+02  0.90000019533E+02 0.  0.
        -12    1    1    2    0    0 -0.10046812281E+01  0.59497590703E+00  0.17201932538E+00  0.11802420719E+01  0.00000000000E+00 0.  1.
         11    1    3    3    0    0 -0.15964755791E+01  0.39919699276E+02 -0.12193872836E+02  0.41771062466E+02  0.51100000000E-03 0. -1.
        -11    1    3    3    0    0  0.83841548607E+01 -0.34522744310E+01  0.89940957547E+00  0.91115964200E+01  0.51100000000E-03 0.  1.
        -12    1    3    3    0    0 -0.57829980536E+01 -0.37062400752E+02  0.11122443935E+02  0.39125099042E+02  0.00000000000E+00 0.  1.
</event>
<event>
 7    1  0.3757412E-015  0.9000775E+02  0.7816164E-02  0.1186339E+00
        -11   -1    0    0    0    0  0.00000000000E+00  0.00000000000E+00  0.45593999997E+02  0.45594000000E+02  0.51100000000E-03 0. -1.
         11   -1    0    0    0    0 -0.00000000000E+00 -0.00000000000E+00 -0.45593999997E+02  0.45594000000E+02  0.51100000000E-03 0.  1.
    9900012    2    1    2    0    0 -0.26095151893E+00  0.11503487549E+01  0.39829460488E-01  0.90007752425E+02  0.90000013957E+02 0.  0.
        -12    1    1    2    0    0  0.26095151893E+00 -0.11503487549E+01 -0.39829460488E-01  0.11802475753E+01  0.00000000000E+00 0.  1.
         11    1    3    3    0    0  0.44742326007E+01 -0.12419345913E+02  0.63215888395E+01  0.14636304041E+02  0.51100000000E-03 0. -1.
        -11    1    3    3    0    0  0.18602401093E+02  0.28544438236E+02 -0.24700613536E+02  0.42082711295E+02  0.51100000000E-03 0.  1.
         12    1    3    3    0    0 -0.23337585213E+02 -0.14974743568E+02  0.18418854157E+02  0.33288737088E+02  0.00000000000E+00 0. -1.
</event>
<event>
 7    1  0.3757412E-015  0.9000769E+02  0.7816164E-02  0.1186339E+00
        -11   -1    0    0    0    0  0.00000000000E+00  0.00000000000E+00  0.45593999997E+02  0.45594000000E+02  0.51100000000E-03 0. -1.
         11   -1    0    0    0    0 -0.00000000000E+00 -0.00000000000E+00 -0.45593999997E+02  0.45594000000E+02  0.51100000000E-03 0.  1.
    9900012    2    1    2    0    0  0.10803526084E+01 -0.25089110690E+00  0.40375952684E+00  0.90007690777E+02  0.89999951495E+02 0.  0.
        -12    1    1    2    0    0 -0.10803526084E+01  0.25089110690E+00 -0.40375952684E+00  0.11803092228E+01  0.00000000000E+00 0.  1.
         11    1    3    3    0    0  0.97927155334E+01 -0.13014480646E+01  0.16353669577E+01  0.10013264699E+02  0.51100000000E-03 0. -1.
        -11    1    3    3    0    0  0.28987315997E+02 -0.95552059492E+01  0.18961411774E+02  0.35931902067E+02  0.51100000000E-03 0.  1.
         12    1    3    3    0    0 -0.37699678922E+02  0.10605762907E+02 -0.20193019205E+02  0.44062524011E+02  0.00000000000E+00 0. -1.
</event>
<event>
 7    1  0.3757412E-015  0.9000652E+02  0.7816164E-02  0.1186341E+00
        -11   -1    0    0    0    0  0.00000000000E+00  0.00000000000E+00  0.45593999997E+02  0.45594000000E+02  0.51100000000E-03 0. -1.
         11   -1    0    0    0    0 -0.00000000000E+00 -0.00000000000E+00 -0.45593999997E+02  0.45594000000E+02  0.51100000000E-03 0.  1.
    9900012    2    1    2    0    0 -0.50349030708E+00  0.10681816143E+01 -0.37149173994E-01  0.90006520203E+02  0.89998765461E+02 0.  0.
        -12    1    1    2    0    0  0.50349030708E+00 -0.10681816143E+01  0.37149173994E-01  0.11814797974E+01  0.00000000000E+00 0.  1.
         11    1    3    3    0    0 -0.64394090801E+01 -0.19685896678E+01 -0.51419050139E+01  0.84723386391E+01  0.51100000000E-03 0. -1.
        -11    1    3    3    0    0 -0.14152955571E+02  0.38147979503E+02 -0.52650487367E+00  0.40692157711E+02  0.51100000000E-03 0.  1.
         12    1    3    3    0    0  0.20088874344E+02 -0.35111208221E+02  0.56312607136E+01  0.40842023852E+02  0.00000000000E+00 0. -1.
</event>
<event>
 7    1  0.3757412E-015  0.9000785E+02  0.7816164E-02  0.1186339E+00
        -11   -1    0    0    0    0  0.00000000000E+00  0.00000000000E+00  0.45593999997E+02  0.45594000000E+02  0.51100000000E-03 0.  1.
         11   -1    0    0    0    0 -0.00000000000E+00 -0.00000000000E+00 -0.45593999997E+02  0.45594000000E+02  0.51100000000E-03 0. -1.
    9900012    2    1    2    0    0  0.10401613745E+01  0.45918927821E+00  0.31615595577E+00  0.90007853794E+02  0.90000116664E+02 0.  0.
        -12    1    1    2    0    0 -0.10401613745E+01 -0.45918927821E+00 -0.31615595577E+00  0.11801462056E+01  0.00000000000E+00 0.  1.
         11    1    3    3    0    0 -0.26264537671E+01 -0.46724257781E+01 -0.40797472821E+02  0.41148069346E+02  0.51100000000E-03 0. -1.
        -11    1    3    3    0    0  0.63573387365E+01 -0.35499105253E+01  0.56300647196E+00  0.73030539569E+01  0.51100000000E-03 0.  1.
        -12    1    3    3    0    0 -0.26907235949E+01  0.86815255816E+01  0.40550622305E+02  0.41556730492E+02  0.00000000000E+00 0.  1.
</event>
<event>
 7    1  0.3757412E-015  0.9000776E+02  0.7816164E-02  0.1186339E+00
        -11   -1    0    0    0    0  0.00000000000E+00  0.00000000000E+00  0.45593999997E+02  0.45594000000E+02  0.51100000000E-03 0.  1.
         11   -1    0    0    0    0 -0.00000000000E+00 -0.00000000000E+00 -0.45593999997E+02  0.45594000000E+02  0.51100000000E-03 0. -1.
    9900012    2    1    2    0    0 -0.10030579788E+01 -0.29537541203E+00 -0.54735526013E+00  0.90007758616E+02  0.90000020230E+02 0.  0.
        -12    1    1    2    0    0  0.10030579788E+01  0.29537541203E+00  0.54735526013E+00  0.11802413836E+01  0.00000000000E+00 0.  1.
         11    1    3    3    0    0 -0.37989278560E+01  0.35567745407E+01  0.86031579466E+01  0.10054691686E+02  0.51100000000E-03 0. -1.
        -11    1    3    3    0    0 -0.44090687264E+01  0.20085626420E+02  0.28265451351E+02  0.34954370486E+02  0.51100000000E-03 0.  1.
         12    1    3    3    0    0  0.72049386036E+01 -0.23937776373E+02 -0.37415964557E+02  0.44998696445E+02  0.00000000000E+00 0. -1.
</event>
<event>
 7    1  0.3757412E-015  0.9000775E+02  0.7816164E-02  0.1186339E+00
        -11   -1    0    0    0    0  0.00000000000E+00  0.00000000000E+00  0.45593999997E+02  0.45594000000E+02  0.51100000000E-03 0.  1.
         11   -1    0    0    0    0 -0.00000000000E+00 -0.00000000000E+00 -0.45593999997E+02  0.45594000000E+02  0.51100000000E-03 0. -1.
    9900012    2    1    2    0    0 -0.20079370423E+00 -0.39282623186E+00 -0.10946996995E+01  0.90007746641E+02  0.90000008096E+02 0.  0.
        -12    1    1    2    0    0  0.20079370423E+00  0.39282623186E+00  0.10946996995E+01  0.11802533593E+01  0.00000000000E+00 0.  1.
         11    1    3    3    0    0 -0.35722655183E+01  0.97935666986E+01 -0.27152651714E+01  0.10772543563E+02  0.51100000000E-03 0. -1.
        -11    1    3    3    0    0 -0.15204673306E+02  0.28324251824E+02  0.13487765772E+02  0.34862087682E+02  0.51100000000E-03 0.  1.
         12    1    3    3    0    0  0.18576145120E+02 -0.38510644755E+02 -0.11867200300E+02  0.44373115396E+02  0.00000000000E+00 0. -1.
</event>
<event>
 7    1  0.3757412E-015  0.9000789E+02  0.7816164E-02  0.1186339E+00
        -11   -1    0    0    0    0  0.00000000000E+00  0.00000000000E+00  0.45593999997E+02  0.45594000000E+02  0.51100000000E-03 0. -1.
         11   -1    0    0    0    0 -0.00000000000E+00 -0.00000000000E+00 -0.45593999997E+02  0.45594000000E+02  0.51100000000E-03 0.  1.
    9900012    2    1    2    0    0  0.36038942862E+00 -0.11177621032E+00  0.11181665991E+01  0.90007885173E+02  0.90000148457E+02 0.  0.
        -12    1    1    2    0    0 -0.36038942862E+00  0.11177621032E+00 -0.11181665991E+01  0.11801148270E+01  0.00000000000E+00 0.  1.
         11    1    3    3    0    0  0.34389415386E+02 -0.31221060408E+00 -0.16692289626E+02  0.38227763461E+02  0.51100000000E-03 0. -1.
        -11    1    3    3    0    0  0.58072983019E+01  0.24696956167E+01 -0.27612332319E+01  0.68882885558E+01  0.51100000000E-03 0.  1.
        -12    1    3    3    0    0 -0.39836324259E+02 -0.22692612229E+01  0.20571689457E+02  0.44891833156E+02  0.00000000000E+00 0.  1.
</event>
<event>
 7    1  0.3757412E-015  0.9000767E+02  0.7816164E-02  0.1186339E+00
        -11   -1    0    0    0    0  0.00000000000E+00  0.00000000000E+00  0.45593999997E+02  0.45594000000E+02  0.51100000000E-03 0.  1.
         11   -1    0    0    0    0 -0.00000000000E+00 -0.00000000000E+00 -0.45593999997E+02  0.45594000000E+02  0.51100000000E-03 0. -1.
    9900012    2    1    2    0    0  0.21226351787E-01 -0.40112993333E+00 -0.11098724527E+01  0.90007672654E+02  0.89999933133E+02 0.  0.
        -12    1    1    2    0    0 -0.21226351787E-01  0.40112993333E+00  0.11098724527E+01  0.11803273456E+01  0.00000000000E+00 0.  1.
         11    1    3    3    0    0 -0.60419750609E+01 -0.17323427847E+01 -0.63188962184E+01  0.89126272132E+01  0.51100000000E-03 0. -1.
        -11    1    3    3    0    0  0.14463972684E+02 -0.29489815196E+02 -0.21666337320E+02  0.39348263992E+02  0.51100000000E-03 0.  1.
         12    1    3    3    0    0 -0.84007712713E+01  0.30821028048E+02  0.26875361085E+02  0.41746781449E+02  0.00000000000E+00 0. -1.
</event>
<event>
 7    1  0.3757412E-015  0.9000775E+02  0.7816164E-02  0.1186339E+00
        -11   -1    0    0    0    0  0.00000000000E+00  0.00000000000E+00  0.45593999997E+02  0.45594000000E+02  0.51100000000E-03 0. -1.
         11   -1    0    0    0    0 -0.00000000000E+00 -0.00000000000E+00 -0.45593999997E+02  0.45594000000E+02  0.51100000000E-03 0.  1.
    9900012    2    1    2    0    0 -0.48432833825E+00 -0.44134646304E-01 -0.10753920390E+01  0.90007750093E+02  0.90000011594E+02 0.  0.
        -12    1    1    2    0    0  0.48432833825E+00  0.44134646304E-01  0.10753920390E+01  0.11802499073E+01  0.00000000000E+00 0.  1.
         11    1    3    3    0    0  0.22229680199E+02 -0.16109943125E+02  0.30626718469E+02  0.41130096447E+02  0.51100000000E-03 0. -1.
        -11    1    3    3    0    0  0.54711741468E-01  0.10502136142E+02 -0.14405388492E+01  0.10600613631E+02  0.51100000000E-03 0.  1.
        -12    1    3    3    0    0 -0.22768720279E+02  0.55636723368E+01 -0.30261571659E+02  0.38277040015E+02  0.00000000000E+00 0.  1.
</event>
<event>
 7    1  0.3757412E-015  0.9000764E+02  0.7816164E-02  0.1186339E+00
        -11   -1    0    0    0    0  0.00000000000E+00  0.00000000000E+00  0.45593999997E+02  0.45594000000E+02  0.51100000000E-03 0.  1.
         11   -1    0    0    0    0 -0.00000000000E+00 -0.00000000000E+00 -0.45593999997E+02  0.45594000000E+02  0.51100000000E-03 0. -1.
    9900012    2    1    2    0    0  0.46669679017E+00 -0.53244555679E+00 -0.94442947658E+00  0.90007639377E+02  0.89999899416E+02 0.  0.
        -12    1    1    2    0    0 -0.46669679017E+00  0.53244555679E+00  0.94442947658E+00  0.11803606233E+01  0.00000000000E+00 0.  1.
         11    1    3    3    0    0 -0.20200511389E+02  0.24513403628E+02 -0.24669850465E+02  0.40219014658E+02  0.51100000000E-03 0. -1.
        -11    1    3    3    0    0 -0.48316089900E+01  0.21963807860E+01  0.72853047822E+01  0.90135564579E+01  0.51100000000E-03 0.  1.
        -12    1    3    3    0    0  0.25498817169E+02 -0.27242229971E+02  0.16440116206E+02  0.40775068261E+02  0.00000000000E+00 0.  1.
</event>
<event>
 7    1  0.3757412E-015  0.9000713E+02  0.7816164E-02  0.1186340E+00
        -11   -1    0    0    0    0  0.00000000000E+00  0.00000000000E+00  0.45593999997E+02  0.45594000000E+02  0.51100000000E-03 0. -1.
         11   -1    0    0    0    0 -0.00000000000E+00 -0.00000000000E+00 -0.45593999997E+02  0.45594000000E+02  0.51100000000E-03 0.  1.
    9900012    2    1    2    0    0 -0.10216238792E+01 -0.51664202649E+00  0.28952595800E+00  0.90007127604E+02  0.89999380887E+02 0.  0.
        -12    1    1    2    0    0  0.10216238792E+01  0.51664202649E+00 -0.28952595800E+00  0.11808723955E+01  0.00000000000E+00 0.  1.
         11    1    3    3    0    0 -0.28266285299E+02  0.23895903887E+02 -0.36506778798E+01  0.37193071350E+02  0.51100000000E-03 0. -1.
        -11    1    3    3    0    0 -0.44871274730E+01  0.66480798393E+01  0.24463429618E+01  0.83854560196E+01  0.51100000000E-03 0.  1.
        -12    1    3    3    0    0  0.31731788893E+02 -0.31060625753E+02  0.14938608760E+01  0.44428600235E+02  0.00000000000E+00 0.  1.
</event>
<event>
 7    1  0.3757412E-015  0.9000783E+02  0.7816164E-02  0.1186339E+00
        -11   -1    0    0    0    0  0.00000000000E+00  0.00000000000E+00  0.45593999997E+02  0.45594000000E+02  0.51100000000E-03 0.  1.
         11   -1    0    0    0    0 -0.00000000000E+00 -0.00000000000E+00 -0.45593999997E+02  0.45594000000E+02  0.51100000000E-03 0. -1.
    9900012    2    1    2    0    0 -0.12692415761E+00 -0.10950486394E+01 -0.42138744674E+00  0.90007826858E+02  0.90000089373E+02 0.  0.
        -12    1    1    2    0    0  0.12692415761E+00  0.10950486394E+01  0.42138744674E+00  0.11801731418E+01  0.00000000000E+00 0.  1.
         11    1    3    3    0    0 -0.27386320902E+01 -0.30636311457E+01  0.47401580706E+01  0.62733595718E+01  0.51100000000E-03 0. -1.
        -11    1    3    3    0    0  0.39820662861E+02 -0.79195650960E+01  0.10868694125E+02  0.42030146493E+02  0.51100000000E-03 0.  1.
         12    1    3    3    0    0 -0.37208954928E+02  0.98881476023E+01 -0.16030239643E+02  0.41704320793E+02  0.00000000000E+00 0. -1.
</event>
<event>
 7    1  0.3757412E-015  0.9000774E+02  0.7816164E-02  0.1186339E+00
        -11   -1    0    0    0    0  0.00000000000E+00  0.00000000000E+00  0.45593999997E+02  0.45594000000E+02  0.51100000000E-03 0.  1.
         11   -1    0    0    0    0 -0.00000000000E+00 -0.00000000000E+00 -0.45593999997E+02  0.45594000000E+02  0.51100000000E-03 0. -1.
    9900012    2    1    2    0    0 -0.11301863015E+01 -0.33873238732E+00  0.30811985062E-01  0.90007741518E+02  0.90000002906E+02 0.  0.
        -12    1    1    2    0    0  0.11301863015E+01  0.33873238732E+00 -0.30811985062E-01  0.11802584821E+01  0.00000000000E+00 0.  1.
         11    1    3    3    0    0 -0.85474637551E+01  0.64230953480E+01 -0.64944010934E+00  0.10711538788E+02  0.51100000000E-03 0. -1.
        -11    1    3    3    0    0 -0.26036091657E+02 -0.28229598433E+02 -0.63669797339E+01  0.38927197788E+02  0.51100000000E-03 0.  1.
         12    1    3    3    0    0  0.33453369110E+02  0.21467770697E+02  0.70472318283E+01  0.40369004942E+02  0.00000000000E+00 0. -1.
</event>
<event>
 7    1  0.3757412E-015  0.9000787E+02  0.7816164E-02  0.1186339E+00
        -11   -1    0    0    0    0  0.00000000000E+00  0.00000000000E+00  0.45593999997E+02  0.45594000000E+02  0.51100000000E-03 0.  1.
         11   -1    0    0    0    0 -0.00000000000E+00 -0.00000000000E+00 -0.45593999997E+02  0.45594000000E+02  0.51100000000E-03 0. -1.
    9900012    2    1    2    0    0  0.74823256169E+00  0.83013477285E+00 -0.37911662289E+00  0.90007870718E+02  0.90000133812E+02 0.  0.
        -12    1    1    2    0    0 -0.74823256169E+00 -0.83013477285E+00  0.37911662289E+00  0.11801292816E+01  0.00000000000E+00 0.  1.
         11    1    3    3    0    0 -0.15959071275E+02  0.14363481660E+02 -0.24172386840E+02  0.32331190005E+02  0.51100000000E-03 0. -1.
        -11    1    3    3    0    0 -0.44929162935E+01  0.56235166224E+01 -0.10693801178E+02  0.12890602000E+02  0.51100000000E-03 0.  1.
        -12    1    3    3    0    0  0.21200220130E+02 -0.19156863509E+02  0.34487071395E+02  0.44786078713E+02  0.00000000000E+00 0.  1.
</event>
<event>
 7    1  0.3757412E-015  0.9000784E+02  0.7816164E-02  0.1186339E+00
        -11   -1    0    0    0    0  0.00000000000E+00  0.00000000000E+00  0.45593999997E+02  0.45594000000E+02  0.51100000000E-03 0. -1.
         11   -1    0    0    0    0 -0.00000000000E+00 -0.00000000000E+00 -0.45593999997E+02  0.45594000000E+02  0.51100000000E-03 0.  1.
    9900012    2    1    2    0    0 -0.41167705131E+00 -0.36574262793E+00  0.10438063807E+01  0.90007840085E+02  0.90000102774E+02 0.  0.
        -12    1    1    2    0    0  0.41167705131E+00  0.36574262793E+00 -0.10438063807E+01  0.11801599150E+01  0.00000000000E+00 0.  1.
         11    1    3    3    0    0 -0.24688785008E+01  0.89173348353E+01 -0.37009662705E+00  0.92601940255E+01  0.51100000000E-03 0. -1.
        -11    1    3    3    0    0 -0.14457846536E+02  0.69284290779E+01 -0.34488641717E+02  0.38032865573E+02  0.51100000000E-03 0.  1.
         12    1    3    3    0    0  0.16515047985E+02 -0.16211506541E+02  0.35902544725E+02  0.42714780487E+02  0.00000000000E+00 0. -1.
</event>
<event>
 7    1  0.3757412E-015  0.9000770E+02  0.7816164E-02  0.1186339E+00
        -11   -1    0    0    0    0  0.00000000000E+00  0.00000000000E+00  0.45593999997E+02  0.45594000000E+02  0.51100000000E-03 0. -1.
         11   -1    0    0    0    0 -0.00000000000E+00 -0.00000000000E+00 -0.45593999997E+02  0.45594000000E+02  0.51100000000E-03 0.  1.
    9900012    2    1    2    0    0 -0.55867073643E+00  0.62848890842E+00  0.82824362986E+00  0.90007703931E+02  0.89999964823E+02 0.  0.
        -12    1    1    2    0    0  0.55867073643E+00 -0.62848890842E+00 -0.82824362986E+00  0.11802960688E+01  0.00000000000E+00 0.  1.
         11    1    3    3    0    0  0.91019019546E+01 -0.22728272447E+01  0.56198419472E+01  0.10935857838E+02  0.51100000000E-03 0. -1.
        -11    1    3    3    0    0  0.22585759790E+02 -0.19556124225E+02 -0.21048651786E+02  0.36545920186E+02  0.51100000000E-03 0.  1.
         12    1    3    3    0    0 -0.32246332481E+02  0.22457440378E+02  0.16257053468E+02  0.42525925907E+02  0.00000000000E+00 0. -1.
</event>
<event>
 7    1  0.3757412E-015  0.9000776E+02  0.7816164E-02  0.1186339E+00
        -11   -1    0    0    0    0  0.00000000000E+00  0.00000000000E+00  0.45593999997E+02  0.45594000000E+02  0.51100000000E-03 0.  1.
         11   -1    0    0    0    0 -0.00000000000E+00 -0.00000000000E+00 -0.45593999997E+02  0.45594000000E+02  0.51100000000E-03 0. -1.
    9900012    2    1    2    0    0 -0.47524973536E+00 -0.10571671653E+01 -0.22251559463E+00  0.90007755146E+02  0.90000016714E+02 0.  0.
        -12    1    1    2    0    0  0.47524973536E+00  0.10571671653E+01  0.22251559463E+00  0.11802448544E+01  0.00000000000E+00 0.  1.
         11    1    3    3    0    0 -0.26251422155E+02 -0.19994624100E+02  0.11098847145E+02  0.34815320855E+02  0.51100000000E-03 0. -1.
        -11    1    3    3    0    0 -0.10924743712E+02  0.17916085888E+01 -0.95903142312E+01  0.14646979683E+02  0.51100000000E-03 0.  1.
        -12    1    3    3    0    0  0.36700916131E+02  0.17145848346E+02 -0.17310485087E+01  0.40545454608E+02  0.00000000000E+00 0.  1.
</event>
<event>
 7    1  0.3757412E-015  0.9000788E+02  0.7816164E-02  0.1186339E+00
        -11   -1    0    0    0    0  0.00000000000E+00  0.00000000000E+00  0.45593999997E+02  0.45594000000E+02  0.51100000000E-03 0.  1.
         11   -1    0    0    0    0 -0.00000000000E+00 -0.00000000000E+00 -0.45593999997E+02  0.45594000000E+02  0.51100000000E-03 0. -1.
    9900012    2    1    2    0    0  0.80308111449E+00 -0.61909125019E+00 -0.60371224603E+00  0.90007880630E+02  0.90000143854E+02 0.  0.
        -12    1    1    2    0    0 -0.80308111449E+00  0.61909125019E+00  0.60371224603E+00  0.11801193705E+01  0.00000000000E+00 0.  1.
         11    1    3    3    0    0  0.89798756433E+01  0.41140685075E+01 -0.26606996011E+02  0.28381260776E+02  0.51100000000E-03 0. -1.
        -11    1    3    3    0    0  0.19511803644E+02  0.99042582521E+01  0.16327799509E+01  0.21942442516E+02  0.51100000000E-03 0.  1.
        -12    1    3    3    0    0 -0.27688598172E+02 -0.14637418010E+02  0.24370503814E+02  0.39684177337E+02  0.00000000000E+00 0.  1.
</event>
<event>
 7    1  0.3757412E-015  0.9000773E+02  0.7816164E-02  0.1186339E+00
        -11   -1    0    0    0    0  0.00000000000E+00  0.00000000000E+00  0.45593999997E+02  0.45594000000E+02  0.51100000000E-03 0. -1.
         11   -1    0    0    0    0 -0.00000000000E+00 -0.00000000000E+00 -0.45593999997E+02  0.45594000000E+02  0.51100000000E-03 0.  1.
    9900012    2    1    2    0    0 -0.34429036934E+00  0.70009678598E+00  0.88564637395E+00  0.90007728477E+02  0.89999989693E+02 0.  0.
        -12    1    1    2    0    0  0.34429036934E+00 -0.70009678598E+00 -0.88564637395E+00  0.11802715229E+01  0.00000000000E+00 0.  1.
         11    1    3    3    0    0 -0.76034188515E+01  0.67814243005E+01  0.37594595203E+00  0.10195147345E+02  0.51100000000E-03 0. -1.
        -11    1    3    3    0    0 -0.34999891054E+02 -0.66200491478E+01  0.89224527633E+01  0.36720942092E+02  0.51100000000E-03 0.  1.
         12    1    3    3    0    0  0.42259019536E+02  0.53872163327E+00 -0.84127523414E+01  0.43091639040E+02  0.00000000000E+00 0. -1.
</event>
<event>
 7    1  0.3757412E-015  0.9000769E+02  0.7816164E-02  0.1186339E+00
        -11   -1    0    0    0    0  0.00000000000E+00  0.00000000000E+00  0.45593999997E+02  0.45594000000E+02  0.51100000000E-03 0. -1.
         11   -1    0    0    0    0 -0.00000000000E+00 -0.00000000000E+00 -0.45593999997E+02  0.45594000000E+02  0.51100000000E-03 0.  1.
    9900012    2    1    2    0    0 -0.10226216278E+01 -0.44784378624E+00  0.38315200198E+00  0.90007693045E+02  0.89999953794E+02 0.  0.
        -12    1    1    2    0    0  0.10226216278E+01  0.44784378624E+00 -0.38315200198E+00  0.11803069546E+01  0.00000000000E+00 0.  1.
         11    1    3    3    0    0  0.30490345870E+02  0.83592572691E+00  0.26972458355E+02  0.40716992437E+02  0.51100000000E-03 0. -1.
        -11    1    3    3    0    0  0.31731257402E+01  0.29004627366E+01  0.14032536359E+01  0.45222264514E+01  0.51100000000E-03 0.  1.
        -12    1    3    3    0    0 -0.34686093238E+02 -0.41842322497E+01 -0.27992559989E+02  0.44768474157E+02  0.00000000000E+00 0.  1.
</event>
<event>
 7    1  0.3757412E-015  0.9000800E+02  0.7816164E-02  0.1186339E+00
        -11   -1    0    0    0    0  0.00000000000E+00  0.00000000000E+00  0.45593999997E+02  0.45594000000E+02  0.51100000000E-03 0. -1.
         11   -1    0    0    0    0 -0.00000000000E+00 -0.00000000000E+00 -0.45593999997E+02  0.45594000000E+02  0.51100000000E-03 0.  1.
    9900012    2    1    2    0    0 -0.10106782748E+01 -0.30815237692E+00  0.52532361870E+00  0.90008002811E+02  0.90000267647E+02 0.  0.
        -12    1    1    2    0    0  0.10106782748E+01  0.30815237692E+00 -0.52532361870E+00  0.11799971893E+01  0.00000000000E+00 0.  1.
         11    1    3    3    0    0  0.30033724113E+01 -0.92553524442E+01  0.19576125208E+01  0.99254240086E+01  0.51100000000E-03 0. -1.
        -11    1    3    3    0    0  0.26097300111E+02 -0.15858119890E+02 -0.20378248491E+02  0.36712696052E+02  0.51100000000E-03 0.  1.
         12    1    3    3    0    0 -0.30111350797E+02  0.24805319957E+02  0.18945959589E+02  0.43369882750E+02  0.00000000000E+00 0. -1.
</event>
<event>
 7    1  0.3757412E-015  0.9000774E+02  0.7816164E-02  0.1186339E+00
        -11   -1    0    0    0    0  0.00000000000E+00  0.00000000000E+00  0.45593999997E+02  0.45594000000E+02  0.51100000000E-03 0.  1.
         11   -1    0    0    0    0 -0.00000000000E+00 -0.00000000000E+00 -0.45593999997E+02  0.45594000000E+02  0.51100000000E-03 0. -1.
    9900012    2    1    2    0    0  0.59629721299E+00 -0.10156498644E+01 -0.76873939446E-01  0.90007735362E+02  0.89999996669E+02 0.  0.
        -12    1    1    2    0    0 -0.59629721299E+00  0.10156498644E+01  0.76873939446E-01  0.11802646380E+01  0.00000000000E+00 0.  1.
         11    1    3    3    0    0 -0.52446094354E+01  0.36077862655E+02 -0.17102904862E+02  0.40269435766E+02  0.51100000000E-03 0. -1.
        -11    1    3    3    0    0 -0.48942356162E+01  0.45394965454E+00  0.84194551963E+01  0.97491968192E+01  0.51100000000E-03 0.  1.
        -12    1    3    3    0    0  0.10735142265E+02 -0.37547462174E+02  0.86065757262E+01  0.39989102777E+02  0.00000000000E+00 0.  1.
</event>
<event>
 7    1  0.3757412E-015  0.9000769E+02  0.7816164E-02  0.1186339E+00
        -11   -1    0    0    0    0  0.00000000000E+00  0.00000000000E+00  0.45593999997E+02  0.45594000000E+02  0.51100000000E-03 0. -1.
         11   -1    0    0    0    0 -0.00000000000E+00 -0.00000000000E+00 -0.45593999997E+02  0.45594000000E+02  0.51100000000E-03 0.  1.
    9900012    2    1    2    0    0  0.10601080735E+01 -0.42386145618E+00 -0.29938961481E+00  0.90007694191E+02  0.89999954954E+02 0.  0.
        -12    1    1    2    0    0 -0.10601080735E+01  0.42386145618E+00  0.29938961481E+00  0.11803058091E+01  0.00000000000E+00 0.  1.
         11    1    3    3    0    0  0.16877805947E+02 -0.14137387903E+02  0.29008853920E+02  0.36417573729E+02  0.51100000000E-03 0. -1.
        -11    1    3    3    0    0  0.70755400670E+01 -0.97459059298E+01 -0.68428307846E+01  0.13851724912E+02  0.51100000000E-03 0.  1.
        -12    1    3    3    0    0 -0.22893237941E+02  0.23459432377E+02 -0.22465412750E+02  0.39738395550E+02  0.00000000000E+00 0.  1.
</event>
<event>
 7    1  0.3757412E-015  0.9000754E+02  0.7816164E-02  0.1186339E+00
        -11   -1    0    0    0    0  0.00000000000E+00  0.00000000000E+00  0.45593999997E+02  0.45594000000E+02  0.51100000000E-03 0.  1.
         11   -1    0    0    0    0 -0.00000000000E+00 -0.00000000000E+00 -0.45593999997E+02  0.45594000000E+02  0.51100000000E-03 0. -1.
    9900012    2    1    2    0    0  0.97937188219E-01 -0.47952102281E+00  0.10742250921E+01  0.90007537526E+02  0.89999796221E+02 0.  0.
        -12    1    1    2    0    0 -0.97937188219E-01  0.47952102281E+00 -0.10742250921E+01  0.11804624741E+01  0.00000000000E+00 0.  1.
         11    1    3    3    0    0  0.12634906619E+02 -0.47225989784E+01 -0.40117971589E+02  0.42324879811E+02  0.51100000000E-03 0. -1.
        -11    1    3    3    0    0  0.30062472836E+01  0.65717877151E+01  0.70464717361E+01  0.10093496951E+02  0.51100000000E-03 0.  1.
        -12    1    3    3    0    0 -0.15543216714E+02 -0.23287097595E+01  0.34145724945E+02  0.37589160764E+02  0.00000000000E+00 0.  1.
</event>
<event>
 7    1  0.3757412E-015  0.9000774E+02  0.7816164E-02  0.1186339E+00
        -11   -1    0    0    0    0  0.00000000000E+00  0.00000000000E+00  0.45593999997E+02  0.45594000000E+02  0.51100000000E-03 0.  1.
         11   -1    0    0    0    0 -0.00000000000E+00 -0.00000000000E+00 -0.45593999997E+02  0.45594000000E+02  0.51100000000E-03 0. -1.
    9900012    2    1    2    0    0  0.58231488374E-01  0.73263303511E+00 -0.92350912657E+00  0.90007741055E+02  0.90000002437E+02 0.  0.
        -12    1    1    2    0    0 -0.58231488374E-01 -0.73263303511E+00  0.92350912657E+00  0.11802589450E+01  0.00000000000E+00 0.  1.
         11    1    3    3    0    0 -0.22689303622E+02  0.17402486771E+01 -0.32401247123E+02  0.39593860378E+02  0.51100000000E-03 0. -1.
        -11    1    3    3    0    0 -0.77231162190E+01 -0.20113435856E+01  0.25279271803E+01  0.83715257415E+01  0.51100000000E-03 0.  1.
        -12    1    3    3    0    0  0.30470651329E+02  0.10037279437E+01  0.28949810816E+02  0.42042354935E+02  0.00000000000E+00 0.  1.
</event>
<event>
 7    1  0.3757412E-015  0.9000779E+02  0.7816164E-02  0.1186339E+00
        -11   -1    0    0    0    0  0.00000000000E+00  0.00000000000E+00  0.45593999997E+02  0.45594000000E+02  0.51100000000E-03 0.  1.
         11   -1    0    0    0    0 -0.00000000000E+00 -0.00000000000E+00 -0.45593999997E+02  0.45594000000E+02  0.51100000000E-03 0. -1.
    9900012    2    1    2    0    0  0.67756507315E+00 -0.67265562598E+00  0.69377522692E+00  0.90007794897E+02  0.90000056990E+02 0.  0.
        -12    1    1    2    0    0 -0.67756507315E+00  0.67265562598E+00 -0.69377522692E+00  0.11802051029E+01  0.00000000000E+00 0.  1.
         11    1    3    3    0    0  0.71441628547E+01 -0.29041044464E+01  0.29528094628E+01  0.82578429093E+01  0.51100000000E-03 0. -1.
        -11    1    3    3    0    0  0.36415015821E+02 -0.87492309275E+01 -0.73662308457E+00  0.37458577561E+02  0.51100000000E-03 0.  1.
         12    1    3    3    0    0 -0.42881613603E+02  0.10980679748E+02 -0.15224111513E+01  0.44291374427E+02  0.00000000000E+00 0. -1.
</event>
<event>
 7    1  0.3757412E-015  0.9000775E+02  0.7816164E-02  0.1186339E+00
        -11   -1    0    0    0    0  0.00000000000E+00  0.00000000000E+00  0.45593999997E+02  0.45594000000E+02  0.51100000000E-03 0. -1.
         11   -1    0    0    0    0 -0.00000000000E+00 -0.00000000000E+00 -0.45593999997E+02  0.45594000000E+02  0.51100000000E-03 0.  1.
    9900012    2    1    2    0    0  0.45531214599E+00  0.19621142593E+00  0.10710684942E+01  0.90007747572E+02  0.90000009040E+02 0.  0.
        -12    1    1    2    0    0 -0.45531214599E+00 -0.19621142593E+00 -0.10710684942E+01  0.11802524278E+01  0.00000000000E+00 0.  1.
         11    1    3    3    0    0 -0.23547027689E+01  0.38371213680E+02 -0.58210107157E+01  0.38881600153E+02  0.51100000000E-03 0. -1.
        -11    1    3    3    0    0 -0.63955016159E+01  0.39437129713E+01  0.16807151747E+01  0.76993581991E+01  0.51100000000E-03 0.  1.
        -12    1    3    3    0    0  0.92055165308E+01 -0.42118715226E+02  0.52113640352E+01  0.43426789220E+02  0.00000000000E+00 0.  1.
</event>
<event>
 7    1  0.3757412E-015  0.9000770E+02  0.7816164E-02  0.1186339E+00
        -11   -1    0    0    0    0  0.00000000000E+00  0.00000000000E+00  0.45593999997E+02  0.45594000000E+02  0.51100000000E-03 0.  1.
         11   -1    0    0    0    0 -0.00000000000E+00 -0.00000000000E+00 -0.45593999997E+02  0.45594000000E+02  0.51100000000E-03 0. -1.
    9900012    2    1    2    0    0  0.94301387958E+00  0.69686478030E+00  0.13496169209E+00  0.90007699039E+02  0.89999959867E+02 0.  0.
        -12    1    1    2    0    0 -0.94301387958E+00 -0.69686478030E+00 -0.13496169209E+00  0.11803009605E+01  0.00000000000E+00 0.  1.
         11    1    3    3    0    0 -0.19959337051E+02  0.87236291165E+01 -0.29957105266E+02  0.37039235908E+02  0.51100000000E-03 0. -1.
        -11    1    3    3    0    0 -0.71976752693E+01  0.72319207405E+01  0.19827780244E+01  0.10394162585E+02  0.51100000000E-03 0.  1.
        -12    1    3    3    0    0  0.28100026200E+02 -0.15258685077E+02  0.28109288933E+02  0.42574300547E+02  0.00000000000E+00 0.  1.
</event>
<event>
 7    1  0.5326736E-015  0.9000786E+02  0.7816164E-02  0.1186339E+00
        -11   -1    0    0    0    0  0.00000000000E+00  0.00000000000E+00  0.45593999997E+02  0.45594000000E+02  0.51100000000E-03 0.  1.
         11   -1    0    0    0    0 -0.00000000000E+00 -0.00000000000E+00 -0.45593999997E+02  0.45594000000E+02  0.51100000000E-03 0. -1.
    9900012    2    1    2    0    0 -0.11617093044E+01 -0.19578834613E+00 -0.69446112888E-01  0.90007862573E+02  0.90000125559E+02 0.  0.
        -12    1    1    2    0    0  0.11617093044E+01  0.19578834613E+00  0.69446112888E-01  0.11801374271E+01  0.00000000000E+00 0.  1.
         11    1    3    3    0    0 -0.32466641041E+02  0.70781419061E+01 -0.19653862652E+02  0.38606439757E+02  0.51100000000E-03 0. -1.
        -11    1    3    3    0    0 -0.73429663053E+01 -0.46275561907E+01  0.22812226499E+01  0.89742636187E+01  0.51100000000E-03 0.  1.
        -12    1    3    3    0    0  0.38647898042E+02 -0.26463740616E+01  0.17303193889E+02  0.42427159197E+02  0.00000000000E+00 0.  1.
</event>
<event>
 7    1  0.3757412E-015  0.9000765E+02  0.7816164E-02  0.1186339E+00
        -11   -1    0    0    0    0  0.00000000000E+00  0.00000000000E+00  0.45593999997E+02  0.45594000000E+02  0.51100000000E-03 0.  1.
         11   -1    0    0    0    0 -0.00000000000E+00 -0.00000000000E+00 -0.45593999997E+02  0.45594000000E+02  0.51100000000E-03 0. -1.
    9900012    2    1    2    0    0  0.90139743907E+00  0.47120285344E+00 -0.59889702453E+00  0.90007649578E+02  0.89999909753E+02 0.  0.
        -12    1    1    2    0    0 -0.90139743907E+00 -0.47120285344E+00  0.59889702453E+00  0.11803504218E+01  0.00000000000E+00 0.  1.
         11    1    3    3    0    0  0.24037079423E+02  0.21655580658E+02 -0.19832499431E+02  0.37948298970E+02  0.51100000000E-03 0. -1.
        -11    1    3    3    0    0  0.43786772015E+01  0.90484316699E+00 -0.68504820319E+01  0.81805048452E+01  0.51100000000E-03 0.  1.
        -12    1    3    3    0    0 -0.27514359185E+02 -0.22089220972E+02  0.26084084438E+02  0.43878845763E+02  0.00000000000E+00 0.  1.
</event>
<event>
 7    1  0.3757412E-015  0.9000778E+02  0.7816164E-02  0.1186339E+00
        -11   -1    0    0    0    0  0.00000000000E+00  0.00000000000E+00  0.45593999997E+02  0.45594000000E+02  0.51100000000E-03 0.  1.
         11   -1    0    0    0    0 -0.00000000000E+00 -0.00000000000E+00 -0.45593999997E+02  0.45594000000E+02  0.51100000000E-03 0. -1.
    9900012    2    1    2    0    0 -0.97318646835E-01 -0.11639933494E+01 -0.16900296271E+00  0.90007782462E+02  0.90000044390E+02 0.  0.
        -12    1    1    2    0    0  0.97318646835E-01  0.11639933494E+01  0.16900296271E+00  0.11802175383E+01  0.00000000000E+00 0.  1.
         11    1    3    3    0    0  0.24059830146E+01  0.67188961548E+01  0.71117141544E+01  0.10075157482E+02  0.51100000000E-03 0. -1.
        -11    1    3    3    0    0  0.11860403029E+02 -0.14898446305E+02  0.32160251796E+02  0.37375321512E+02  0.51100000000E-03 0.  1.
         12    1    3    3    0    0 -0.14363704690E+02  0.70155568004E+01 -0.39440968913E+02  0.42557303468E+02  0.00000000000E+00 0. -1.
</event>
<event>
 7    1  0.3757412E-015  0.9000705E+02  0.7816164E-02  0.1186340E+00
        -11   -1    0    0    0    0  0.00000000000E+00  0.00000000000E+00  0.45593999997E+02  0.45594000000E+02  0.51100000000E-03 0.  1.
         11   -1    0    0    0    0 -0.00000000000E+00 -0.00000000000E+00 -0.45593999997E+02  0.45594000000E+02  0.51100000000E-03 0. -1.
    9900012    2    1    2    0    0  0.14948603823E+00  0.91448058024E+00 -0.73212934381E+00  0.90007053692E+02  0.89999305998E+02 0.  0.
        -12    1    1    2    0    0 -0.14948603823E+00 -0.91448058024E+00  0.73212934381E+00  0.11809463084E+01  0.00000000000E+00 0.  1.
         11    1    3    3    0    0  0.52376559270E+01  0.23945567752E+01  0.79812613559E+01  0.98421275572E+01  0.51100000000E-03 0. -1.
        -11    1    3    3    0    0  0.23905189614E+02 -0.27966397828E+02 -0.16179390007E+02  0.40191418975E+02  0.51100000000E-03 0.  1.
         12    1    3    3    0    0 -0.28993359503E+02  0.26486321633E+02  0.74659993077E+01  0.39973507159E+02  0.00000000000E+00 0. -1.
</event>
<event>
 7    1  0.3757412E-015  0.9000772E+02  0.7816164E-02  0.1186339E+00
        -11   -1    0    0    0    0  0.00000000000E+00  0.00000000000E+00  0.45593999997E+02  0.45594000000E+02  0.51100000000E-03 0.  1.
         11   -1    0    0    0    0 -0.00000000000E+00 -0.00000000000E+00 -0.45593999997E+02  0.45594000000E+02  0.51100000000E-03 0. -1.
    9900012    2    1    2    0    0  0.27958901678E+00 -0.75865438351E+00 -0.85985237977E+00  0.90007715031E+02  0.89999976070E+02 0.  0.
        -12    1    1    2    0    0 -0.27958901678E+00  0.75865438351E+00  0.85985237977E+00  0.11802849685E+01  0.00000000000E+00 0.  1.
         11    1    3    3    0    0 -0.74291717986E+01 -0.24948321561E+01  0.21633482713E+01  0.81299973619E+01  0.51100000000E-03 0. -1.
        -11    1    3    3    0    0 -0.34137914513E+02  0.82890808883E+01  0.11712672679E+02  0.37030970428E+02  0.51100000000E-03 0.  1.
         12    1    3    3    0    0  0.41846675329E+02 -0.65529031157E+01 -0.14735873330E+02  0.44846747241E+02  0.00000000000E+00 0. -1.
</event>
<event>
 7    1  0.3757412E-015  0.9000774E+02  0.7816164E-02  0.1186339E+00
        -11   -1    0    0    0    0  0.00000000000E+00  0.00000000000E+00  0.45593999997E+02  0.45594000000E+02  0.51100000000E-03 0.  1.
         11   -1    0    0    0    0 -0.00000000000E+00 -0.00000000000E+00 -0.45593999997E+02  0.45594000000E+02  0.51100000000E-03 0. -1.
    9900012    2    1    2    0    0  0.27388137602E+00  0.81936496819E+00 -0.80413569615E+00  0.90007744021E+02  0.90000005442E+02 0.  0.
        -12    1    1    2    0    0 -0.27388137602E+00 -0.81936496819E+00  0.80413569615E+00  0.11802559795E+01  0.00000000000E+00 0.  1.
         11    1    3    3    0    0 -0.76287804644E+01 -0.64004176610E+01  0.27516535745E+01  0.10331274620E+02  0.51100000000E-03 0. -1.
        -11    1    3    3    0    0  0.14418186108E+02 -0.34482744231E+02 -0.23867092006E+01  0.37451837357E+02  0.51100000000E-03 0.  1.
         12    1    3    3    0    0 -0.65155242675E+01  0.41702526860E+02 -0.11690800700E+01  0.42224632044E+02  0.00000000000E+00 0. -1.
</event>
<event>
 7    1  0.3757412E-015  0.9000820E+02  0.7816164E-02  0.1186338E+00
        -11   -1    0    0    0    0  0.00000000000E+00  0.00000000000E+00  0.45593999997E+02  0.45594000000E+02  0.51100000000E-03 0.  1.
         11   -1    0    0    0    0 -0.00000000000E+00 -0.00000000000E+00 -0.45593999997E+02  0.45594000000E+02  0.51100000000E-03 0. -1.
    9900012    2    1    2    0    0 -0.47828920688E+00  0.10519019956E+01 -0.23804803909E+00  0.90008201185E+02  0.90000468640E+02 0.  0.
        -12    1    1    2    0    0  0.47828920688E+00 -0.10519019956E+01  0.23804803909E+00  0.11797988145E+01  0.00000000000E+00 0.  1.
         11    1    3    3    0    0  0.22476485421E+02 -0.22368307584E+02  0.39960808545E+01  0.31960948727E+02  0.51100000000E-03 0. -1.
        -11    1    3    3    0    0 -0.26711575630E+02 -0.61202149667E+01  0.24981214510E+01  0.27517374783E+02  0.51100000000E-03 0.  1.
        -12    1    3    3    0    0  0.37568010024E+01  0.29540424547E+02 -0.67322503446E+01  0.30529877675E+02  0.00000000000E+00 0.  1.
</event>
<event>
 7    1  0.3757412E-015  0.9000778E+02  0.7816164E-02  0.1186339E+00
        -11   -1    0    0    0    0  0.00000000000E+00  0.00000000000E+00  0.45593999997E+02  0.45594000000E+02  0.51100000000E-03 0.  1.
         11   -1    0    0    0    0 -0.00000000000E+00 -0.00000000000E+00 -0.45593999997E+02  0.45594000000E+02  0.51100000000E-03 0. -1.
    9900012    2    1    2    0    0  0.85749119139E+00  0.36113298179E+00 -0.72610001121E+00  0.90007775699E+02  0.90000037538E+02 0.  0.
        -12    1    1    2    0    0 -0.85749119139E+00 -0.36113298179E+00  0.72610001121E+00  0.11802243008E+01  0.00000000000E+00 0.  1.
         11    1    3    3    0    0  0.78749799791E+01 -0.36363370082E+01  0.22291828637E+01  0.89558647271E+01  0.51100000000E-03 0. -1.
        -11    1    3    3    0    0  0.30675888452E+02 -0.16026905654E+01  0.19915105844E+02  0.36608608146E+02  0.51100000000E-03 0.  1.
         12    1    3    3    0    0 -0.37693377239E+02  0.56001605554E+01 -0.22870388719E+02  0.44443302826E+02  0.00000000000E+00 0. -1.
</event>
<event>
 7    1  0.3757412E-015  0.9000786E+02  0.7816164E-02  0.1186339E+00
        -11   -1    0    0    0    0  0.00000000000E+00  0.00000000000E+00  0.45593999997E+02  0.45594000000E+02  0.51100000000E-03 0. -1.
         11   -1    0    0    0    0 -0.00000000000E+00 -0.00000000000E+00 -0.45593999997E+02  0.45594000000E+02  0.51100000000E-03 0.  1.
    9900012    2    1    2    0    0 -0.81162017182E+00 -0.80101574727E+00  0.30392191529E+00  0.90007863541E+02  0.90000126540E+02 0.  0.
        -12    1    1    2    0    0  0.81162017182E+00  0.80101574727E+00 -0.30392191529E+00  0.11801364588E+01  0.00000000000E+00 0.  1.
         11    1    3    3    0    0 -0.78177401217E+01 -0.41580872005E+02 -0.11806504732E+02  0.43925841273E+02  0.51100000000E-03 0. -1.
        -11    1    3    3    0    0  0.92296237090E+00  0.44105288278E+01 -0.38258605613E+01  0.59111617618E+01  0.51100000000E-03 0.  1.
        -12    1    3    3    0    0  0.60831575790E+01  0.36369327430E+02  0.15936287208E+02  0.40170860506E+02  0.00000000000E+00 0.  1.
</event>
<event>
 7    1  0.3757412E-015  0.9000782E+02  0.7816164E-02  0.1186339E+00
        -11   -1    0    0    0    0  0.00000000000E+00  0.00000000000E+00  0.45593999997E+02  0.45594000000E+02  0.51100000000E-03 0. -1.
         11   -1    0    0    0    0 -0.00000000000E+00 -0.00000000000E+00 -0.45593999997E+02  0.45594000000E+02  0.51100000000E-03 0.  1.
    9900012    2    1    2    0    0 -0.15309138838E+00  0.88517935556E+00 -0.76541221680E+00  0.90007815554E+02  0.90000077919E+02 0.  0.
        -12    1    1    2    0    0  0.15309138838E+00 -0.88517935556E+00  0.76541221680E+00  0.11801844459E+01  0.00000000000E+00 0.  1.
         11    1    3    3    0    0  0.29858273438E+02  0.24057518070E+02  0.56215378926E+01  0.38754126966E+02  0.51100000000E-03 0. -1.
        -11    1    3    3    0    0 -0.37138451231E+01  0.79206736698E+01 -0.58566331459E+01  0.10527576599E+02  0.51100000000E-03 0.  1.
        -12    1    3    3    0    0 -0.26297519703E+02 -0.31093012384E+02 -0.53031696350E+00  0.40726111989E+02  0.00000000000E+00 0.  1.
</event>
<event>
 7    1  0.3757412E-015  0.9000788E+02  0.7816164E-02  0.1186339E+00
        -11   -1    0    0    0    0  0.00000000000E+00  0.00000000000E+00  0.45593999997E+02  0.45594000000E+02  0.51100000000E-03 0.  1.
         11   -1    0    0    0    0 -0.00000000000E+00 -0.00000000000E+00 -0.45593999997E+02  0.45594000000E+02  0.51100000000E-03 0. -1.
    9900012    2    1    2    0    0 -0.27326084732E+00  0.23785043080E+00 -0.11231388896E+01  0.90007879123E+02  0.90000142328E+02 0.  0.
        -12    1    1    2    0    0  0.27326084732E+00 -0.23785043080E+00  0.11231388896E+01  0.11801208766E+01  0.00000000000E+00 0.  1.
         11    1    3    3    0    0  0.22233786813E+02  0.19427223289E+02 -0.11907730803E+02  0.31836336691E+02  0.51100000000E-03 0. -1.
        -11    1    3    3    0    0 -0.43101042201E+01  0.83504833319E+01 -0.14022654324E+02  0.16880237108E+02  0.51100000000E-03 0.  1.
        -12    1    3    3    0    0 -0.18196943440E+02 -0.27539856190E+02  0.24807246238E+02  0.41291305325E+02  0.00000000000E+00 0.  1.
</event>
<event>
 7    1  0.5135168E-015  0.9000775E+02  0.7816164E-02  0.1186339E+00
        -11   -1    0    0    0    0  0.00000000000E+00  0.00000000000E+00  0.45593999997E+02  0.45594000000E+02  0.51100000000E-03 0.  1.
         11   -1    0    0    0    0 -0.00000000000E+00 -0.00000000000E+00 -0.45593999997E+02  0.45594000000E+02  0.51100000000E-03 0. -1.
    9900012    2    1    2    0    0  0.74785478859E+00  0.91037097785E+00 -0.70187157962E-01  0.90007750730E+02  0.90000012240E+02 0.  0.
        -12    1    1    2    0    0 -0.74785478859E+00 -0.91037097785E+00  0.70187157962E-01  0.11802492700E+01  0.00000000000E+00 0.  1.
         11    1    3    3    0    0  0.18944985505E+02 -0.20371278107E+02 -0.22601670568E+02  0.35843227536E+02  0.51100000000E-03 0. -1.
        -11    1    3    3    0    0  0.39564782797E+01 -0.13568501343E+01 -0.87179802287E+01  0.96694333957E+01  0.51100000000E-03 0.  1.
        -12    1    3    3    0    0 -0.22153608996E+02  0.22638499219E+02  0.31249463639E+02  0.44495089798E+02  0.00000000000E+00 0.  1.
</event>
<event>
 7    1  0.3757412E-015  0.9000774E+02  0.7816164E-02  0.1186339E+00
        -11   -1    0    0    0    0  0.00000000000E+00  0.00000000000E+00  0.45593999997E+02  0.45594000000E+02  0.51100000000E-03 0.  1.
         11   -1    0    0    0    0 -0.00000000000E+00 -0.00000000000E+00 -0.45593999997E+02  0.45594000000E+02  0.51100000000E-03 0. -1.
    9900012    2    1    2    0    0 -0.67790033647E+00  0.96581646217E+00 -0.25705863419E-01  0.90007741089E+02  0.90000002472E+02 0.  0.
        -12    1    1    2    0    0  0.67790033647E+00 -0.96581646217E+00  0.25705863419E-01  0.11802589107E+01  0.00000000000E+00 0.  1.
         11    1    3    3    0    0  0.71731953895E+01 -0.54503355909E+01 -0.11582210066E+01  0.90830813225E+01  0.51100000000E-03 0. -1.
        -11    1    3    3    0    0 -0.11817117439E+02 -0.94264146768E+01  0.37840271482E+02  0.40747855212E+02  0.51100000000E-03 0.  1.
         12    1    3    3    0    0  0.39660217135E+01  0.15842566730E+02 -0.36707756339E+02  0.40176804555E+02  0.00000000000E+00 0. -1.
</event>
<event>
 7    1  0.3757412E-015  0.9000805E+02  0.7816164E-02  0.1186338E+00
        -11   -1    0    0    0    0  0.00000000000E+00  0.00000000000E+00  0.45593999997E+02  0.45594000000E+02  0.51100000000E-03 0.  1.
         11   -1    0    0    0    0 -0.00000000000E+00 -0.00000000000E+00 -0.45593999997E+02  0.45594000000E+02  0.51100000000E-03 0. -1.
    9900012    2    1    2    0    0  0.10854152503E+01  0.44720713288E+00 -0.11903340004E+00  0.90008046850E+02  0.90000312268E+02 0.  0.
        -12    1    1    2    0    0 -0.10854152503E+01 -0.44720713288E+00  0.11903340004E+00  0.11799531497E+01  0.00000000000E+00 0.  1.
         11    1    3    3    0    0  0.14964929134E+02  0.80727195313E+01 -0.33099484682E+02  0.37211473917E+02  0.51100000000E-03 0. -1.
        -11    1    3    3    0    0  0.11914207764E+02  0.19193745962E+01  0.36940969187E+01  0.12620566461E+02  0.51100000000E-03 0.  1.
        -12    1    3    3    0    0 -0.25793721648E+02 -0.95448869946E+01  0.29286354363E+02  0.40176006472E+02  0.00000000000E+00 0.  1.
</event>
<event>
 7    1  0.3757412E-015  0.9000773E+02  0.7816164E-02  0.1186339E+00
        -11   -1    0    0    0    0  0.00000000000E+00  0.00000000000E+00  0.45593999997E+02  0.45594000000E+02  0.51100000000E-03 0.  1.
         11   -1    0    0    0    0 -0.00000000000E+00 -0.00000000000E+00 -0.45593999997E+02  0.45594000000E+02  0.51100000000E-03 0. -1.
    9900012    2    1    2    0    0 -0.12569952238E+00  0.23226232384E+00 -0.11503441105E+01  0.90007729807E+02  0.89999991040E+02 0.  0.
        -12    1    1    2    0    0  0.12569952238E+00 -0.23226232384E+00  0.11503441105E+01  0.11802701934E+01  0.00000000000E+00 0.  1.
         11    1    3    3    0    0 -0.29374992739E+01 -0.24501765599E+02 -0.31000297588E+02  0.39623021972E+02  0.51100000000E-03 0. -1.
        -11    1    3    3    0    0  0.17295612800E+01 -0.77976155353E+01  0.48725690753E+01  0.93560739582E+01  0.51100000000E-03 0.  1.
        -12    1    3    3    0    0  0.10822384715E+01  0.32531643458E+02  0.24977384402E+02  0.41028633876E+02  0.00000000000E+00 0.  1.
</event>
<event>
 7    1  0.3757412E-015  0.9000771E+02  0.7816164E-02  0.1186339E+00
        -11   -1    0    0    0    0  0.00000000000E+00  0.00000000000E+00  0.45593999997E+02  0.45594000000E+02  0.51100000000E-03 0. -1.
         11   -1    0    0    0    0 -0.00000000000E+00 -0.00000000000E+00 -0.45593999997E+02  0.45594000000E+02  0.51100000000E-03 0.  1.
    9900012    2    1    2    0    0  0.65429341852E+00  0.98177236421E+00 -0.33129637525E-01  0.90007714261E+02  0.89999975289E+02 0.  0.
        -12    1    1    2    0    0 -0.65429341852E+00 -0.98177236421E+00  0.33129637525E-01  0.11802857389E+01  0.00000000000E+00 0.  1.
         11    1    3    3    0    0  0.99198675316E+00 -0.58190390519E+01  0.24814178686E+01  0.64033341398E+01  0.51100000000E-03 0. -1.
        -11    1    3    3    0    0 -0.16960745498E+02 -0.31367752525E+02 -0.17027011164E+02  0.39516096667E+02  0.51100000000E-03 0.  1.
         12    1    3    3    0    0  0.16623052163E+02  0.38168563941E+02  0.14512463658E+02  0.44088283455E+02  0.00000000000E+00 0. -1.
</event>
<event>
 7    1  0.3757412E-015  0.9000774E+02  0.7816164E-02  0.1186339E+00
        -11   -1    0    0    0    0  0.00000000000E+00  0.00000000000E+00  0.45593999997E+02  0.45594000000E+02  0.51100000000E-03 0. -1.
         11   -1    0    0    0    0 -0.00000000000E+00 -0.00000000000E+00 -0.45593999997E+02  0.45594000000E+02  0.51100000000E-03 0.  1.
    9900012    2    1    2    0    0 -0.34023172254E+00  0.97215072789E+00  0.57634206207E+00  0.90007743742E+02  0.90000005159E+02 0.  0.
        -12    1    1    2    0    0  0.34023172254E+00 -0.97215072789E+00 -0.57634206207E+00  0.11802562583E+01  0.00000000000E+00 0.  1.
         11    1    3    3    0    0 -0.14039483227E+01  0.10088694698E+02 -0.17982157817E+01  0.10343423604E+02  0.51100000000E-03 0. -1.
        -11    1    3    3    0    0 -0.66676070959E+01  0.26351436161E+02 -0.22808522531E+02  0.35483571867E+02  0.51100000000E-03 0.  1.
         12    1    3    3    0    0  0.77313236961E+01 -0.35467980130E+02  0.25183080375E+02  0.44180748271E+02  0.00000000000E+00 0. -1.
</event>
<event>
 7    1  0.3757412E-015  0.9000785E+02  0.7816164E-02  0.1186339E+00
        -11   -1    0    0    0    0  0.00000000000E+00  0.00000000000E+00  0.45593999997E+02  0.45594000000E+02  0.51100000000E-03 0.  1.
         11   -1    0    0    0    0 -0.00000000000E+00 -0.00000000000E+00 -0.45593999997E+02  0.45594000000E+02  0.51100000000E-03 0. -1.
    9900012    2    1    2    0    0 -0.70050814111E+00  0.37306689472E+00 -0.87341549997E+00  0.90007853738E+02  0.90000116607E+02 0.  0.
        -12    1    1    2    0    0  0.70050814111E+00 -0.37306689472E+00  0.87341549997E+00  0.11801462618E+01  0.00000000000E+00 0.  1.
         11    1    3    3    0    0 -0.56415339656E+00 -0.33461190774E+01 -0.36151999818E+02  0.36310905704E+02  0.51100000000E-03 0. -1.
        -11    1    3    3    0    0 -0.86884132600E+01  0.58571996891E+01 -0.55984820596E+01  0.11880164763E+02  0.51100000000E-03 0.  1.
        -12    1    3    3    0    0  0.85520585154E+01 -0.21380137170E+01  0.40877066377E+02  0.41816783271E+02  0.00000000000E+00 0.  1.
</event>
<event>
 7    1  0.3757412E-015  0.9000769E+02  0.7816164E-02  0.1186339E+00
        -11   -1    0    0    0    0  0.00000000000E+00  0.00000000000E+00  0.45593999997E+02  0.45594000000E+02  0.51100000000E-03 0.  1.
         11   -1    0    0    0    0 -0.00000000000E+00 -0.00000000000E+00 -0.45593999997E+02  0.45594000000E+02  0.51100000000E-03 0. -1.
    9900012    2    1    2    0    0 -0.50655182951E+00 -0.10431851625E+01  0.21977611151E+00  0.90007690050E+02  0.89999950758E+02 0.  0.
        -12    1    1    2    0    0  0.50655182951E+00  0.10431851625E+01 -0.21977611151E+00  0.11803099502E+01  0.00000000000E+00 0.  1.
         11    1    3    3    0    0 -0.57106287036E+01 -0.80803037650E+01 -0.12496271346E+01  0.99731718807E+01  0.51100000000E-03 0. -1.
        -11    1    3    3    0    0  0.30277047749E+01 -0.23693836077E+02  0.29792388338E+02  0.38185746914E+02  0.51100000000E-03 0.  1.
         12    1    3    3    0    0  0.21763720992E+01  0.30730954680E+02 -0.28322985092E+02  0.41848771255E+02  0.00000000000E+00 0. -1.
</event>
<event>
 7    1  0.3757412E-015  0.9000771E+02  0.7816164E-02  0.1186339E+00
        -11   -1    0    0    0    0  0.00000000000E+00  0.00000000000E+00  0.45593999997E+02  0.45594000000E+02  0.51100000000E-03 0. -1.
         11   -1    0    0    0    0 -0.00000000000E+00 -0.00000000000E+00 -0.45593999997E+02  0.45594000000E+02  0.51100000000E-03 0.  1.
    9900012    2    1    2    0    0  0.10514699578E+00  0.11526046140E+01  0.23138215289E+00  0.90007707245E+02  0.89999968181E+02 0.  0.
        -12    1    1    2    0    0 -0.10514699578E+00 -0.11526046140E+01 -0.23138215289E+00  0.11802927551E+01  0.00000000000E+00 0.  1.
         11    1    3    3    0    0 -0.37579845518E+02  0.13038444760E+02  0.90116000698E+01  0.40785472499E+02  0.51100000000E-03 0. -1.
        -11    1    3    3    0    0  0.26311934911E+01  0.77838479912E+01 -0.20359430233E+01  0.84650181921E+01  0.51100000000E-03 0.  1.
        -12    1    3    3    0    0  0.35053799023E+02 -0.19669688138E+02 -0.67442748936E+01  0.40757216553E+02  0.00000000000E+00 0.  1.
</event>
<event>
 7    1  0.4233060E-015  0.9000762E+02  0.7816164E-02  0.1186339E+00
        -11   -1    0    0    0    0  0.00000000000E+00  0.00000000000E+00  0.45593999997E+02  0.45594000000E+02  0.51100000000E-03 0.  1.
         11   -1    0    0    0    0 -0.00000000000E+00 -0.00000000000E+00 -0.45593999997E+02  0.45594000000E+02  0.51100000000E-03 0. -1.
    9900012    2    1    2    0    0  0.63322479005E+00 -0.47168516580E+00 -0.87739724005E+00  0.90007624447E+02  0.89999884289E+02 0.  0.
        -12    1    1    2    0    0 -0.63322479005E+00  0.47168516580E+00  0.87739724005E+00  0.11803755535E+01  0.00000000000E+00 0.  1.
         11    1    3    3    0    0  0.18045621261E+02  0.23159443040E+02 -0.20833109451E+02  0.36000315253E+02  0.51100000000E-03 0. -1.
        -11    1    3    3    0    0  0.64032536185E+01  0.21496549442E+01 -0.70192393721E+01  0.97412727560E+01  0.51100000000E-03 0.  1.
        -12    1    3    3    0    0 -0.23815650089E+02 -0.25780783150E+02  0.26974951583E+02  0.44266036438E+02  0.00000000000E+00 0.  1.
</event>
<event>
 7    1  0.3757412E-015  0.9000779E+02  0.7816164E-02  0.1186339E+00
        -11   -1    0    0    0    0  0.00000000000E+00  0.00000000000E+00  0.45593999997E+02  0.45594000000E+02  0.51100000000E-03 0.  1.
         11   -1    0    0    0    0 -0.00000000000E+00 -0.00000000000E+00 -0.45593999997E+02  0.45594000000E+02  0.51100000000E-03 0. -1.
    9900012    2    1    2    0    0  0.59158767951E+00  0.96191627018E+00 -0.34298661526E+00  0.90007788700E+02  0.90000050711E+02 0.  0.
        -12    1    1    2    0    0 -0.59158767951E+00 -0.96191627018E+00  0.34298661526E+00  0.11802112996E+01  0.00000000000E+00 0.  1.
         11    1    3    3    0    0  0.21570044720E+01  0.44409567962E+01 -0.76336414819E+01  0.90910531895E+01  0.51100000000E-03 0. -1.
        -11    1    3    3    0    0  0.55198040681E+01 -0.34269344547E+02 -0.19216315914E+02  0.39675219095E+02  0.51100000000E-03 0.  1.
         12    1    3    3    0    0 -0.70852208606E+01  0.30790304021E+02  0.26506970781E+02  0.41241516416E+02  0.00000000000E+00 0. -1.
</event>
<event>
 7    1  0.3757412E-015  0.9000767E+02  0.7816164E-02  0.1186339E+00
        -11   -1    0    0    0    0  0.00000000000E+00  0.00000000000E+00  0.45593999997E+02  0.45594000000E+02  0.51100000000E-03 0.  1.
         11   -1    0    0    0    0 -0.00000000000E+00 -0.00000000000E+00 -0.45593999997E+02  0.45594000000E+02  0.51100000000E-03 0. -1.
    9900012    2    1    2    0    0 -0.14940177195E+00 -0.26957086196E+00 -0.11393789103E+01  0.90007672232E+02  0.89999932705E+02 0.  0.
        -12    1    1    2    0    0  0.14940177195E+00  0.26957086196E+00  0.11393789103E+01  0.11803277682E+01  0.00000000000E+00 0.  1.
         11    1    3    3    0    0  0.11061357014E+02 -0.33413935861E+01 -0.60354529593E+01  0.13036304030E+02  0.51100000000E-03 0. -1.
        -11    1    3    3    0    0  0.27256112697E+02 -0.14265288182E+02  0.14012381378E+02  0.33804451754E+02  0.51100000000E-03 0.  1.
         12    1    3    3    0    0 -0.38466871483E+02  0.17337110907E+02 -0.91163073286E+01  0.43166916447E+02  0.00000000000E+00 0. -1.
</event>
<event>
 7    1  0.3757412E-015  0.9000802E+02  0.7816164E-02  0.1186338E+00
        -11   -1    0    0    0    0  0.00000000000E+00  0.00000000000E+00  0.45593999997E+02  0.45594000000E+02  0.51100000000E-03 0.  1.
         11   -1    0    0    0    0 -0.00000000000E+00 -0.00000000000E+00 -0.45593999997E+02  0.45594000000E+02  0.51100000000E-03 0. -1.
    9900012    2    1    2    0    0  0.43797683617E+00 -0.26229808216E-01 -0.10953705950E+01  0.90008021842E+02  0.90000286930E+02 0.  0.
        -12    1    1    2    0    0 -0.43797683617E+00  0.26229808216E-01  0.10953705950E+01  0.11799781575E+01  0.00000000000E+00 0.  1.
         11    1    3    3    0    0  0.35346289057E+02 -0.74063189879E+01  0.10688767588E-01  0.36113900725E+02  0.51100000000E-03 0. -1.
        -11    1    3    3    0    0  0.26503513136E+01 -0.96892162333E+01 -0.69665268460E+01  0.12224474216E+02  0.51100000000E-03 0.  1.
        -12    1    3    3    0    0 -0.37558663534E+02  0.17069305413E+02  0.58604674835E+01  0.41669646902E+02  0.00000000000E+00 0.  1.
</event>
<event>
 7    1  0.3757412E-015  0.9000776E+02  0.7816164E-02  0.1186339E+00
        -11   -1    0    0    0    0  0.00000000000E+00  0.00000000000E+00  0.45593999997E+02  0.45594000000E+02  0.51100000000E-03 0.  1.
         11   -1    0    0    0    0 -0.00000000000E+00 -0.00000000000E+00 -0.45593999997E+02  0.45594000000E+02  0.51100000000E-03 0. -1.
    9900012    2    1    2    0    0  0.56410007481E+00 -0.58173441742E+00 -0.85810200377E+00  0.90007761517E+02  0.90000023169E+02 0.  0.
        -12    1    1    2    0    0 -0.56410007481E+00  0.58173441742E+00  0.85810200377E+00  0.11802384826E+01  0.00000000000E+00 0.  1.
         11    1    3    3    0    0  0.31745801942E+02  0.18796733142E+02 -0.10125328448E+02  0.38257488079E+02  0.51100000000E-03 0. -1.
        -11    1    3    3    0    0  0.77316863751E+01 -0.39557822378E+01  0.40006573110E+01  0.95620315047E+01  0.51100000000E-03 0.  1.
        -12    1    3    3    0    0 -0.38913388242E+02 -0.15422685321E+02  0.52665691329E+01  0.42188241933E+02  0.00000000000E+00 0.  1.
</event>
<event>
 7    1  0.3757412E-015  0.9000789E+02  0.7816164E-02  0.1186339E+00
        -11   -1    0    0    0    0  0.00000000000E+00  0.00000000000E+00  0.45593999997E+02  0.45594000000E+02  0.51100000000E-03 0.  1.
         11   -1    0    0    0    0 -0.00000000000E+00 -0.00000000000E+00 -0.45593999997E+02  0.45594000000E+02  0.51100000000E-03 0. -1.
    9900012    2    1    2    0    0 -0.23250722063E+00  0.24935726431E+00 -0.11297861370E+01  0.90007891798E+02  0.90000155170E+02 0.  0.
        -12    1    1    2    0    0  0.23250722063E+00 -0.24935726431E+00  0.11297861370E+01  0.11801082019E+01  0.00000000000E+00 0.  1.
         11    1    3    3    0    0 -0.27541797949E+01 -0.61779128336E+01 -0.68213377290E+01  0.96063917262E+01  0.51100000000E-03 0. -1.
        -11    1    3    3    0    0  0.39990130537E+02 -0.30299020655E+01 -0.47157865876E+01  0.40381053605E+02  0.51100000000E-03 0.  1.
         12    1    3    3    0    0 -0.37468457962E+02  0.94571721633E+01  0.10407338180E+02  0.40020446467E+02  0.00000000000E+00 0. -1.
</event>
<event>
 7    1  0.3757412E-015  0.9000775E+02  0.7816164E-02  0.1186339E+00
        -11   -1    0    0    0    0  0.00000000000E+00  0.00000000000E+00  0.45593999997E+02  0.45594000000E+02  0.51100000000E-03 0.  1.
         11   -1    0    0    0    0 -0.00000000000E+00 -0.00000000000E+00 -0.45593999997E+02  0.45594000000E+02  0.51100000000E-03 0. -1.
    9900012    2    1    2    0    0  0.51966371012E+00  0.90955042487E+00  0.54373535228E+00  0.90007754059E+02  0.90000015613E+02 0.  0.
        -12    1    1    2    0    0 -0.51966371012E+00 -0.90955042487E+00 -0.54373535228E+00  0.11802459406E+01  0.00000000000E+00 0.  1.
         11    1    3    3    0    0 -0.18470542227E+02 -0.27894627463E+02 -0.42067974683E+01  0.33718960789E+02  0.51100000000E-03 0. -1.
        -11    1    3    3    0    0 -0.80997419673E+01 -0.71213875971E+01  0.32694953224E+01  0.11269852757E+02  0.51100000000E-03 0.  1.
        -12    1    3    3    0    0  0.27089947904E+02  0.35925565485E+02  0.14810374982E+01  0.45018940514E+02  0.00000000000E+00 0.  1.
</event>
<event>
 7    1  0.3757412E-015  0.9000769E+02  0.7816164E-02  0.1186339E+00
        -11   -1    0    0    0    0  0.00000000000E+00  0.00000000000E+00  0.45593999997E+02  0.45594000000E+02  0.51100000000E-03 0. -1.
         11   -1    0    0    0    0 -0.00000000000E+00 -0.00000000000E+00 -0.45593999997E+02  0.45594000000E+02  0.51100000000E-03 0.  1.
    9900012    2    1    2    0    0  0.52069378990E+00  0.59496885983E-01  0.10575774140E+01  0.90007689918E+02  0.89999950625E+02 0.  0.
        -12    1    1    2    0    0 -0.52069378990E+00 -0.59496885983E-01 -0.10575774140E+01  0.11803100816E+01  0.00000000000E+00 0.  1.
         11    1    3    3    0    0  0.25648892787E+02 -0.24181610691E+02  0.10234742713E+02  0.36706483834E+02  0.51100000000E-03 0. -1.
        -11    1    3    3    0    0  0.65555536878E+01 -0.28591443118E+01  0.55828238614E+01  0.90729219593E+01  0.51100000000E-03 0.  1.
        -12    1    3    3    0    0 -0.31683752685E+02  0.27100251889E+02 -0.14759989160E+02  0.44228284125E+02  0.00000000000E+00 0.  1.
</event>
<event>
 7    1  0.3757412E-015  0.9000778E+02  0.7816164E-02  0.1186339E+00
        -11   -1    0    0    0    0  0.00000000000E+00  0.00000000000E+00  0.45593999997E+02  0.45594000000E+02  0.51100000000E-03 0. -1.
         11   -1    0    0    0    0 -0.00000000000E+00 -0.00000000000E+00 -0.45593999997E+02  0.45594000000E+02  0.51100000000E-03 0.  1.
    9900012    2    1    2    0    0 -0.10151673747E+01 -0.52565176311E+00  0.29333296165E+00  0.90007780189E+02  0.90000042088E+02 0.  0.
        -12    1    1    2    0    0  0.10151673747E+01  0.52565176311E+00 -0.29333296165E+00  0.11802198105E+01  0.00000000000E+00 0.  1.
         11    1    3    3    0    0 -0.12454615421E+02  0.24878380626E+02  0.24081028136E+02  0.36796021309E+02  0.51100000000E-03 0. -1.
        -11    1    3    3    0    0  0.35638201486E+01  0.10437875297E+01  0.93664870116E+01  0.10075782136E+02  0.51100000000E-03 0.  1.
        -12    1    3    3    0    0  0.78756278972E+01 -0.26447819919E+02 -0.33154182186E+02  0.43135976744E+02  0.00000000000E+00 0.  1.
</event>
<event>
 7    1  0.3757412E-015  0.9000778E+02  0.7816164E-02  0.1186339E+00
        -11   -1    0    0    0    0  0.00000000000E+00  0.00000000000E+00  0.45593999997E+02  0.45594000000E+02  0.51100000000E-03 0.  1.
         11   -1    0    0    0    0 -0.00000000000E+00 -0.00000000000E+00 -0.45593999997E+02  0.45594000000E+02  0.51100000000E-03 0. -1.
    9900012    2    1    2    0    0 -0.48352085939E+00 -0.17322759550E+00 -0.10626023601E+01  0.90007777988E+02  0.90000039858E+02 0.  0.
        -12    1    1    2    0    0  0.48352085939E+00  0.17322759550E+00  0.10626023601E+01  0.11802220117E+01  0.00000000000E+00 0.  1.
         11    1    3    3    0    0 -0.14108043683E+01 -0.74671105136E+01 -0.42178705729E+02  0.42857803556E+02  0.51100000000E-03 0. -1.
        -11    1    3    3    0    0  0.26969665445E+01  0.71560319143E+01  0.18817574779E+01  0.78754957157E+01  0.51100000000E-03 0.  1.
        -12    1    3    3    0    0 -0.17696830355E+01  0.13785100383E+00  0.39234345891E+02  0.39274478717E+02  0.00000000000E+00 0.  1.
</event>
<event>
 7    1  0.3757412E-015  0.9000778E+02  0.7816164E-02  0.1186339E+00
        -11   -1    0    0    0    0  0.00000000000E+00  0.00000000000E+00  0.45593999997E+02  0.45594000000E+02  0.51100000000E-03 0. -1.
         11   -1    0    0    0    0 -0.00000000000E+00 -0.00000000000E+00 -0.45593999997E+02  0.45594000000E+02  0.51100000000E-03 0.  1.
    9900012    2    1    2    0    0 -0.77836598016E+00 -0.56764115909E+00  0.68179279407E+00  0.90007783283E+02  0.90000045223E+02 0.  0.
        -12    1    1    2    0    0  0.77836598016E+00  0.56764115909E+00 -0.68179279407E+00  0.11802167168E+01  0.00000000000E+00 0.  1.
         11    1    3    3    0    0  0.78939629246E+01 -0.36231513646E+02  0.14288382146E+02  0.39739087764E+02  0.51100000000E-03 0. -1.
        -11    1    3    3    0    0  0.70812807031E+01  0.68778992116E+01  0.64667370372E+01  0.11801216977E+02  0.51100000000E-03 0.  1.
        -12    1    3    3    0    0 -0.15753609608E+02  0.28785973275E+02 -0.20073326389E+02  0.38467478542E+02  0.00000000000E+00 0.  1.
</event>
<event>
 7    1  0.3855221E-015  0.9000774E+02  0.7816164E-02  0.1186339E+00
        -11   -1    0    0    0    0  0.00000000000E+00  0.00000000000E+00  0.45593999997E+02  0.45594000000E+02  0.51100000000E-03 0.  1.
         11   -1    0    0    0    0 -0.00000000000E+00 -0.00000000000E+00 -0.45593999997E+02  0.45594000000E+02  0.51100000000E-03 0. -1.
    9900012    2    1    2    0    0 -0.54389506256E+00  0.10377002350E+01 -0.14270525081E+00  0.90007742229E+02  0.90000003627E+02 0.  0.
        -12    1    1    2    0    0  0.54389506256E+00 -0.10377002350E+01  0.14270525081E+00  0.11802577708E+01  0.00000000000E+00 0.  1.
         11    1    3    3    0    0 -0.58359578763E+01 -0.25140961637E+02 -0.29402673726E+02  0.39123440274E+02  0.51100000000E-03 0. -1.
        -11    1    3    3    0    0  0.54352302293E+01  0.59229938471E+01 -0.61285701466E+01  0.10108558555E+02  0.51100000000E-03 0.  1.
        -12    1    3    3    0    0 -0.14316741552E+00  0.20255668025E+02  0.35388538622E+02  0.40775743400E+02  0.00000000000E+00 0.  1.
</event>
<event>
 7    1  0.3757412E-015  0.9000771E+02  0.7816164E-02  0.1186339E+00
        -11   -1    0    0    0    0  0.00000000000E+00  0.00000000000E+00  0.45593999997E+02  0.45594000000E+02  0.51100000000E-03 0. -1.
         11   -1    0    0    0    0 -0.00000000000E+00 -0.00000000000E+00 -0.45593999997E+02  0.45594000000E+02  0.51100000000E-03 0.  1.
    9900012    2    1    2    0    0 -0.91286853261E+00  0.61011909847E+00 -0.43301330406E+00  0.90007714105E+02  0.89999975131E+02 0.  0.
        -12    1    1    2    0    0  0.91286853261E+00 -0.61011909847E+00  0.43301330406E+00  0.11802858949E+01  0.00000000000E+00 0.  1.
         11    1    3    3    0    0 -0.29393750075E+01 -0.42228074672E+01 -0.23071282586E+01  0.56386939448E+01  0.51100000000E-03 0. -1.
        -11    1    3    3    0    0 -0.71825054011E+01  0.35487945450E+02 -0.23805886045E+02  0.43332468967E+02  0.51100000000E-03 0.  1.
         12    1    3    3    0    0  0.92090118760E+01 -0.30655018885E+02  0.25680000999E+02  0.41036551194E+02  0.00000000000E+00 0. -1.
</event>
<event>
 7    1  0.3757412E-015  0.9000779E+02  0.7816164E-02  0.1186339E+00
        -11   -1    0    0    0    0  0.00000000000E+00  0.00000000000E+00  0.45593999997E+02  0.45594000000E+02  0.51100000000E-03 0.  1.
         11   -1    0    0    0    0 -0.00000000000E+00 -0.00000000000E+00 -0.45593999997E+02  0.45594000000E+02  0.51100000000E-03 0. -1.
    9900012    2    1    2    0    0  0.11460873342E+01 -0.10831322877E+00 -0.26009362246E+00  0.90007789584E+02  0.90000051607E+02 0.  0.
        -12    1    1    2    0    0 -0.11460873342E+01  0.10831322877E+00  0.26009362246E+00  0.11802104158E+01  0.00000000000E+00 0.  1.
         11    1    3    3    0    0 -0.63599375146E+01 -0.50531554139E+01 -0.47942284187E+01  0.94322749758E+01  0.51100000000E-03 0. -1.
        -11    1    3    3    0    0 -0.34971848195E+02  0.37175070374E+01 -0.83943343060E+01  0.36156809503E+02  0.51100000000E-03 0.  1.
         12    1    3    3    0    0  0.42477873044E+02  0.12273351478E+01  0.12928469102E+02  0.44418705105E+02  0.00000000000E+00 0. -1.
</event>
<event>
 7    1  0.3757412E-015  0.9000772E+02  0.7816164E-02  0.1186339E+00
        -11   -1    0    0    0    0  0.00000000000E+00  0.00000000000E+00  0.45593999997E+02  0.45594000000E+02  0.51100000000E-03 0. -1.
         11   -1    0    0    0    0 -0.00000000000E+00 -0.00000000000E+00 -0.45593999997E+02  0.45594000000E+02  0.51100000000E-03 0.  1.
    9900012    2    1    2    0    0  0.18693357709E+00  0.11504165154E+01  0.18614609584E+00  0.90007723469E+02  0.89999984619E+02 0.  0.
        -12    1    1    2    0    0 -0.18693357709E+00 -0.11504165154E+01 -0.18614609584E+00  0.11802765313E+01  0.00000000000E+00 0.  1.
         11    1    3    3    0    0 -0.47444090197E+01 -0.24552633733E+01 -0.83511894488E+01  0.99136320614E+01  0.51100000000E-03 0. -1.
        -11    1    3    3    0    0 -0.31368560922E+02  0.19183321853E+02  0.15643462145E+02  0.39958783262E+02  0.51100000000E-03 0.  1.
         12    1    3    3    0    0  0.36299903519E+02 -0.15577641964E+02 -0.71061266008E+01  0.40135308145E+02  0.00000000000E+00 0. -1.
</event>
<event>
 7    1  0.5147832E-015  0.9000792E+02  0.7816164E-02  0.1186339E+00
        -11   -1    0    0    0    0  0.00000000000E+00  0.00000000000E+00  0.45593999997E+02  0.45594000000E+02  0.51100000000E-03 0. -1.
         11   -1    0    0    0    0 -0.00000000000E+00 -0.00000000000E+00 -0.45593999997E+02  0.45594000000E+02  0.51100000000E-03 0.  1.
    9900012    2    1    2    0    0 -0.17106962424E+00  0.80505912630E+00  0.84569242394E+00  0.90007923439E+02  0.90000187229E+02 0.  0.
        -12    1    1    2    0    0  0.17106962424E+00 -0.80505912630E+00 -0.84569242394E+00  0.11800765607E+01  0.00000000000E+00 0.  1.
         11    1    3    3    0    0 -0.36557886023E+02 -0.18807847325E+02  0.11632665987E+02  0.42726257380E+02  0.51100000000E-03 0. -1.
        -11    1    3    3    0    0  0.68081873819E+01 -0.35129250766E+01 -0.53496715494E+01  0.93440378835E+01  0.51100000000E-03 0.  1.
        -12    1    3    3    0    0  0.29578629017E+02  0.23125831528E+02 -0.54373020137E+01  0.37937628176E+02  0.00000000000E+00 0.  1.
</event>
<event>
 7    1  0.3757412E-015  0.9000773E+02  0.7816164E-02  0.1186339E+00
        -11   -1    0    0    0    0  0.00000000000E+00  0.00000000000E+00  0.45593999997E+02  0.45594000000E+02  0.51100000000E-03 0. -1.
         11   -1    0    0    0    0 -0.00000000000E+00 -0.00000000000E+00 -0.45593999997E+02  0.45594000000E+02  0.51100000000E-03 0.  1.
    9900012    2    1    2    0    0 -0.93370855033E+00 -0.58459616553E+00  0.42365577482E+00  0.90007725223E+02  0.89999986396E+02 0.  0.
        -12    1    1    2    0    0  0.93370855033E+00  0.58459616553E+00 -0.42365577482E+00  0.11802747770E+01  0.00000000000E+00 0.  1.
         11    1    3    3    0    0 -0.49646134668E+01  0.77510609725E+01 -0.31632989664E+01  0.97330772979E+01  0.51100000000E-03 0. -1.
        -11    1    3    3    0    0  0.31642113784E+02 -0.13039122687E+02 -0.23337579637E+02  0.41423238752E+02  0.51100000000E-03 0.  1.
         12    1    3    3    0    0 -0.27611208867E+02  0.47034655485E+01  0.26924534378E+02  0.38851409173E+02  0.00000000000E+00 0. -1.
</event>
<event>
 7    1  0.3757412E-015  0.9000781E+02  0.7816164E-02  0.1186339E+00
        -11   -1    0    0    0    0  0.00000000000E+00  0.00000000000E+00  0.45593999997E+02  0.45594000000E+02  0.51100000000E-03 0.  1.
         11   -1    0    0    0    0 -0.00000000000E+00 -0.00000000000E+00 -0.45593999997E+02  0.45594000000E+02  0.51100000000E-03 0. -1.
    9900012    2    1    2    0    0 -0.14837006734E+00  0.44070948815E+00 -0.10847174680E+01  0.90007809119E+02  0.90000071400E+02 0.  0.
        -12    1    1    2    0    0  0.14837006734E+00 -0.44070948815E+00  0.10847174680E+01  0.11801908808E+01  0.00000000000E+00 0.  1.
         11    1    3    3    0    0 -0.58972232394E+01  0.38628092397E+01 -0.13892123950E+01  0.71852939047E+01  0.51100000000E-03 0. -1.
        -11    1    3    3    0    0 -0.38320638089E+02  0.14902060153E+01 -0.21713419660E+01  0.38411023726E+02  0.51100000000E-03 0.  1.
         12    1    3    3    0    0  0.44069491261E+02 -0.49123057668E+01  0.24758368931E+01  0.44411491489E+02  0.00000000000E+00 0. -1.
</event>
<event>
 7    1  0.3757412E-015  0.9000774E+02  0.7816164E-02  0.1186339E+00
        -11   -1    0    0    0    0  0.00000000000E+00  0.00000000000E+00  0.45593999997E+02  0.45594000000E+02  0.51100000000E-03 0.  1.
         11   -1    0    0    0    0 -0.00000000000E+00 -0.00000000000E+00 -0.45593999997E+02  0.45594000000E+02  0.51100000000E-03 0. -1.
    9900012    2    1    2    0    0 -0.29769693677E+00 -0.94519990359E+00 -0.64108110866E+00  0.90007740998E+02  0.90000002379E+02 0.  0.
        -12    1    1    2    0    0  0.29769693677E+00  0.94519990359E+00  0.64108110866E+00  0.11802590020E+01  0.00000000000E+00 0.  1.
         11    1    3    3    0    0 -0.10213657841E+02  0.44963428609E+01  0.31418213131E+01  0.11593401012E+02  0.51100000000E-03 0. -1.
        -11    1    3    3    0    0 -0.11407021141E+01  0.33212038310E+02  0.11845531526E+02  0.35279701067E+02  0.51100000000E-03 0.  1.
         12    1    3    3    0    0  0.11056663018E+02 -0.38653581074E+02 -0.15628433948E+02  0.43134638918E+02  0.00000000000E+00 0. -1.
</event>
<event>
 7    1  0.3757412E-015  0.9000780E+02  0.7816164E-02  0.1186339E+00
        -11   -1    0    0    0    0  0.00000000000E+00  0.00000000000E+00  0.45593999997E+02  0.45594000000E+02  0.51100000000E-03 0.  1.
         11   -1    0    0    0    0 -0.00000000000E+00 -0.00000000000E+00 -0.45593999997E+02  0.45594000000E+02  0.51100000000E-03 0. -1.
    9900012    2    1    2    0    0  0.60728328902E+00 -0.60931609368E+00 -0.80797490504E+00  0.90007795551E+02  0.90000057652E+02 0.  0.
        -12    1    1    2    0    0 -0.60728328902E+00  0.60931609368E+00  0.80797490504E+00  0.11802044494E+01  0.00000000000E+00 0.  1.
         11    1    3    3    0    0 -0.35711037099E+02  0.18157772333E+01 -0.84231672384E+01  0.36735881155E+02  0.51100000000E-03 0. -1.
        -11    1    3    3    0    0 -0.66439974390E+01  0.25859493768E+01  0.70326966389E+01  0.10014422521E+02  0.51100000000E-03 0.  1.
        -12    1    3    3    0    0  0.42962317827E+02 -0.50110427037E+01  0.58249569440E+00  0.43257491875E+02  0.00000000000E+00 0.  1.
</event>
<event>
 7    1  0.3757412E-015  0.9000767E+02  0.7816164E-02  0.1186339E+00
        -11   -1    0    0    0    0  0.00000000000E+00  0.00000000000E+00  0.45593999997E+02  0.45594000000E+02  0.51100000000E-03 0.  1.
         11   -1    0    0    0    0 -0.00000000000E+00 -0.00000000000E+00 -0.45593999997E+02  0.45594000000E+02  0.51100000000E-03 0. -1.
    9900012    2    1    2    0    0 -0.42978036035E+00  0.10283681973E+01 -0.38850309225E+00  0.90007666589E+02  0.89999926988E+02 0.  0.
        -12    1    1    2    0    0  0.42978036035E+00 -0.10283681973E+01  0.38850309225E+00  0.11803334106E+01  0.00000000000E+00 0.  1.
         11    1    3    3    0    0 -0.22439422938E+02 -0.52446834248E+01 -0.13318210977E+02  0.26615956679E+02  0.51100000000E-03 0. -1.
        -11    1    3    3    0    0 -0.12536283954E+02  0.79513400221E+01  0.22994618947E+02  0.27370325615E+02  0.51100000000E-03 0.  1.
         12    1    3    3    0    0  0.34545926531E+02 -0.16782884000E+01 -0.10064911062E+02  0.36021384295E+02  0.00000000000E+00 0. -1.
</event>
<event>
 7    1  0.3757412E-015  0.9000777E+02  0.7816164E-02  0.1186339E+00
        -11   -1    0    0    0    0  0.00000000000E+00  0.00000000000E+00  0.45593999997E+02  0.45594000000E+02  0.51100000000E-03 0.  1.
         11   -1    0    0    0    0 -0.00000000000E+00 -0.00000000000E+00 -0.45593999997E+02  0.45594000000E+02  0.51100000000E-03 0. -1.
    9900012    2    1    2    0    0 -0.22902670947E+00 -0.45102427160E+00 -0.10663320115E+01  0.90007771172E+02  0.90000032952E+02 0.  0.
        -12    1    1    2    0    0  0.22902670947E+00  0.45102427160E+00  0.10663320115E+01  0.11802288278E+01  0.00000000000E+00 0.  1.
         11    1    3    3    0    0  0.38887526546E+01  0.63616799634E+01  0.70833656357E+01  0.10284329738E+02  0.51100000000E-03 0. -1.
        -11    1    3    3    0    0 -0.21992028272E+02  0.24675083134E+02  0.15468852739E+02  0.36493758926E+02  0.51100000000E-03 0.  1.
         12    1    3    3    0    0  0.17874248908E+02 -0.31487787369E+02 -0.23618550387E+02  0.43229682509E+02  0.00000000000E+00 0. -1.
</event>
<event>
 7    1  0.3757412E-015  0.9000766E+02  0.7816164E-02  0.1186339E+00
        -11   -1    0    0    0    0  0.00000000000E+00  0.00000000000E+00  0.45593999997E+02  0.45594000000E+02  0.51100000000E-03 0.  1.
         11   -1    0    0    0    0 -0.00000000000E+00 -0.00000000000E+00 -0.45593999997E+02  0.45594000000E+02  0.51100000000E-03 0. -1.
    9900012    2    1    2    0    0  0.40912783906E+00 -0.15884539431E+00 -0.10957170082E+01  0.90007655470E+02  0.89999915722E+02 0.  0.
        -12    1    1    2    0    0 -0.40912783906E+00  0.15884539431E+00  0.10957170082E+01  0.11803445303E+01  0.00000000000E+00 0.  1.
         11    1    3    3    0    0 -0.41726356393E+02  0.57218832763E+01 -0.99163631270E+01  0.43268499211E+02  0.51100000000E-03 0. -1.
        -11    1    3    3    0    0  0.13899330426E+02  0.11836208026E+01 -0.45988217909E+01  0.14688141701E+02  0.51100000000E-03 0.  1.
        -12    1    3    3    0    0  0.28236153806E+02 -0.70643494732E+01  0.13419467910E+02  0.32051014558E+02  0.00000000000E+00 0.  1.
</event>
